Membrane in water
40155
    1TCq1    O1    1   1.671   1.462  11.124 -0.4508 -0.0626  0.3140
    1TCq1    C1    2   1.693   1.381  11.227  0.0535 -0.8102 -0.0207
    1TCq1    O2    3   1.775   1.395  11.320  0.1753 -0.4094  0.0001
    1TCq1    C2    4   1.620   1.259  11.201  0.4174  0.3764  0.3237
    1TCq1    C3    5   1.503   1.253  11.137  1.0166  0.6759  0.3277
    1TCq1    C4    6   1.428   1.147  11.166 -0.5260 -0.6002  0.6010
    1TCq1    C5    7   1.471   1.041  11.246 -0.6529  0.1500 -0.8426
    1TCq1    C6    8   1.592   1.052  11.304 -0.6372 -0.5730 -0.2774
    1TCq1    C7    9   1.673   1.160  11.277 -0.8042 -0.5855  0.2033
    1TCq1    C8   10   1.635   0.960  11.408  0.3174  0.2320 -0.1444
    1TCq1    O4   11   1.684   1.016  11.510 -0.1285 -0.3958 -0.2119
    1TCq1    C9   12   1.289   1.149  11.132 -0.4282  0.2687  0.2500
    1TCq1    O5   13   1.215   1.074  11.198 -0.4642  0.1980  0.0628
    1TCq1    O6   14   1.238   1.247  11.079 -0.1236  0.0314  0.1654
    1TCq1    H1   15   1.637   1.412  11.047 -3.2401  1.3872  0.6184
    1TCq1    H2   16   1.464   1.339  11.083  2.2374  0.6453 -0.5911
    1TCq1    H3   17   1.404   0.966  11.287 -0.9204  1.1888  0.6085
    1TCq1    H4   18   1.768   1.161  11.329 -1.0720  2.1467  0.6268
    2MPD2     C   19   1.676   0.492  11.620 -0.0329 -0.8395 -0.0289
    2MPD2    C1   20   1.701   0.619  11.663 -0.0847 -0.3976  0.0971
    2MPD2    C2   21   1.675   0.731  11.588  0.4748  0.1064  0.4693
    2MPD2    C3   22   1.638   0.721  11.460  0.8640 -0.3963  0.1212
    2MPD2    C4   23   1.640   0.593  11.403  0.3309  0.4838  0.4701
    2MPD2    C5   24   1.658   0.479  11.485  0.7623 -0.0784 -0.4897
    2MPD2     H   25   1.685   0.831  11.627  1.6455 -0.1913  0.9546
    2MPD2    H1   26   1.627   0.586  11.296 -1.3394  2.0279  0.5676
    2MPD2    H2   27   1.690   0.406  11.683 -0.5812 -2.2359 -1.8275
    2MPD2    H3   28   1.653   0.381  11.437 -1.1128  0.9489 -2.4061
    2MPD2     N   29   1.613   0.831  11.373  0.2262  0.8451 -0.2865
    2MPD2    H5   30   1.573   0.813  11.282 -1.3365 -0.1584  0.6070
    2MPD2    N1   31   1.717   0.649  11.799  0.2479  0.1577  0.2321
    2MPD2    H7   32   1.700   0.746  11.825  0.1598  0.7254 -1.9341
    3TCq1    O1   33   1.751   2.043  10.175 -0.6790  0.1625  0.3015
    3TCq1    C1   34   1.748   2.135  10.272  0.1195 -0.1913 -0.0814
    3TCq1    O2   35   1.840   2.187  10.332  0.1761  0.0745 -0.1098
    3TCq1    C2   36   1.635   2.223  10.243 -1.1440  0.3962  0.5144
    3TCq1    C3   37   1.660   2.360  10.235 -0.2365 -0.6758  0.0892
    3TCq1    C4   38   1.557   2.439  10.197 -0.3251  0.0472 -0.1599
    3TCq1    C5   39   1.426   2.391  10.195 -0.2267 -0.3296 -0.5897
    3TCq1    C6   40   1.406   2.262  10.225 -0.7396  0.5387 -1.3028
    3TCq1    C7   41   1.507   2.172  10.236 -0.3601 -0.4302  0.6225
    3TCq1    C8   42   1.274   2.219  10.272 -1.0444 -0.0690 -0.1013
    3TCq1    O4   43   1.252   2.101  10.288 -0.6585 -0.1103  0.1628
    3TCq1    C9   44   1.589   2.580  10.168 -0.0242  0.1872  0.1744
    3TCq1    O5   45   1.712   2.604  10.169 -0.4626 -0.2973 -0.3421
    3TCq1    O6   46   1.501   2.668  10.144  0.7661 -0.1000  0.1931
    3TCq1    H1   47   1.667   2.018  10.130 -0.1334 -0.6094 -0.2920
    3TCq1    H2   48   1.759   2.404  10.248 -0.7050 -0.0796  1.6025
    3TCq1    H3   49   1.345   2.460  10.175 -0.4674 -0.3105  0.4630
    3TCq1    H4   50   1.478   2.069  10.255  0.7722 -1.2080 -1.8227
    4MPD2     C   51   0.815   2.326  10.479  0.1783 -0.7889  0.1713
    4MPD2    C1   52   0.894   2.435  10.499 -0.4628  0.4183  0.5696
    4MPD2    C2   53   1.023   2.432  10.447 -0.0853 -0.6079 -0.1929
    4MPD2    C3   54   1.075   2.312  10.392  0.5259 -0.1415  0.1709
    4MPD2    C4   55   0.993   2.201  10.374 -0.3072  0.1514  0.3629
    4MPD2    C5   56   0.867   2.212  10.426 -0.1635  0.4198  0.4229
    4MPD2     H   57   1.085   2.520  10.460 -1.2123  0.0206  0.9673
    4MPD2    H1   58   1.022   2.116  10.314  0.5018  0.8827 -0.2911
    4MPD2    H2   59   0.714   2.325  10.517 -0.3222 -0.4844 -1.1378
    4MPD2    H3   60   0.812   2.121  10.407 -1.0888  1.1555 -0.3699
    4MPD2     N   61   1.199   2.319  10.333 -0.0146 -0.2452  0.0975
    4MPD2    H5   62   1.226   2.417  10.323 -2.3499  0.4559  0.6140
    4MPD2    N1   63   0.844   2.554  10.551 -0.0264  0.6315  0.2152
    4MPD2    H7   64   0.909   2.632  10.558 -1.2306  1.6736 -0.3074
    5TCq1    O1   65   1.852   4.152  12.006  0.3980  0.7539  0.6880
    5TCq1    C1   66   1.770   4.044  11.968 -0.1515  0.0597 -0.2268
    5TCq1    O2   67   1.807   3.929  11.974 -0.0348  0.0941  0.0331
    5TCq1    C2   68   1.673   4.092  11.874 -0.2853 -0.7594 -0.3874
    5TCq1    C3   69   1.631   4.221  11.874 -0.0887 -0.6721  0.0125
    5TCq1    C4   70   1.564   4.276  11.768  0.6688 -0.2441 -0.0136
    5TCq1    C5   71   1.531   4.205  11.659 -0.1204  0.2598 -0.3794
    5TCq1    C6   72   1.573   4.077  11.661 -0.1911 -0.3188 -0.5155
    5TCq1    C7   73   1.643   4.019  11.762 -0.3510 -0.8422  0.0370
    5TCq1    C8   74   1.522   3.987  11.557  0.1983  0.3753  0.6977
    5TCq1    O4   75   1.589   3.885  11.536 -0.5717  0.2565 -0.1602
    5TCq1    C9   76   1.510   4.415  11.767 -0.3644 -0.0347  0.2646
    5TCq1    O5   77   1.428   4.454  11.680  0.6621 -0.3470 -0.1718
    5TCq1    O6   78   1.580   4.495  11.838  0.3964 -0.6482  0.4281
    5TCq1    H1   79   1.818   4.240  11.979 -0.1835  0.2059 -0.4115
    5TCq1    H2   80   1.637   4.287  11.960 -2.3462 -0.0458 -0.3218
    5TCq1    H3   81   1.464   4.247  11.584  0.3595 -1.3089 -1.7019
    5TCq1    H4   82   1.678   3.916  11.761  0.6407 -0.4752 -3.4386
    6MPD2     C   83   1.182   3.992  11.410 -0.1594  0.2246 -0.1684
    6MPD2    C1   84   1.325   3.966  11.418 -0.0670 -0.2788 -0.8947
    6MPD2    C2   85   1.371   3.878  11.330  0.4089  0.2883 -0.4258
    6MPD2    C3   86   1.290   3.826  11.234  0.4091 -0.1072 -0.7834
    6MPD2    C4   87   1.160   3.847  11.230  0.7979 -0.4419 -0.9008
    6MPD2    C5   88   1.101   3.932  11.318  0.2725  0.8841  0.2151
    6MPD2     H   89   1.479   3.863  11.330  0.6157  1.8279  1.8315
    6MPD2    H1   90   1.105   3.815  11.141 -1.1209 -1.7314  0.7286
    6MPD2    H2   91   1.138   4.066  11.476  3.7653  2.2152  0.2320
    6MPD2    H3   92   1.001   3.969  11.302  0.3659 -0.1758 -2.9048
    6MPD2     N   93   1.359   3.746  11.139 -0.2329 -0.0384 -0.6840
    6MPD2    H5   94   1.460   3.740  11.141 -0.3428 -2.1708 -2.0378
    6MPD2    N1   95   1.396   4.025  11.523  0.3511  0.1281  1.1427
    6MPD2    H7   96   1.350   4.094  11.581 -0.7811  1.1611 -0.9717
    7TCq1    O1   97   3.323   3.644  13.624  0.3887 -0.6199  0.5312
    7TCq1    C1   98   3.236   3.584  13.539  0.4007 -0.5112 -0.0960
    7TCq1    O2   99   3.115   3.602  13.540 -0.4053 -0.0539 -0.1815
    7TCq1    C2  100   3.298   3.549  13.417  0.0188 -0.0934  0.0202
    7TCq1    C3  101   3.216   3.550  13.308 -0.0024  0.6565 -0.2668
    7TCq1    C4  102   3.290   3.525  13.193 -0.2797 -0.5063 -0.1104
    7TCq1    C5  103   3.424   3.490  13.179 -0.2222 -0.4921 -0.0995
    7TCq1    C6  104   3.493   3.487  13.294  0.6063 -0.2145  1.3062
    7TCq1    C7  105   3.436   3.521  13.413 -0.0921  0.0077  0.1401
    7TCq1    C8  106   3.630   3.449  13.282 -0.3653  0.6823  0.0731
    7TCq1    O4  107   3.664   3.379  13.188  0.3815 -0.5658  0.2344
    7TCq1    C9  108   3.214   3.535  13.068  0.0106 -0.7488 -0.0517
    7TCq1    O5  109   3.268   3.504  12.962 -0.3334  0.1729 -0.5285
    7TCq1    O6  110   3.090   3.546  13.074  0.2629 -0.5592 -0.0256
    7TCq1    H1  111   3.406   3.654  13.572 -1.2326  1.5459 -1.6914
    7TCq1    H2  112   3.117   3.592  13.308  0.0659  0.8157 -0.1698
    7TCq1    H3  113   3.470   3.473  13.082 -0.8189 -0.9825 -0.2945
    7TCq1    H4  114   3.502   3.501  13.497  0.9356 -2.7389 -1.3165
    8MPD2     C  115   4.126   3.472  13.421  0.3630 -0.6988  0.0045
    8MPD2    C1  116   4.052   3.362  13.378  0.9759 -0.3660 -0.2282
    8MPD2    C2  117   3.919   3.384  13.348 -0.0744  0.7342  0.5016
    8MPD2    C3  118   3.855   3.500  13.379  0.3937  0.4716  0.1188
    8MPD2    C4  119   3.930   3.602  13.442  0.9872 -0.1428 -0.1943
    8MPD2    C5  120   4.063   3.594  13.443 -0.6699  0.3570 -1.0091
    8MPD2     H  121   3.850   3.301  13.339 -0.4704  1.2646 -1.3762
    8MPD2    H1  122   3.876   3.692  13.469 -1.0339 -0.8627 -1.8487
    8MPD2    H2  123   4.231   3.461  13.445  0.7605  0.1416 -1.3574
    8MPD2    H3  124   4.124   3.675  13.481 -0.0194 -1.2408  1.3260
    8MPD2     N  125   3.710   3.516  13.374 -0.3073 -0.0536 -0.3237
    8MPD2    H5  126   3.668   3.595  13.422 -1.3762  0.5213 -2.2264
    8MPD2    N1  127   4.103   3.232  13.385 -0.3320  0.6078  0.1227
    8MPD2    H7  128   4.196   3.231  13.425 -0.0130  0.1955 -0.6286
    9TCq1    O1  129   1.064   1.864  10.289 -0.3193  0.1081 -0.6200
    9TCq1    C1  130   1.098   1.743  10.329 -0.0241  1.0687  0.0029
    9TCq1    O2  131   1.031   1.663  10.391 -0.1217  0.1873 -0.7871
    9TCq1    C2  132   1.243   1.746  10.319  0.4415  0.9235 -0.2381
    9TCq1    C3  133   1.284   1.784  10.195 -0.5780 -0.3268 -0.5254
    9TCq1    C4  134   1.414   1.809  10.171  0.1749  0.2937  0.5832
    9TCq1    C5  135   1.503   1.807  10.278 -0.1683 -0.3652  0.3960
    9TCq1    C6  136   1.455   1.771  10.404 -0.3507  0.0408 -0.3666
    9TCq1    C7  137   1.326   1.739  10.427  0.7687 -0.3297 -0.6873
    9TCq1    C8  138   1.529   1.818  10.519 -1.1664  0.2360 -0.4315
    9TCq1    O4  139   1.608   1.908  10.487  0.5956  0.2354  0.5636
    9TCq1    C9  140   1.457   1.859  10.041  0.1520  0.2684  0.5129
    9TCq1    O5  141   1.384   1.840   9.941 -0.5082  0.6062  0.4802
    9TCq1    O6  142   1.556   1.937  10.046  0.3634  0.3633  0.0843
    9TCq1    H1  143   1.138   1.918  10.254  0.8150  0.0260  1.6138
    9TCq1    H2  144   1.210   1.786  10.116  0.1571  1.2398 -1.1570
    9TCq1    H3  145   1.603   1.845  10.264 -0.9534  1.9433  1.0636
    9TCq1    H4  146   1.277   1.719  10.522  0.7114 -0.7323 -0.8004
   10MPD2     C  147   1.592   1.938  10.776  0.2510  0.3349  0.3770
   10MPD2    C1  148   1.525   1.822  10.768  0.3231 -0.3809  0.0677
   10MPD2    C2  149   1.475   1.763  10.887 -0.8210 -0.5326  0.1857
   10MPD2    C3  150   1.487   1.835  11.003 -0.3966  0.4849  0.1297
   10MPD2    C4  151   1.565   1.948  11.010  0.0089  0.0266 -0.0397
   10MPD2    C5  152   1.626   1.987  10.892  0.0828 -0.3188  0.5550
   10MPD2     H  153   1.406   1.680  10.872  0.0522 -1.1781 -0.2358
   10MPD2    H1  154   1.572   1.998  11.106  0.7882 -2.5604  1.2412
   10MPD2    H2  155   1.630   1.998  10.694 -3.9049 -0.0590 -1.8688
   10MPD2    H3  156   1.680   2.081  10.900 -2.6482  1.5205 -2.2575
   10MPD2     N  157   1.449   1.781  11.128 -0.1485 -0.2199  0.0784
   10MPD2    H5  158   1.465   1.848  11.202  0.6914  0.7620 -0.9823
   10MPD2    N1  159   1.487   1.769  10.639  0.7355  0.0163  0.1272
   10MPD2    H7  160   1.418   1.694  10.641  3.0121 -2.0912  0.1655
   11TCq1    O1  161   2.312   2.630  14.983 -0.0088  0.3090 -0.1910
   11TCq1    C1  162   2.263   2.511  14.929 -0.1663  0.2746 -0.1924
   11TCq1    O2  163   2.168   2.452  14.979 -0.4727  0.1842  0.0894
   11TCq1    C2  164   2.278   2.507  14.784 -0.6527  0.2518 -0.3150
   11TCq1    C3  165   2.401   2.533  14.730 -0.3116 -0.1296  0.2034
   11TCq1    C4  166   2.414   2.516  14.593  0.2468  0.1980 -0.0040
   11TCq1    C5  167   2.315   2.454  14.517  0.5688 -0.4270  0.0218
   11TCq1    C6  168   2.202   2.420  14.579  0.6212  0.7476 -0.6061
   11TCq1    C7  169   2.175   2.449  14.710  0.3030 -0.6476  0.4736
   11TCq1    C8  170   2.089   2.401  14.494  0.6321  0.2060  0.2694
   11TCq1    O4  171   1.985   2.467  14.495  0.3274  0.0794  0.1973
   11TCq1    C9  172   2.550   2.521  14.526  0.0776  0.2429  0.4703
   11TCq1    O5  173   2.568   2.437  14.433 -0.7394 -1.1926 -0.1892
   11TCq1    O6  174   2.650   2.563  14.594 -0.8662  0.3772 -0.5093
   11TCq1    H1  175   2.387   2.660  14.928  0.0178 -1.7642 -1.2920
   11TCq1    H2  176   2.482   2.566  14.794 -1.5271 -0.9044  2.1464
   11TCq1    H3  177   2.333   2.433  14.412 -1.2429 -0.5414 -0.2704
   11TCq1    H4  178   2.084   2.419  14.760 -0.4923  0.0731 -0.5332
   12MPD2     C  179   1.943   2.317  14.256 -0.6970  0.1180  0.3971
   12MPD2    C1  180   2.033   2.238  14.322  0.3451  0.4133  0.4447
   12MPD2    C2  181   2.051   2.110  14.279  1.1095  0.0524 -0.0123
   12MPD2    C3  182   1.980   2.063  14.169  0.0484  0.4088  0.6950
   12MPD2    C4  183   1.885   2.139  14.111  0.0195  0.6786 -0.4254
   12MPD2    C5  184   1.869   2.271  14.152  0.5396  0.3608 -0.7312
   12MPD2     H  185   2.126   2.044  14.322 -0.2448 -1.1504  0.4935
   12MPD2    H1  186   1.842   2.107  14.017 -1.4266 -1.6021  0.9964
   12MPD2    H2  187   1.920   2.420  14.281  1.2025  0.7399 -0.3711
   12MPD2    H3  188   1.796   2.339  14.110 -0.4217 -0.4121 -0.2994
   12MPD2     N  189   1.987   1.928  14.114 -0.6581 -0.3891  0.0912
   12MPD2    H5  190   1.915   1.906  14.046 -0.9353 -0.0227  0.2661
   12MPD2    N1  191   2.115   2.283  14.424 -0.2722  0.1592  0.0871
   12MPD2    H7  192   2.198   2.232  14.451 -0.5381 -0.7051 -0.7211
   13TCq1    O1  193   1.940   1.003  11.045  0.5397 -0.2421 -0.6229
   13TCq1    C1  194   1.912   0.931  10.933 -0.0490  0.4075 -0.2957
   13TCq1    O2  195   1.875   0.816  10.926  0.1073 -0.3080  0.2689
   13TCq1    C2  196   1.890   1.032  10.829 -0.1372 -0.2689  0.6436
   13TCq1    C3  197   1.962   1.038  10.709 -0.4337 -0.2781  0.2057
   13TCq1    C4  198   1.941   1.137  10.623  0.0758 -0.0639  0.3701
   13TCq1    C5  199   1.846   1.236  10.646  1.1664  0.2450  0.3974
   13TCq1    C6  200   1.783   1.230  10.767 -0.0519 -0.3940 -0.1542
   13TCq1    C7  201   1.808   1.136  10.859 -0.4398 -0.3434  0.2029
   13TCq1    C8  202   1.658   1.295  10.783  0.0587 -0.0751  0.2461
   13TCq1    O4  203   1.639   1.336  10.894  0.4783  0.3696  0.0768
   13TCq1    C9  204   2.007   1.136  10.500  0.2117  0.5136  0.6292
   13TCq1    O5  205   2.035   1.253  10.461 -0.2897 -0.3703 -0.1023
   13TCq1    O6  206   2.053   1.026  10.457 -0.6210 -0.2970  0.1372
   13TCq1    H1  207   1.952   1.099  11.028  0.3681 -0.2985 -1.0602
   13TCq1    H2  208   2.020   0.950  10.687 -2.5194 -2.1012  1.9228
   13TCq1    H3  209   1.808   1.304  10.570  1.7171 -0.5454 -0.5842
   13TCq1    H4  210   1.746   1.133  10.949  2.7407  0.4600  2.4046
   14MPD2     C  211   1.406   1.363  10.524  0.1840  0.6538  0.7153
   14MPD2    C1  212   1.450   1.355  10.657  0.2915 -0.2529  0.0087
   14MPD2    C2  213   1.374   1.409  10.759 -0.1641 -0.4336 -0.4418
   14MPD2    C3  214   1.258   1.481  10.734  1.1395  0.2255  0.6352
   14MPD2    C4  215   1.209   1.475  10.606 -0.5523  0.0158 -0.0724
   14MPD2    C5  216   1.290   1.429  10.500  0.7567 -0.0829  0.6361
   14MPD2     H  217   1.403   1.395  10.862 -2.7477  1.9560  0.6272
   14MPD2    H1  218   1.113   1.506  10.568  0.1811  1.8849 -0.4240
   14MPD2    H2  219   1.456   1.312  10.443 -0.5626 -0.0798  0.7162
   14MPD2    H3  220   1.245   1.433  10.401  1.3901  1.1350  0.3981
   14MPD2     N  221   1.187   1.542  10.840  0.2932 -0.4842 -0.0034
   14MPD2    H5  222   1.225   1.538  10.934  0.4290  0.4826 -0.0196
   14MPD2    N1  223   1.574   1.288  10.673  0.1416 -0.7759 -0.1582
   14MPD2    H7  224   1.607   1.247  10.586 -0.0357  0.4727 -0.8232
   15TCq1    O1  225   2.406   1.378   1.086 -0.2909  0.2766 -0.4777
   15TCq1    C1  226   2.408   1.350   1.214  0.2618 -0.1104  0.2752
   15TCq1    O2  227   2.312   1.366   1.292  0.0561 -0.3492  0.1092
   15TCq1    C2  228   2.544   1.349   1.267 -0.6793 -0.0915  0.1449
   15TCq1    C3  229   2.540   1.372   1.408 -0.7842 -0.2427  0.1941
   15TCq1    C4  230   2.641   1.315   1.483 -0.8195 -0.8759  0.2497
   15TCq1    C5  231   2.730   1.230   1.427  0.2236  0.0245 -0.1047
   15TCq1    C6  232   2.723   1.203   1.289  0.0028 -0.1446 -0.3452
   15TCq1    C7  233   2.632   1.259   1.210 -0.0945  0.4621  0.7522
   15TCq1    C8  234   2.822   1.110   1.237 -0.5871  0.1922  0.2450
   15TCq1    O4  235   2.922   1.099   1.307  0.1362  0.4653  0.4398
   15TCq1    C9  236   2.655   1.351   1.624 -0.0561 -0.2129  0.0704
   15TCq1    O5  237   2.766   1.322   1.673  0.4070 -0.4166 -0.7359
   15TCq1    O6  238   2.576   1.439   1.677 -0.0074 -0.1399  0.1434
   15TCq1    H1  239   2.492   1.383   1.038 -1.3119 -0.3142 -2.3400
   15TCq1    H2  240   2.472   1.446   1.447  0.1047 -1.3900  3.8949
   15TCq1    H3  241   2.807   1.177   1.481  1.0757  0.9305 -0.4262
   15TCq1    H4  242   2.630   1.240   1.104  0.9501 -1.6904  1.1270
   16MPD2     C  243   2.813   0.904   0.935  0.2222 -0.7037 -1.0005
   16MPD2    C1  244   2.866   0.963   1.048 -0.7370  0.5047  0.1653
   16MPD2    C2  245   2.989   0.913   1.080 -0.0437 -0.6596  0.1318
   16MPD2    C3  246   3.061   0.830   1.002 -0.4103 -0.0290  0.0465
   16MPD2    C4  247   3.010   0.776   0.890  0.2166  0.3104 -1.2043
   16MPD2    C5  248   2.878   0.806   0.863 -0.3896  0.2005 -0.8107
   16MPD2     H  249   3.040   0.943   1.171  0.6184 -1.1590 -0.0759
   16MPD2    H1  250   3.060   0.710   0.820  2.9738 -0.1462  1.1936
   16MPD2    H2  251   2.716   0.933   0.896  0.2594  0.8708  0.0780
   16MPD2    H3  252   2.829   0.766   0.775 -0.1120 -0.7950 -0.5158
   16MPD2     N  253   3.193   0.811   1.039 -0.3848  0.3356  0.9439
   16MPD2    H5  254   3.229   0.860   1.120  0.0708  1.5160  0.0288
   16MPD2    N1  255   2.786   1.059   1.116  0.6200  0.5302  0.1300
   16MPD2    H7  256   2.699   1.072   1.067  1.4659  1.3884 -1.1584
   17TCq1    O1  257   0.986   1.276  11.034 -0.1717  0.4403  0.0379
   17TCq1    C1  258   0.909   1.279  10.921 -0.0237 -1.2131 -0.3992
   17TCq1    O2  259   0.810   1.354  10.914 -0.1105 -0.2289 -0.0049
   17TCq1    C2  260   0.990   1.231  10.810  0.1470 -0.3441 -0.4683
   17TCq1    C3  261   0.958   1.283  10.689 -0.5357 -0.0409  0.0799
   17TCq1    C4  262   0.998   1.216  10.576  0.0912 -0.2145 -0.5803
   17TCq1    C5  263   1.084   1.110  10.585  0.2121  0.2777  0.0522
   17TCq1    C6  264   1.120   1.060  10.713  0.0393 -0.4518 -0.5108
   17TCq1    C7  265   1.066   1.115  10.826  0.0680  0.0059  0.4883
   17TCq1    C8  266   1.238   0.984  10.724 -0.6039  0.3674 -0.4873
   17TCq1    O4  267   1.252   0.908  10.820 -0.0722  0.3961 -0.3402
   17TCq1    C9  268   0.967   1.259  10.444 -0.3875  0.5236 -1.0388
   17TCq1    O5  269   1.047   1.220  10.354 -0.3889  0.0653 -0.1067
   17TCq1    O6  270   0.880   1.350  10.436 -0.5365 -0.3227 -0.2209
   17TCq1    H1  271   1.082   1.255  11.032 -0.1770  0.4081  0.1378
   17TCq1    H2  272   0.884   1.362  10.689  1.9448  2.3694 -4.3175
   17TCq1    H3  273   1.124   1.061  10.497 -0.2940  0.2493 -0.1595
   17TCq1    H4  274   1.088   1.061  10.917  1.6184  0.1505  0.2082
   18MPD2     C  275   1.504   0.863  10.683  0.0952  0.0249 -0.2079
   18MPD2    C1  276   1.452   0.965  10.606 -0.1779 -0.2524  0.8045
   18MPD2    C2  277   1.535   1.018  10.508  0.7380 -0.0476  0.5266
   18MPD2    C3  278   1.666   0.970  10.484 -0.0764  0.5296  0.7579
   18MPD2    C4  279   1.714   0.869  10.556  0.2105 -0.6636 -0.2115
   18MPD2    C5  280   1.633   0.818  10.659 -0.1408  0.2482  0.0995
   18MPD2     H  281   1.485   1.090  10.443 -0.0037 -0.5931  0.4862
   18MPD2    H1  282   1.813   0.832  10.534  0.4813  0.9045 -1.5763
   18MPD2    H2  283   1.440   0.811  10.754 -0.3543 -1.1455 -1.4563
   18MPD2    H3  284   1.680   0.740  10.719 -2.0301 -0.8084  0.2030
   18MPD2     N  285   1.746   1.013  10.373 -0.4178 -0.6405 -0.2555
   18MPD2    H5  286   1.835   0.965  10.361 -0.6062 -1.1991  0.5630
   18MPD2    N1  287   1.324   1.017  10.622 -0.4225 -0.5586  0.6547
   18MPD2    H7  288   1.292   1.091  10.561  1.4075  0.5788  1.0724
   19TMC2    C1  289   3.556   2.027  13.687 -0.5723 -0.0117  0.7381
   19TMC2    C2  290   3.488   2.131  13.628 -0.5344 -0.8138 -0.6143
   19TMC2    C3  291   3.355   2.131  13.612 -0.4833  0.0207  0.8390
   19TMC2    C4  292   3.476   1.937  13.763 -0.8362  0.8090  1.1037
   19TMC2    C5  293   3.341   1.945  13.762  0.4882 -0.2450 -0.7414
   19TMC2    C6  294   3.280   2.037  13.683 -0.0093  0.1246 -0.3929
   19TMC2     C  295   3.697   2.062  13.736 -0.0589  0.4220  0.0450
   19TMC2     O  296   3.740   2.175  13.713  0.1800 -0.1377  0.3344
   19TMC2     H  297   3.543   2.214  13.583  0.7371 -1.1765  0.2737
   19TMC2    H1  298   3.517   1.861  13.828  1.8543  0.8798 -0.5072
   19TMC2    H2  299   3.173   2.054  13.684 -0.0539 -0.3193  1.2648
   19TMC2    C7  300   3.263   1.854  13.844 -0.1088 -0.1001 -1.0821
   19TMC2    C8  301   3.295   2.220  13.518 -0.1942 -0.3418  0.0570
   19TMC2    O1  302   3.323   1.751  13.887  0.2773 -0.1836 -0.6787
   19TMC2    O2  303   3.341   2.262  13.411  0.5776 -0.2081 -0.3600
   19TMC2    O5  304   3.191   2.276  13.576 -0.0326 -0.0140 -0.2808
   19TMC2    H5  305   3.163   2.245  13.665  0.5492 -1.5002 -0.6181
   20MPD2     C  306   3.903   2.114  13.951  0.2353 -0.2574  0.1079
   20MPD2    C1  307   3.834   1.997  13.941  0.2383  0.0852 -0.2303
   20MPD2    C2  308   3.846   1.905  14.045  0.1079  0.4713  0.2917
   20MPD2    C3  309   3.931   1.930  14.157  0.1730 -0.7986  0.9298
   20MPD2    C4  310   4.020   2.035  14.151 -0.0057  0.6859 -0.7026
   20MPD2    C5  311   3.999   2.130  14.052 -1.0255  0.0952 -0.4643
   20MPD2     H  312   3.783   1.816  14.045  1.4874 -0.5148 -0.9846
   20MPD2    H1  313   4.101   2.039  14.223 -1.7345  2.0825  1.1344
   20MPD2    H2  314   3.893   2.192  13.876  0.0995 -2.2951 -1.9641
   20MPD2    H3  315   4.054   2.224  14.050 -2.0434  0.6725 -1.7843
   20MPD2     N  316   3.936   1.852  14.275 -0.6637  0.0298  0.2631
   20MPD2    H5  317   4.017   1.873  14.334 -0.5491 -0.5429  0.3107
   20MPD2    N1  318   3.740   1.971  13.835 -0.3303 -0.2231 -0.3722
   20MPD2    H7  319   3.704   1.877  13.840 -3.9409  1.1016 -1.2028
   21MPD2     C  320   1.088   2.477  14.097  0.3958 -0.2319  1.1120
   21MPD2    C1  321   1.098   2.356  14.169  0.6424  1.0309 -0.4105
   21MPD2    C2  322   1.000   2.321  14.258 -0.4483 -0.2921 -0.0134
   21MPD2    C3  323   0.903   2.413  14.296  0.1351 -0.1183  0.3659
   21MPD2    C4  324   0.898   2.529  14.225 -0.1132 -0.4971 -0.0417
   21MPD2    C5  325   0.986   2.566  14.124 -0.5432 -0.1318 -0.0608
   21MPD2     H  326   1.001   2.228  14.314  0.7318 -1.3615 -1.8382
   21MPD2    H1  327   0.823   2.596  14.266 -0.6251 -0.1267 -1.5569
   21MPD2    H2  328   1.159   2.494  14.017 -0.0419 -2.4870  0.2500
   21MPD2    H3  329   0.989   2.662  14.073  0.8178  1.1929  2.4895
   21MPD2     N  330   0.799   2.401  14.392 -0.7393  0.6145  0.7315
   21MPD2    H5  331   0.737   2.478  14.413  0.6720  1.6637  0.9955
   21MPD2    N1  332   1.208   2.274  14.142 -0.0038 -0.1021 -0.3391
   21MPD2    H7  333   1.281   2.312  14.082 -0.6692 -0.3831 -1.3330
   22TCq2    C1  334   0.785   2.297  14.480 -0.1609 -0.2184 -0.3324
   22TCq2    O2  335   0.865   2.206  14.499 -0.2333  1.0441 -0.3992
   22TCq2    C2  336   0.673   2.307  14.572 -0.7200 -0.2714 -0.6855
   22TCq2    C3  337   0.692   2.244  14.694 -0.2261 -0.0087 -0.2015
   22TCq2    C4  338   0.635   2.304  14.799  0.5195 -0.1799 -0.2320
   22TCq2    C5  339   0.566   2.421  14.792  0.0181 -0.3297 -0.1409
   22TCq2    C6  340   0.534   2.475  14.668 -0.6027 -0.0775  0.5311
   22TCq2    C7  341   0.592   2.417  14.560  0.0963 -0.1602  0.5795
   22TCq2    C8  342   0.495   2.614  14.658 -0.0712 -0.6262 -0.1040
   22TCq2    O4  343   0.545   2.700  14.733 -0.0479 -0.9364  0.2037
   22TCq2    C9  344   0.643   2.248  14.932  0.3733 -0.1071  0.8670
   22TCq2    O5  345   0.711   2.143  14.931 -0.2735 -0.0692 -0.3179
   22TCq2    O6  346   0.554   2.278  15.015  0.1777  0.5179 -0.6198
   22TCq2    H2  347   0.741   2.148  14.701 -0.9449 -0.2570  1.5175
   22TCq2    H3  348   0.522   2.460  14.884 -1.2785  0.9792 -1.3193
   22TCq2    H4  349   0.578   2.454  14.460 -2.4022 -1.3668  0.4663
   23MPD2     C  350   2.305   3.361  15.030 -0.7598 -0.7441  0.9553
   23MPD2    C1  351   2.265   3.233  15.024 -0.3517 -0.4963  0.7166
   23MPD2    C2  352   2.195   3.193  14.909  1.6923 -0.0665  0.3336
   23MPD2    C3  353   2.165   3.276  14.799 -0.3038  0.5509  0.0801
   23MPD2    C4  354   2.212   3.411  14.810 -0.2179 -0.2839  0.0855
   23MPD2    C5  355   2.290   3.446  14.922 -0.0115 -0.6337 -0.2235
   23MPD2     H  356   2.166   3.088  14.906  3.2700 -0.4664 -1.3765
   23MPD2    H1  357   2.198   3.483  14.731  0.7249 -1.7150 -1.3833
   23MPD2    H2  358   2.360   3.386  15.119 -1.1961 -2.7163  1.7910
   23MPD2    H3  359   2.323   3.548  14.931 -0.8367 -0.5144  1.5600
   23MPD2     N  360   2.093   3.251  14.681  0.1450 -0.2743  0.4322
   23MPD2    H5  361   2.093   3.316  14.603 -0.7222 -2.4094 -1.3279
   23MPD2    N1  362   2.291   3.150  15.133  0.0245 -0.0798 -0.0149
   23MPD2    H7  363   2.351   3.200  15.198  1.2988 -2.8742  0.9675
   24TCq2    C1  364   2.000   3.153  14.690  0.6668 -0.7010  0.0137
   24TCq2    O2  365   1.949   3.092  14.784 -0.8747  0.1015  0.4248
   24TCq2    C2  366   1.936   3.126  14.560  0.0303  0.5486  0.2193
   24TCq2    C3  367   1.994   3.165  14.442 -0.5983 -0.4260  0.4422
   24TCq2    C4  368   1.925   3.139  14.327  0.2933 -0.1048  0.2805
   24TCq2    C5  369   1.808   3.077  14.317 -0.3517  0.0407 -0.1276
   24TCq2    C6  370   1.755   3.038  14.442  0.2045  0.2424  0.3401
   24TCq2    C7  371   1.824   3.046  14.559  0.7763  0.1329 -0.1132
   24TCq2    C8  372   1.640   2.946  14.441  0.0396  0.2116 -0.2547
   24TCq2    O4  373   1.631   2.866  14.535 -0.4479  0.2491  0.0751
   24TCq2    C9  374   1.984   3.177  14.195  0.0767  0.0745  0.9732
   24TCq2    O5  375   1.907   3.166  14.098  0.3063  0.1971  0.6072
   24TCq2    O6  376   2.098   3.228  14.191  0.0641  0.4255  0.1552
   24TCq2    H2  377   2.090   3.215  14.433 -0.2588 -1.3648 -1.2987
   24TCq2    H3  378   1.755   3.051  14.226  1.2634 -1.7123 -0.5712
   24TCq2    H4  379   1.777   3.006  14.648  1.8458 -0.8182  0.0205
   25TMC2    C1  380   0.898   0.614  11.286 -0.7509  0.3033 -0.4867
   25TMC2    C2  381   0.781   0.678  11.260  0.0119 -0.3629  0.5152
   25TMC2    C3  382   0.722   0.740  11.367  0.6021 -0.3859 -0.1396
   25TMC2    C4  383   0.959   0.610  11.409  0.1353  0.0888 -0.0573
   25TMC2    C5  384   0.895   0.670  11.519 -0.2895  0.1734 -0.4715
   25TMC2    C6  385   0.774   0.731  11.493 -0.3355  0.1406 -0.6974
   25TMC2     C  386   0.947   0.526  11.181  1.4560 -0.2477 -0.2344
   25TMC2     O  387   1.064   0.490  11.187  0.5902  0.4642  0.3084
   25TMC2     H  388   0.760   0.710  11.159  0.1280  0.3822  0.7220
   25TMC2    H1  389   1.049   0.551  11.410  1.2831  1.8509  2.0265
   25TMC2    H2  390   0.718   0.765  11.579  1.0581 -1.3777  0.8117
   25TMC2    C7  391   0.957   0.671  11.652 -0.4160 -0.2975  0.4332
   25TMC2    C8  392   0.606   0.823  11.351 -0.5118 -0.2419  0.4433
   25TMC2    O1  393   0.878   0.686  11.743 -0.9114  0.3055 -0.1714
   25TMC2    O2  394   0.567   0.894  11.443 -0.4451  0.3346 -0.5376
   25TMC2    O5  395   0.562   0.814  11.225  0.2812 -0.7726 -0.2295
   25TMC2    H5  396   0.579   0.718  11.208 -0.1161 -0.8314 -0.2848
   26MPD2     C  397   0.890   0.254  10.754  0.0438 -0.0173  0.0476
   26MPD2    C1  398   0.762   0.291  10.805 -0.0047 -0.3981  0.1934
   26MPD2    C2  399   0.750   0.375  10.915  0.6730 -0.5083 -0.5267
   26MPD2    C3  400   0.864   0.417  10.979 -0.0629  0.3022 -0.5843
   26MPD2    C4  401   0.987   0.377  10.932  0.3612 -0.4357  0.3511
   26MPD2    C5  402   1.001   0.293  10.821  0.1802 -0.4852  0.4493
   26MPD2     H  403   0.652   0.404  10.951 -0.0368  0.0934 -2.9931
   26MPD2    H1  404   1.077   0.400  10.988 -0.0903  0.2750  0.7843
   26MPD2    H2  405   0.909   0.199  10.662 -1.3650 -0.2061 -0.1318
   26MPD2    H3  406   1.100   0.267  10.788 -1.1392 -4.1209 -0.6230
   26MPD2     N  407   0.850   0.495  11.095  0.3204 -0.4686  0.6522
   26MPD2    H5  408   0.761   0.543  11.108 -0.9622 -2.3062 -1.3218
   26MPD2    N1  409   0.657   0.245  10.725 -0.5819 -0.1687  0.1771
   26MPD2    H7  410   0.673   0.177  10.650 -1.2653 -0.1209 -0.0091
   27TMC2    C1  411   4.624   2.359  12.029 -0.2051  0.2586 -1.0013
   27TMC2    C2  412   4.545   2.439  11.956 -0.1764  0.2519 -0.0648
   27TMC2    C3  413   4.611   2.522  11.870 -0.0640  0.3730  0.6965
   27TMC2    C4  414   0.034   2.357  12.046 -0.1732  0.8014  0.9382
   27TMC2    C5  415   0.097   2.458  11.974  0.3984 -0.3165  0.3735
   27TMC2    C6  416   0.024   2.530  11.880 -0.1721 -0.0666 -0.4976
   27TMC2     C  417   4.570   2.259  12.119  0.4058 -0.5896  0.0899
   27TMC2     O  418   4.641   2.156  12.123  0.9529 -0.1727  0.3238
   27TMC2     H  419   4.439   2.421  11.936 -0.7526  1.3283  2.0686
   27TMC2    H1  420   0.088   2.291  12.112  0.7232 -0.4686 -1.0612
   27TMC2    H2  421   0.075   2.598  11.811 -1.8186  1.0954 -0.5733
   27TMC2    C7  422   0.198   2.531  12.047 -0.5282  0.0452  0.0773
   27TMC2    C8  423   4.544   2.649  11.824 -0.6990 -0.2088 -0.5736
   27TMC2    O1  424   0.246   2.470  12.144  0.0341 -0.3295  0.2093
   27TMC2    O2  425   4.603   2.715  11.743 -0.1664  0.4374 -0.1047
   27TMC2    O5  426   4.471   2.700  11.928 -0.0338  0.2306 -0.4528
   27TMC2    H5  427   4.467   2.642  12.007 -1.8985 -1.3848 -1.7295
   28MPD2     C  428   4.217   2.029  12.415  0.5239  0.7861 -0.5246
   28MPD2    C1  429   4.183   2.160  12.400  0.1920  0.1988  0.7769
   28MPD2    C2  430   4.259   2.246  12.321  0.6286  0.0655  0.0563
   28MPD2    C3  431   4.374   2.203  12.252 -0.0175 -0.4806  0.3028
   28MPD2    C4  432   4.405   2.071  12.271 -0.1689 -0.8505  0.2305
   28MPD2    C5  433   4.337   1.994  12.360  0.1362  0.2747  0.5169
   28MPD2     H  434   4.226   2.349  12.311  0.0166 -0.0909  0.4743
   28MPD2    H1  435   4.494   2.021  12.234 -1.0813 -0.9454 -1.8937
   28MPD2    H2  436   4.161   1.960  12.478  0.3462 -0.9129 -2.5239
   28MPD2    H3  437   4.363   1.889  12.358  0.2523  0.2919  1.0866
   28MPD2     N  438   4.448   2.293  12.169 -0.0854 -0.1923 -0.2624
   28MPD2    H5  439   4.399   2.376  12.139 -4.2833 -1.7674  2.1716
   28MPD2    N1  440   4.072   2.206  12.476  0.9778  0.3820  0.9125
   28MPD2    H7  441   4.016   2.140  12.528 -0.0811  0.5973  0.0514
   29MPD2     C  442   3.910   0.316  14.180  0.2070  0.8556  0.9650
   29MPD2    C1  443   4.043   0.275  14.181 -0.0753  0.5000 -0.6729
   29MPD2    C2  444   4.142   0.353  14.238  0.3351  0.2589  0.5359
   29MPD2    C3  445   4.105   0.488  14.270  0.6461 -0.1120 -0.0121
   29MPD2    C4  446   3.973   0.528  14.261  0.0319  0.4346 -0.2752
   29MPD2    C5  447   3.876   0.437  14.224 -0.1073 -0.2543  0.1492
   29MPD2     H  448   4.240   0.318  14.266  0.0369 -1.0303 -0.0436
   29MPD2    H1  449   3.939   0.627  14.288 -0.3500 -0.5612  2.8306
   29MPD2    H2  450   3.828   0.252  14.148  2.4551 -0.2103 -2.6554
   29MPD2    H3  451   3.771   0.465  14.225 -0.1254 -0.3228  0.1701
   29MPD2     N  452   4.197   0.578  14.319 -0.4879 -0.1647  0.7873
   29MPD2    H5  453   4.159   0.664  14.357 -1.6875 -0.3903  0.1216
   29MPD2    N1  454   4.083   0.144  14.129 -0.6581  0.4185 -0.1835
   29MPD2    H7  455   4.182   0.125  14.139 -0.7054  0.0531 -0.4126
   30TCq2    C1  456   4.332   0.574  14.295  0.2493 -0.1385 -0.0548
   30TCq2    O2  457   4.394   0.480  14.252  0.0953  0.5608 -0.3385
   30TCq2    C2  458   4.379   0.712  14.300  0.0088  0.1269 -0.5810
   30TCq2    C3  459   4.483   0.740  14.219 -0.6337 -0.2021 -0.0115
   30TCq2    C4  460   4.525   0.874  14.201 -0.1883 -0.1602 -0.4797
   30TCq2    C5  461   4.462   0.974  14.270 -0.6764 -0.1940  0.0645
   30TCq2    C6  462   4.375   0.943  14.370 -0.2414  0.3495 -0.7036
   30TCq2    C7  463   4.333   0.811  14.390 -0.5904 -0.1727 -0.3045
   30TCq2    C8  464   4.347   1.032  14.481 -0.1630 -0.1227 -0.2296
   30TCq2    O4  465   4.279   0.991  14.575  0.5363 -0.2141 -0.7792
   30TCq2    C9  466   4.627   0.913  14.103  0.6381  0.3234 -0.9527
   30TCq2    O5  467   4.665   1.031  14.083 -0.5199  0.3308 -0.2212
   30TCq2    O6  468   4.711   0.826  14.071 -0.4973  0.4445  0.4333
   30TCq2    H2  469   4.525   0.665  14.153 -3.3877 -2.4533  0.8368
   30TCq2    H3  470   4.490   1.078  14.255 -2.0943  0.4125  1.6288
   30TCq2    H4  471   4.251   0.792  14.458 -1.7512 -0.4460 -1.7724
   31MPD2     C  472   1.802   4.177  14.909 -0.2299 -0.2633 -0.4655
   31MPD2    C1  473   1.911   4.126  14.839 -0.5539 -0.3265  0.0362
   31MPD2    C2  474   1.997   4.036  14.905  0.3121 -0.5437 -0.1706
   31MPD2    C3  475   1.964   3.997  15.036  0.0663 -0.0504 -0.2844
   31MPD2    C4  476   1.852   4.050  15.102  0.2081  0.0519  0.1246
   31MPD2    C5  477   1.776   4.135  15.033 -0.2398 -0.2464 -0.3416
   31MPD2     H  478   2.087   3.997  14.859  2.1154  1.9161  1.3025
   31MPD2    H1  479   1.827   4.024  15.205 -1.6590  1.0451 -0.0865
   31MPD2    H2  480   1.737   4.250  14.861  1.0860  0.1791 -1.5569
   31MPD2    H3  481   1.694   4.189  15.079 -0.5726  1.9116 -3.4820
   31MPD2     N  482   2.044   3.907  15.115  0.3815  0.2722  0.3588
   31MPD2    H5  483   2.029   3.909  15.215 -1.3823 -2.5488  0.1303
   31MPD2    N1  484   1.931   4.173  14.710 -0.4135  0.5012  0.4880
   31MPD2    H7  485   1.877   4.247  14.665 -0.0709 -0.1292 -0.9497
   32TCq2    C1  486   2.151   3.833  15.061  0.4840 -0.7268  0.7975
   32TCq2    O2  487   2.185   3.813  14.943  0.3048 -0.8118 -0.1530
   32TCq2    C2  488   2.225   3.763  15.165 -0.0546  0.0328 -0.2921
   32TCq2    C3  489   2.354   3.727  15.133 -0.0761  0.1505 -0.2225
   32TCq2    C4  490   2.421   3.653  15.216  1.0813  0.2400 -0.8225
   32TCq2    C5  491   2.360   3.594  15.323 -0.5452 -0.0329 -0.4325
   32TCq2    C6  492   2.231   3.627  15.352  0.7696 -0.0197  0.5862
   32TCq2    C7  493   2.159   3.706  15.272  0.4613  0.2829 -0.5062
   32TCq2    C8  494   2.178   3.574  15.482 -0.1853  0.4703  0.7073
   32TCq2    O4  495   2.263   3.528  15.561  0.3811 -0.7756 -0.4873
   32TCq2    C9  496   2.566   3.624  15.196 -0.6768 -0.7476 -0.1211
   32TCq2    O5  497   2.614   3.670  15.091  0.2508 -0.2739 -0.4145
   32TCq2    O6  498   2.628   3.538  15.268  0.2640 -0.0768 -0.0564
   32TCq2    H2  499   2.397   3.775  15.046 -0.7469  1.6423  0.2764
   32TCq2    H3  500   2.420   3.543  15.397 -0.7709  0.8850  0.3820
   32TCq2    H4  501   2.072   3.755  15.314  0.3971  1.6095 -2.2053
   33MPD2     C  502   2.337   1.546  10.161 -0.3551 -0.1328  0.3501
   33MPD2    C1  503   2.221   1.540  10.094 -0.0621  0.2172  0.5858
   33MPD2    C2  504   2.202   1.623   9.987 -0.3703  0.2172  0.3814
   33MPD2    C3  505   2.292   1.722   9.956 -0.7021  0.5600 -0.3173
   33MPD2    C4  506   2.399   1.749  10.037  1.0054  0.6720 -0.3030
   33MPD2    C5  507   2.424   1.651  10.142 -0.2888 -0.0316 -0.2466
   33MPD2     H  508   2.113   1.610   9.927  0.6943  0.1370 -1.2008
   33MPD2    H1  509   2.479   1.819  10.018  0.4334  1.4265  0.0456
   33MPD2    H2  510   2.348   1.484  10.250  1.1974  0.2826  0.4496
   33MPD2    H3  511   2.508   1.671  10.207 -0.8593  1.9801 -0.1214
   33MPD2     N  512   2.266   1.810   9.848  0.5222 -0.3817 -0.1738
   33MPD2    H5  513   2.329   1.890   9.851  1.3419 -1.0768  1.4647
   33MPD2    N1  514   2.134   1.434  10.127 -0.5309  0.3122 -0.8277
   33MPD2    H7  515   2.171   1.364  10.191  0.0566 -0.4243 -1.9705
   34TCq2    C1  516   2.166   1.811   9.746  0.4418  0.4236  1.1257
   34TCq2    O2  517   2.072   1.729   9.732 -0.3510  0.4763 -0.0839
   34TCq2    C2  518   2.157   1.941   9.677  0.0435 -0.3240 -0.0813
   34TCq2    C3  519   2.036   1.998   9.642  0.4473 -0.2663  0.1574
   34TCq2    C4  520   2.039   2.123   9.582 -0.3963 -0.4010 -0.2532
   34TCq2    C5  521   2.155   2.188   9.564  0.3155  0.4339  0.7010
   34TCq2    C6  522   2.271   2.132   9.599  0.2426  0.3431 -0.2305
   34TCq2    C7  523   2.277   2.008   9.660  0.1220  0.1593 -0.3072
   34TCq2    C8  524   2.404   2.195   9.571  0.2222 -0.3178  0.3997
   34TCq2    O4  525   2.495   2.196   9.655 -0.0246  0.2928  0.0034
   34TCq2    C9  526   1.919   2.189   9.548 -0.2983  0.2180  0.1302
   34TCq2    O5  527   1.936   2.289   9.472  0.2362 -0.3311  0.0605
   34TCq2    O6  528   1.805   2.144   9.586 -0.0454  0.3675 -0.4832
   34TCq2    H2  529   1.947   1.939   9.659 -0.9676  1.7354 -0.2453
   34TCq2    H3  530   2.155   2.285   9.515 -1.0502  0.9673  1.7765
   34TCq2    H4  531   2.373   1.963   9.678 -0.9129 -1.8296  0.2018
   35MPD2     C  532   3.749   3.083  12.013 -0.4997 -0.1420 -0.2204
   35MPD2    C1  533   3.716   2.955  11.992 -0.1297 -0.1485  0.0471
   35MPD2    C2  534   3.655   2.915  11.873 -0.0395  0.1987 -0.0732
   35MPD2    C3  535   3.645   2.999  11.769 -0.3872 -0.7041 -0.1733
   35MPD2    C4  536   3.689   3.130  11.783  0.2441 -0.3713 -0.3425
   35MPD2    C5  537   3.737   3.164  11.905 -0.4988 -0.0986 -0.2520
   35MPD2     H  538   3.618   2.814  11.855 -0.3334  0.1673  0.7089
   35MPD2    H1  539   3.673   3.210  11.711 -0.3057 -0.3522 -0.2007
   35MPD2    H2  540   3.780   3.122  12.109 -1.4092 -0.2681  0.1198
   35MPD2    H3  541   3.759   3.269  11.919  1.2842 -0.7523  1.9156
   35MPD2     N  542   3.580   2.948  11.656 -0.6246  0.0714 -0.2504
   35MPD2    H5  543   3.563   2.848  11.650  1.9159 -0.3240 -0.7003
   35MPD2    N1  544   3.726   2.873  12.106 -0.1058  0.0941  0.1308
   35MPD2    H7  545   3.745   2.913  12.198  3.0950 -2.0249  0.3697
   36TCq2    C1  546   3.552   3.008  11.540 -0.6606 -0.4865  0.1043
   36TCq2    O2  547   3.585   3.119  11.497  0.1160  0.4335 -1.1709
   36TCq2    C2  548   3.463   2.934  11.451 -0.3193  0.0674 -0.2434
   36TCq2    C3  549   3.435   2.985  11.326 -0.5633 -0.0187  0.0635
   36TCq2    C4  550   3.325   2.942  11.259 -0.5165  0.1035  0.0078
   36TCq2    C5  551   3.251   2.842  11.302 -0.2333 -0.0456  0.4056
   36TCq2    C6  552   3.277   2.778  11.411 -1.3415  0.5203 -0.6506
   36TCq2    C7  553   3.385   2.820  11.490 -0.5571 -0.4756 -0.1793
   36TCq2    C8  554   3.193   2.666  11.455 -0.1291  0.2291  0.8004
   36TCq2    O4  555   3.116   2.607  11.377 -0.2669 -0.0721  1.2482
   36TCq2    C9  556   3.297   3.002  11.131 -0.2991 -0.3768 -0.2058
   36TCq2    O5  557   3.179   3.020  11.094 -0.0029 -0.0218 -0.0499
   36TCq2    O6  558   3.378   3.088  11.090  0.2414 -0.9059 -0.3118
   36TCq2    H2  559   3.496   3.062  11.279  2.0797 -1.1777  1.6034
   36TCq2    H3  560   3.184   2.802  11.226 -0.7519 -0.7171  1.2184
   36TCq2    H4  561   3.424   2.767  11.577  1.4033 -0.0569 -0.7954
   37TMC2    C1  562   1.128   2.849  11.172  0.0423  0.1691  0.3275
   37TMC2    C2  563   1.191   2.865  11.050 -0.1006  0.7233  0.2939
   37TMC2    C3  564   1.300   2.951  11.050  0.1401 -0.0821  0.4513
   37TMC2    C4  565   1.175   2.902  11.290 -0.4165  0.8861  0.2200
   37TMC2    C5  566   1.278   2.992  11.285  0.2090  0.0764 -0.5885
   37TMC2    C6  567   1.349   3.009  11.164  0.4118  0.4569 -0.0796
   37TMC2     C  568   1.001   2.797  11.158  0.4271  0.6711 -0.2503
   37TMC2     O  569   0.946   2.787  11.047 -0.0107 -0.5057 -0.6048
   37TMC2     H  570   1.150   2.835  10.954  0.5241 -1.1419  0.6060
   37TMC2    H1  571   1.140   2.865  11.386  0.1990 -0.2782 -0.0061
   37TMC2    H2  572   1.435   3.075  11.162  1.2734 -0.6196  0.9522
   37TMC2    C7  573   1.351   3.019  11.403  0.3414 -0.2496  0.4335
   37TMC2    C8  574   1.365   2.977  10.919 -0.8382  0.5241 -0.2459
   37TMC2    O1  575   1.342   2.936  11.492 -0.2972  0.1763  0.4013
   37TMC2    O2  576   1.288   3.013  10.830 -0.0063 -0.7575  0.3931
   37TMC2    O5  577   1.494   3.014  10.930  0.3490 -0.2424 -0.1449
   37TMC2    H5  578   1.541   2.970  11.004 -1.3750  0.4111  1.3545
   38MPD2     C  579   0.580   2.620  11.407 -0.0016 -0.3788 -0.1851
   38MPD2    C1  580   0.680   2.645  11.498  0.3621  0.2733 -0.5115
   38MPD2    C2  581   0.804   2.693  11.454  0.2561  0.0203 -0.0732
   38MPD2    C3  582   0.826   2.713  11.320 -0.6329  0.4100  0.1548
   38MPD2    C4  583   0.724   2.692  11.233 -0.3118  0.7541 -0.6681
   38MPD2    C5  584   0.595   2.660  11.274 -0.3288  0.1388 -0.2370
   38MPD2     H  585   0.886   2.706  11.524 -0.0181  0.5347  0.1534
   38MPD2    H1  586   0.738   2.717  11.129  2.1806 -0.6445 -0.6858
   38MPD2    H2  587   0.484   2.588  11.445 -0.2917  1.7535  0.8801
   38MPD2    H3  588   0.523   2.641  11.195  1.6412  3.7310 -2.9309
   38MPD2     N  589   0.958   2.761  11.284 -0.1787  0.1464  0.3786
   38MPD2    H5  590   1.018   2.775  11.364  1.3750 -1.2914 -0.5510
   38MPD2    N1  591   0.658   2.637  11.631  0.2998 -0.1850  0.1632
   38MPD2    H7  592   0.736   2.672  11.686  1.7255 -1.6032 -0.9528
   39MPD2     C  593   3.938   0.533   1.412  0.3059  0.2807  0.0422
   39MPD2    C1  594   3.835   0.589   1.486  0.8739 -0.7332  0.3206
   39MPD2    C2  595   3.706   0.552   1.443  0.4849  0.3013  0.6236
   39MPD2    C3  596   3.684   0.460   1.340  0.3544  0.5884 -0.3458
   39MPD2    C4  597   3.796   0.398   1.279  0.1577 -0.5788  0.6349
   39MPD2    C5  598   3.920   0.445   1.305  0.0370 -0.5638  0.5700
   39MPD2     H  599   3.621   0.598   1.492 -0.2881 -0.6139  0.1337
   39MPD2    H1  600   3.796   0.329   1.195 -1.7242  2.4809 -1.8556
   39MPD2    H2  601   4.038   0.574   1.417  0.0859  0.5856  1.8641
   39MPD2    H3  602   4.004   0.405   1.249  0.4103  0.1184  0.6428
   39MPD2     N  603   3.553   0.425   1.300  0.0751  0.7175  1.0369
   39MPD2    H5  604   3.538   0.348   1.236  2.2455  1.3285 -0.1969
   39MPD2    N1  605   3.874   0.676   1.592 -0.2138 -0.4537 -0.0197
   39MPD2    H7  606   3.973   0.685   1.611 -0.5005 -0.4672  1.5653
   40TCq2    C1  607   3.786   0.740   1.676  0.0210 -0.1017 -0.5039
   40TCq2    O2  608   3.663   0.735   1.679 -0.9247  0.1018  0.7215
   40TCq2    C2  609   3.856   0.825   1.774 -0.0403  0.6592  0.4341
   40TCq2    C3  610   3.779   0.919   1.838  0.2761  0.3401  0.1386
   40TCq2    C4  611   3.841   1.010   1.911 -0.4793 -0.5303  0.2178
   40TCq2    C5  612   3.976   1.003   1.940 -0.1513  0.2479 -0.6866
   40TCq2    C6  613   4.051   0.909   1.876 -0.4406  0.7952  0.3949
   40TCq2    C7  614   3.992   0.820   1.789 -0.1262 -0.6517 -0.2822
   40TCq2    C8  615   4.195   0.929   1.878 -0.7863 -0.3189 -0.0086
   40TCq2    O4  616   4.268   0.828   1.866  0.1492 -0.0160 -0.2986
   40TCq2    C9  617   3.765   1.102   1.992 -0.1240  0.3493 -0.2378
   40TCq2    O5  618   3.823   1.156   2.093  0.3410 -0.1641  0.7843
   40TCq2    O6  619   3.645   1.122   1.952  0.1355  0.1537 -0.0049
   40TCq2    H2  620   3.672   0.933   1.834  0.0842 -0.9127  1.0129
   40TCq2    H3  621   4.024   1.063   2.016 -0.1579 -0.7226  0.0746
   40TCq2    H4  622   4.056   0.753   1.732  1.4995 -1.5144  2.5726
   41TMC2    C1  623   2.586   2.887  13.449 -0.3756  0.3571 -0.2739
   41TMC2    C2  624   2.590   3.011  13.502  0.1340  0.4667  0.2157
   41TMC2    C3  625   2.573   3.118  13.419  0.6393  0.2910  0.3716
   41TMC2    C4  626   2.592   2.870  13.317 -0.3049  0.0565 -0.0383
   41TMC2    C5  627   2.574   2.986  13.238 -0.3342 -0.0428  0.5579
   41TMC2    C6  628   2.569   3.112  13.281  0.3064 -0.1151 -0.1625
   41TMC2     C  629   2.610   2.762  13.527 -0.0032  0.5073 -0.7181
   41TMC2     O  630   2.585   2.652  13.475 -0.5938  0.1466  0.1152
   41TMC2     H  631   2.593   3.025  13.609  0.2441  0.4635  0.2137
   41TMC2    H1  632   2.570   2.768  13.286  3.2735 -0.5767 -0.5187
   41TMC2    H2  633   2.563   3.202  13.221 -1.4056 -1.8387 -2.5836
   41TMC2    C7  634   2.488   2.965  13.122  0.7339 -0.3528  0.3555
   41TMC2    C8  635   2.545   3.242  13.486  0.3522  0.5967 -0.0579
   41TMC2    O1  636   2.414   3.058  13.077  0.0893 -0.3346  0.8093
   41TMC2    O2  637   2.533   3.234  13.609  0.2784  0.0738  0.7197
   41TMC2    O5  638   2.470   3.319  13.402  0.2175  0.0307 -0.1388
   41TMC2    H5  639   2.496   3.318  13.307 -0.7466  1.6292 -0.4194
   42MPD2     C  640   2.729   2.563  13.732  0.7640 -0.1899 -0.6006
   42MPD2    C1  641   2.728   2.695  13.743 -0.3868  0.7141 -0.0791
   42MPD2    C2  642   2.798   2.752  13.851 -0.6372  0.1329 -0.1590
   42MPD2    C3  643   2.866   2.676  13.946  0.6565  0.3346 -0.3064
   42MPD2    C4  644   2.851   2.539  13.935 -0.4677  0.5023  0.0218
   42MPD2    C5  645   2.789   2.481  13.822 -0.4826 -0.3284  0.9422
   42MPD2     H  646   2.789   2.859  13.860  0.8195  0.2292  0.0703
   42MPD2    H1  647   2.897   2.480  14.013 -0.4887  1.5708  0.8325
   42MPD2    H2  648   2.674   2.522  13.647  0.9115 -1.2921 -0.1717
   42MPD2    H3  649   2.774   2.374  13.812 -0.8112 -0.1381 -0.6377
   42MPD2     N  650   2.943   2.727  14.052 -0.4336  0.0277 -1.1337
   42MPD2    H5  651   2.970   2.668  14.130  0.5045  0.3280 -1.2268
   42MPD2    N1  652   2.678   2.790  13.647  0.3402  0.2315  0.0967
   42MPD2    H7  653   2.692   2.887  13.672  0.1137  0.5968 -1.1739
   43MPD2     C  654   0.261   2.229   0.752 -0.2006 -0.3087  1.1887
   43MPD2    C1  655   0.206   2.117   0.806  0.2547  0.5791  0.4377
   43MPD2    C2  656   0.081   2.132   0.863 -0.0409 -0.4417  0.1757
   43MPD2    C3  657   0.010   2.245   0.855 -0.4910  0.1042  0.0786
   43MPD2    C4  658   0.060   2.350   0.790  0.4023  0.4474 -0.1648
   43MPD2    C5  659   0.190   2.340   0.747  0.4602 -0.4132 -0.4419
   43MPD2     H  660   0.030   2.054   0.918 -0.5919 -1.1171 -1.2948
   43MPD2    H1  661   4.719   2.435   0.769 -2.1052 -1.3952  0.0031
   43MPD2    H2  662   0.359   2.230   0.705 -1.3191 -3.1122 -1.2605
   43MPD2    H3  663   0.238   2.420   0.692 -0.9230 -0.7802 -2.1779
   43MPD2     N  664   4.611   2.274   0.915 -0.2886 -0.1791  0.5182
   43MPD2    H5  665   4.571   2.367   0.906  0.9541  0.5003  1.8961
   43MPD2    N1  666   0.279   2.002   0.838  1.0836 -0.3224 -0.1632
   43MPD2    H7  667   0.229   1.936   0.896 -0.5866  1.4932  0.5017
   44TCq2    C1  668   4.372   2.363   1.397  0.1340  0.4187  0.5309
   44TCq2    O2  669   4.482   2.330   1.442 -0.3088  0.3833 -0.7908
   44TCq2    C2  670   4.353   2.362   1.253  0.3459  1.0623 -1.3535
   44TCq2    C3  671   4.301   2.469   1.190 -0.0430 -0.3798  0.5876
   44TCq2    C4  672   4.313   2.474   1.052 -0.1631 -0.0979 -0.0309
   44TCq2    C5  673   4.369   2.371   0.985  0.3222 -0.1844 -0.3971
   44TCq2    C6  674   4.432   2.270   1.057  0.0626 -0.1633 -0.3866
   44TCq2    C7  675   4.427   2.262   1.191  0.3864 -0.2261  0.4099
   44TCq2    C8  676   4.536   2.190   0.993  0.7648  0.0269  0.4169
   44TCq2    O4  677   4.558   2.073   1.025 -0.5293 -0.1197  0.0993
   44TCq2    C9  678   4.251   2.581   0.979 -0.0667  0.6122  0.5392
   44TCq2    O5  679   4.222   2.683   1.045 -0.0773  0.1598  0.6770
   44TCq2    O6  680   4.218   2.563   0.854  0.2538 -0.1715  0.2069
   44TCq2    H2  681   4.247   2.546   1.243 -2.0193 -4.0340  3.9357
   44TCq2    H3  682   4.387   2.376   0.878  1.1260 -1.0246 -0.3056
   44TCq2    H4  683   4.480   2.199   1.261 -1.9828 -0.6363  1.8144
   45TMC2    C1  684   4.574   2.733   9.635  0.4070  0.5051  0.5429
   45TMC2    C2  685   4.708   2.747   9.608  0.2881 -0.3539  0.3365
   45TMC2    C3  686   0.052   2.863   9.622 -0.5398  0.3973 -0.2728
   45TMC2    C4  687   4.507   2.848   9.671  0.7572 -0.4203 -0.0686
   45TMC2    C5  688   4.581   2.965   9.687 -0.0278  0.1934  0.4244
   45TMC2    C6  689   4.711   2.984   9.645  0.4058  0.3469 -0.2603
   45TMC2     C  690   4.510   2.620   9.570 -0.0123  0.5953  0.3599
   45TMC2     O  691   4.570   2.512   9.563 -0.2580  0.0363  0.3756
   45TMC2     H  692   0.023   2.653   9.570  0.8717  0.4348 -0.9977
   45TMC2    H1  693   4.399   2.847   9.681  0.5560 -0.5871 -2.2056
   45TMC2    H2  694   0.050   3.073   9.652  0.3956  0.4546 -1.4002
   45TMC2    C7  695   4.504   3.074   9.744  0.6550 -0.1287  0.4492
   45TMC2    C8  696   0.190   2.863   9.650  0.0626  1.1889  0.1040
   45TMC2    O1  697   4.391   3.051   9.767  0.0718 -0.3881  0.0177
   45TMC2    O2  698   0.237   2.775   9.724 -0.2725  0.1684  0.0044
   45TMC2    O5  699   0.245   2.943   9.564  0.5327 -0.8945 -0.5728
   45TMC2    H5  700   0.185   2.999   9.510  0.3668 -0.6522 -0.1386
   46MPD2     C  701   4.322   2.384   9.531  0.4232  0.0186 -0.1812
   46MPD2    C1  702   4.290   2.517   9.542 -0.3046 -0.7941 -1.1093
   46MPD2    C2  703   4.156   2.547   9.559  0.2220  0.1399 -0.0377
   46MPD2    C3  704   4.062   2.454   9.570  0.3103 -0.0303 -0.0605
   46MPD2    C4  705   4.087   2.325   9.555  0.6189 -0.2317 -0.2864
   46MPD2    C5  706   4.216   2.288   9.530 -0.2913  0.7014 -0.0111
   46MPD2     H  707   4.118   2.647   9.577  2.0267  1.2785 -2.7151
   46MPD2    H1  708   4.009   2.250   9.556  3.1342 -2.8222  1.4682
   46MPD2    H2  709   4.423   2.345   9.538 -0.0972 -0.9220  1.9639
   46MPD2    H3  710   4.246   2.184   9.532 -0.9106  0.5226  0.0977
   46MPD2     N  711   3.937   2.504   9.607 -0.4771 -0.3999 -0.0492
   46MPD2    H5  712   3.933   2.605   9.593  0.9104 -0.1574  1.3565
   46MPD2    N1  713   4.373   2.628   9.563 -0.6257 -0.7127 -0.0769
   46MPD2    H7  714   4.321   2.714   9.571  1.2291  0.4780 -0.9269
   47TMC2    C1  715   2.866   4.242   8.942  0.4145  0.4041  0.4977
   47TMC2    C2  716   2.993   4.258   8.892  0.4348  0.0037  0.7011
   47TMC2    C3  717   2.999   4.318   8.769  0.5531 -0.6269  0.2572
   47TMC2    C4  718   2.758   4.281   8.870  0.7232 -0.7528  0.2359
   47TMC2    C5  719   2.774   4.337   8.744 -0.5836 -0.3714  0.2538
   47TMC2    C6  720   2.897   4.357   8.695 -0.1261  0.7246 -1.7220
   47TMC2     C  721   2.831   4.206   9.079 -0.1600 -0.4830 -0.7870
   47TMC2     O  722   2.716   4.223   9.119  0.1494  0.7600 -0.4038
   47TMC2     H  723   3.082   4.245   8.952 -1.1083 -0.8545  2.7842
   47TMC2    H1  724   2.660   4.267   8.913  0.8275  0.1316  0.7559
   47TMC2    H2  725   2.918   4.413   8.605 -1.9789  1.1103 -1.9210
   47TMC2    C7  726   2.672   4.429   8.699 -0.0415  0.1841 -0.0960
   47TMC2    C8  727   3.133   4.376   8.735 -0.1642  0.3081 -0.2579
   47TMC2    O1  728   2.704   4.518   8.623  0.5138 -0.3571  0.4389
   47TMC2    O2  729   3.153   4.475   8.665  0.1371 -0.0489 -0.7109
   47TMC2    O5  730   3.227   4.280   8.742  0.3943 -0.3608  0.1976
   47TMC2    H5  731   3.194   4.196   8.780  1.1043 -0.0011  1.5861
   48MPD2     C  732   2.841   4.129   9.372  0.1509 -0.4829  0.1285
   48MPD2    C1  733   2.950   4.130   9.287  0.5990  0.1933  0.3795
   48MPD2    C2  734   3.073   4.096   9.336 -0.6248  0.6754 -0.2123
   48MPD2    C3  735   3.088   4.063   9.472 -0.5636  0.7584 -0.5055
   48MPD2    C4  736   2.980   4.060   9.551  0.0198 -0.1892  0.1822
   48MPD2    C5  737   2.860   4.096   9.498  0.8235  0.2055  0.2617
   48MPD2     H  738   3.156   4.101   9.266  1.5625  0.0586  2.3136
   48MPD2    H1  739   2.982   4.038   9.657  1.1479 -0.7303  0.0498
   48MPD2    H2  740   2.740   4.156   9.342  0.7858  0.2652 -1.3497
   48MPD2    H3  741   2.768   4.081   9.554  0.5739 -1.1311 -0.4986
   48MPD2     N  742   3.216   4.019   9.516  0.2102 -0.1555 -0.1465
   48MPD2    H5  743   3.284   3.993   9.445 -0.4331  0.4603 -0.9948
   48MPD2    N1  744   2.946   4.171   9.151 -0.0978 -0.3141 -0.1299
   48MPD2    H7  745   3.032   4.176   9.098  0.2046  0.3134  0.4177
   49MPD2     C  746   0.172   0.593   9.817  0.7649 -0.2414 -0.0546
   49MPD2    C1  747   0.172   0.525   9.942 -0.1062  0.0109 -0.0763
   49MPD2    C2  748   0.219   0.594  10.048  0.1115  0.4696 -0.0047
   49MPD2    C3  749   0.287   0.716  10.041  0.9569  0.9693 -0.2865
   49MPD2    C4  750   0.285   0.783   9.919 -0.8383 -0.0612  0.1710
   49MPD2    C5  751   0.224   0.723   9.812  0.3717 -0.0622  0.1540
   49MPD2     H  752   0.192   0.555  10.145 -0.7666  3.5565  0.9721
   49MPD2    H1  753   0.324   0.884   9.912 -0.7296 -0.2934 -2.6263
   49MPD2    H2  754   0.135   0.548   9.726  2.6282 -0.4627 -0.6918
   49MPD2    H3  755   0.222   0.776   9.718  1.2213 -0.5336 -0.1307
   49MPD2     N  756   0.352   0.791  10.143  0.6706 -0.1883 -0.6033
   49MPD2    H5  757   0.410   0.870  10.115 -1.3388  0.8032 -1.9344
   49MPD2    N1  758   0.117   0.399   9.968  0.3194 -0.3640  0.0115
   49MPD2    H7  759   0.112   0.375  10.066 -0.2757  1.9419  0.5340
   50TCq2    C1  760   0.079   0.301   9.879  0.4124 -0.4560 -0.0053
   50TCq2    O2  761   0.094   0.302   9.757  0.2143  0.3544 -0.1088
   50TCq2    C2  762   4.723   0.195   9.936  0.1308  0.1048 -0.5612
   50TCq2    C3  763   4.659   0.120   9.841 -0.5927 -0.3286  0.0539
   50TCq2    C4  764   4.604   4.717   9.869  0.1046 -0.0902  0.3092
   50TCq2    C5  765   4.614   4.669   9.997  0.8359  0.2941  0.3490
   50TCq2    C6  766   4.673   0.028  10.088 -0.7610 -0.0979  0.1303
   50TCq2    C7  767   0.021   0.146  10.063 -0.0273  0.1772 -0.4046
   50TCq2    C8  768   4.671   4.712  10.231 -0.2114  0.5600  0.3367
   50TCq2    O4  769   0.048   0.011  10.299 -0.2034  0.0455  0.0727
   50TCq2    C9  770   4.570   4.632   9.758  0.2620  0.3392  0.5249
   50TCq2    O5  771   4.573   4.680   9.642 -0.0137  0.3775  0.1672
   50TCq2    O6  772   4.518   4.520   9.783  0.0582 -0.3863 -0.0360
   50TCq2    H2  773   4.660   0.154   9.738  3.0019 -1.0187 -0.1103
   50TCq2    H3  774   4.576   4.572  10.026 -1.5331  0.6689 -1.5225
   50TCq2    H4  775   0.058   0.208  10.143  1.5823 -1.6333  0.2705
   51MPD2     C  776   0.930   0.358   0.566  0.1579 -0.0383  0.2161
   51MPD2    C1  777   0.906   0.238   0.634  0.6694 -0.2285 -0.1496
   51MPD2    C2  778   0.901   0.256   0.774  0.4631  0.0411 -0.6871
   51MPD2    C3  779   0.937   0.371   0.839 -0.6551 -0.0679 -0.5433
   51MPD2    C4  780   0.977   0.479   0.774 -0.4753  0.2222 -0.5521
   51MPD2    C5  781   0.971   0.476   0.633  0.5635  0.4326 -1.3037
   51MPD2     H  782   0.863   0.179   0.840  0.7815 -2.1099 -3.0045
   51MPD2    H1  783   1.003   0.573   0.821  2.2288 -0.5198 -0.5699
   51MPD2    H2  784   0.942   0.350   0.459 -0.5744 -0.6557  0.1821
   51MPD2    H3  785   1.006   0.552   0.564  0.3274  1.6208 -0.1304
   51MPD2     N  786   0.907   0.396   0.974  0.1714 -0.5138 -0.2364
   51MPD2    H5  787   0.922   0.493   0.999  2.7281 -0.5880 -1.4594
   51MPD2    N1  788   0.881   0.111   0.576 -0.1201  0.3535 -0.3708
   51MPD2    H7  789   0.851   0.035   0.635  2.1313  1.8626  2.7665
   52TCq2    C1  790   0.883   0.300   1.073 -0.4540 -0.2697  0.0124
   52TCq2    O2  791   0.866   0.181   1.059  0.3209  0.0078  0.5644
   52TCq2    C2  792   0.869   0.345   1.208 -0.0683 -0.3039  0.2951
   52TCq2    C3  793   0.833   0.253   1.304  0.4713 -0.0767  1.2192
   52TCq2    C4  794   0.803   0.289   1.430  0.3408  0.2414  0.1798
   52TCq2    C5  795   0.814   0.421   1.464 -0.1944 -0.1352 -0.7761
   52TCq2    C6  796   0.838   0.513   1.366  0.3286  0.3393  0.2528
   52TCq2    C7  797   0.875   0.479   1.242 -0.4062 -0.1501  0.0577
   52TCq2    C8  798   0.860   0.654   1.401 -0.8978  0.7189  1.1731
   52TCq2    O4  799   0.950   0.712   1.339 -0.5389 -0.1099 -0.6929
   52TCq2    C9  800   0.783   0.185   1.521  0.3847 -0.2302  0.1982
   52TCq2    O5  801   0.756   0.072   1.470  0.3904 -0.3814  0.2054
   52TCq2    O6  802   0.817   0.207   1.642  0.1340  0.3036  0.0587
   52TCq2    H2  803   0.834   0.146   1.282 -0.5099 -0.0051  0.8220
   52TCq2    H3  804   0.782   0.437   1.566  2.5543  0.1695  0.0438
   52TCq2    H4  805   0.896   0.555   1.168  1.9272  1.4717  2.3602
   53TMC2    C1  806   1.798   2.987  12.003  0.3612  0.9987 -0.4626
   53TMC2    C2  807   1.829   2.864  11.958 -0.3855  0.4387  0.1371
   53TMC2    C3  808   1.842   2.760  12.046  0.4488  0.1828  0.1580
   53TMC2    C4  809   1.786   3.014  12.135  0.2611  0.2937  0.4173
   53TMC2    C5  810   1.781   2.902  12.224 -0.2797 -0.1936 -0.0092
   53TMC2    C6  811   1.813   2.778  12.181 -0.2424 -0.1322 -0.3456
   53TMC2     C  812   1.771   3.098  11.911  0.2169  0.1557  1.1531
   53TMC2     O  813   1.781   3.216  11.956 -0.6927  0.0976 -0.2356
   53TMC2     H  814   1.838   2.837  11.853  0.4608  0.0683  0.3124
   53TMC2    H1  815   1.743   3.111  12.158 -0.1209  0.4211 -0.8282
   53TMC2    H2  816   1.814   2.697  12.253 -0.7534 -0.3578 -0.5909
   53TMC2    C7  817   1.668   2.908  12.320 -0.1729 -0.2728  0.5546
   53TMC2    C8  818   1.833   2.627  11.981 -0.4340 -0.1987  0.6633
   53TMC2    O1  819   1.610   3.014  12.323  0.5935  0.2942 -0.2319
   53TMC2    O2  820   1.777   2.609  11.875  0.0305  0.2939  0.6392
   53TMC2    O5  821   1.935   2.549  12.019  0.1300 -0.2934  0.0487
   53TMC2    H5  822   1.976   2.578  12.103 -0.0023  0.6303 -0.2000
   54MPD2     C  823   1.706   3.276  11.676 -0.6335  0.1737  0.3577
   54MPD2    C1  824   1.652   3.147  11.694 -0.1757  0.2828  0.0894
   54MPD2    C2  825   1.569   3.100  11.596  1.0046 -0.1175 -0.4296
   54MPD2    C3  826   1.524   3.182  11.494 -0.2444 -0.3390 -0.6324
   54MPD2    C4  827   1.571   3.307  11.480  0.4496  0.4405 -0.2151
   54MPD2    C5  828   1.674   3.343  11.561  0.9686  0.2055 -0.5621
   54MPD2     H  829   1.538   2.996  11.598  0.9111 -0.0771  0.1135
   54MPD2    H1  830   1.541   3.375  11.401 -1.8919 -0.6991 -0.2933
   54MPD2    H2  831   1.772   3.325  11.747 -0.5642 -0.1877  0.5435
   54MPD2    H3  832   1.724   3.437  11.542  1.7834 -0.0866  0.1328
   54MPD2     N  833   1.429   3.136  11.398  0.3234  0.4293  0.3153
   54MPD2    H5  834   1.411   3.200  11.322  1.7768  0.2242 -0.1967
   54MPD2    N1  835   1.690   3.057  11.800 -0.4580 -0.9733  0.6934
   54MPD2    H7  836   1.666   2.960  11.784  1.8989 -1.7948  2.1203
   55MPD2     C  837   2.127   1.498  17.684  0.6176 -0.1364  0.3273
   55MPD2    C1  838   2.075   1.383   0.041  0.0926 -0.4069  0.1966
   55MPD2    C2  839   1.947   1.381   0.100  0.3505  0.3117  0.3368
   55MPD2    C3  840   1.876   1.497   0.116 -0.0007  0.4995 -0.3559
   55MPD2    C4  841   1.925   1.614   0.058 -0.5581  0.0001  0.1649
   55MPD2    C5  842   2.038   1.606  17.672  0.3310 -0.3525 -0.2434
   55MPD2     H  843   1.903   1.291   0.142 -1.9751  1.8914  1.3033
   55MPD2    H1  844   1.871   1.709   0.059  1.3161  1.0460  0.9170
   55MPD2    H2  845   2.227   1.505  17.643 -0.3093 -1.2661 -2.0893
   55MPD2    H3  846   2.069   1.690  17.612  2.9382 -0.7730  0.5025
   55MPD2     N  847   1.758   1.495   0.196  0.1995 -0.0554  0.1570
   55MPD2    H5  848   1.731   1.409   0.243  0.5062 -0.5295 -0.5297
   55MPD2    N1  849   2.164   1.269   0.022 -0.0878 -1.0292 -0.7347
   55MPD2    H7  850   2.257   1.288  17.678 -0.2827 -0.4507 -0.9216
   56TCq2    C1  851   2.129   1.143   0.059  0.3694  0.5404 -0.2098
   56TCq2    O2  852   2.041   1.109   0.137  0.0286 -0.0253  0.1771
   56TCq2    C2  853   2.222   1.038   0.016  0.4311  0.9646 -0.0683
   56TCq2    C3  854   2.310   1.066  17.611 -0.4053  0.5114 -0.7188
   56TCq2    C4  855   2.402   0.980  17.571  0.2736 -0.7775 -0.2463
   56TCq2    C5  856   2.417   0.858  17.634  0.1392  0.5621  0.6897
   56TCq2    C6  857   2.319   0.825   0.035  0.6446  0.0171  0.3222
   56TCq2    C7  858   2.215   0.917   0.067 -0.1825  0.7694 -0.3325
   56TCq2    C8  859   2.282   0.681   0.054 -0.6395 -0.1940 -0.0085
   56TCq2    O4  860   2.360   0.600   0.007 -0.0303  0.4750  0.3721
   56TCq2    C9  861   2.480   1.013  17.454 -0.1123 -0.2982  0.7007
   56TCq2    O5  862   2.590   0.948  17.434  0.1944 -0.5293  0.0380
   56TCq2    O6  863   2.450   1.129  17.406  0.0002 -0.5085 -0.4473
   56TCq2    H2  864   2.300   1.159  17.556 -0.2295  0.8769 -0.1289
   56TCq2    H3  865   2.485   0.779  17.607 -0.3527  0.5325 -0.4959
   56TCq2    H4  866   2.138   0.894   0.139 -0.5528  0.1061 -0.9368
   57TMC2    C1  867   1.524   1.606  13.654  0.6720 -0.0645 -0.5374
   57TMC2    C2  868   1.501   1.523  13.541  0.1482  0.5035  0.0460
   57TMC2    C3  869   1.598   1.502  13.448  0.3347  0.5385 -0.4711
   57TMC2    C4  870   1.645   1.662  13.681  0.2182 -0.0309  0.1678
   57TMC2    C5  871   1.745   1.621  13.593  0.1626  0.0729  0.2115
   57TMC2    C6  872   1.725   1.548  13.477  0.6635 -0.0778 -0.3739
   57TMC2     C  873   1.412   1.650  13.735  0.0945  0.0409  0.0389
   57TMC2     O  874   1.439   1.751  13.798  0.3136 -0.4094 -0.8320
   57TMC2     H  875   1.399   1.494  13.518  1.0381 -1.7747 -1.0154
   57TMC2    H1  876   1.662   1.718  13.772 -1.6416  2.1778 -0.8498
   57TMC2    H2  877   1.810   1.533  13.411  2.4930  1.8295  1.5859
   57TMC2    C7  878   1.875   1.670  13.626  0.4360 -0.3296 -0.5029
   57TMC2    C8  879   1.575   1.415  13.336  0.5777 -0.4838  0.1501
   57TMC2    O1  880   1.877   1.728  13.731  0.9656 -0.5545  0.2011
   57TMC2    O2  881   1.479   1.345  13.307 -0.7617  0.2400  0.7072
   57TMC2    O5  882   1.626   1.482  13.235  0.0306  0.7484  0.4883
   57TMC2    H5  883   1.685   1.557  13.259  1.4212 -0.3089  0.3705
   58MPD2     C  884   0.944   1.627  13.940 -0.3251 -0.0949 -0.1658
   58MPD2    C1  885   1.029   1.730  13.911 -0.2371 -0.0341  0.2878
   58MPD2    C2  886   1.152   1.708  13.855 -0.0604  0.1752 -0.0620
   58MPD2    C3  887   1.185   1.581  13.813  0.2677  0.7032 -0.0565
   58MPD2    C4  888   1.093   1.480  13.821  0.2271 -0.1554  0.5463
   58MPD2    C5  889   0.979   1.507  13.889 -0.1198 -0.7251  0.4632
   58MPD2     H  890   1.221   1.791  13.846  1.2100 -0.8675  0.0162
   58MPD2    H1  891   1.117   1.384  13.777  0.6847  0.1061  0.2229
   58MPD2    H2  892   0.849   1.637  13.992 -1.0465  0.8021 -1.6567
   58MPD2    H3  893   0.910   1.424  13.903 -1.1320  0.1085  0.4296
   58MPD2     N  894   1.312   1.556  13.753  0.2854  0.3571 -0.2040
   58MPD2    H5  895   1.335   1.470  13.706 -0.7651  1.3356 -2.4784
   58MPD2    N1  896   0.990   1.868  13.934 -0.6011 -0.1452 -0.3571
   58MPD2    H7  897   1.051   1.939  13.895  1.9133 -1.9568  0.2345
   59MPD2     C  898   3.576   1.917  13.217 -0.1789 -1.5101  0.2396
   59MPD2    C1  899   3.683   1.900  13.137  0.3818 -0.0140 -0.3473
   59MPD2    C2  900   3.799   1.970  13.157  0.4506 -0.3605 -0.5363
   59MPD2    C3  901   3.808   2.046  13.276  0.2515 -0.6465  0.1662
   59MPD2    C4  902   3.705   2.049  13.371  0.0102  0.2107 -0.8875
   59MPD2    C5  903   3.587   1.985  13.330 -0.4223  0.9376  0.7090
   59MPD2     H  904   3.877   1.976  13.082  0.0072 -1.0199 -1.0625
   59MPD2    H1  905   3.708   2.095  13.469  0.0461  0.2301 -0.8979
   59MPD2    H2  906   3.480   1.871  13.199 -0.5314 -0.5144 -0.4096
   59MPD2    H3  907   3.500   1.995  13.394 -1.5772  1.2625 -0.8925
   59MPD2     N  908   3.922   2.129  13.306 -0.0545  0.2875  0.3158
   59MPD2    H5  909   3.936   2.166  13.400  2.4225 -1.7105  0.7039
   59MPD2    N1  910   3.676   1.816  13.022  0.1954  0.1786 -0.2853
   59MPD2    H7  911   3.761   1.817  12.966 -0.7681 -1.3860 -1.7875
   60TCq2    C1  912   3.568   1.738  12.994 -0.3676  0.0200 -0.1433
   60TCq2    O2  913   3.497   1.677  13.075  0.2737  0.6206  0.0746
   60TCq2    C2  914   3.570   1.696  12.854  0.1706 -0.5842  0.8519
   60TCq2    C3  915   3.492   1.583  12.824 -0.2782  0.7194  0.0135
   60TCq2    C4  916   3.516   1.517  12.706 -0.4192  0.2962  0.1226
   60TCq2    C5  917   3.608   1.569  12.619  0.0078  0.4049  0.8327
   60TCq2    C6  918   3.682   1.679  12.650 -0.0744  0.7154  0.2566
   60TCq2    C7  919   3.660   1.751  12.763 -0.5405 -0.7743  0.0859
   60TCq2    C8  920   3.750   1.743  12.537 -0.2106  0.5411 -0.2849
   60TCq2    O4  921   3.810   1.667  12.460 -0.0683  0.5081  0.6618
   60TCq2    C9  922   3.458   1.385  12.683 -0.7033 -0.2998 -0.3111
   60TCq2    O5  923   3.468   1.335  12.567 -0.9078  0.0699  0.4366
   60TCq2    O6  924   3.419   1.320  12.780  0.2654 -0.3489  0.0354
   60TCq2    H2  925   3.432   1.537  12.901  0.4357  0.9428  0.7045
   60TCq2    H3  926   3.618   1.523  12.521 -3.3192  0.6764  0.3984
   60TCq2    H4  927   3.724   1.836  12.783  0.2425 -0.8206 -2.2568
   61MPD2     C  928   3.421   3.477  15.094  0.6222  0.2801  0.4804
   61MPD2    C1  929   3.375   3.608  15.105  0.6939 -0.4752 -0.0428
   61MPD2    C2  930   3.379   3.690  14.989  0.6877  0.1539  0.4069
   61MPD2    C3  931   3.429   3.639  14.869  0.1256 -0.3938  0.7732
   61MPD2    C4  932   3.449   3.502  14.864  0.1081  0.6576  0.2651
   61MPD2    C5  933   3.453   3.423  14.974  1.0515  0.3127  0.1601
   61MPD2     H  934   3.353   3.795  15.000 -2.5475 -0.4584 -1.3212
   61MPD2    H1  935   3.478   3.449  14.774  0.3787  1.1399  0.0714
   61MPD2    H2  936   3.413   3.408  15.178 -1.2842 -0.3385 -0.2021
   61MPD2    H3  937   3.493   3.323  14.969 -1.1767 -0.4233 -2.6978
   61MPD2     N  938   3.457   3.713  14.752 -0.2280  0.8372  0.5565
   61MPD2    H5  939   3.485   3.653  14.674 -2.0405 -1.5545  1.7202
   61MPD2    N1  940   3.331   3.672  15.223 -0.5026 -0.4832  0.0982
   61MPD2    H7  941   3.310   3.771  15.221  2.9787  0.2858  1.9679
   62TCq2    C1  942   3.344   3.611  15.343 -0.2398 -0.4657  0.1434
   62TCq2    O2  943   3.383   3.501  15.374 -0.0018  0.2541 -0.6939
   62TCq2    C2  944   3.313   3.709  15.449 -0.3590  0.3173  0.2682
   62TCq2    C3  945   3.312   3.648  15.569 -0.4657 -0.1811  0.6569
   62TCq2    C4  946   3.258   3.725  15.665  0.3927  0.9215 -0.7359
   62TCq2    C5  947   3.188   3.839  15.653 -0.1265 -0.3240  0.1953
   62TCq2    C6  948   3.180   3.885  15.528  0.2245 -0.1757 -0.1722
   62TCq2    C7  949   3.246   3.828  15.422  0.1298 -0.0331 -0.6550
   62TCq2    C8  950   3.146   4.027  15.518 -0.9178  0.1558 -0.7232
   62TCq2    O4  951   3.217   4.104  15.460 -0.3931 -0.2146 -0.0413
   62TCq2    C9  952   3.269   3.674  15.809 -0.4043 -0.4726 -0.1144
   62TCq2    O5  953   3.331   3.562  15.812  0.0226 -0.0644 -0.1041
   62TCq2    O6  954   3.199   3.725  15.898  0.2511  0.3243  0.5365
   62TCq2    H2  955   3.386   3.573  15.594 -1.0408 -0.6898  0.8119
   62TCq2    H3  956   3.135   3.882  15.737 -1.1867 -1.0767 -0.0830
   62TCq2    H4  957   3.240   3.877  15.326  2.0593 -0.0590 -0.7910
   63TMC2    C1  958   2.774   3.627  10.040 -0.6356  0.9759 -0.3495
   63TMC2    C2  959   2.855   3.632  10.147  0.0487  0.0442  0.3776
   63TMC2    C3  960   2.923   3.749  10.181  0.9453  0.0689  0.4742
   63TMC2    C4  961   2.779   3.733   9.949  0.6562 -0.5270 -0.2038
   63TMC2    C5  962   2.853   3.844   9.984 -0.0706  0.0191 -0.6153
   63TMC2    C6  963   2.910   3.855  10.104 -0.0868  0.2339  0.1605
   63TMC2     C  964   2.685   3.519   9.998  0.2620  0.0019  0.7962
   63TMC2     O  965   2.639   3.523   9.883  0.2646  0.0294 -0.0410
   63TMC2     H  966   2.873   3.542  10.205 -0.5855 -1.4243 -1.7207
   63TMC2    H1  967   2.705   3.746   9.871 -0.6144  0.9098  1.2519
   63TMC2    H2  968   2.948   3.950  10.141  0.3569  0.1335 -0.0423
   63TMC2    C7  969   2.821   3.964   9.909  0.2022  0.1947  0.3686
   63TMC2    C8  970   3.029   3.742  10.286 -0.2556 -0.0072 -0.0571
   63TMC2    O1  971   2.733   3.966   9.824 -0.1457 -0.3940 -0.0580
   63TMC2    O2  972   3.046   3.647  10.355  0.5862 -0.3931 -0.0760
   63TMC2    O5  973   3.132   3.815  10.244 -0.2790 -0.2672  0.8969
   63TMC2    H5  974   3.115   3.883  10.175 -0.5990  1.2037  2.4270
   64MPD2     C  975   2.410   3.111  10.132  0.5965 -0.2866  0.5966
   64MPD2    C1  976   2.507   3.135  10.233  0.0633 -0.6143 -1.0802
   64MPD2    C2  977   2.589   3.244  10.230 -0.0941  0.8983  0.1987
   64MPD2    C3  978   2.589   3.327  10.117  0.3461  0.4937 -1.3833
   64MPD2    C4  979   2.498   3.300  10.010  0.0409 -0.4611 -0.0567
   64MPD2    C5  980   2.411   3.193  10.024  0.1127 -0.2917  0.5321
   64MPD2     H  981   2.657   3.249  10.314 -0.1353  0.0151  0.2835
   64MPD2    H1  982   2.475   3.370   9.931  0.6587 -0.0642  0.1088
   64MPD2    H2  983   2.340   3.028  10.127  0.5100 -0.2036  0.4332
   64MPD2    H3  984   2.335   3.186   9.946 -0.7503 -1.6172  1.4912
   64MPD2     N  985   2.669   3.444  10.109  0.0445 -0.6109  0.0125
   64MPD2    H5  986   2.716   3.474  10.194  0.8140 -3.4466  0.5921
   64MPD2    N1  987   2.543   3.046  10.338 -0.3998  0.9358 -0.3989
   64MPD2    H7  988   2.634   3.059  10.381 -0.9163  0.8072  0.7128
   65MPD2     C  989   3.724   3.142  15.809 -0.2935 -0.3841 -0.1547
   65MPD2    C1  990   3.744   3.109  15.675 -0.0266 -0.0400  0.4886
   65MPD2    C2  991   3.747   2.976  15.648 -0.6911  0.6484  0.3375
   65MPD2    C3  992   3.750   2.876  15.744  0.2811 -0.0374 -0.5186
   65MPD2    C4  993   3.739   2.911  15.875  0.4987  0.0043 -0.2938
   65MPD2    C5  994   3.713   3.047  15.910 -0.0623  0.0879 -0.5582
   65MPD2     H  995   3.759   2.957  15.542  0.0582  2.2576  0.1441
   65MPD2    H1  996   3.766   2.834  15.946  1.0656  0.1441 -0.3547
   65MPD2    H2  997   3.721   3.245  15.842  0.3755 -0.5964  0.5953
   65MPD2    H3  998   3.717   3.074  16.015  0.2743 -0.6823 -0.3728
   65MPD2     N  999   3.767   2.740  15.709  0.2948 -0.0036 -0.3591
   65MPD2    H5 1000   3.774   2.673  15.785  0.9878  0.9590  0.4239
   65MPD2    N1 1001   3.753   3.197  15.572  0.1601 -0.5113 -0.4507
   65MPD2    H7 1002   3.766   3.159  15.478 -0.4545  0.4152 -0.9054
   66TCq2    C1 1003   3.732   3.329  15.582 -0.7420  0.3838  0.3173
   66TCq2    O2 1004   3.692   3.393  15.678  0.7113  0.1303 -0.5151
   66TCq2    C2 1005   3.742   3.391  15.453  0.1383 -0.0186  0.8260
   66TCq2    C3 1006   3.813   3.328  15.355  0.0719 -0.2799 -0.7181
   66TCq2    C4 1007   3.846   3.401  15.242  0.5105 -0.4000  0.2199
   66TCq2    C5 1008   3.800   3.529  15.224 -0.1119 -0.2271  0.1627
   66TCq2    C6 1009   3.724   3.581  15.319  0.5321 -0.2316 -0.4547
   66TCq2    C7 1010   3.702   3.521  15.439  0.8777 -0.0491  0.0632
   66TCq2    C8 1011   3.687   3.725  15.305  0.0637  0.4130 -0.4761
   66TCq2    O4 1012   3.720   3.784  15.202  0.1967 -0.1417 -0.1634
   66TCq2    C9 1013   3.941   3.354  15.137 -0.3600 -0.7325 -0.0964
   66TCq2    O5 1014   3.989   3.440  15.063  0.5275 -0.2542  0.4541
   66TCq2    O6 1015   3.960   3.224  15.139  0.0589  0.3068 -0.4413
   66TCq2    H2 1016   3.880   3.243  15.369  1.4193  0.6198 -1.6944
   66TCq2    H3 1017   3.819   3.588  15.135 -0.4737 -1.6663 -0.8725
   66TCq2    H4 1018   3.641   3.565  15.518 -1.9455 -0.9256 -1.6351
   67MPD2     C 1019   3.891   2.428  14.295 -0.3755 -0.2291 -0.7312
   67MPD2    C1 1020   3.835   2.561  14.296 -0.1289 -0.1049  0.9452
   67MPD2    C2 1021   3.707   2.576  14.241  0.5510 -0.2209  0.2989
   67MPD2    C3 1022   3.635   2.461  14.203  0.0086 -0.0130  0.0303
   67MPD2    C4 1023   3.687   2.329  14.209  0.3936 -0.0626  0.0429
   67MPD2    C5 1024   3.817   2.319  14.248  0.8271 -0.2132 -0.1434
   67MPD2     H 1025   3.673   2.676  14.217  0.4465 -0.6074 -1.1618
   67MPD2    H1 1026   3.624   2.253  14.165 -1.3086  1.7226 -0.6037
   67MPD2    H2 1027   3.992   2.408  14.331 -0.9359 -0.2813  0.8419
   67MPD2    H3 1028   3.863   2.221  14.247  0.1117 -0.5259 -1.1916
   67MPD2     N 1029   3.506   2.462  14.147  0.8817 -0.4566  0.2292
   67MPD2    H5 1030   3.480   2.376  14.100  1.7882  1.2985 -3.5754
   67MPD2    N1 1031   3.901   2.675  14.353 -0.1860  0.0052 -0.7596
   67MPD2    H7 1032   3.845   2.754  14.381  0.3658 -0.5629  1.9996
   68TCq2    C1 1033   4.035   2.679  14.394  0.1557 -0.0317  0.0228
   68TCq2    O2 1034   4.117   2.592  14.381 -0.5742 -0.1067  0.0925
   68TCq2    C2 1035   4.080   2.796  14.468  0.5848  0.1904  0.4214
   68TCq2    C3 1036   3.990   2.897  14.497  0.1867 -0.4587  0.3049
   68TCq2    C4 1037   4.019   2.979  14.613  0.6836 -0.4052  0.7535
   68TCq2    C5 1038   4.120   2.947  14.698  0.4737 -0.0410  0.4101
   68TCq2    C6 1039   4.198   2.841  14.663  0.6285  0.9291  0.2574
   68TCq2    C7 1040   4.185   2.765  14.551  0.3805 -0.2555 -0.0122
   68TCq2    C8 1041   4.292   2.786  14.757 -0.0455 -0.6001 -0.2970
   68TCq2    O4 1042   4.400   2.755  14.710  0.4069  0.0716  0.3823
   68TCq2    C9 1043   3.930   3.094  14.646 -0.5323  1.0831 -0.0773
   68TCq2    O5 1044   3.938   3.146  14.759  0.3902 -0.3196  0.2289
   68TCq2    O6 1045   3.822   3.110  14.571 -0.2069 -0.2449  0.2562
   68TCq2    H2 1046   3.897   2.915  14.445  0.8603  1.8730 -0.0560
   68TCq2    H3 1047   4.163   3.016  14.770  0.0948  1.1629 -0.5208
   68TCq2    H4 1048   4.258   2.691  14.520 -1.0664 -1.3476 -0.8116
   69TMC2    C1 1049   1.125   3.620  12.494 -0.4361  0.6136  0.4715
   69TMC2    C2 1050   0.996   3.589  12.460 -0.7050  0.2562  0.3590
   69TMC2    C3 1051   0.962   3.596  12.320 -0.4533  0.2932 -0.1799
   69TMC2    C4 1052   1.219   3.652  12.406 -0.4482  0.5382  0.3660
   69TMC2    C5 1053   1.193   3.654  12.279  0.6255  0.0848 -0.3500
   69TMC2    C6 1054   1.060   3.633  12.232  0.3366 -0.4406 -0.0904
   69TMC2     C 1055   1.161   3.598  12.628  0.2127  0.1605 -0.0618
   69TMC2     O 1056   1.099   3.517  12.691 -0.0466  0.7128 -0.4879
   69TMC2     H 1057   0.932   3.553  12.540 -0.0423 -0.4071  0.5972
   69TMC2    H1 1058   1.318   3.674  12.445 -0.2521  1.3470 -0.5981
   69TMC2    H2 1059   1.039   3.619  12.126  0.8599  0.0922 -0.2717
   69TMC2    C7 1060   1.307   3.626  12.196 -0.6091  0.2745  1.2052
   69TMC2    C8 1061   0.826   3.628  12.297  0.0449  0.0705  0.0048
   69TMC2    O1 1062   1.415   3.608  12.242 -0.3684 -0.0861 -0.3619
   69TMC2    O2 1063   0.724   3.567  12.325 -0.2369 -0.2297  0.2984
   69TMC2    O5 1064   0.833   3.748  12.233 -0.1177 -0.0483  0.1001
   69TMC2    H5 1065   0.926   3.778  12.230 -0.7388  1.8357 -0.7251
   70MPD2     C 1066   1.404   3.793  12.813  0.0805  0.2235 -0.1274
   70MPD2    C1 1067   1.304   3.702  12.796 -0.5566 -0.1501 -0.5496
   70MPD2    C2 1068   1.269   3.615  12.897  0.1615 -0.3220  0.5912
   70MPD2    C3 1069   1.324   3.632  13.021  0.5619  0.2692  0.0620
   70MPD2    C4 1070   1.409   3.734  13.048  0.6844  0.0593  0.5280
   70MPD2    C5 1071   1.451   3.812  12.946  0.3851  0.2081 -0.2461
   70MPD2     H 1072   1.206   3.526  12.892  0.0545 -0.2896  1.3508
   70MPD2    H1 1073   1.453   3.746  13.146  0.1569  1.8323  0.5528
   70MPD2    H2 1074   1.429   3.858  12.729  2.1557  0.8399  0.9613
   70MPD2    H3 1075   1.523   3.890  12.971  0.9174 -0.9292  1.7724
   70MPD2     N 1076   1.292   3.545  13.128  0.5649 -0.3782  0.1018
   70MPD2    H5 1077   1.353   3.554  13.209  0.4772  0.3567  0.0841
   70MPD2    N1 1078   1.253   3.688  12.668 -0.9720 -0.3014  0.0807
   70MPD2    H7 1079   1.284   3.760  12.604  0.6540 -1.0880 -0.0079
   71TMC2    C1 1080   4.242   4.347   1.632 -1.0590 -0.9174  0.0276
   71TMC2    C2 1081   4.374   4.348   1.670  0.3371  0.0685 -0.7886
   71TMC2    C3 1082   4.398   4.327   1.800  0.1983  0.5856  0.4871
   71TMC2    C4 1083   4.138   4.328   1.720  0.0622  0.5907  0.1790
   71TMC2    C5 1084   4.167   4.292   1.847  0.0471  0.5739 -0.2238
   71TMC2    C6 1085   4.299   4.302   1.891 -0.0482  0.3248  0.5904
   71TMC2     C 1086   4.202   4.381   1.495  0.4760  0.7952 -0.0804
   71TMC2     O 1087   4.085   4.410   1.464  0.0934  0.5768 -0.5227
   71TMC2     H 1088   4.458   4.379   1.609  2.4486 -0.6225  1.7679
   71TMC2    H1 1089   4.036   4.340   1.683 -0.3070  0.4775  1.1524
   71TMC2    H2 1090   4.322   4.260   1.988 -0.3516 -0.5803  0.2676
   71TMC2    C7 1091   4.088   4.196   1.922 -0.8395  0.7868 -0.4555
   71TMC2    C8 1092   4.543   4.284   1.823  0.2228 -0.2688 -0.0542
   71TMC2    O1 1093   4.124   4.166   2.032 -0.2833 -0.3802  0.3298
   71TMC2    O2 1094   4.603   4.226   1.732  0.1588  0.7024  0.2468
   71TMC2    O5 1095   4.595   4.340   1.935  0.5325  0.3533  0.1340
   71TMC2    H5 1096   4.529   4.388   1.989 -0.0365 -0.8214  0.4967
   72MPD2     C 1097   4.301   4.283   0.996  0.4292 -1.2534 -0.4239
   72MPD2    C1 1098   4.189   4.325   1.063 -0.2689 -0.1518 -0.6056
   72MPD2    C2 1099   4.188   4.359   1.196 -0.0803 -0.0646  0.1027
   72MPD2    C3 1100   4.304   4.338   1.268  0.1845 -0.5861  0.2369
   72MPD2    C4 1101   4.423   4.299   1.199 -0.2351  0.8218  0.1152
   72MPD2    C5 1102   4.421   4.272   1.066 -0.4152  0.0093 -0.5030
   72MPD2     H 1103   4.093   4.399   1.231 -0.7187 -0.6118 -1.0286
   72MPD2    H1 1104   4.513   4.293   1.259  0.7309 -1.4147 -1.5419
   72MPD2    H2 1105   4.305   4.240   0.896  2.0161 -0.3340 -0.7598
   72MPD2    H3 1106   4.515   4.239   1.024  0.2153  0.9787  0.1299
   72MPD2     N 1107   4.309   4.358   1.410 -0.2103  0.0188 -0.0990
   72MPD2    H5 1108   4.404   4.338   1.442  0.1082  0.5586 -0.6994
   72MPD2    N1 1109   4.067   4.339   0.995  1.0845 -0.1540 -0.7809
   72MPD2    H7 1110   3.986   4.365   1.050  1.1061  0.0945 -0.8665
   73TMC2    C1 1111   3.518   1.283  13.912  0.0117 -0.4774  0.6513
   73TMC2    C2 1112   3.523   1.349  14.030 -0.5485 -0.1432 -0.1430
   73TMC2    C3 1113   3.607   1.307  14.126 -1.2829  0.2940 -0.3068
   73TMC2    C4 1114   3.610   1.188  13.895  0.2175 -0.4521 -0.2077
   73TMC2    C5 1115   3.712   1.154  13.981  0.9871  0.2201  0.8318
   73TMC2    C6 1116   3.700   1.212  14.107  0.5746  0.4158  0.0794
   73TMC2     C 1117   3.523   1.377  13.805 -0.0384 -0.0679 -0.8102
   73TMC2     O 1118   3.628   1.367  13.741 -0.1363  0.3672 -0.1222
   73TMC2     H 1119   3.446   1.416  14.068  1.4453  1.0928  1.7346
   73TMC2    H1 1120   3.615   1.148  13.794  3.0663 -0.2372 -0.1304
   73TMC2    H2 1121   3.771   1.196  14.187 -0.2813 -2.3860  0.3034
   73TMC2    C7 1122   3.841   1.134  13.923  0.3377  0.3113  0.7651
   73TMC2    C8 1123   3.574   1.354  14.258 -0.6284  0.4833 -0.2382
   73TMC2    O1 1124   3.934   1.096  13.991 -0.1313  0.4306  0.5642
   73TMC2    O2 1125   3.551   1.468  14.287  0.1427 -0.6832  0.8506
   73TMC2    O5 1126   3.570   1.248  14.344  0.7869 -0.1591  0.2602
   73TMC2    H5 1127   3.584   1.161  14.300  0.8579  0.2982 -0.6102
   74MPD2     C 1128   3.353   1.696  13.433  0.1524  0.0022 -0.3541
   74MPD2    C1 1129   3.471   1.623  13.441 -0.1424 -0.1940 -0.9390
   74MPD2    C2 1130   3.498   1.550  13.560 -0.1571 -0.1444  0.4311
   74MPD2    C3 1131   3.399   1.532  13.660  0.0137  0.6502 -0.1271
   74MPD2    C4 1132   3.275   1.594  13.635  0.5715 -0.2219 -0.0592
   74MPD2    C5 1133   3.253   1.673  13.526  0.3150 -0.0636 -0.1395
   74MPD2     H 1134   3.591   1.497  13.579  0.6562  0.3794 -2.0328
   74MPD2    H1 1135   3.193   1.568  13.701 -0.6402  0.0477 -1.4496
   74MPD2    H2 1136   3.337   1.770  13.355  0.6949  1.2995  0.7619
   74MPD2    H3 1137   3.155   1.712  13.504 -0.6940 -2.7397 -0.2636
   74MPD2     N 1138   3.410   1.445  13.775  0.1774 -0.8577 -0.9762
   74MPD2    H5 1139   3.327   1.437  13.833  0.1377 -1.9258 -1.1713
   74MPD2    N1 1140   3.573   1.642  13.345 -0.3735 -0.7873 -0.7171
   74MPD2    H7 1141   3.549   1.677  13.253 -1.9857  1.8669  0.6988
   75TCq2    C1 1142   3.432   2.577  14.137 -0.0169 -0.0381  0.2335
   75TCq2    O2 1143   3.462   2.695  14.148 -0.1475  0.1220  1.2674
   75TCq2    C2 1144   3.309   2.554  14.061  0.6754  0.1044 -0.7874
   75TCq2    C3 1145   3.268   2.424  14.051 -0.6083  0.4732 -0.1076
   75TCq2    C4 1146   3.189   2.389  13.946  0.6920  0.4019  0.4025
   75TCq2    C5 1147   3.153   2.486  13.859 -0.0422  0.0986  0.5088
   75TCq2    C6 1148   3.207   2.611  13.864 -0.1720 -1.0276  0.9929
   75TCq2    C7 1149   3.271   2.652  13.972 -0.3307 -0.0551 -0.3899
   75TCq2    C8 1150   3.184   2.717  13.767 -0.5278 -0.0292  0.4692
   75TCq2    O4 1151   3.222   2.834  13.778 -0.5391 -0.0089  0.3861
   75TCq2    C9 1152   3.135   2.256  13.932  0.7753 -0.2149  0.0262
   75TCq2    O5 1153   3.179   2.171  14.013 -0.4145  0.1899  0.2415
   75TCq2    O6 1154   3.088   2.231  13.816 -0.0227  0.4791 -0.1257
   75TCq2    H2 1155   3.298   2.346  14.121 -1.0696  2.4900  2.3414
   75TCq2    H3 1156   3.109   2.459  13.764 -0.0213  1.1317  0.2088
   75TCq2    H4 1157   3.285   2.759  13.986  2.1534 -0.2643 -1.3652
   76MPD2     C 1158   2.167   2.973  12.052  0.3253  0.3435 -0.2280
   76MPD2    C1 1159   2.153   3.010  11.920  0.9026  0.1875 -0.5968
   76MPD2    C2 1160   2.167   2.911  11.824  0.0846  0.0466  0.4559
   76MPD2    C3 1161   2.199   2.781  11.856 -0.0446 -0.4019 -1.4559
   76MPD2    C4 1162   2.221   2.749  11.992 -0.2636 -0.8497  0.0627
   76MPD2    C5 1163   2.195   2.844  12.085  0.0494  0.2204 -0.9395
   76MPD2     H 1164   2.141   2.946  11.725 -0.1050 -1.6767 -0.1039
   76MPD2    H1 1165   2.244   2.645  12.012  1.9481 -0.5217 -0.8605
   76MPD2    H2 1166   2.172   3.041  12.136 -0.6641 -1.5318  1.3480
   76MPD2    H3 1167   2.223   2.824  12.188  0.0595 -0.9713 -1.1721
   76MPD2     N 1168   2.230   2.686  11.764 -0.1278  0.0301  0.2165
   76MPD2    H5 1169   2.247   2.590  11.793 -2.8163 -0.0556  1.4601
   76MPD2    N1 1170   2.127   3.142  11.882  0.2833 -0.3909  0.0251
   76MPD2    H7 1171   2.119   3.161  11.783  0.1329 -0.0460  0.1038
   77TCq2    C1 1172   2.246   2.707  11.629 -0.0073 -0.0432 -0.4136
   77TCq2    O2 1173   2.237   2.802  11.551  0.0738 -0.3375 -0.0241
   77TCq2    C2 1174   2.278   2.578  11.565 -0.2327 -0.3579 -0.6073
   77TCq2    C3 1175   2.229   2.548  11.438  0.5564  0.5469  0.4698
   77TCq2    C4 1176   2.257   2.431  11.377  0.6874  0.7479 -0.6330
   77TCq2    C5 1177   2.326   2.332  11.444 -0.3386  0.3145 -0.6596
   77TCq2    C6 1178   2.380   2.365  11.568 -0.2597 -0.3571  0.5631
   77TCq2    C7 1179   2.352   2.481  11.629 -0.2462  0.6167  0.7077
   77TCq2    C8 1180   2.441   2.256  11.634  0.0258  0.3721 -0.1651
   77TCq2    O4 1181   2.401   2.143  11.602 -0.0655  0.4605 -0.3834
   77TCq2    C9 1182   2.217   2.411  11.236 -0.2580 -0.5158  0.3407
   77TCq2    O5 1183   2.153   2.505  11.177 -0.0286  0.3267  0.6928
   77TCq2    O6 1184   2.239   2.299  11.183 -0.5100 -0.4379  0.7206
   77TCq2    H2 1185   2.179   2.629  11.386  0.4257  1.3288  1.7914
   77TCq2    H3 1186   2.370   2.242  11.402  0.8243  0.0055  1.2299
   77TCq2    H4 1187   2.411   2.506  11.717  2.1258 -1.1077 -0.3920
   78MPD1     C 1188   2.738   2.866   1.534  0.1560 -1.0743  0.3091
   78MPD1    C1 1189   2.712   2.997   1.502  0.2213 -0.2166  0.2667
   78MPD1    C2 1190   2.802   3.094   1.534  0.7244 -0.3488 -0.1665
   78MPD1    C3 1191   2.922   3.057   1.589 -0.0875  0.2066 -0.6687
   78MPD1    C4 1192   2.945   2.928   1.620  0.3437 -0.7310 -0.1543
   78MPD1    C5 1193   2.856   2.832   1.593 -0.5923 -0.2526  0.0325
   78MPD1     H 1194   2.777   3.199   1.520  0.8368  0.1235  3.2111
   78MPD1    H1 1195   3.040   2.892   1.659  0.9165  2.2953  1.1890
   78MPD1    H2 1196   2.658   2.794   1.526 -0.4918 -0.0718 -2.3915
   78MPD1    H3 1197   2.881   2.727   1.604 -2.5008 -0.7147  0.0292
   78MPD1     N 1198   3.024   3.143   1.631 -0.1740 -0.0625  0.2820
   78MPD1    H5 1199   3.110   3.104   1.667 -1.0551 -2.2840  0.0088
   78MPD1    N1 1200   2.581   3.027   1.463  0.3526  0.1681  0.4452
   78MPD1    H6 1201   2.585   3.103   1.395 -2.0493  0.3460  0.5070
   78MPD1    H7 1202   2.527   2.952   1.421  2.7558  0.1969 -2.6618
   79TCq2    C1 1203   3.031   3.271   1.591 -0.2580  0.0668  0.7490
   79TCq2    O2 1204   2.958   3.336   1.518 -0.6087 -0.2799 -0.0191
   79TCq2    C2 1205   3.130   3.337   1.657 -0.5690 -0.0449 -0.2035
   79TCq2    C3 1206   3.184   3.291   1.776 -0.2124 -0.2045 -0.5173
   79TCq2    C4 1207   3.303   3.336   1.825 -0.3107 -0.2056 -0.6118
   79TCq2    C5 1208   3.377   3.418   1.747 -0.5125 -0.2447 -0.5041
   79TCq2    C6 1209   3.326   3.466   1.628  0.5121  0.1779 -0.1437
   79TCq2    C7 1210   3.203   3.426   1.586 -0.8022  0.1753  0.3997
   79TCq2    C8 1211   3.419   3.545   1.544 -0.2511 -0.2108  0.1987
   79TCq2    O4 1212   3.499   3.609   1.604  0.5789  0.6159  0.4582
   79TCq2    C9 1213   3.360   3.287   1.953  0.2204 -0.4478 -0.4660
   79TCq2    O5 1214   3.464   3.349   1.993 -0.3740  0.7681  0.5537
   79TCq2    O6 1215   3.305   3.188   2.011 -0.1383  0.6579  0.4869
   79TCq2    H2 1216   3.126   3.222   1.836 -0.2343 -1.1224 -1.5965
   79TCq2    H3 1217   3.474   3.442   1.788 -0.1885 -1.1002 -0.7598
   79TCq2    H4 1218   3.174   3.450   1.484 -0.5471 -1.0131  0.0478
   80MPD2     C 1219   1.435   2.758  11.923 -0.5118 -0.2500 -0.2416
   80MPD2    C1 1220   1.348   2.731  11.817 -0.1338  0.3630 -0.4514
   80MPD2    C2 1221   1.209   2.724  11.827  0.4799 -0.1886 -0.6778
   80MPD2    C3 1222   1.152   2.721  11.950 -0.0012 -0.0233  0.6028
   80MPD2    C4 1223   1.240   2.745  12.059  0.3721  0.8195 -0.8652
   80MPD2    C5 1224   1.375   2.769  12.046  0.3892  0.0510  0.3784
   80MPD2     H 1225   1.144   2.697  11.745 -0.3848 -0.3078  0.0532
   80MPD2    H1 1226   1.198   2.728  12.157  2.7006 -0.4847 -0.0984
   80MPD2    H2 1227   1.540   2.782  11.908 -0.7822  1.6290  0.8802
   80MPD2    H3 1228   1.437   2.781  12.134 -0.3804 -1.9738  1.1851
   80MPD2     N 1229   1.018   2.689  11.979 -0.5222  0.2572 -0.7494
   80MPD2    H5 1230   1.005   2.668  12.077 -0.2179  0.5300 -0.6484
   80MPD2    N1 1231   1.394   2.715  11.691 -0.0983  0.5888  0.3908
   80MPD2    H7 1232   1.334   2.691  11.613  2.3078  0.3171 -1.3696
   81TCq2    C1 1233   1.526   2.733  11.650 -0.4780 -0.4821 -0.0140
   81TCq2    O2 1234   1.619   2.794  11.705 -0.0459  0.2089 -0.1286
   81TCq2    C2 1235   1.540   2.697  11.517  0.0503 -0.4452  0.1463
   81TCq2    C3 1236   1.605   2.774  11.429 -0.0504  0.4168 -0.3020
   81TCq2    C4 1237   1.587   2.758  11.299 -0.2638 -0.1101  0.6091
   81TCq2    C5 1238   1.503   2.668  11.244  0.4815 -0.1298  0.5624
   81TCq2    C6 1239   1.441   2.582  11.334  0.3545  0.0826  0.0911
   81TCq2    C7 1240   1.459   2.599  11.469  0.1816  0.1805 -0.0228
   81TCq2    C8 1241   1.390   2.459  11.280  0.0349  0.0761  0.0841
   81TCq2    O4 1242   1.369   2.450  11.157  0.4404  0.5266  0.0201
   81TCq2    C9 1243   1.666   2.845  11.214 -0.4321  0.4876  0.5476
   81TCq2    O5 1244   1.616   2.888  11.110 -0.4010 -0.9726 -0.5387
   81TCq2    O6 1245   1.774   2.892  11.256  0.0007  0.3974  0.0356
   81TCq2    H2 1246   1.673   2.852  11.462 -1.3825  0.7806  1.5536
   81TCq2    H3 1247   1.498   2.656  11.136 -1.0055 -1.1582  0.7372
   81TCq2    H4 1248   1.427   2.522  11.539 -0.2723  0.8602  0.5270
   82MPD2     C 1249   4.657   2.398  11.148  0.1361 -0.7135 -0.0631
   82MPD2    C1 1250   4.561   2.305  11.136  0.4242  0.9034 -0.2056
   82MPD2    C2 1251   4.597   2.168  11.138  0.5322 -0.3759 -0.0578
   82MPD2    C3 1252   0.008   2.130  11.150  0.2220  1.3142  0.2872
   82MPD2    C4 1253   0.105   2.225  11.159 -0.0507  0.2930  0.4126
   82MPD2    C5 1254   0.065   2.353  11.149 -0.3031  0.4622  0.1414
   82MPD2     H 1255   4.526   2.088  11.123 -0.8620  0.5538  1.5823
   82MPD2    H1 1256   0.209   2.200  11.178  0.9344  1.0114 -3.9322
   82MPD2    H2 1257   4.629   2.502  11.143  0.9211 -0.4841  0.3344
   82MPD2    H3 1258   0.145   2.425  11.158 -0.2584  0.2707  1.2452
   82MPD2     N 1259   0.052   1.997  11.132 -0.8581  0.3885 -0.3327
   82MPD2    H5 1260   0.152   1.995  11.114 -0.7688  2.4073 -0.0924
   82MPD2    N1 1261   4.432   2.344  11.091  0.2129  0.1375 -0.0185
   82MPD2    H7 1262   4.414   2.439  11.061  2.1105  0.3772 -0.4109
   83TCq2    C1 1263   4.697   1.882  11.138  0.1997  0.5645  0.6506
   83TCq2    O2 1264   4.588   1.870  11.189 -0.2212  0.3329 -0.5300
   83TCq2    C2 1265   0.014   1.775  11.055  0.0254  0.3564 -0.1868
   83TCq2    C3 1266   0.075   1.819  10.935 -0.7759 -0.9263 -0.3053
   83TCq2    C4 1267   0.027   1.774  10.814 -0.1953  0.3614 -0.1510
   83TCq2    C5 1268   4.652   1.686  10.805  0.1993  0.4572 -0.2714
   83TCq2    C6 1269   4.595   1.638  10.919  0.7358  0.1012  0.5842
   83TCq2    C7 1270   4.633   1.684  11.046  0.4483  0.2947  0.3431
   83TCq2    C8 1271   4.452   1.607  10.917  0.0767 -0.0927  0.6088
   83TCq2    O4 1272   4.413   1.535  11.009 -0.6941 -0.1799 -0.3638
   83TCq2    C9 1273   0.077   1.834  10.690 -0.2198  0.2439 -0.2507
   83TCq2    O5 1274   4.718   1.851  10.598  0.3692 -0.5180 -0.9997
   83TCq2    O6 1275   0.185   1.905  10.706 -0.4894  0.0511  0.2048
   83TCq2    H2 1276   0.144   1.903  10.934 -0.6581 -1.0096  0.8513
   83TCq2    H3 1277   4.621   1.648  10.708 -2.6548 -1.4352  1.3591
   83TCq2    H4 1278   4.577   1.645  11.130  1.3875 -0.3671  0.6658
   84TCq2    C1 1279   0.361   0.757  10.282 -0.0090  0.4211  1.1723
   84TCq2    O2 1280   0.294   0.681  10.349  0.0437  0.0176  0.0708
   84TCq2    C2 1281   0.478   0.823  10.344 -0.6432 -0.2050 -0.5400
   84TCq2    C3 1282   0.588   0.831  10.263  0.6014 -0.8089  0.3741
   84TCq2    C4 1283   0.704   0.884  10.319  0.3421 -0.6470  0.3471
   84TCq2    C5 1284   0.717   0.896  10.456 -0.9649 -0.2240 -0.0671
   84TCq2    C6 1285   0.603   0.881  10.536 -0.0219 -0.1689  0.1982
   84TCq2    C7 1286   0.480   0.838  10.478 -0.1974  0.0019 -0.0635
   84TCq2    C8 1287   0.605   0.892  10.679  0.4723 -0.4493  0.5367
   84TCq2    O4 1288   0.500   0.914  10.735 -0.3096 -0.2054 -0.6600
   84TCq2    C9 1289   0.809   0.932  10.235  0.4227  0.2454  0.5164
   84TCq2    O5 1290   0.924   0.911  10.279  0.3073 -0.3633 -0.5581
   84TCq2    O6 1291   0.783   0.984  10.124  0.0136 -0.3598 -0.4125
   84TCq2    H2 1292   0.591   0.815  10.156  0.5460  2.6037 -0.1294
   84TCq2    H3 1293   0.807   0.943  10.495 -0.7679  1.5460 -2.6444
   84TCq2    H4 1294   0.399   0.805  10.542  2.8488 -0.8907  3.3175
   85MPD2     C 1295   0.974   4.178  15.994 -0.3877  0.2817  0.0142
   85MPD2    C1 1296   0.975   4.117  15.872 -0.1642  0.8063  0.1990
   85MPD2    C2 1297   1.049   4.172  15.768  0.2615  0.2289 -1.0020
   85MPD2    C3 1298   1.099   4.298  15.779  0.0704 -0.4751  0.0666
   85MPD2    C4 1299   1.089   4.361  15.905 -0.1867 -0.7648 -0.6249
   85MPD2    C5 1300   1.042   4.300  16.012  0.0571  0.0611 -1.0498
   85MPD2     H 1301   1.053   4.124  15.671 -1.8866  0.4348 -1.2091
   85MPD2    H1 1302   1.145   4.452  15.926 -1.7547  0.2360 -0.7899
   85MPD2    H2 1303   0.930   4.131  16.081  0.9587  2.1342  1.7068
   85MPD2    H3 1304   1.047   4.339  16.113 -0.5650  0.7345 -1.2796
   85MPD2     N 1305   1.171   4.356  15.668 -0.1081 -0.5006 -0.4881
   85MPD2    H5 1306   1.175   4.305  15.580 -1.3901  1.7805 -1.8680
   85MPD2    N1 1307   0.917   3.993  15.847  0.0750  0.0579  0.0963
   85MPD2    H7 1308   0.907   3.961  15.752  0.1482  0.8891 -0.1942
   86TCq2    C1 1309   1.213   4.485  15.667  0.0339 -0.1209 -0.1424
   86TCq2    O2 1310   1.219   4.577  15.748  0.1666 -0.1661 -0.1006
   86TCq2    C2 1311   1.289   4.507  15.544  0.8032 -0.2649 -0.2314
   86TCq2    C3 1312   1.291   4.632  15.489  0.4704 -0.4666 -0.4784
   86TCq2    C4 1313   1.332   4.639  15.358  0.7650 -0.5083  0.9093
   86TCq2    C5 1314   1.369   4.527  15.285  0.1272  0.0851 -0.8143
   86TCq2    C6 1315   1.381   4.408  15.352 -0.1487  0.0113 -0.5613
   86TCq2    C7 1316   1.345   4.391  15.488  0.1836 -0.5685 -0.8348
   86TCq2    C8 1317   1.406   4.283  15.276 -0.0738  0.2228 -0.4691
   86TCq2    O4 1318   1.446   4.184  15.340  0.0671  0.1032  0.0905
   86TCq2    C9 1319   1.318   0.043  15.288 -0.1447  0.0295 -0.0905
   86TCq2    O5 1320   1.380   0.058  15.179 -0.4142 -0.1538 -0.2819
   86TCq2    O6 1321   1.268   0.136  15.353 -0.3801 -0.5445  0.0291
   86TCq2    H2 1322   1.235   4.715  15.530 -0.1241 -1.8455  1.5083
   86TCq2    H3 1323   1.378   4.529  15.177  0.4599  1.0609 -0.7739
   86TCq2    H4 1324   1.351   4.290  15.528 -0.5639  0.5149  2.0653
   87MPD2     C 1325   3.358   3.187   1.332 -0.1488  0.1612  0.9988
   87MPD2    C1 1326   3.477   3.232   1.286  0.4754  0.4375  0.1684
   87MPD2    C2 1327   3.495   3.267   1.150  0.0262 -0.3928 -0.1783
   87MPD2    C3 1328   3.383   3.266   1.064 -0.2021  0.3584 -0.3468
   87MPD2    C4 1329   3.267   3.219   1.113  0.0305 -0.4641  0.0375
   87MPD2    C5 1330   3.253   3.176   1.243 -0.4964  0.2738  0.3208
   87MPD2     H 1331   3.590   3.316   1.132 -1.1504  1.1298 -2.2674
   87MPD2    H1 1332   3.185   3.206   1.044  1.5849 -1.8580 -1.5304
   87MPD2    H2 1333   3.342   3.157   1.435  0.1845 -0.4214  0.8764
   87MPD2    H3 1334   3.162   3.134   1.283 -1.2689  0.8339 -0.8575
   87MPD2     N 1335   3.384   3.307   0.929  0.4787 -0.4850  0.4499
   87MPD2    H5 1336   3.293   3.305   0.884  1.8855  1.1415 -2.4689
   87MPD2    N1 1337   3.591   3.242   1.368  0.3098 -0.0684  0.0181
   87MPD2    H7 1338   3.673   3.277   1.318  0.3969  0.5460  0.6013
   88TCq2    C1 1339   3.606   3.199   1.501 -0.4332 -0.8617  0.5284
   88TCq2    O2 1340   3.522   3.191   1.590  0.3211 -0.1385 -0.0969
   88TCq2    C2 1341   3.741   3.204   1.540  0.0328  0.0106 -0.0408
   88TCq2    C3 1342   3.772   3.245   1.664 -0.4651 -0.1788  0.3615
   88TCq2    C4 1343   3.903   3.258   1.707 -0.1271 -0.0756 -0.1854
   88TCq2    C5 1344   4.003   3.231   1.616 -0.4591  0.8138  0.2425
   88TCq2    C6 1345   3.967   3.202   1.484 -0.4849 -0.2299  0.0297
   88TCq2    C7 1346   3.834   3.182   1.443 -0.2973 -0.1162  0.0250
   88TCq2    C8 1347   4.066   3.193   1.371 -0.1219  0.4395 -0.0576
   88TCq2    O4 1348   4.024   3.197   1.254 -0.4526  0.2485  0.2035
   88TCq2    C9 1349   3.927   3.298   1.847 -0.8369 -0.4509 -0.3403
   88TCq2    O5 1350   3.828   3.322   1.921 -0.0523  0.6585  0.2492
   88TCq2    O6 1351   4.042   3.270   1.886 -0.0018  0.0178 -0.7944
   88TCq2    H2 1352   3.697   3.275   1.737  0.8183 -1.3588  2.1799
   88TCq2    H3 1353   4.107   3.247   1.643  0.1045  0.8507 -1.9652
   88TCq2    H4 1354   3.804   3.156   1.342 -0.0986 -0.0766 -0.0445
   89MPD2     C 1355   4.483   1.012   1.893  0.1521  0.2715 -0.2682
   89MPD2    C1 1356   4.371   1.096   1.882  0.0644  0.3114 -0.8456
   89MPD2    C2 1357   4.394   1.234   1.851  0.3761 -0.6811  0.0633
   89MPD2    C3 1358   4.522   1.281   1.827 -0.1376 -0.6630 -0.0925
   89MPD2    C4 1359   4.634   1.196   1.847  0.1794  0.6387  0.8204
   89MPD2    C5 1360   4.614   1.060   1.886 -1.0161 -0.0468 -0.0268
   89MPD2     H 1361   4.302   1.292   1.845  1.6158  1.2056 -0.8116
   89MPD2    H1 1362   0.006   1.245   1.830 -0.8432  2.5807  0.6340
   89MPD2    H2 1363   4.471   0.906   1.909  2.6461 -0.2891 -2.1587
   89MPD2    H3 1364   4.694   0.989   1.904 -0.6079  0.9161  1.8980
   89MPD2     N 1365   4.535   1.414   1.778  0.1835  0.6454  0.3506
   89MPD2    H5 1366   4.450   1.469   1.776 -0.1452  0.1166 -0.1562
   89MPD2    N1 1367   4.231   1.061   1.882 -0.1225  0.3318  0.3518
   89MPD2    H7 1368   4.163   1.136   1.878  0.0045  0.3899 -1.0428
   90TCq2    C1 1369   4.647   1.484   1.737  0.3137  0.3007 -0.5153
   90TCq2    O2 1370   0.033   1.435   1.695  0.0336  0.1662 -0.4477
   90TCq2    C2 1371   4.616   1.629   1.727  0.1190  0.1977 -0.5579
   90TCq2    C3 1372   4.522   1.679   1.820  0.2170 -0.0305 -0.1635
   90TCq2    C4 1373   4.497   1.812   1.810 -0.7140  0.6797  0.1557
   90TCq2    C5 1374   4.530   1.885   1.700  0.4553 -0.8183 -0.3699
   90TCq2    C6 1375   4.629   1.831   1.622 -0.3587 -0.2376  0.0838
   90TCq2    C7 1376   4.676   1.705   1.638 -0.5808 -0.1054  0.5379
   90TCq2    C8 1377   4.656   1.903   1.501  0.6038 -0.8568  0.2321
   90TCq2    O4 1378   4.568   1.975   1.465  0.6872  0.0058  0.2185
   90TCq2    C9 1379   4.425   1.875   1.921 -0.0829 -0.5241 -0.7878
   90TCq2    O5 1380   4.352   1.799   1.989  0.2049  0.2015 -0.0173
   90TCq2    O6 1381   4.396   1.996   1.901 -0.3167 -0.2231  0.1273
   90TCq2    H2 1382   4.474   1.626   1.902 -0.5840  1.6533  0.4774
   90TCq2    H3 1383   4.492   1.984   1.680 -0.3648 -0.9428  0.5592
   90TCq2    H4 1384   0.018   1.665   1.560 -2.7920 -0.6369 -1.0117
   91TMC2    C1 1385   1.042   0.739  16.493 -0.6012 -0.2494 -0.6291
   91TMC2    C2 1386   1.098   0.727  16.612  0.4095  0.6880 -0.9157
   91TMC2    C3 1387   1.022   0.672  16.710 -0.3437  0.4679 -0.0104
   91TMC2    C4 1388   0.906   0.717  16.477 -0.6130 -0.6410 -0.4901
   91TMC2    C5 1389   0.834   0.673  16.585  0.3300 -0.1199  0.3472
   91TMC2    C6 1390   0.891   0.640  16.708  0.1856  0.1098 -0.7720
   91TMC2     C 1391   1.107   0.700  16.373 -0.6472  0.3071  0.1609
   91TMC2     O 1392   1.035   0.664  16.280 -0.5080  0.2336 -0.3329
   91TMC2     H 1393   1.206   0.736  16.617  0.3775  0.8884 -0.6241
   91TMC2    H1 1394   0.853   0.737  16.384  0.9750 -2.0093 -1.6970
   91TMC2    H2 1395   0.832   0.614  16.795  0.3856 -1.0943 -0.9892
   91TMC2    C7 1396   0.726   0.578  16.551  1.7447 -0.4122  0.1834
   91TMC2    C8 1397   1.089   0.671  16.838 -0.3176 -0.0073  0.0519
   91TMC2    O1 1398   0.672   0.520  16.645 -0.1128 -0.1535  0.1715
   91TMC2    O2 1399   1.171   0.759  16.858  0.5433 -0.1772  0.8130
   91TMC2    O5 1400   1.047   0.577  16.922  0.1264 -0.1764 -0.1278
   91TMC2    H5 1401   0.992   0.509  16.877 -1.2499  0.2397  0.9446
   92MPD2     C 1402   1.283   0.642  16.150 -0.1899  0.0558 -0.3409
   92MPD2    C1 1403   1.336   0.671  16.273 -0.2573  0.5025  0.8855
   92MPD2    C2 1404   1.472   0.670  16.295 -0.6992 -0.3537 -0.1045
   92MPD2    C3 1405   1.556   0.620  16.197 -0.0756  0.6671 -0.2732
   92MPD2    C4 1406   1.509   0.584  16.074 -0.5461 -0.5340  0.3881
   92MPD2    C5 1407   1.375   0.590  16.057 -0.0215  0.1561  0.4753
   92MPD2     H 1408   1.518   0.683  16.392  0.3151 -2.8661 -0.2500
   92MPD2    H1 1409   1.578   0.549  15.998 -1.4163 -0.1647 -0.5775
   92MPD2    H2 1410   1.178   0.647  16.122  0.1283 -1.0780 -1.7635
   92MPD2    H3 1411   1.331   0.560  15.962  1.3971 -1.0709  0.1981
   92MPD2     N 1412   1.689   0.610  16.217 -0.4041  0.0665  0.1947
   92MPD2    H5 1413   1.735   0.571  16.135 -0.7009 -0.3544  0.2298
   92MPD2    N1 1414   1.246   0.702  16.379  0.0910 -0.0217 -0.2958
   92MPD2    H7 1415   1.282   0.734  16.468  4.2995  0.2896 -2.1305
   93MPD2     C 1416   3.300   0.424  13.847  0.7455  0.2059 -0.3570
   93MPD2    C1 1417   3.280   0.539  13.924 -0.6988  0.1633 -0.0471
   93MPD2    C2 1418   3.147   0.584  13.943  0.1088 -0.0842  0.2373
   93MPD2    C3 1419   3.045   0.516  13.880 -0.6501  1.0740 -1.3641
   93MPD2    C4 1420   3.072   0.414  13.792  0.2474 -0.2953  0.2118
   93MPD2    C5 1421   3.197   0.368  13.777  0.7672 -0.1736  0.2925
   93MPD2     H 1422   3.132   0.670  14.008  1.8700 -0.3809  1.0284
   93MPD2    H1 1423   2.983   0.362  13.759 -0.4672  1.5675 -0.7837
   93MPD2    H2 1424   3.401   0.390  13.832  2.0172  1.9529  4.2086
   93MPD2    H3 1425   3.225   0.278  13.723  1.1760  0.6686 -0.8863
   93MPD2     N 1426   2.911   0.563  13.883 -0.5234  0.0930 -0.0363
   93MPD2    H5 1427   2.850   0.512  13.821 -2.2368  1.5298  0.4787
   93MPD2    N1 1428   3.381   0.620  13.977  0.4444  0.2456 -0.3739
   93MPD2    H7 1429   3.365   0.692  14.047 -1.3526  2.3370 -2.9538
   94TCq2    C1 1430   3.512   0.614  13.933 -0.3794 -0.0914  0.3090
   94TCq2    O2 1431   3.554   0.548  13.837 -0.0965 -0.4305 -0.2446
   94TCq2    C2 1432   3.614   0.700  13.990  0.1317 -0.0782  0.0212
   94TCq2    C3 1433   3.586   0.790  14.082 -0.3847  0.6806  0.3036
   94TCq2    C4 1434   3.689   0.843  14.155  0.1784  0.5984 -0.2938
   94TCq2    C5 1435   3.819   0.804  14.137 -0.6057 -0.2073  0.6699
   94TCq2    C6 1436   3.845   0.720  14.034  0.1131 -0.5321 -0.2680
   94TCq2    C7 1437   3.746   0.664  13.957  0.0250  0.3316  0.1655
   94TCq2    C8 1438   3.982   0.699  13.981 -0.1557 -0.1097  0.3094
   94TCq2    O4 1439   3.999   0.596  13.921 -0.1376 -0.5753 -0.4608
   94TCq2    C9 1440   3.665   0.940  14.266 -0.4036  0.0138 -0.2980
   94TCq2    O5 1441   3.752   0.946  14.358  0.1286 -0.0875  0.3385
   94TCq2    O6 1442   3.555   1.002  14.255  0.2602  0.2066 -0.0687
   94TCq2    H2 1443   3.485   0.817  14.109 -1.0462  0.5851 -2.0638
   94TCq2    H3 1444   3.903   0.854  14.184 -1.7239  1.0917  1.2724
   94TCq2    H4 1445   3.767   0.575  13.900 -3.9300 -0.2497 -0.4256
   95TMC2    C1 1446   3.092   2.131  16.192  0.4205  0.0894  0.4577
   95TMC2    C2 1447   3.124   1.992  16.197  0.2658 -0.6355 -0.8057
   95TMC2    C3 1448   3.135   1.943  16.323 -0.1964 -0.5030 -0.2793
   95TMC2    C4 1449   3.074   2.207  16.306  0.1438 -0.4241 -0.0939
   95TMC2    C5 1450   3.111   2.147  16.422  0.1242  0.5228 -0.4300
   95TMC2    C6 1451   3.145   2.016  16.434 -0.9280 -0.1832  0.4452
   95TMC2     C 1452   3.140   2.196  16.075 -0.7858  0.0244 -0.4829
   95TMC2     O 1453   3.198   2.301  16.083 -0.5579  0.5704 -0.5165
   95TMC2     H 1454   3.146   1.934  16.108 -1.1351 -4.5102  1.3240
   95TMC2    H1 1455   3.052   2.313  16.299 -0.6061 -0.5926 -0.2495
   95TMC2    H2 1456   3.184   1.971  16.524 -1.1432 -3.3123 -1.0080
   95TMC2    C7 1457   3.117   2.233  16.535 -0.5304  0.1701  0.0368
   95TMC2    C8 1458   3.171   1.805  16.335 -0.8387 -0.1370 -0.1317
   95TMC2    O1 1459   3.137   2.352  16.517 -0.0941 -0.0972 -0.8185
   95TMC2    O2 1460   3.197   1.737  16.235 -0.0908  0.3097  0.0488
   95TMC2    O5 1461   3.119   1.759  16.454  0.4073 -0.5311  0.5684
   95TMC2    H5 1462   3.057   1.814  16.506 -0.4845  1.7428 -2.8908
   96MPD2     C 1463   3.184   2.175  15.567 -0.2324 -0.4746  0.1784
   96MPD2    C1 1464   3.269   2.229  15.657  0.1738 -0.2942  0.4134
   96MPD2    C2 1465   3.240   2.216  15.795  0.8817  0.4984 -0.4077
   96MPD2    C3 1466   3.128   2.147  15.832  0.9899 -0.1038 -0.6973
   96MPD2    C4 1467   3.037   2.092  15.741 -0.1739 -0.5945  0.0528
   96MPD2    C5 1468   3.063   2.120  15.610  0.0099 -0.1809  0.7410
   96MPD2     H 1469   3.312   2.244  15.871  1.8981 -0.4121 -1.0210
   96MPD2    H1 1470   2.940   2.053  15.766 -0.7879  0.5339 -0.5336
   96MPD2    H2 1471   3.195   2.185  15.459  0.5604 -1.0856  0.2014
   96MPD2    H3 1472   2.990   2.097  15.533 -0.6081 -1.0997  1.5956
   96MPD2     N 1473   3.091   2.131  15.965 -0.2928 -0.3063  0.1637
   96MPD2    H5 1474   3.012   2.069  15.983  0.5373 -0.7231  2.4526
   96MPD2    N1 1475   3.388   2.296  15.609  0.2021 -0.6354 -0.2651
   96MPD2    H7 1476   3.414   2.297  15.511 -1.3768  0.1927 -0.6649
   97MPD2     C 1477   0.608   0.567   0.995  0.5047  0.2916 -0.3719
   97MPD2    C1 1478   0.569   0.437   1.008  0.0085 -0.2296 -0.8000
   97MPD2    C2 1479   0.566   0.349   0.896  0.0181 -0.1339  0.3284
   97MPD2    C3 1480   0.605   0.396   0.770  0.6761  0.2156 -0.2266
   97MPD2    C4 1481   0.643   0.528   0.755  0.3447  0.3352  0.3694
   97MPD2    C5 1482   0.649   0.607   0.870 -0.3408  0.0178  0.3169
   97MPD2     H 1483   0.543   0.245   0.915  2.5122 -0.6215  0.6515
   97MPD2    H1 1484   0.660   0.569   0.656 -2.5376  2.5027  0.7781
   97MPD2    H2 1485   0.611   0.634   1.080  1.7521 -0.8095  0.4597
   97MPD2    H3 1486   0.660   0.714   0.856 -0.0650 -0.3156 -2.0639
   97MPD2     N 1487   0.582   0.320   0.658  0.2894 -0.3763 -0.0292
   97MPD2    H5 1488   0.602   0.368   0.571  1.0195  3.2979  2.2049
   97MPD2    N1 1489   0.515   0.412   1.136 -0.2249  0.0112 -0.1892
   97MPD2    H7 1490   0.491   0.488   1.199 -0.7193 -1.1094  0.9665
   98TCq2    C1 1491   0.507   0.201   0.655 -0.6787 -0.6223 -0.3396
   98TCq2    O2 1492   0.434   0.146   0.733 -0.3193 -0.1884 -0.0056
   98TCq2    C2 1493   0.494   0.140   0.521 -0.1942  0.1181  0.2116
   98TCq2    C3 1494   0.378   0.068   0.507 -0.7504 -0.0404 -0.5370
   98TCq2    C4 1495   0.312   0.074   0.383  0.7389 -0.0027 -0.1535
   98TCq2    C5 1496   0.369   0.131   0.273  0.2971 -0.6402 -0.1069
   98TCq2    C6 1497   0.487   0.201   0.299  0.0766  0.4556 -0.3607
   98TCq2    C7 1498   0.551   0.202   0.417 -0.3274  0.4626 -0.1523
   98TCq2    C8 1499   0.550   0.269   0.185  0.0121  0.3115  0.2362
   98TCq2    O4 1500   0.670   0.259   0.176 -0.6519 -0.5796 -0.0967
   98TCq2    C9 1501   0.178   0.022   0.378 -0.3050 -0.4175 -1.0577
   98TCq2    O5 1502   0.130   4.705   0.270  0.6169 -0.1512  0.1121
   98TCq2    O6 1503   0.123   0.005   0.496 -0.1356  0.6680 -0.3280
   98TCq2    H2 1504   0.337   0.010   0.589  1.2947  0.2194  0.6751
   98TCq2    H3 1505   0.322   0.126   0.176 -1.7660 -0.6002  0.8835
   98TCq2    H4 1506   0.650   0.247   0.421 -0.2171  0.2986 -0.9626
   99MPD2     C 1507   4.241   2.515   1.877  0.1247 -0.4066 -0.0919
   99MPD2    C1 1508   4.138   2.551   1.791 -1.0004 -0.1563 -0.4167
   99MPD2    C2 1509   4.143   2.506   1.657 -0.7857 -0.0176 -0.0551
   99MPD2    C3 1510   4.259   2.449   1.606 -0.3298 -0.3498 -0.4608
   99MPD2    C4 1511   4.366   2.426   1.692 -0.1234  0.1738 -0.1902
   99MPD2    C5 1512   4.353   2.449   1.825  0.3005 -0.0593 -0.1525
   99MPD2     H 1513   4.066   2.523   1.583 -0.3571  0.1704 -0.4530
   99MPD2    H1 1514   4.466   2.388   1.671 -0.5218 -2.0541  1.9357
   99MPD2    H2 1515   4.249   2.542   1.982  1.0938  3.9938 -1.2935
   99MPD2    H3 1516   4.438   2.430   1.890 -0.4881  1.4570  1.3382
   99MPD2     N 1517   4.268   2.421   1.464 -0.2158 -0.8896  0.6358
   99MPD2    H5 1518   4.184   2.449   1.414  0.0485 -0.9363  0.1696
   99MPD2    N1 1519   4.027   2.626   1.837  0.5273  0.3455 -0.3867
   99MPD2    H7 1520   3.957   2.666   1.775  0.8877  2.5975  0.6592
  100TCq2    C1 1521   4.005   2.666   1.969 -0.0202  0.3076 -0.5573
  100TCq2    O2 1522   4.083   2.677   2.065 -0.1698  0.7310 -0.3177
  100TCq2    C2 1523   3.882   2.742   1.989 -0.6313  0.3320 -0.9849
  100TCq2    C3 1524   3.888   2.854   2.065  0.4342  0.4338  0.6385
  100TCq2    C4 1525   3.768   2.907   2.114  0.0393 -0.3601 -0.3504
  100TCq2    C5 1526   3.647   2.852   2.080  0.1283 -0.1542 -0.0937
  100TCq2    C6 1527   3.652   2.740   2.002  0.0342 -0.2947  0.5096
  100TCq2    C7 1528   3.766   2.674   1.958  0.7893  0.2155  0.0800
  100TCq2    C8 1529   3.527   2.704   1.938 -0.1437  0.3340 -0.0915
  100TCq2    O4 1530   3.435   2.778   1.944  0.4396  0.1895  0.3981
  100TCq2    C9 1531   3.774   3.034   2.188 -0.4494 -1.3468 -0.2093
  100TCq2    O5 1532   3.666   3.105   2.175  0.0771 -0.2809 -0.0796
  100TCq2    O6 1533   3.880   3.063   2.247 -0.3396  0.2795  0.1077
  100TCq2    H2 1534   3.981   2.892   2.104  1.5059 -1.7571  0.2013
  100TCq2    H3 1535   3.559   2.908   2.109  1.3590  1.0915  1.2616
  100TCq2    H4 1536   3.775   2.598   1.882 -3.6090 -0.3280  0.1294
  101MPD2     C 1537   0.006   2.525  12.784  0.0408 -0.3472 -0.0876
  101MPD2    C1 1538   4.637   2.615  12.828  0.2299  0.0242 -0.0753
  101MPD2    C2 1539   4.564   2.581  12.939 -0.5574  0.0411 -0.0348
  101MPD2    C3 1540   4.570   2.458  12.999  0.1050  0.4718 -0.1856
  101MPD2    C4 1541   4.671   2.372  12.953 -0.0773  0.4697  0.1871
  101MPD2    C5 1542   0.028   2.404  12.842 -0.2751 -0.4276 -0.6432
  101MPD2     H 1543   4.487   2.650  12.974 -0.0843 -0.1762  1.3983
  101MPD2    H1 1544   4.683   2.272  12.993  2.6131  0.2901 -1.0840
  101MPD2    H2 1545   0.056   2.551  12.692  0.6562  0.8883  0.5991
  101MPD2    H3 1546   0.106   2.338  12.806  2.8124  0.6164  4.1231
  101MPD2     N 1547   4.475   2.414  13.092  0.0816  0.7175  0.2309
  101MPD2    H5 1548   4.404   2.477  13.129 -0.1031 -0.2678  1.5586
  101MPD2    N1 1549   4.629   2.741  12.764  0.2880 -0.4391 -0.5852
  101MPD2    H7 1550   4.701   2.774  12.700 -1.0406  0.4759 -1.6136
  102TCq2    C1 1551   0.096   3.092  12.503  0.0846 -0.5697  0.1116
  102TCq2    O2 1552   0.189   3.013  12.501  0.0772 -0.9458 -0.2417
  102TCq2    C2 1553   4.685   3.051  12.526  0.1793 -0.3796 -0.6576
  102TCq2    C3 1554   4.584   3.133  12.483  0.7275 -0.3225 -0.2726
  102TCq2    C4 1555   4.456   3.116  12.538  0.4927  0.4844 -0.6927
  102TCq2    C5 1556   4.434   3.012  12.630  0.3521 -0.1044  0.4120
  102TCq2    C6 1557   4.548   2.938  12.673 -0.2387 -0.2549 -0.0660
  102TCq2    C7 1558   4.675   2.962  12.628  0.4519 -1.0093 -0.1793
  102TCq2    C8 1559   4.523   2.826  12.764  0.5941  0.2875  0.5921
  102TCq2    O4 1560   4.414   2.811  12.812 -0.0391  0.5664 -0.3561
  102TCq2    C9 1561   4.348   3.196  12.493 -0.3944  0.7505 -0.2124
  102TCq2    O5 1562   4.378   3.310  12.439 -0.4265  0.6480 -0.3955
  102TCq2    O6 1563   4.234   3.153  12.518 -0.7898  0.4752 -0.0772
  102TCq2    H2 1564   4.593   3.213  12.410  0.1082 -0.9059 -0.9915
  102TCq2    H3 1565   4.341   2.990  12.681 -0.1658 -0.0045 -0.4859
  102TCq2    H4 1566   0.043   2.918  12.668  0.5318 -2.0410 -1.5103
  103TMC2    C1 1567   2.738   2.351  12.368  0.1350  0.3450  0.5739
  103TMC2    C2 1568   2.842   2.275  12.409  0.0369 -0.0401  0.4433
  103TMC2    C3 1569   2.865   2.260  12.543 -0.7513 -0.2840  0.6276
  103TMC2    C4 1570   2.668   2.433  12.456 -0.0518  0.2281 -0.0032
  103TMC2    C5 1571   2.702   2.422  12.592  0.2299  0.0664 -0.1140
  103TMC2    C6 1572   2.798   2.336  12.630 -0.2836  0.5194  0.2717
  103TMC2     C 1573   2.689   2.334  12.235 -0.0147 -0.4963  0.5463
  103TMC2     O 1574   2.626   2.429  12.191  0.3107  0.1797  0.2022
  103TMC2     H 1575   2.899   2.213  12.340 -1.3557 -0.1865 -0.5648
  103TMC2    H1 1576   2.584   2.496  12.427  0.1145  0.8591  0.8857
  103TMC2    H2 1577   2.827   2.316  12.732  1.1485 -0.3737 -0.3080
  103TMC2    C7 1578   2.653   2.521  12.683  0.8422  0.8390 -0.2214
  103TMC2    C8 1579   2.985   2.201  12.584  0.1589  0.0422  0.2100
  103TMC2    O1 1580   2.744   2.574  12.745  0.3706 -0.0707  0.2727
  103TMC2    O2 1581   3.003   2.080  12.570  0.3102 -0.5470 -0.0942
  103TMC2    O5 1582   3.076   2.294  12.601  0.2628  0.1185  0.1200
  103TMC2    H5 1583   3.047   2.388  12.599  0.2828  0.1162 -0.1791
  104MPD2     C 1584   2.672   2.024  12.038 -0.0184  0.1288  0.4452
  104MPD2    C1 1585   2.668   2.161  12.062  0.4420 -0.4356  0.3323
  104MPD2    C2 1586   2.626   2.247  11.957  0.3227  0.1303 -0.1633
  104MPD2    C3 1587   2.568   2.196  11.842  0.2849  0.0654  0.6632
  104MPD2    C4 1588   2.570   2.059  11.824  0.5010 -0.5406 -1.1486
  104MPD2    C5 1589   2.612   1.972  11.924 -0.0255  0.8089 -0.8947
  104MPD2     H 1590   2.645   2.354  11.961 -0.8900  0.3347 -0.0602
  104MPD2    H1 1591   2.513   2.015  11.742 -1.4266 -2.1002  1.0269
  104MPD2    H2 1592   2.709   1.953  12.111 -0.1276  0.4520  0.8127
  104MPD2    H3 1593   2.603   1.867  11.902 -0.3305  0.7978 -0.7129
  104MPD2     N 1594   2.517   2.288  11.742 -0.3092 -0.6255 -0.4030
  104MPD2    H5 1595   2.533   2.386  11.760  0.5999 -1.1567  1.7022
  104MPD2    N1 1596   2.707   2.203  12.190 -0.2945  0.6236 -0.3279
  104MPD2    H7 1597   2.741   2.133  12.255  0.4323  1.2346 -0.0525
  105MPD2     C 1598   0.092   2.887  17.677  0.0953  0.1066  0.1580
  105MPD2    C1 1599   4.681   2.890  17.668 -0.2700 -0.1019 -0.1188
  105MPD2    C2 1600   4.610   2.934   0.085  0.2531  0.0001 -0.4498
  105MPD2    C3 1601   4.670   2.962   0.206 -0.2810 -0.1990  0.3606
  105MPD2    C4 1602   0.080   2.950   0.221  0.0777 -0.2390  0.6661
  105MPD2    C5 1603   0.155   2.916   0.105 -0.5804 -0.7614 -0.0214
  105MPD2     H 1604   4.506   2.956   0.063  0.6233  0.8009 -1.3895
  105MPD2    H1 1605   0.144   2.985   0.301 -0.3003 -1.1811  1.3824
  105MPD2    H2 1606   0.149   2.860  17.589  0.3540 -0.5928  0.5431
  105MPD2    H3 1607   0.261   2.889   0.106 -0.5230 -0.5839 -1.3428
  105MPD2     N 1608   4.580   3.002   0.307 -0.1054 -0.3657  0.6243
  105MPD2    H5 1609   4.481   3.007   0.283 -0.0285  1.7684  0.7705
  105MPD2    N1 1610   4.608   2.868  17.549  0.3127 -0.0983 -0.0572
  105MPD2    H7 1611   4.513   2.901  17.558  1.0915  1.3397  2.8646
  106TCq2    C1 1612   4.610   3.042   0.434  0.1026 -0.6554  0.0283
  106TCq2    O2 1613   4.720   3.060   0.478  0.1321 -0.1962 -0.2658
  106TCq2    C2 1614   4.500   3.052   0.532  0.0919  0.8021  0.7174
  106TCq2    C3 1615   4.364   3.044   0.503  0.4979 -0.4089 -0.7068
  106TCq2    C4 1616   4.281   3.082   0.603 -0.1004 -0.4672  0.4047
  106TCq2    C5 1617   4.318   3.134   0.720 -0.4700  0.0532  0.2444
  106TCq2    C6 1618   4.447   3.154   0.738  0.1437 -0.6524  0.0309
  106TCq2    C7 1619   4.540   3.111   0.648 -0.2380  0.2660  0.6347
  106TCq2    C8 1620   4.494   3.189   0.871  0.1003  0.0413 -1.2130
  106TCq2    O4 1621   4.612   3.216   0.876 -0.4578 -0.3052 -0.1680
  106TCq2    C9 1622   4.138   3.064   0.592 -0.7202  0.0427 -0.5178
  106TCq2    O5 1623   4.065   3.092   0.690 -0.2889  0.2288  0.5198
  106TCq2    O6 1624   4.100   3.025   0.479  0.2185  0.0732  0.0790
  106TCq2    H2 1625   4.322   3.024   0.406  0.9249 -2.2779 -0.5007
  106TCq2    H3 1626   4.246   3.178   0.787 -1.4125  0.2283 -0.8830
  106TCq2    H4 1627   4.643   3.131   0.675  0.0867  0.9056 -1.0796
  107TMC2    C1 1628   0.515   1.546  11.315 -0.3566 -0.4985  0.6275
  107TMC2    C2 1629   0.500   1.609  11.194 -0.5349  0.1199  0.3075
  107TMC2    C3 1630   0.538   1.540  11.085 -0.3047  0.0202 -0.5952
  107TMC2    C4 1631   0.552   1.417  11.330 -0.2178 -0.5016 -0.5000
  107TMC2    C5 1632   0.585   1.356  11.211  0.1695  0.3757  0.6828
  107TMC2    C6 1633   0.574   1.411  11.087 -0.1100  0.2941  0.2061
  107TMC2     C 1634   0.432   1.588  11.427  0.0029 -0.1816  1.0909
  107TMC2     O 1635   0.400   1.492  11.498 -0.7825 -0.2333 -0.0759
  107TMC2     H 1636   0.485   1.716  11.179  0.7659  0.4270  1.1959
  107TMC2    H1 1637   0.578   1.373  11.426 -0.4544 -0.1787 -0.2859
  107TMC2    H2 1638   0.599   1.362  10.994 -1.9113  0.2262 -0.2568
  107TMC2    C7 1639   0.648   1.225  11.216  0.4009 -0.0050  1.1468
  107TMC2    C8 1640   0.539   1.618  10.967 -0.1576 -0.0623  0.5935
  107TMC2    O1 1641   0.710   1.199  11.315 -0.4991 -0.2244 -0.3252
  107TMC2    O2 1642   0.485   1.723  10.960 -0.7033  0.1986 -0.2961
  107TMC2    O5 1643   0.651   1.586  10.890  0.2724 -0.4706  0.1440
  107TMC2    H5 1644   0.694   1.506  10.927  1.1029 -0.4674 -0.8054
  108MPD2     C 1645   0.236   1.900  11.441 -0.0296  0.1649  0.7955
  108MPD2    C1 1646   0.279   1.777  11.484 -0.6230  0.7085  0.3024
  108MPD2    C2 1647   0.223   1.721  11.596  0.1795  0.2580 -0.4138
  108MPD2    C3 1648   0.119   1.789  11.660 -0.0191 -0.7321 -0.4186
  108MPD2    C4 1649   0.076   1.911  11.608 -1.2580 -1.0426  0.0821
  108MPD2    C5 1650   0.133   1.964  11.498 -0.6181  0.5755 -0.0924
  108MPD2     H 1651   0.255   1.624  11.631 -2.5334 -0.8167 -0.9239
  108MPD2    H1 1652   4.717   1.964  11.656  0.6051  1.8421  0.0630
  108MPD2    H2 1653   0.296   1.945  11.362  1.4025 -0.3647  1.5813
  108MPD2    H3 1654   0.092   2.052  11.450 -1.4446 -0.3252 -1.0356
  108MPD2     N 1655   0.054   1.754  11.781  0.4744 -0.3543 -0.1130
  108MPD2    H5 1656   4.716   1.829  11.810  0.5285  0.6335 -2.5327
  108MPD2    N1 1657   0.381   1.713  11.414  0.3831  0.1526 -0.1631
  108MPD2    H7 1658   0.429   1.767  11.343 -0.1457  0.4679 -0.2807
  109MPD2     C 1659   4.231   3.849   1.879 -0.3866  0.4827 -0.2351
  109MPD2    C1 1660   4.299   3.901   1.774  0.6350  0.2879 -0.0261
  109MPD2    C2 1661   4.430   3.953   1.795 -0.2738 -0.1278 -0.3043
  109MPD2    C3 1662   4.490   3.935   1.920  0.7587  0.1518 -0.5635
  109MPD2    C4 1663   4.413   3.883   2.018  0.0971  0.0052  0.3512
  109MPD2    C5 1664   4.281   3.845   2.008  0.4542 -1.1012  0.0171
  109MPD2     H 1665   4.501   3.980   1.718  0.0573  1.3059  0.5081
  109MPD2    H1 1666   4.446   3.873   2.120  1.4978  0.4119 -0.0659
  109MPD2    H2 1667   4.133   3.803   1.869 -0.0482 -0.4783  0.7901
  109MPD2    H3 1668   4.224   3.802   2.090 -0.4197  2.6272  1.3642
  109MPD2     N 1669   4.630   3.972   1.937 -0.2867  0.1319 -0.6296
  109MPD2    H5 1670   4.684   3.995   1.854  0.9384  0.5243  0.2777
  109MPD2    N1 1671   4.242   3.894   1.648  0.5969 -0.0645  0.1795
  109MPD2    H7 1672   4.168   3.825   1.635 -0.5090  1.1598  0.0146
  110TCq2    C1 1673   4.706   3.970   2.051 -0.2499  0.5777  0.0693
  110TCq2    O2 1674   4.657   3.962   2.163  0.1334  0.0887 -0.0121
  110TCq2    C2 1675   0.115   4.020   2.026 -0.1004 -1.0720  0.1242
  110TCq2    C3 1676   0.205   3.990   2.127  0.3234  0.0298 -0.1458
  110TCq2    C4 1677   0.305   4.079   2.149 -0.2497  0.0833  0.9539
  110TCq2    C5 1678   0.336   4.178   2.061  0.6911  0.2437  0.6871
  110TCq2    C6 1679   0.250   4.195   1.956 -0.5349 -0.2965  0.6147
  110TCq2    C7 1680   0.136   4.120   1.936 -0.2755 -0.2735  0.1251
  110TCq2    C8 1681   0.297   4.268   1.847  0.2354 -0.8455  0.2033
  110TCq2    O4 1682   0.216   4.310   1.765 -0.2955 -0.4835  0.1611
  110TCq2    C9 1683   0.394   4.058   2.263 -0.3642 -0.4590 -0.2133
  110TCq2    O5 1684   0.474   4.150   2.304  0.3897 -0.9279 -0.1960
  110TCq2    O6 1685   0.381   3.949   2.323 -0.0807  0.4483  0.0736
  110TCq2    H2 1686   0.184   3.916   2.203 -2.3666  1.4048  0.4227
  110TCq2    H3 1687   0.416   4.240   2.100  0.4975 -0.0167  1.5056
  110TCq2    H4 1688   0.067   4.152   1.859  0.3144  1.7315  0.4316
  111TMC2    C1 1689   0.943   3.576  11.386 -0.1848  0.0101  0.0327
  111TMC2    C2 1690   1.015   3.509  11.290 -0.3374 -0.4403 -0.3190
  111TMC2    C3 1691   1.106   3.417  11.331  0.9866  0.4029 -0.1695
  111TMC2    C4 1692   0.969   3.551  11.519 -0.4623  0.8371 -0.8960
  111TMC2    C5 1693   1.057   3.458  11.555  0.5923 -0.8807  0.0133
  111TMC2    C6 1694   1.129   3.393  11.461  0.2502  0.9653 -0.2786
  111TMC2     C 1695   0.817   3.655  11.351 -0.3600 -0.8692  0.2694
  111TMC2     O 1696   0.765   3.630  11.242  0.2606  0.7540  0.2297
  111TMC2     H 1697   0.991   3.523  11.185 -2.3900 -1.2999  0.0281
  111TMC2    H1 1698   0.909   3.588  11.601  1.0823  0.6701  0.3008
  111TMC2    H2 1699   1.197   3.310  11.479  0.1727  0.6705 -1.3279
  111TMC2    C7 1700   1.068   3.425  11.694  0.3083 -0.5986 -0.3974
  111TMC2    C8 1701   1.205   3.372  11.231 -0.5088 -0.6671  0.4307
  111TMC2    O1 1702   0.972   3.440  11.768 -0.2414 -0.2238  0.8685
  111TMC2    O2 1703   1.315   3.339  11.258 -0.1215  0.0690 -0.2727
  111TMC2    O5 1704   1.122   3.311  11.137  0.1391 -0.3636  0.6396
  111TMC2    H5 1705   1.028   3.331  11.153 -0.7042 -2.4735 -1.7027
  112MPD2     C 1706   0.406   3.916  11.499  0.1577  0.3837  0.1089
  112MPD2    C1 1707   0.425   3.845  11.389  0.5847 -0.1191  0.1300
  112MPD2    C2 1708   0.546   3.788  11.375  0.3376 -0.1564 -0.3190
  112MPD2    C3 1709   0.646   3.792  11.473  0.7768 -0.0543  0.1229
  112MPD2    C4 1710   0.612   3.855  11.586  0.0332  0.1255  0.0466
  112MPD2    C5 1711   0.491   3.914  11.600  0.2067 -0.7023  0.2802
  112MPD2     H 1712   0.554   3.728  11.285  0.2673 -1.1592  0.3413
  112MPD2    H1 1713   0.679   3.840  11.669 -1.2059 -0.6482  0.9169
  112MPD2    H2 1714   0.316   3.977  11.510  0.9156  1.1087  2.2395
  112MPD2    H3 1715   0.466   3.972  11.689 -1.9052  1.2597 -1.5903
  112MPD2     N 1716   0.774   3.733  11.459  0.2355  0.2703 -0.3415
  112MPD2    H5 1717   0.834   3.746  11.540  0.2824  3.0409 -0.7919
  112MPD2    N1 1718   0.335   3.845  11.281 -0.7989 -0.3042 -0.4650
  112MPD2    H7 1719   0.368   3.819  11.189  1.1250 -0.9130  0.3991
  113MPD2     C 1720   3.591   2.026   1.150 -0.1209 -0.2490 -0.2826
  113MPD2    C1 1721   3.469   2.087   1.129 -0.1322  0.2773 -0.5946
  113MPD2    C2 1722   3.388   2.016   1.044  0.1740 -0.2756 -0.1755
  113MPD2    C3 1723   3.429   1.897   0.986  0.4464  0.1727  0.1265
  113MPD2    C4 1724   3.560   1.850   0.998 -0.9240 -0.1531  0.1466
  113MPD2    C5 1725   3.638   1.923   1.079 -0.5113  0.8772 -0.1378
  113MPD2     H 1726   3.292   2.055   1.011  0.0457  0.1164  0.6540
  113MPD2    H1 1727   3.597   1.769   0.936  1.2001  1.1818 -0.3312
  113MPD2    H2 1728   3.658   2.071   1.223 -1.5636 -0.2780  1.0536
  113MPD2    H3 1729   3.740   1.889   1.084 -0.5842  0.5923 -0.5814
  113MPD2     N 1730   3.345   1.818   0.899 -0.7544 -0.3120 -0.8950
  113MPD2    H5 1731   3.392   1.745   0.847  1.8113  1.1081 -0.5185
  113MPD2    N1 1732   3.428   2.201   1.205 -0.6715  0.2267  0.3383
  113MPD2    H7 1733   3.331   2.228   1.195 -0.8684 -0.8825 -0.9285
  114TCq2    C1 1734   3.210   1.842   0.866  0.2877 -0.4315 -0.2869
  114TCq2    O2 1735   3.121   1.905   0.926 -0.0654  0.6539 -0.5960
  114TCq2    C2 1736   3.156   1.743   0.773  0.2350 -0.0896  0.5281
  114TCq2    C3 1737   3.241   1.652   0.725 -1.1586 -0.4767 -0.2319
  114TCq2    C4 1738   3.187   1.540   0.663 -0.1463 -0.0148  1.3843
  114TCq2    C5 1739   3.055   1.518   0.649  0.1640 -0.3483  0.5964
  114TCq2    C6 1740   2.974   1.621   0.695  0.3039 -0.4470 -0.2326
  114TCq2    C7 1741   3.016   1.734   0.754 -0.2260  0.6739  0.4856
  114TCq2    C8 1742   2.836   1.609   0.651 -0.6791 -0.3894 -0.0133
  114TCq2    O4 1743   2.765   1.706   0.634 -0.6855 -0.2038 -0.4897
  114TCq2    C9 1744   3.275   1.447   0.601  0.1401 -0.4949 -0.3657
  114TCq2    O5 1745   3.239   1.369   0.511  0.2041  0.1112  0.3803
  114TCq2    O6 1746   3.402   1.467   0.609 -0.2696 -0.1035 -0.3285
  114TCq2    H2 1747   3.347   1.676   0.718 -1.5627  0.8730 -1.8385
  114TCq2    H3 1748   3.021   1.435   0.588 -2.5545 -0.6669  2.5495
  114TCq2    H4 1749   2.942   1.809   0.781 -0.1477  0.8644  0.1675
  115TMC2    C1 1750   3.457   0.270  17.450 -0.2075 -0.1169  0.0340
  115TMC2    C2 1751   3.380   0.333  17.349 -0.5568  0.7095  0.1043
  115TMC2    C3 1752   3.377   0.471  17.349 -0.1477 -0.7259  0.2547
  115TMC2    C4 1753   3.509   0.353  17.550  0.6673  0.0342  0.2566
  115TMC2    C5 1754   3.505   0.489  17.538 -0.1932 -0.2576  0.8531
  115TMC2    C6 1755   3.441   0.549  17.441  0.5321 -0.6224  0.1292
  115TMC2     C 1756   3.452   0.120  17.460 -0.2669  0.5665  0.3412
  115TMC2     O 1757   3.356   0.065  17.402  0.2481 -0.2498  0.1336
  115TMC2     H 1758   3.317   0.273  17.284 -3.8414  1.2022  2.8235
  115TMC2    H1 1759   3.553   0.308  17.639  0.2281 -0.2766  0.3150
  115TMC2    H2 1760   3.431   0.657  17.447  1.9195 -0.5774  1.4868
  115TMC2    C7 1761   3.626   0.567  17.579 -0.7948 -0.0343  0.2888
  115TMC2    C8 1762   3.323   0.529  17.230  0.2034 -0.5669  0.5530
  115TMC2    O1 1763   3.686   0.532  17.676 -0.3995  0.2411  0.1913
  115TMC2    O2 1764   3.301   0.472  17.123  0.2946  0.7339  0.1573
  115TMC2    O5 1765   3.242   0.625  17.261 -0.1327  0.1964 -0.7300
  115TMC2    H5 1766   3.234   0.636  17.358  1.1336 -0.4867 -0.5440
  116MPD2     C 1767   3.666   4.381  17.561 -0.0794  0.3197 -0.1057
  116MPD2    C1 1768   3.537   4.413  17.529 -0.2333  0.2284  0.0208
  116MPD2    C2 1769   3.510   4.546  17.509 -0.4948  0.8913 -0.0178
  116MPD2    C3 1770   3.596   4.650  17.548 -0.3712  0.0058 -0.7188
  116MPD2    C4 1771   3.723   4.613  17.591  0.6329  0.4174 -0.6807
  116MPD2    C5 1772   3.755   4.480  17.592 -0.9599 -0.0297 -0.1847
  116MPD2     H 1773   3.412   4.579  17.476 -0.9414  0.2239  0.6392
  116MPD2    H1 1774   3.795   4.693  17.607  2.4369 -1.7705  2.1520
  116MPD2    H2 1775   3.699   4.278  17.556  1.6904  1.0659 -4.0839
  116MPD2    H3 1776   3.859   4.449  17.602 -0.1082  1.6701 -3.6718
  116MPD2     N 1777   3.562   0.065  17.535  0.0309 -0.4820 -0.3216
  116MPD2    H5 1778   3.636   0.121  17.576 -1.4921 -1.3717  3.6614
  116MPD2    N1 1779   3.461   4.310  17.483  0.1982 -0.6149  0.0733
  116MPD2    H7 1780   3.503   4.219  17.472 -0.7460 -0.9308 -0.9391
  117TMC2    C1 1781   2.883   1.109  13.874  0.1138 -0.0036  0.0604
  117TMC2    C2 1782   2.990   1.041  13.824  0.4151 -0.0064  0.4387
  117TMC2    C3 1783   3.118   1.082  13.848 -0.4083  0.1390 -0.2103
  117TMC2    C4 1784   2.906   1.225  13.947 -0.0055  0.3337  0.2543
  117TMC2    C5 1785   3.039   1.256  13.980  0.0730  0.1699  0.1565
  117TMC2    C6 1786   3.146   1.184  13.933 -0.0266  0.4855 -0.2387
  117TMC2     C 1787   2.756   1.078  13.810  0.2230  0.4660  0.4341
  117TMC2     O 1788   2.749   0.983  13.737  0.0220  0.5081 -0.1758
  117TMC2     H 1789   2.980   0.959  13.754  0.7919  2.0277 -1.9811
  117TMC2    H1 1790   2.828   1.299  13.963 -2.4511 -1.8748 -1.5035
  117TMC2    H2 1791   3.247   1.222  13.938 -0.2317  1.1929 -1.4001
  117TMC2    C7 1792   3.073   1.397  14.001  0.5655 -0.2402  0.1998
  117TMC2    C8 1793   3.219   0.979  13.813 -0.6720 -0.4381 -0.5515
  117TMC2    O1 1794   3.179   1.436  13.951  0.5361 -0.3624 -0.2684
  117TMC2    O2 1795   3.207   0.931  13.700 -0.0950  0.0328 -0.0632
  117TMC2    O5 1796   3.337   0.997  13.870 -0.7210 -0.2560  0.0695
  117TMC2    H5 1797   3.335   1.033  13.962 -0.4869  0.1612 -0.0896
  118MPD2     C 1798   2.859   1.683  14.112 -0.5317  0.0633  0.3064
  118MPD2    C1 1799   2.962   1.617  14.050  0.4487 -0.2051 -0.3299
  118MPD2    C2 1800   3.050   1.693  13.974 -0.5884 -0.4817 -0.5963
  118MPD2    C3 1801   3.044   1.827  13.959  1.6005  0.1047 -0.1073
  118MPD2    C4 1802   2.936   1.889  14.023  0.0217  0.1302 -0.5611
  118MPD2    C5 1803   2.845   1.813  14.089  0.3471  0.4600  0.3791
  118MPD2     H 1804   3.134   1.644  13.926 -2.4472 -1.4891 -2.7561
  118MPD2    H1 1805   2.941   1.997  14.032  1.9724 -0.0881  1.0338
  118MPD2    H2 1806   2.782   1.636  14.173 -1.5034 -0.1535 -1.0910
  118MPD2    H3 1807   2.782   1.878  14.149 -0.9109  0.0778 -0.5089
  118MPD2     N 1808   3.136   1.903  13.883 -0.1925  0.7604 -0.0821
  118MPD2    H5 1809   3.119   2.003  13.888  0.6003  0.9340 -1.1027
  118MPD2    N1 1810   2.965   1.474  14.051 -0.1324  0.0294 -0.3498
  118MPD2    H7 1811   2.896   1.424  14.105  0.0842  1.1574  0.9618
  119MPD2     C 1812   1.012   2.391  13.465  0.0443 -0.2683 -0.6901
  119MPD2    C1 1813   0.897   2.366  13.533  0.2160 -0.2512  0.1648
  119MPD2    C2 1814   0.783   2.373  13.457 -0.1524  0.0936  0.6018
  119MPD2    C3 1815   0.780   2.378  13.314 -0.2373 -0.5004 -0.2701
  119MPD2    C4 1816   0.898   2.395  13.250 -0.1794 -0.3171  0.6660
  119MPD2    C5 1817   1.016   2.408  13.323 -0.5324 -0.6215 -0.4258
  119MPD2     H 1818   0.689   2.366  13.510  0.8743 -0.0061  2.3990
  119MPD2    H1 1819   0.900   2.401  13.142  3.7955  1.8393  0.8202
  119MPD2    H2 1820   1.105   2.402  13.520  0.5466  1.8406 -1.9427
  119MPD2    H3 1821   1.104   2.435  13.266 -1.2546  1.7165 -0.4340
  119MPD2     N 1822   0.668   2.373  13.236  0.5530  0.0020 -0.2885
  119MPD2    H5 1823   0.676   2.395  13.137 -1.7417 -0.1604 -0.5250
  119MPD2    N1 1824   0.888   2.337  13.671 -0.5304 -0.5756  0.4288
  119MPD2    H7 1825   0.797   2.347  13.715 -0.4408  1.7835  0.0631
  120TCq2    C1 1826   0.546   2.325  13.279  0.0105 -0.0382 -0.2654
  120TCq2    O2 1827   0.516   2.275  13.390  0.3291  0.1369 -0.2702
  120TCq2    C2 1828   0.449   2.320  13.165 -0.0523  0.6329  0.3950
  120TCq2    C3 1829   0.496   2.335  13.040  0.4534 -0.2885  0.3426
  120TCq2    C4 1830   0.418   2.289  12.937 -0.7820 -0.0256 -0.0584
  120TCq2    C5 1831   0.300   2.222  12.965 -0.0654  0.2879 -0.3090
  120TCq2    C6 1832   0.249   2.214  13.094 -0.4336 -0.7186 -0.2011
  120TCq2    C7 1833   0.329   2.264  13.194  0.2126  0.6317  0.1724
  120TCq2    C8 1834   0.153   2.111  13.125  0.1595  0.0517  0.2098
  120TCq2    O4 1835   0.137   2.028  13.041 -0.3612  0.5116  0.1740
  120TCq2    C9 1836   0.457   2.298  12.797  0.1224 -0.1072  1.2523
  120TCq2    O5 1837   0.387   2.237  12.709 -0.2210 -0.4777  0.0155
  120TCq2    O6 1838   0.579   2.344  12.782 -0.0985 -0.4063  0.1367
  120TCq2    H2 1839   0.587   2.393  13.026 -0.1134  0.0075 -2.0266
  120TCq2    H3 1840   0.245   2.172  12.886  1.0336  0.8888 -1.4617
  120TCq2    H4 1841   0.298   2.251  13.297  0.6978  0.6109  0.3119
  121TMC2    C1 1842   2.218   3.854  13.805  0.5002 -0.2006  0.1470
  121TMC2    C2 1843   2.205   3.995  13.807 -0.8460 -0.4810 -0.1944
  121TMC2    C3 1844   2.079   4.048  13.838 -0.0670 -0.8519 -0.2138
  121TMC2    C4 1845   2.111   3.781  13.847 -0.6396 -0.0846 -0.1159
  121TMC2    C5 1846   1.989   3.839  13.876  0.1383  0.6275  0.0405
  121TMC2    C6 1847   1.974   3.976  13.888  0.7962  0.3036 -0.0555
  121TMC2     C 1848   2.333   3.783  13.753  0.1396 -0.6732 -0.8189
  121TMC2     O 1849   2.347   3.663  13.792 -0.2526 -0.6990  0.3999
  121TMC2     H 1850   2.291   4.058  13.785 -1.2059 -0.1589 -0.6808
  121TMC2    H1 1851   2.120   3.676  13.871 -2.1800 -0.2733 -0.3968
  121TMC2    H2 1852   1.886   4.031  13.917  0.5324  0.4468 -1.1283
  121TMC2    C7 1853   1.881   3.755  13.922  0.4411 -0.6970  0.1484
  121TMC2    C8 1854   2.071   4.189  13.869  0.0737 -0.2584 -0.0034
  121TMC2    O1 1855   1.917   3.659  13.989  0.0456  0.4863  0.1356
  121TMC2    O2 1856   1.967   4.253  13.851  0.1688 -0.2061 -0.1851
  121TMC2    O5 1857   2.170   4.221  13.960 -0.0034 -0.2585 -0.2104
  121TMC2    H5 1858   2.229   4.149  13.991 -1.7112 -1.8124 -0.5395
  122MPD2     C 1859   2.603   3.708  13.644 -0.1987  0.9149  0.2291
  122MPD2    C1 1860   2.520   3.810  13.596  0.1304 -0.4615  0.4826
  122MPD2    C2 1861   2.558   3.885  13.484 -0.0345  0.1109  0.7033
  122MPD2    C3 1862   2.676   3.866  13.422  0.5863 -0.0584 -0.6429
  122MPD2    C4 1863   2.764   3.772  13.477  0.0759  0.1388  0.9657
  122MPD2    C5 1864   2.723   3.683  13.577  0.3141 -0.2000 -0.3330
  122MPD2     H 1865   2.484   3.950  13.438 -0.8445 -1.2473  0.0918
  122MPD2    H1 1866   2.860   3.752  13.431 -0.5561  1.1763 -0.8071
  122MPD2    H2 1867   2.578   3.659  13.738  0.7043 -1.6214 -0.8635
  122MPD2    H3 1868   2.798   3.609  13.602 -1.6965 -2.1440  0.0421
  122MPD2     N 1869   2.733   3.944  13.318 -0.3509  0.1391 -0.4218
  122MPD2    H5 1870   2.832   3.931  13.302  0.2939  1.8773  2.1728
  122MPD2    N1 1871   2.399   3.851  13.658 -0.2670  0.6375 -0.0758
  122MPD2    H7 1872   2.344   3.925  13.615 -0.6622  0.4795  0.1549
  123MPD2     C 1873   1.265   2.179   9.141 -0.4579 -0.1240 -0.2329
  123MPD2    C1 1874   1.214   2.063   9.211  0.4999  0.5046  0.0309
  123MPD2    C2 1875   1.260   1.938   9.179  0.3999  0.3518 -0.0408
  123MPD2    C3 1876   1.350   1.923   9.081 -0.0040  0.1594 -0.0818
  123MPD2    C4 1877   1.410   2.035   9.020  0.0132  0.1022 -0.2890
  123MPD2    C5 1878   1.375   2.163   9.061 -0.5501 -0.0087 -0.0019
  123MPD2     H 1879   1.225   1.850   9.232 -0.0752  0.4106 -0.2565
  123MPD2    H1 1880   1.493   2.032   8.951 -0.8127  0.0520 -1.2825
  123MPD2    H2 1881   1.228   2.279   9.161  1.3397  0.7507 -1.3081
  123MPD2    H3 1882   1.420   2.250   9.016 -0.6630 -0.0342 -0.1652
  123MPD2     N 1883   1.402   1.792   9.058  0.1684 -0.2037 -0.1165
  123MPD2    H5 1884   1.358   1.723   9.118 -0.2147  0.1453  0.0045
  123MPD2    N1 1885   1.105   2.082   9.305  0.0423  0.0191 -0.3585
  123MPD2    H7 1886   1.076   2.176   9.327 -3.8989 -1.4253  0.6322
  124TCq2    C1 1887   1.501   1.759   8.968 -0.0688 -0.2070  0.1052
  124TCq2    O2 1888   1.550   1.833   8.886  0.2822  0.1596  0.7018
  124TCq2    C2 1889   1.553   1.620   8.979  0.7479 -1.0838 -0.6119
  124TCq2    C3 1890   1.651   1.591   8.896 -0.6660 -0.2651  0.0076
  124TCq2    C4 1891   1.694   1.460   8.884  0.0098 -0.0960 -0.1889
  124TCq2    C5 1892   1.641   1.364   8.968  0.4360 -0.4400  0.8899
  124TCq2    C6 1893   1.538   1.400   9.047  0.5165 -0.4387 -0.3856
  124TCq2    C7 1894   1.495   1.529   9.064  0.0491 -0.0862  0.2748
  124TCq2    C8 1895   1.473   1.292   9.125  0.3850 -0.1191 -0.2171
  124TCq2    O4 1896   1.525   1.185   9.124  0.5845 -0.1340  0.3494
  124TCq2    C9 1897   1.792   1.424   8.788 -0.9970  0.9410  0.8813
  124TCq2    O5 1898   1.832   1.301   8.789  0.1893 -0.2049  0.4215
  124TCq2    O6 1899   1.802   1.510   8.692 -0.4923  0.2192  0.4611
  124TCq2    H2 1900   1.696   1.673   8.840  1.8879 -1.4411  0.3278
  124TCq2    H3 1901   1.661   1.258   8.958  0.9469 -0.1017 -1.5387
  124TCq2    H4 1902   1.418   1.554   9.137 -0.2297 -0.5188  0.1337
  125TMC2    C1 1903   2.387   0.484   8.633 -0.3567  0.0589  0.1012
  125TMC2    C2 1904   2.300   0.574   8.680  0.3099 -0.7401 -0.2839
  125TMC2    C3 1905   2.192   0.527   8.745  0.0601 -0.4937 -0.0272
  125TMC2    C4 1906   2.353   0.348   8.617  0.4703 -0.4541 -0.7582
  125TMC2    C5 1907   2.230   0.311   8.658  0.0629  0.0162  0.4137
  125TMC2    C6 1908   2.151   0.396   8.725 -0.3674 -0.1265  0.0201
  125TMC2     C 1909   2.514   0.538   8.584  0.4190  0.2424 -0.0046
  125TMC2     O 1910   2.528   0.663   8.585  0.3864  0.0295 -0.3264
  125TMC2     H 1911   2.339   0.673   8.701 -2.3446  0.2212 -0.0094
  125TMC2    H1 1912   2.406   0.278   8.553 -0.1257 -2.7556  1.2707
  125TMC2    H2 1913   2.048   0.372   8.750 -1.1714  0.7531 -2.4380
  125TMC2    C7 1914   2.199   0.171   8.681  0.1827 -0.1934  1.0572
  125TMC2    C8 1915   2.096   0.633   8.780 -0.2061  0.0885  1.0469
  125TMC2    O1 1916   2.078   0.158   8.707  0.1577 -0.5150 -0.8421
  125TMC2    O2 1917   2.097   0.748   8.742  0.2355 -0.0587 -0.5848
  125TMC2    O5 1918   2.058   0.590   8.904 -0.2423  0.3539  0.0955
  125TMC2    H5 1919   2.071   0.493   8.916  0.8158  0.4830 -0.0254
  126MPD1     C 1920   2.975   0.444   8.362 -0.9432 -0.6357  0.0567
  126MPD1    C1 1921   2.933   0.326   8.418 -0.6753 -0.1202  0.3077
  126MPD1    C2 1922   2.809   0.327   8.478 -0.4452 -0.2352 -0.5168
  126MPD1    C3 1923   2.737   0.448   8.490 -0.1362 -0.5133 -0.3322
  126MPD1    C4 1924   2.786   0.567   8.439  0.2266 -0.4279 -0.3651
  126MPD1    C5 1925   2.911   0.564   8.381  0.6652 -0.3878 -0.1040
  126MPD1     H 1926   2.766   0.237   8.520 -2.0462 -0.6885 -3.1050
  126MPD1    H1 1927   2.736   0.662   8.449  1.7196  0.4806 -1.5091
  126MPD1    H2 1928   3.072   0.461   8.318 -1.3131  3.0367  0.6526
  126MPD1    H3 1929   2.962   0.656   8.357  0.2884  0.4255  2.3096
  126MPD1     N 1930   2.606   0.437   8.552  0.4131  0.4066  0.0612
  126MPD1    H5 1931   2.585   0.339   8.571  0.6290  0.6065  1.3365
  126MPD1    N1 1932   3.003   0.204   8.389  0.8421  0.4583 -0.3331
  126MPD1    H6 1933   3.096   0.221   8.352  0.6819 -1.3958 -1.6050
  126MPD1    H7 1934   3.017   0.141   8.468  1.3779 -0.7664 -1.3934
  127MPD2     C 1935   3.349   3.137   9.288  0.6597 -0.2024 -0.4989
  127MPD2    C1 1936   3.292   3.145   9.413 -0.1383 -0.0501  0.0583
  127MPD2    C2 1937   3.323   3.256   9.492  0.3160  0.0664  0.0709
  127MPD2    C3 1938   3.399   3.361   9.444 -0.6613 -0.2931  0.0186
  127MPD2    C4 1939   3.445   3.354   9.319 -0.0572  0.2767  0.3109
  127MPD2    C5 1940   3.426   3.242   9.242 -0.1846 -0.4220 -0.2628
  127MPD2     H 1941   3.286   3.268   9.594  1.8335 -0.7998  0.7336
  127MPD2    H1 1942   3.499   3.440   9.282 -0.6241  0.8376  0.7666
  127MPD2    H2 1943   3.326   3.049   9.230 -1.2628 -0.9512  1.3656
  127MPD2    H3 1944   3.458   3.237   9.138  2.0475 -1.0129  0.4620
  127MPD2     N 1945   3.429   3.465   9.535  0.8196  0.1337 -0.2725
  127MPD2    H5 1946   3.409   3.448   9.633 -1.7613  0.7171 -0.7148
  127MPD2    N1 1947   3.190   3.049   9.457  0.3565 -0.4268  0.2427
  127MPD2    H7 1948   3.184   2.965   9.399  0.7096  0.7584 -1.5180
  128TCq2    C1 1949   3.104   3.057   9.561  0.1673  1.2266 -0.8802
  128TCq2    O2 1950   3.109   3.145   9.646 -0.0724  0.5195  0.1623
  128TCq2    C2 1951   3.003   2.953   9.585 -0.3971 -0.0719 -0.0944
  128TCq2    C3 1952   2.983   2.912   9.713  0.1869  0.6206  0.2813
  128TCq2    C4 1953   2.878   2.829   9.739 -0.8247 -0.1180 -0.1894
  128TCq2    C5 1954   2.799   2.783   9.637  0.5983 -0.5784  0.3926
  128TCq2    C6 1955   2.842   2.808   9.508 -0.4062 -0.0065  0.3065
  128TCq2    C7 1956   2.945   2.899   9.479 -0.2168  0.2587 -0.1194
  128TCq2    C8 1957   2.786   2.732   9.399 -0.1574  0.4085  0.2326
  128TCq2    O4 1958   2.808   2.755   9.283 -0.6597  0.7759  0.4948
  128TCq2    C9 1959   2.841   2.808   9.883  0.6317 -0.4907 -0.0709
  128TCq2    O5 1960   2.738   2.741   9.907  0.6883  1.0690  0.2095
  128TCq2    O6 1961   2.911   2.867   9.971  0.2621 -0.2135  0.4939
  128TCq2    H2 1962   3.033   2.955   9.799 -0.0691  1.0771  0.2069
  128TCq2    H3 1963   2.703   2.735   9.652 -0.9015  2.1997 -0.2160
  128TCq2    H4 1964   2.972   2.932   9.380 -0.3287 -0.9947 -0.5630
  129MPD2     C 1965   0.374   4.293   0.966 -0.4900 -0.6437 -0.1054
  129MPD2    C1 1966   0.508   4.331   0.985 -0.0327 -0.1972  0.0174
  129MPD2    C2 1967   0.570   4.396   0.888  0.0587  0.6146  0.7527
  129MPD2    C3 1968   0.517   4.423   0.761  0.1106  0.2191 -0.7915
  129MPD2    C4 1969   0.382   4.388   0.748 -0.0457  0.4285 -0.7019
  129MPD2    C5 1970   0.320   4.326   0.848  0.4020 -0.4356  0.2799
  129MPD2     H 1971   0.665   4.447   0.907  0.1622  0.7282 -0.0855
  129MPD2    H1 1972   0.334   4.408   0.653 -1.7103 -0.3702 -0.0269
  129MPD2    H2 1973   0.312   4.234   1.031 -1.0245 -0.2447 -0.2500
  129MPD2    H3 1974   0.224   4.277   0.839  0.8628 -1.1716 -0.6248
  129MPD2     N 1975   0.594   4.479   0.660 -0.4683  0.6440  0.0327
  129MPD2    H5 1976   0.684   4.518   0.686 -2.0935  4.7450 -0.5665
  129MPD2    N1 1977   0.584   4.289   1.097 -0.3106 -0.3625 -0.0550
  129MPD2    H7 1978   0.680   4.323   1.101 -0.9185  1.2397  0.6040
  130TCq2    C1 1979   0.546   4.201   1.202  0.6807  0.7396  0.4086
  130TCq2    O2 1980   0.452   4.123   1.212 -0.2205 -0.3482  0.2133
  130TCq2    C2 1981   0.655   4.189   1.299  0.4229 -0.3733  0.2540
  130TCq2    C3 1982   0.747   4.295   1.303  0.0474  0.5042 -0.2407
  130TCq2    C4 1983   0.870   4.262   1.361  0.2691  0.1853 -0.2193
  130TCq2    C5 1984   0.897   4.132   1.403 -0.2774 -0.4127  0.2914
  130TCq2    C6 1985   0.805   4.029   1.385 -0.3918  0.4438 -0.3016
  130TCq2    C7 1986   0.680   4.058   1.327  0.3337  0.2146  0.7420
  130TCq2    C8 1987   0.846   3.891   1.417  0.2514  0.7887  0.4880
  130TCq2    O4 1988   0.961   3.863   1.450  0.3040  0.1505  0.6394
  130TCq2    C9 1989   0.968   4.374   1.375 -0.0094 -0.1688  0.1866
  130TCq2    O5 1990   0.923   4.483   1.326  0.0031 -0.2242 -0.1854
  130TCq2    O6 1991   1.075   4.354   1.437 -0.0693 -0.7374 -0.1183
  130TCq2    H2 1992   0.728   4.397   1.274 -0.8621  0.3186 -0.2953
  130TCq2    H3 1993   0.991   4.111   1.452  0.6728 -1.2709 -1.8877
  130TCq2    H4 1994   0.610   3.978   1.303  1.9470 -1.1010  0.4474
  131MPD2     C 1995   0.966   2.834   9.692  0.8444 -0.0115  0.3075
  131MPD2    C1 1996   1.033   2.778   9.581 -0.1621  0.0806  0.0282
  131MPD2    C2 1997   1.017   2.645   9.560 -0.2836  0.6294  0.4002
  131MPD2    C3 1998   0.941   2.567   9.645 -0.8193  0.4374  0.1933
  131MPD2    C4 1999   0.899   2.617   9.765 -0.7286 -0.1704  0.2885
  131MPD2    C5 2000   0.902   2.752   9.791 -0.7871  0.5157 -0.2220
  131MPD2     H 2001   1.052   2.597   9.469  0.7366  0.1808  1.0368
  131MPD2    H1 2002   0.831   2.564   9.830 -2.3584 -0.0288 -1.2971
  131MPD2    H2 2003   0.970   2.940   9.710  0.4487 -0.2902  2.0932
  131MPD2    H3 2004   0.858   2.784   9.885  0.0795  0.1105  0.3190
  131MPD2     N 2005   0.935   2.433   9.606  0.1029 -0.0022 -0.4840
  131MPD2    H5 2006   0.972   2.410   9.514  0.1560  0.1561 -0.5023
  131MPD2    N1 2007   1.113   2.863   9.493 -0.5177 -0.9165  0.3235
  131MPD2    H7 2008   1.106   2.964   9.508 -1.5450 -0.7123 -1.4519
  132TCq2    C1 2009   1.533   2.961   9.082  0.0579  0.6978 -0.0077
  132TCq2    O2 2010   1.586   2.860   9.123 -0.2364 -0.0797  0.2053
  132TCq2    C2 2011   1.410   3.000   9.148 -0.1338 -0.0422  0.3331
  132TCq2    C3 2012   1.372   3.132   9.153 -1.0014 -0.2798 -0.2039
  132TCq2    C4 2013   1.272   3.162   9.242  0.1728  0.7489 -0.3174
  132TCq2    C5 2014   1.230   3.069   9.334  0.5466  0.7175 -0.1393
  132TCq2    C6 2015   1.269   2.935   9.320 -0.5750  0.0993  0.4275
  132TCq2    C7 2016   1.356   2.897   9.221 -0.5570  0.0971 -0.5431
  132TCq2    C8 2017   1.202   2.823   9.393  0.1824 -0.0161 -0.0436
  132TCq2    O4 2018   1.236   2.714   9.356  0.0422 -0.0347  0.4887
  132TCq2    C9 2019   1.238   3.301   9.251  0.3005  0.0890 -0.3089
  132TCq2    O5 2020   1.119   3.328   9.286  0.2773 -0.6719  0.3501
  132TCq2    O6 2021   1.302   3.378   9.173  0.1787 -0.0309  0.3213
  132TCq2    H2 2022   1.426   3.209   9.099  1.0148 -1.1542  0.5813
  132TCq2    H3 2023   1.155   3.089   9.410  0.5629 -0.8869  0.2835
  132TCq2    H4 2024   1.398   2.797   9.225 -4.0096 -1.3573 -0.5178
  133MPD2     C 2025   3.910   3.341   9.395 -0.5519 -0.4481 -1.1690
  133MPD2    C1 2026   4.002   3.236   9.412 -0.0341 -0.4172  0.3594
  133MPD2    C2 2027   3.955   3.113   9.472  0.2332  0.0241 -0.7051
  133MPD2    C3 2028   3.826   3.112   9.527 -0.0855 -0.3017 -0.3252
  133MPD2    C4 2029   3.746   3.227   9.528 -0.4275  0.8038 -0.5220
  133MPD2    C5 2030   3.785   3.331   9.454 -0.6199  0.3838 -0.4931
  133MPD2     H 2031   4.024   3.030   9.483  1.2840  0.9446 -0.2821
  133MPD2    H1 2032   3.649   3.224   9.576 -0.2237 -2.2429 -0.2464
  133MPD2    H2 2033   3.944   3.437   9.359 -1.0540  0.9543  2.0375
  133MPD2    H3 2034   3.722   3.418   9.445 -1.2282  0.0181  0.1400
  133MPD2     N 2035   3.761   2.991   9.572  0.1313  0.4973  0.3423
  133MPD2    H5 2036   3.675   2.999   9.625  0.3565 -1.5935  0.9960
  133MPD2    N1 2037   4.142   3.257   9.388  0.2297 -0.0496  0.3778
  133MPD2    H7 2038   4.165   3.355   9.380  0.1278 -0.1135 -0.7078
  134TCq2    C1 2039   4.239   3.161   9.384  0.4400 -0.4499 -0.2876
  134TCq2    O2 2040   4.225   3.041   9.360  0.3847 -0.3689 -0.1651
  134TCq2    C2 2041   4.385   3.205   9.361  0.8792  0.3780  0.5675
  134TCq2    C3 2042   4.492   3.113   9.338 -0.6285 -0.6306  0.1995
  134TCq2    C4 2043   4.618   3.168   9.355 -0.1302  0.3938  0.3156
  134TCq2    C5 2044   4.646   3.298   9.375  0.4490 -0.5911 -0.0199
  134TCq2    C6 2045   4.546   3.378   9.411  0.2485 -0.1848  0.3663
  134TCq2    C7 2046   4.407   3.333   9.398 -0.3384  0.1089  0.2962
  134TCq2    C8 2047   4.570   3.517   9.453  0.3467  0.3448 -0.3028
  134TCq2    O4 2048   4.474   3.588   9.475 -0.3300  0.1353  0.1828
  134TCq2    C9 2049   0.010   3.075   9.329  0.7712  0.6300  0.1349
  134TCq2    O5 2050   4.703   2.963   9.286  1.2726 -0.4603  0.3492
  134TCq2    O6 2051   0.112   3.092   9.405  0.1594 -0.0629  0.2765
  134TCq2    H2 2052   4.477   3.008   9.314 -0.0264 -0.3670 -1.3469
  134TCq2    H3 2053   0.027   3.319   9.399  0.1179 -0.9510  1.7228
  134TCq2    H4 2054   4.336   3.393   9.455  2.9455  2.9955  1.4165
  135MPD2     C 2055   2.374   0.526   9.052  0.2390  1.1072 -0.1213
  135MPD2    C1 2056   2.417   0.402   9.022 -0.3369  0.0582  0.0338
  135MPD2    C2 2057   2.539   0.393   8.963  0.0543  0.2907  0.7713
  135MPD2    C3 2058   2.622   0.505   8.939 -0.4815 -0.2389  0.0705
  135MPD2    C4 2059   2.575   0.631   8.981 -0.5838 -0.2899 -0.0584
  135MPD2    C5 2060   2.448   0.640   9.029 -0.3607  0.2525 -0.5059
  135MPD2     H 2061   2.587   0.295   8.957 -2.4954 -0.8537 -0.8742
  135MPD2    H1 2062   2.629   0.725   8.973 -2.9781  0.9731 -1.3553
  135MPD2    H2 2063   2.281   0.545   9.105 -0.2078 -3.1669  0.6001
  135MPD2    H3 2064   2.406   0.735   9.058 -0.5276  0.2075 -0.6006
  135MPD2     N 2065   2.751   0.498   8.869 -0.2978 -1.2395 -0.5684
  135MPD2    H5 2066   2.799   0.584   8.847  0.1459 -1.5251 -0.7303
  135MPD2    N1 2067   2.335   0.287   9.028 -0.0499 -0.8551 -0.5579
  135MPD2    H7 2068   2.389   0.203   9.017 -0.8455 -1.3019 -1.0823
  136TCq2    C1 2069   2.204   0.287   9.069  0.5991  0.6020 -0.0677
  136TCq2    O2 2070   2.115   0.371   9.067  0.0781  0.3328  0.2896
  136TCq2    C2 2071   2.154   0.151   9.073 -0.0262  0.6213  0.1186
  136TCq2    C3 2072   2.030   0.132   9.010 -0.2236 -0.2914  0.3962
  136TCq2    C4 2073   1.996   4.719   8.991  0.3485  0.6885 -0.1059
  136TCq2    C5 2074   2.068   4.616   9.046  0.2010 -0.5092 -0.0707
  136TCq2    C6 2075   2.190   4.641   9.098  0.2489 -0.1563 -0.3257
  136TCq2    C7 2076   2.239   0.044   9.116 -0.2980  0.0368  0.1771
  136TCq2    C8 2077   2.281   4.531   9.114 -0.1662 -0.0086  0.2653
  136TCq2    O4 2078   2.403   4.556   9.132  0.1876 -0.5148 -0.2944
  136TCq2    C9 2079   1.880   4.701   8.910 -0.0433  0.1073  0.0744
  136TCq2    O5 2080   1.860   4.579   8.870  0.3707  0.1203 -0.4922
  136TCq2    O6 2081   1.794   0.067   8.916 -0.1368  0.1402 -0.0357
  136TCq2    H2 2082   1.965   0.210   8.973 -1.8771 -1.7677  0.1716
  136TCq2    H3 2083   2.017   4.520   9.040  0.5381 -0.7000  0.1069
  136TCq2    H4 2084   2.341   0.059   9.150 -0.9021  1.1675  1.5275
  137MPD2     C 2085   2.846   3.734   9.463  0.8687  0.1481  0.1259
  137MPD2    C1 2086   2.770   3.735   9.351 -0.0405  0.3598 -0.2409
  137MPD2    C2 2087   2.653   3.668   9.355 -0.0013 -0.0161  0.4606
  137MPD2    C3 2088   2.615   3.594   9.465 -0.7041  0.2554 -0.5728
  137MPD2    C4 2089   2.701   3.591   9.571  0.2762 -0.9380  0.4048
  137MPD2    C5 2090   2.811   3.664   9.571  0.3193 -0.5749  0.5577
  137MPD2     H 2091   2.577   3.671   9.277  0.1643 -2.6927  0.1945
  137MPD2    H1 2092   2.672   3.546   9.665  0.1329  1.8889  1.6812
  137MPD2    H2 2093   2.943   3.783   9.458  1.1678 -0.6406 -1.9129
  137MPD2    H3 2094   2.871   3.674   9.661 -0.9486  0.5484  1.2921
  137MPD2     N 2095   2.488   3.522   9.458  0.1473 -0.3881 -0.0199
  137MPD2    H5 2096   2.438   3.541   9.372  0.0633 -2.5664 -0.4354
  137MPD2    N1 2097   2.830   3.783   9.227 -0.1217 -0.1248  0.4779
  137MPD2    H7 2098   2.928   3.808   9.239  0.3683 -2.6361  1.6342
  138TCq2    C1 2099   2.756   3.794   9.106  0.2498  0.3091  0.8019
  138TCq2    O2 2100   2.648   3.748   9.083  0.2073  0.1753 -0.3527
  138TCq2    C2 2101   2.829   3.841   8.996  0.0589  0.5893 -0.7647
  138TCq2    C3 2102   2.961   3.879   9.013 -0.2949 -0.1109 -0.1295
  138TCq2    C4 2103   3.021   3.930   8.903  0.0640  0.0247 -0.5234
  138TCq2    C5 2104   2.960   3.934   8.784  0.2142 -0.3164 -0.7321
  138TCq2    C6 2105   2.826   3.894   8.767  0.4562  0.0039 -0.4552
  138TCq2    C7 2106   2.763   3.835   8.876  0.8171 -0.2108  0.2287
  138TCq2    C8 2107   2.761   3.906   8.635 -1.1671  0.2218  0.2884
  138TCq2    O4 2108   2.811   3.983   8.550  0.2673 -0.0580 -0.2816
  138TCq2    C9 2109   3.155   3.981   8.907  0.2531  0.5383 -0.4522
  138TCq2    O5 2110   3.212   4.006   9.015  0.5710 -0.7968 -0.0307
  138TCq2    O6 2111   3.183   4.043   8.800  0.1253  0.1223 -0.0517
  138TCq2    H2 2112   3.015   3.894   9.106 -1.2877  1.1543  0.2515
  138TCq2    H3 2113   3.015   3.968   8.697 -1.1679  2.2812 -0.5948
  138TCq2    H4 2114   2.656   3.818   8.865  1.2259 -3.1447  0.9443
  139TMC2    C1 2115   2.427   1.810  13.280 -0.2434 -0.1048  0.8737
  139TMC2    C2 2116   2.418   1.795  13.145 -0.3944  0.0620  1.0252
  139TMC2    C3 2117   2.309   1.834  13.078 -0.8760 -0.0592 -0.2594
  139TMC2    C4 2118   2.315   1.848  13.350  0.4410  0.2112 -0.2503
  139TMC2    C5 2119   2.202   1.890  13.285 -0.6014 -0.4733 -0.1461
  139TMC2    C6 2120   2.198   1.876  13.143  0.2580 -0.0928  0.3307
  139TMC2     C 2121   2.545   1.738  13.340  0.5113 -0.2355  0.8135
  139TMC2     O 2122   2.593   1.656  13.265  0.2906  0.4324 -0.0130
  139TMC2     H 2123   2.499   1.756  13.084 -0.7824 -0.6071  0.9370
  139TMC2    H1 2124   2.332   1.847  13.457  0.3755 -1.2225 -0.2631
  139TMC2    H2 2125   2.108   1.904  13.089  0.0684  1.6894  1.5594
  139TMC2    C7 2126   2.087   1.956  13.349 -0.5353 -0.4304 -0.6307
  139TMC2    C8 2127   2.300   1.832  12.933 -0.5765  0.3239  0.2648
  139TMC2    O1 2128   1.993   2.001  13.288 -0.0133 -0.7985 -0.1663
  139TMC2    O2 2129   2.202   1.885  12.876 -0.4618  0.1808 -0.6370
  139TMC2    O5 2130   2.356   1.715  12.894 -0.1160  0.1380  0.3628
  139TMC2    H5 2131   2.403   1.670  12.967  0.6872  0.9098  0.3039
  140MPD2     C 2132   2.670   1.745  13.684 -0.1479  0.6121 -0.0938
  140MPD2    C1 2133   2.674   1.723  13.550  0.2408 -0.0794 -0.2513
  140MPD2    C2 2134   2.769   1.639  13.483 -0.6120  0.1087  0.3832
  140MPD2    C3 2135   2.857   1.571  13.557 -0.0962 -1.0319 -0.0587
  140MPD2    C4 2136   2.858   1.601  13.692 -0.7100  0.2475  0.7131
  140MPD2    C5 2137   2.767   1.681  13.753 -0.6971 -0.3648  0.1474
  140MPD2     H 2138   2.776   1.621  13.377  0.6988 -0.9375  0.6571
  140MPD2    H1 2139   2.933   1.556  13.756  0.5539 -1.9374 -2.2916
  140MPD2    H2 2140   2.598   1.804  13.738 -1.1964  1.2499 -2.1689
  140MPD2    H3 2141   2.777   1.696  13.860 -1.5036  0.3630  0.1204
  140MPD2     N 2142   2.951   1.496  13.484  0.1980 -0.3928  0.0965
  140MPD2    H5 2143   2.966   1.506  13.384  2.2325 -1.5755  0.2813
  140MPD2    N1 2144   2.564   1.766  13.474  0.1193  1.4054  0.0887
  140MPD2    H7 2145   2.501   1.835  13.514 -2.7303 -1.3932  0.4293
  141TCq2    C1 2146   2.976   2.863  14.061 -0.0810  0.0806 -0.0977
  141TCq2    O2 2147   2.961   2.957  13.981 -0.4510 -0.3324 -0.2130
  141TCq2    C2 2148   3.060   2.893  14.178  0.0836 -0.4123 -0.0650
  141TCq2    C3 2149   3.064   2.819  14.300 -0.0935  0.0507 -0.5952
  141TCq2    C4 2150   3.113   2.883  14.408  0.2796 -0.5051  0.2985
  141TCq2    C5 2151   3.172   3.009  14.401  0.0822  0.4638  0.3031
  141TCq2    C6 2152   3.173   3.074  14.278  0.4819  0.2840 -0.4986
  141TCq2    C7 2153   3.119   3.015  14.170 -0.2667  0.0514  0.5853
  141TCq2    C8 2154   3.225   3.210  14.271  1.0482  0.6787 -0.6354
  141TCq2    O4 2155   3.255   3.258  14.381  0.5312  0.7316  0.1204
  141TCq2    C9 2156   3.100   2.821  14.537 -0.1860 -0.2175  0.1268
  141TCq2    O5 2157   3.113   2.896  14.637  0.0328 -0.1146 -0.0446
  141TCq2    O6 2158   3.037   2.708  14.533 -0.0542  0.5908  0.2180
  141TCq2    H2 2159   3.019   2.721  14.311  0.0117  0.0989  0.2583
  141TCq2    H3 2160   3.223   3.050  14.488 -0.6580  0.0332  0.9405
  141TCq2    H4 2161   3.105   3.060  14.072 -2.4549  2.1956  1.8632
  142MPD2     C 2162   0.553   0.141   9.036  0.1181  0.0931  0.0592
  142MPD2    C1 2163   0.536   0.268   9.103  0.4490 -0.5165  0.1427
  142MPD2    C2 2164   0.645   0.357   9.106  0.1627 -0.3656  0.7524
  142MPD2    C3 2165   0.766   0.313   9.053 -0.3099 -0.1196  0.8523
  142MPD2    C4 2166   0.788   0.184   9.011 -0.2371 -0.0738  0.8687
  142MPD2    C5 2167   0.678   0.105   8.992  0.3496  0.2760  0.3769
  142MPD2     H 2168   0.630   0.450   9.159  2.5942  0.7630 -0.5147
  142MPD2    H1 2169   0.885   0.146   8.979 -1.0414 -1.0366 -0.4348
  142MPD2    H2 2170   0.474   0.067   9.029 -0.4220  0.4420  2.4464
  142MPD2    H3 2171   0.681   0.007   8.945 -1.2982  1.0150 -1.2878
  142MPD2     N 2172   0.883   0.379   9.092  0.6205  0.9922 -0.1383
  142MPD2    H5 2173   0.971   0.331   9.078  0.6176  1.2907 -1.1475
  142MPD2    N1 2174   0.406   0.299   9.149 -0.3029  0.4457  0.2013
  142MPD2    H7 2175   0.341   0.222   9.136 -1.5367  1.0594  2.8703
  143TCq2    C1 2176   0.890   0.503   9.159  0.2121 -0.2318  0.3374
  143TCq2    O2 2177   0.811   0.595   9.145 -0.1953 -0.2608  0.3033
  143TCq2    C2 2178   1.019   0.529   9.223 -0.2024 -0.1657  0.7374
  143TCq2    C3 2179   1.119   0.426   9.240  0.3702 -0.2102 -0.4257
  143TCq2    C4 2180   1.245   0.455   9.275 -0.0500  0.0391 -0.4141
  143TCq2    C5 2181   1.289   0.587   9.283 -0.3687 -0.5881  0.7888
  143TCq2    C6 2182   1.194   0.686   9.262  0.0925  0.0420 -0.6572
  143TCq2    C7 2183   1.058   0.654   9.233 -0.0737 -0.4529  0.1723
  143TCq2    C8 2184   1.251   0.813   9.292  0.1892  0.4734  0.0234
  143TCq2    O4 2185   1.373   0.832   9.282 -0.1877 -0.1185  0.2536
  143TCq2    C9 2186   1.341   0.349   9.283 -0.2009  0.2993 -0.2754
  143TCq2    O5 2187   1.306   0.230   9.285  0.3579  0.2495  1.0673
  143TCq2    O6 2188   1.456   0.396   9.284  0.1557  0.0860 -0.1674
  143TCq2    H2 2189   1.093   0.322   9.251 -0.0691 -0.1411 -0.7846
  143TCq2    H3 2190   1.393   0.616   9.298 -0.9863  1.9096  0.2256
  143TCq2    H4 2191   0.990   0.733   9.203  0.9450 -0.7028 -2.8207
  144MPD2     C 2192   3.180   1.316   0.920  0.3610 -0.2271  1.3187
  144MPD2    C1 2193   3.224   1.193   0.888  0.2282  0.5963 -0.2146
  144MPD2    C2 2194   3.353   1.147   0.921  0.2828  0.5121 -0.2725
  144MPD2    C3 2195   3.437   1.241   0.974 -0.0929 -0.7172  0.3165
  144MPD2    C4 2196   3.390   1.365   1.007 -0.0263 -0.4590 -0.1156
  144MPD2    C5 2197   3.262   1.400   0.987 -0.6323 -0.4537 -0.2437
  144MPD2     H 2198   3.391   1.048   0.900 -0.0384  0.4685 -0.6506
  144MPD2    H1 2199   3.447   1.429   1.073  2.9505 -2.6717 -0.5355
  144MPD2    H2 2200   3.083   1.350   0.887 -0.3150 -1.3895  2.1268
  144MPD2    H3 2201   3.229   1.500   1.014  0.5078 -0.1048 -0.1758
  144MPD2     N 2202   3.580   1.220   0.988 -0.0360 -0.7027 -0.3946
  144MPD2    H5 2203   3.634   1.294   1.030 -0.4893 -0.5329 -0.1062
  144MPD2    N1 2204   3.144   1.106   0.810  0.6629 -0.0093 -0.2668
  144MPD2    H7 2205   3.173   1.009   0.808  0.9217  0.0660 -0.1422
  145TCq2    C1 2206   3.645   1.099   0.976 -0.3215 -0.1144 -0.5525
  145TCq2    O2 2207   3.610   0.990   0.939  0.4479  0.1641  0.2613
  145TCq2    C2 2208   3.787   1.097   1.009  0.3939 -0.5585 -0.3674
  145TCq2    C3 2209   3.856   0.980   0.999 -0.4008 -0.1053 -0.4067
  145TCq2    C4 2210   3.978   0.969   1.049 -0.6089  0.5148  0.3947
  145TCq2    C5 2211   4.038   1.063   1.120 -0.0352  0.1790  0.2303
  145TCq2    C6 2212   3.970   1.179   1.129 -0.1979  0.1233 -0.4728
  145TCq2    C7 2213   3.845   1.202   1.079 -0.1746  0.4596 -0.5447
  145TCq2    C8 2214   4.040   1.274   1.220  0.0792  0.6876  0.7964
  145TCq2    O4 2215   4.161   1.274   1.217 -0.1035  0.7708  0.1217
  145TCq2    C9 2216   4.048   0.848   1.032 -0.2353 -0.1974 -0.6718
  145TCq2    O5 2217   3.976   0.749   1.011  0.2431 -0.2161 -0.3195
  145TCq2    O6 2218   4.169   0.847   1.064 -0.3911  0.3266 -1.2079
  145TCq2    H2 2219   3.814   0.892   0.953  0.3606 -1.0789  0.7624
  145TCq2    H3 2220   4.137   1.051   1.162 -0.5832 -1.1597  1.1284
  145TCq2    H4 2221   3.801   1.300   1.095  1.9525  2.0004 -4.2583
  146TMC2    C1 2222   0.494   4.343  12.418  0.4676 -0.2702  0.0032
  146TMC2    C2 2223   0.519   4.383  12.293 -0.0266 -0.1315 -0.3667
  146TMC2    C3 2224   0.642   4.419  12.266  0.5767 -0.3814 -0.6446
  146TMC2    C4 2225   0.598   4.319  12.508 -0.0916 -0.1163 -0.2062
  146TMC2    C5 2226   0.729   4.351  12.478 -0.0547  0.5429  0.2491
  146TMC2    C6 2227   0.744   4.402  12.356  0.3516 -0.0675  0.0996
  146TMC2     C 2228   0.358   4.310  12.459 -0.4818  0.1047  0.4571
  146TMC2     O 2229   0.284   4.263  12.375  0.2226 -0.0004  0.1112
  146TMC2     H 2230   0.443   4.393  12.216  2.5191 -0.3280 -2.8740
  146TMC2    H1 2231   0.581   4.282  12.608  1.5884 -1.1175 -0.2875
  146TMC2    H2 2232   0.847   4.414  12.323  0.8767 -2.3285  0.9525
  146TMC2    C7 2233   0.835   4.285  12.547 -0.3326  0.1368  0.9181
  146TMC2    C8 2234   0.674   4.485  12.143 -0.3893 -0.0450  0.2206
  146TMC2    O1 2235   0.945   4.337  12.543 -0.0320 -0.5347 -0.2473
  146TMC2    O2 2236   0.736   4.591  12.142  0.1379  0.0006 -0.3742
  146TMC2    O5 2237   0.623   4.418  12.041 -0.6202 -0.6037 -0.5827
  146TMC2    H5 2238   0.603   4.326  12.068  0.2051 -1.0700 -1.5654
  147MPD2     C 2239   1.018   3.892  12.849 -0.6251  0.2787  0.4563
  147MPD2    C1 2240   0.893   3.864  12.805  0.4188 -0.4222 -0.0754
  147MPD2    C2 2241   0.827   3.954  12.724 -0.0768 -0.3798 -0.2264
  147MPD2    C3 2242   0.885   4.074  12.692  0.3689 -0.0897 -0.2191
  147MPD2    C4 2243   1.020   4.100  12.720  0.4597  0.4373  0.1033
  147MPD2    C5 2244   1.087   4.014  12.806 -0.1610  0.6673 -0.0896
  147MPD2     H 2245   0.732   3.927  12.678  1.1581 -1.2362 -2.2982
  147MPD2    H1 2246   1.076   4.188  12.691  1.4957 -0.3098 -0.1523
  147MPD2    H2 2247   1.063   3.830  12.926 -1.1890 -2.2493 -1.2790
  147MPD2    H3 2248   1.189   4.030  12.839  0.0955  1.3398 -1.2110
  147MPD2     N 2249   0.803   4.163  12.605 -0.2909  0.3542  0.1101
  147MPD2    H5 2250   0.717   4.116  12.580 -1.5461  2.0313  1.3200
  147MPD2    N1 2251   0.840   3.736  12.835  0.2602 -0.2618  0.7718
  147MPD2    H7 2252   0.895   3.677  12.898  1.4353 -0.8718 -0.8386
  148MPD2     C 2253   0.700   2.788  10.295 -0.0059  0.2407  0.2311
  148MPD2    C1 2254   0.673   2.664  10.239  0.3991 -0.2187  0.0260
  148MPD2    C2 2255   0.543   2.610  10.262 -0.2116 -0.8526 -0.0523
  148MPD2    C3 2256   0.454   2.682  10.343 -0.9061 -0.4406  0.7147
  148MPD2    C4 2257   0.489   2.805  10.399  0.2722  0.4694  0.2550
  148MPD2    C5 2258   0.610   2.855  10.372 -0.3245  0.7597 -0.2171
  148MPD2     H 2259   0.522   2.516  10.211 -1.3075 -0.5755 -0.1200
  148MPD2    H1 2260   0.423   2.865  10.461 -1.5772 -0.4835 -0.7987
  148MPD2    H2 2261   0.795   2.839  10.279  0.2621  0.6608  3.2093
  148MPD2    H3 2262   0.642   2.954  10.402 -0.9466  0.5845  1.0337
  148MPD2     N 2263   0.324   2.646  10.366 -0.1245 -0.5150  0.3237
  148MPD2    H5 2264   0.274   2.708  10.428 -1.3270 -1.2516  0.0994
  148MPD2    N1 2265   0.756   2.581  10.160  0.4438 -0.1097 -0.0883
  148MPD2    H7 2266   0.723   2.495  10.118 -0.1699  0.0667  0.0326
  149TCq2    C1 2267   0.892   2.602  10.151  0.2436  0.1065 -0.6541
  149TCq2    O2 2268   0.958   2.704  10.163  0.5659 -0.5967 -0.3138
  149TCq2    C2 2269   0.950   2.479  10.104  0.1631 -0.6954 -0.2340
  149TCq2    C3 2270   1.070   2.493  10.040 -0.0078  0.2154 -0.3604
  149TCq2    C4 2271   1.128   2.380   9.982 -0.2411  0.2316 -0.1526
  149TCq2    C5 2272   1.046   2.271   9.964  0.2986 -0.7469  0.5466
  149TCq2    C6 2273   0.933   2.265  10.035  0.4569 -0.5873 -0.4027
  149TCq2    C7 2274   0.879   2.366  10.111 -0.4013  0.3515  0.3437
  149TCq2    C8 2275   0.854   2.145  10.030 -0.2199  0.5943 -0.5523
  149TCq2    O4 2276   0.738   2.157  10.056 -0.0100 -0.3806  0.3439
  149TCq2    C9 2277   1.226   2.397   9.880 -0.2003  0.1283 -0.5867
  149TCq2    O5 2278   1.243   2.299   9.804 -0.1709  0.1838 -0.5104
  149TCq2    O6 2279   1.299   2.500   9.884  0.6861 -0.1187 -0.9523
  149TCq2    H2 2280   1.116   2.590  10.026  1.4292 -0.4288 -0.0263
  149TCq2    H3 2281   1.071   2.204   9.882  1.3279 -0.2638  0.4752
  149TCq2    H4 2282   0.795   2.352  10.179  1.0887 -0.7935  1.9367
  150MPD2     C 2283   1.936   1.454  11.743  0.3577  0.3870 -0.2642
  150MPD2    C1 2284   1.874   1.567  11.695 -0.5665 -0.8091  0.4017
  150MPD2    C2 2285   1.917   1.692  11.737  0.1153 -0.1465 -0.2818
  150MPD2    C3 2286   2.020   1.703  11.829  0.4668 -0.3327  0.0929
  150MPD2    C4 2287   2.082   1.590  11.871 -0.6899 -0.5302 -0.6065
  150MPD2    C5 2288   2.038   1.463  11.832  0.8932 -0.2256  0.2594
  150MPD2     H 2289   1.865   1.781  11.703 -0.5309 -0.1030  0.8327
  150MPD2    H1 2290   2.170   1.589  11.935 -2.2072 -2.1696  1.4275
  150MPD2    H2 2291   1.922   1.355  11.700 -0.0089  0.5771 -0.5849
  150MPD2    H3 2292   2.104   1.379  11.851  0.4263 -0.2196  1.8863
  150MPD2     N 2293   2.078   1.831  11.859 -0.0726  0.0510 -0.5420
  150MPD2    H5 2294   2.054   1.915  11.807  1.2934 -0.4377 -1.9565
  150MPD2    N1 2295   1.767   1.550  11.612 -0.5397  0.3741 -0.5200
  150MPD2    H7 2296   1.744   1.455  11.586 -0.4287 -0.3138  1.8708
  151TCq2    C1 2297   2.156   1.856  11.971  0.5583 -0.0655  0.4335
  151TCq2    O2 2298   2.203   1.776  12.053 -0.2356  0.0739 -0.5623
  151TCq2    C2 2299   2.197   1.995  11.977  0.2486 -0.3715 -0.7002
  151TCq2    C3 2300   2.147   2.100  11.901  0.3335 -0.5837  0.0358
  151TCq2    C4 2301   2.191   2.230  11.919 -0.3240 -0.0181 -0.0518
  151TCq2    C5 2302   2.273   2.258  12.025 -0.4440  0.3113 -0.3373
  151TCq2    C6 2303   2.317   2.155  12.106 -0.2944 -0.7681  0.5147
  151TCq2    C7 2304   2.283   2.024  12.081 -0.6247 -0.5211  0.4562
  151TCq2    C8 2305   2.334   2.189  12.246 -0.5851  0.0815 -0.2190
  151TCq2    O4 2306   2.291   2.304  12.282  0.1004  0.7809 -0.0350
  151TCq2    C9 2307   2.144   2.335  11.835 -0.1344  0.0117  0.0471
  151TCq2    O5 2308   2.165   2.452  11.870  0.2304 -0.1198  0.0567
  151TCq2    O6 2309   2.048   2.308  11.754 -0.5373 -0.4659 -0.5523
  151TCq2    H2 2310   2.074   2.084  11.822  0.8788 -0.7661 -0.4301
  151TCq2    H3 2311   2.295   2.364  12.034  2.3302 -0.2470 -0.5919
  151TCq2    H4 2312   2.313   1.943  12.146  0.9033  0.7389  1.3086
  152MPD2     C 2313   1.832   1.558  12.261 -0.5418  0.2288  0.3428
  152MPD2    C1 2314   1.731   1.624  12.321 -0.3939  0.5300  0.5399
  152MPD2    C2 2315   1.625   1.666  12.238 -0.5226 -0.0149 -0.3899
  152MPD2    C3 2316   1.613   1.628  12.103  0.8776  0.2651 -0.2735
  152MPD2    C4 2317   1.720   1.559  12.050 -0.5504  0.0578  1.2729
  152MPD2    C5 2318   1.829   1.528  12.126 -0.0545 -0.4138  0.3155
  152MPD2     H 2319   1.540   1.712  12.287 -0.0547 -0.2977  0.6801
  152MPD2    H1 2320   1.717   1.518  11.950  5.9642  0.8300  0.7250
  152MPD2    H2 2321   1.917   1.525  12.319  0.5149  0.7471 -0.9121
  152MPD2    H3 2322   1.915   1.478  12.083 -1.1973 -1.4824 -0.7309
  152MPD2     N 2323   1.488   1.664  12.040 -0.1605  0.9132  0.3748
  152MPD2    H5 2324   1.420   1.701  12.106 -2.8427  0.1064 -1.9453
  152MPD2    N1 2325   1.761   1.677  12.451 -0.2167 -0.2808  1.0349
  152MPD2    H7 2326   1.831   1.632  12.509 -0.1742 -1.1882  0.2793
  153TCq2    C1 2327   1.710   1.790  12.510  0.1552 -0.3699  0.3302
  153TCq2    O2 2328   1.640   1.875  12.451 -0.3482  0.1261  0.0288
  153TCq2    C2 2329   1.780   1.827  12.628 -0.2312 -0.3650  0.2507
  153TCq2    C3 2330   1.821   1.729  12.715  0.0418  0.4149 -0.0293
  153TCq2    C4 2331   1.881   1.764  12.830 -0.2114 -0.9904  0.3810
  153TCq2    C5 2332   1.904   1.898  12.850 -0.3444 -0.9284 -0.2496
  153TCq2    C6 2333   1.876   1.993  12.757 -0.2596 -0.2270 -0.3522
  153TCq2    C7 2334   1.812   1.957  12.644  0.0046  0.0065 -0.6298
  153TCq2    C8 2335   1.918   2.132  12.770  0.8212  0.4680  0.2457
  153TCq2    O4 2336   1.874   2.221  12.697  0.0004 -0.4784  0.2521
  153TCq2    C9 2337   1.896   1.675  12.939  0.5925  0.0895  0.0541
  153TCq2    O5 2338   1.906   1.725  13.053 -0.1816 -0.4541 -0.0626
  153TCq2    O6 2339   1.883   1.550  12.914  0.3196 -0.4308  0.2811
  153TCq2    H2 2340   1.801   1.623  12.706 -2.7327  0.9430 -0.0799
  153TCq2    H3 2341   1.941   1.916  12.950  0.4350 -1.5987 -0.4143
  153TCq2    H4 2342   1.782   2.028  12.569 -0.3167 -2.2812 -2.6711
  154MPD2     C 2343   3.521   2.388   0.497 -0.4991  0.6587  0.4253
  154MPD2    C1 2344   3.455   2.385   0.615 -0.1596  0.6263  0.3355
  154MPD2    C2 2345   3.316   2.409   0.618  1.0954  0.1337  0.6017
  154MPD2    C3 2346   3.256   2.447   0.499 -0.5348 -0.4415  0.1296
  154MPD2    C4 2347   3.330   2.460   0.378 -0.5893 -0.5694 -1.0360
  154MPD2    C5 2348   3.460   2.433   0.383 -0.7177  0.5646 -0.6837
  154MPD2     H 2349   3.261   2.385   0.708  1.7546  0.4670  1.0957
  154MPD2    H1 2350   3.290   2.489   0.281  1.5607  0.4847 -1.6059
  154MPD2    H2 2351   3.627   2.365   0.494 -0.2091  2.2747 -1.1882
  154MPD2    H3 2352   3.511   2.418   0.289 -0.1495  1.3907 -0.5099
  154MPD2     N 2353   3.123   2.482   0.511  0.6261  0.1283 -0.1194
  154MPD2    H5 2354   3.075   2.466   0.599  1.5692  0.9426  0.5314
  154MPD2    N1 2355   3.527   2.341   0.730  0.1016  0.7031 -0.0618
  154MPD2    H7 2356   3.627   2.324   0.719  0.2010  0.3409  1.4606
  155TCq2    C1 2357   3.488   2.347   0.859  0.0980  0.1508 -0.3014
  155TCq2    O2 2358   3.381   2.389   0.909 -0.2021 -0.4992 -0.1039
  155TCq2    C2 2359   3.605   2.347   0.940 -0.1184  0.5697  0.4124
  155TCq2    C3 2360   3.623   2.463   1.008  0.1718 -0.2783 -0.4009
  155TCq2    C4 2361   3.750   2.489   1.062  0.6575 -0.8095  0.4677
  155TCq2    C5 2362   3.847   2.398   1.053 -0.3401 -0.1006  0.1325
  155TCq2    C6 2363   3.815   2.277   0.996 -0.5358  0.1462 -0.2486
  155TCq2    C7 2364   3.701   2.253   0.931 -0.8184 -0.1129 -0.6786
  155TCq2    C8 2365   3.901   2.163   1.032  0.4253 -0.3466 -0.1431
  155TCq2    O4 2366   3.895   2.073   0.949  0.0908 -0.2244  0.0978
  155TCq2    C9 2367   3.768   2.603   1.145  0.4468 -0.0177 -0.0626
  155TCq2    O5 2368   3.670   2.676   1.167 -0.4670 -0.2449 -0.3060
  155TCq2    O6 2369   3.883   2.614   1.201  0.8258 -0.0628 -0.1460
  155TCq2    H2 2370   3.544   2.538   1.004 -1.1294 -1.6700 -0.6871
  155TCq2    H3 2371   3.940   2.413   1.108 -1.3063  1.0961  1.4386
  155TCq2    H4 2372   3.686   2.160   0.878 -1.7607 -1.0603  1.2446
  156MPD2     C 2373   2.194   3.814  11.621 -0.1819 -0.0889  0.2996
  156MPD2    C1 2374   2.079   3.890  11.640  0.0990 -0.5310  0.0767
  156MPD2    C2 2375   2.037   3.943  11.762  0.9497  0.1739  0.3330
  156MPD2    C3 2376   2.127   3.930  11.873 -0.1020 -0.4759 -0.0261
  156MPD2    C4 2377   2.237   3.848  11.860  0.1191  0.5805 -0.2052
  156MPD2    C5 2378   2.267   3.790  11.734  0.5461 -0.3916 -0.1331
  156MPD2     H 2379   1.953   4.011  11.774  1.3428  1.0112 -1.6607
  156MPD2    H1 2380   2.292   3.813  11.947 -0.1811 -0.0170 -0.2525
  156MPD2    H2 2381   2.225   3.785  11.521 -0.0330 -0.1337  0.3593
  156MPD2    H3 2382   2.355   3.726  11.732  1.2893  0.5748  1.3611
  156MPD2     N 2383   2.090   3.978  11.996  0.0826  0.3359 -0.0726
  156MPD2    H5 2384   1.991   3.989  12.013 -0.0384 -0.3542 -0.3433
  156MPD2    N1 2385   2.008   3.922  11.524  0.1667  0.1538 -0.5655
  156MPD2    H7 2386   2.009   3.854  11.449 -1.7876 -1.5794  0.9730
  157TCq2    C1 2387   1.915   4.020  11.517  0.3142  0.1414  0.5874
  157TCq2    O2 2388   1.890   4.118  11.586 -0.0474  0.0516  0.4064
  157TCq2    C2 2389   1.847   4.019  11.389 -0.0400  0.3624  0.7301
  157TCq2    C3 2390   1.836   3.902  11.316  0.9026  0.8792 -0.3162
  157TCq2    C4 2391   1.747   3.903  11.215  0.0893  0.1740  0.7678
  157TCq2    C5 2392   1.657   4.012  11.196  0.0006 -0.1543  0.9121
  157TCq2    C6 2393   1.677   4.132  11.260 -0.5666 -0.7116  0.6552
  157TCq2    C7 2394   1.773   4.135  11.360  0.1587  0.9587 -0.0547
  157TCq2    C8 2395   1.579   4.238  11.272  0.1318  0.2525  0.1363
  157TCq2    O4 2396   1.612   4.346  11.316 -0.2328  0.0399 -0.0330
  157TCq2    C9 2397   1.742   3.796  11.120  0.3764 -0.0317  0.9146
  157TCq2    O5 2398   1.822   3.705  11.140  0.6399  0.1726 -0.2106
  157TCq2    O6 2399   1.635   3.781  11.059 -0.1284  0.1546 -0.3188
  157TCq2    H2 2400   1.888   3.811  11.340 -0.0434  0.9906  2.1660
  157TCq2    H3 2401   1.585   4.012  11.115  1.3138 -1.0611 -0.2477
  157TCq2    H4 2402   1.774   4.226  11.420  0.9843  1.4128 -0.7641
  158TMC2    C1 2403   1.980   3.348  13.313 -0.7360  0.6219  0.9010
  158TMC2    C2 2404   1.971   3.436  13.206 -0.7803 -0.0700 -0.2321
  158TMC2    C3 2405   1.853   3.496  13.167 -0.1401  0.3738  0.1465
  158TMC2    C4 2406   1.870   3.315  13.381  0.4672 -0.6569 -0.0608
  158TMC2    C5 2407   1.755   3.379  13.354  0.4066  0.0719  0.6991
  158TMC2    C6 2408   1.744   3.471  13.248  0.5411  1.3274 -0.0614
  158TMC2     C 2409   2.073   3.245  13.278  0.2167  0.0354  0.5569
  158TMC2     O 2410   2.098   3.230  13.158  0.0319  0.7512  0.1619
  158TMC2     H 2411   2.059   3.476  13.157 -1.0696  0.0131 -0.6837
  158TMC2    H1 2412   1.869   3.256  13.472  1.0585 -0.5377  0.0246
  158TMC2    H2 2413   1.646   3.503  13.215 -1.0531 -4.5730 -1.0702
  158TMC2    C7 2414   1.631   3.336  13.408 -0.3127 -0.3659 -0.6964
  158TMC2    C8 2415   1.854   3.616  13.091  0.1465 -0.0424  0.4170
  158TMC2    O1 2416   1.536   3.410  13.397 -0.2080 -0.2731  0.6976
  158TMC2    O2 2417   1.952   3.690  13.107  0.4487 -0.5565 -0.1536
  158TMC2    O5 2418   1.727   3.645  13.054 -0.1615 -0.8805 -0.1101
  158TMC2    H5 2419   1.680   3.561  13.036 -2.6159  0.4710  0.1150
  159MPD2     C 2420   2.266   2.789  13.419  0.0812 -0.3787 -0.3666
  159MPD2    C1 2421   2.267   2.875  13.531  0.2363 -0.0244 -0.3637
  159MPD2    C2 2422   2.222   3.005  13.514 -0.0798 -0.0338  0.7694
  159MPD2    C3 2423   2.175   3.045  13.391 -0.0916 -0.0619 -0.2332
  159MPD2    C4 2424   2.183   2.963  13.282  0.4156  0.0954  0.1068
  159MPD2    C5 2425   2.226   2.835  13.296 -0.1831 -0.4650  0.3593
  159MPD2     H 2426   2.217   3.067  13.603  0.3813  3.1532 -1.4290
  159MPD2    H1 2427   2.147   2.985  13.182  1.3363  0.4173 -0.1538
  159MPD2    H2 2428   2.289   2.685  13.438  0.0053 -0.2771  0.2556
  159MPD2    H3 2429   2.225   2.764  13.215  0.5637  0.4788 -0.4749
  159MPD2     N 2430   2.119   3.173  13.392 -0.7504 -0.1566  0.2053
  159MPD2    H5 2431   2.111   3.220  13.481  1.9447  0.5594  0.0630
  159MPD2    N1 2432   2.299   2.823  13.661  0.4968  0.1757  0.0716
  159MPD2    H7 2433   2.285   2.725  13.679 -0.2896 -0.0601 -1.8499
  160TMC2    C1 2434   1.540   1.194   1.050 -0.3375  0.4006 -0.0062
  160TMC2    C2 2435   1.604   1.067   1.052 -0.4774 -0.0870 -0.0940
  160TMC2    C3 2436   1.711   1.051   0.967  0.0904 -0.3692 -0.3389
  160TMC2    C4 2437   1.585   1.303   0.981  0.1818  0.2257 -0.6173
  160TMC2    C5 2438   1.691   1.280   0.895 -0.2351  0.0080 -0.3188
  160TMC2    C6 2439   1.754   1.158   0.885 -0.1342 -0.2869 -0.1554
  160TMC2     C 2440   1.421   1.215   1.130  0.0445 -0.4410  0.3696
  160TMC2     O 2441   1.404   1.123   1.211 -1.2341  0.1509 -0.4989
  160TMC2     H 2442   1.552   0.980   1.090  0.2560 -0.6657 -0.3984
  160TMC2    H1 2443   1.536   1.399   0.982 -0.2625  0.0018 -0.7663
  160TMC2    H2 2444   1.832   1.140   0.812 -0.4622 -0.4415 -0.4716
  160TMC2    C7 2445   1.739   1.393   0.821  0.1518  1.0615  0.4135
  160TMC2    C8 2446   1.763   0.921   0.950  0.7953  0.1374  0.1348
  160TMC2    O1 2447   1.650   1.464   0.779  0.1692  0.0650  0.2116
  160TMC2    O2 2448   1.835   0.889   0.859 -0.0548 -0.2038  0.5248
  160TMC2    O5 2449   1.768   0.856   1.063 -0.4482 -0.0684  0.3020
  160TMC2    H5 2450   1.728   0.909   1.135  1.1956  1.5249  0.0387
  161MPD2     C 2451   1.150   1.318   1.255  0.2332  1.1629  0.2106
  161MPD2    C1 2452   1.245   1.391   1.180 -0.2962  1.1389  0.0381
  161MPD2    C2 2453   1.235   1.529   1.173 -0.1681 -0.9802  0.2339
  161MPD2    C3 2454   1.137   1.596   1.241 -0.0499  0.4474  0.6314
  161MPD2    C4 2455   1.036   1.525   1.304  0.0012 -0.6340 -0.0454
  161MPD2    C5 2456   1.038   1.386   1.300  0.1886  0.2427 -0.4321
  161MPD2     H 2457   1.300   1.581   1.103 -0.8308 -0.9425 -0.3597
  161MPD2    H1 2458   0.945   1.571   1.341  0.7656  0.6564  0.2293
  161MPD2    H2 2459   1.153   1.209   1.257 -0.3654  1.1820  1.9804
  161MPD2    H3 2460   0.950   1.339   1.343 -0.1416  0.0507 -1.3310
  161MPD2     N 2461   1.128   1.736   1.238  0.5573 -0.0466 -0.7181
  161MPD2    H5 2462   1.043   1.770   1.281 -0.2077 -1.8850 -0.7739
  161MPD2    N1 2463   1.352   1.335   1.105 -0.4763 -0.6610  0.1244
  161MPD2    H7 2464   1.384   1.397   1.031 -0.6150  0.0181  0.6394
  162TMC2    C1 2465   4.404   3.565   1.057 -0.3045  0.0890 -0.1888
  162TMC2    C2 2466   4.289   3.515   1.104  1.3556 -0.1701  0.4506
  162TMC2    C3 2467   4.265   3.545   1.235  0.3015 -1.3671 -0.0517
  162TMC2    C4 2468   4.484   3.656   1.122  0.6080  0.5910  0.8890
  162TMC2    C5 2469   4.447   3.689   1.248 -0.0974  0.7917 -0.2322
  162TMC2    C6 2470   4.340   3.634   1.308  0.4409 -0.1761 -0.0590
  162TMC2     C 2471   4.440   3.528   0.925 -0.7452 -0.4576  0.9847
  162TMC2     O 2472   4.562   3.532   0.910  0.0352 -0.0195 -0.1189
  162TMC2     H 2473   4.231   3.440   1.051  0.4024  0.7917  0.1397
  162TMC2    H1 2474   4.581   3.675   1.077 -0.3594 -2.3104 -2.4029
  162TMC2    H2 2475   4.319   3.661   1.411 -1.5494 -3.8525  0.4965
  162TMC2    C7 2476   4.545   3.763   1.319 -0.3806 -0.4814 -0.0518
  162TMC2    C8 2477   4.129   3.534   1.279 -0.3009  0.0381  0.3188
  162TMC2    O1 2478   4.603   3.852   1.255  0.2503 -0.1692  0.7216
  162TMC2    O2 2479   4.106   3.554   1.395 -0.0953 -0.1169 -0.4215
  162TMC2    O5 2480   4.049   3.569   1.180  0.1361  0.0548  0.2126
  162TMC2    H5 2481   4.090   3.564   1.092  0.8039  1.3572  0.4440
  163MPD2     C 2482   4.372   3.401   0.443  0.0862  1.1312  0.1692
  163MPD2    C1 2483   4.483   3.435   0.509 -0.4729  0.0614 -0.3422
  163MPD2    C2 2484   4.477   3.476   0.638  0.2372  0.1139 -0.5094
  163MPD2    C3 2485   4.352   3.478   0.699  0.7951  0.3443  0.1798
  163MPD2    C4 2486   4.239   3.447   0.625  0.5163 -0.4250  0.5808
  163MPD2    C5 2487   4.251   3.408   0.497 -0.1815  0.0672  0.7468
  163MPD2     H 2488   4.570   3.496   0.690 -1.1865 -0.8299  2.4355
  163MPD2    H1 2489   4.142   3.439   0.672  0.4101  0.5933  0.5337
  163MPD2    H2 2490   4.380   3.357   0.345  0.5280 -2.2152  1.6897
  163MPD2    H3 2491   4.164   3.374   0.443  0.8385  0.6994 -1.2666
  163MPD2     N 2492   4.337   3.511   0.840  0.5096 -0.1251  0.0771
  163MPD2    H5 2493   4.244   3.521   0.878 -0.4411 -2.2248 -1.6834
  163MPD2    N1 2494   4.605   3.413   0.432 -0.4355 -0.1678 -0.0444
  163MPD2    H7 2495   4.598   3.389   0.333  0.9922 -2.3995  0.3801
  164TCq2    C1 2496   0.721   2.570  10.608 -0.4263 -0.2302 -0.2424
  164TCq2    O2 2497   0.617   2.499  10.603 -0.8255  0.4407  0.1704
  164TCq2    C2 2498   0.710   2.705  10.673  0.2112  0.5237 -0.2260
  164TCq2    C3 2499   0.812   2.792  10.667  0.4276  0.0988 -0.4637
  164TCq2    C4 2500   0.792   2.904  10.750  0.1309  0.0146 -0.2501
  164TCq2    C5 2501   0.676   2.937  10.820 -0.5532  0.1123  0.0667
  164TCq2    C6 2502   0.585   2.841  10.819  0.5433  0.4700  0.3472
  164TCq2    C7 2503   0.588   2.732  10.732 -0.1320  0.2332  0.4336
  164TCq2    C8 2504   0.472   2.849  10.909  0.1034  0.0078 -0.5334
  164TCq2    O4 2505   0.367   2.794  10.878  0.6877  0.8739 -0.6036
  164TCq2    C9 2506   0.910   2.984  10.776  0.5217 -0.9065 -0.0364
  164TCq2    O5 2507   1.015   2.963  10.712 -0.3146  0.2110 -0.5781
  164TCq2    O6 2508   0.909   3.076  10.857  0.1084 -0.8161 -0.2482
  164TCq2    H2 2509   0.909   2.766  10.624 -0.0148  0.2657 -1.5517
  164TCq2    H3 2510   0.673   3.028  10.879 -0.2233 -0.0042  0.2593
  164TCq2    H4 2511   0.497   2.673  10.730 -0.4385  0.6796  1.0811
  165MPD2     C 2512   0.677   0.874   1.644  0.6280  0.1482 -0.2799
  165MPD2    C1 2513   0.782   0.825   1.563 -0.0648 -0.3009  0.0210
  165MPD2    C2 2514   0.895   0.908   1.552  0.3501 -0.2997  0.1876
  165MPD2    C3 2515   0.896   1.035   1.617 -0.5680 -0.3063  0.3006
  165MPD2    C4 2516   0.785   1.086   1.687 -0.8269  0.3814 -0.2589
  165MPD2    C5 2517   0.676   1.002   1.698 -0.1503  0.2696  0.3966
  165MPD2     H 2518   0.985   0.872   1.503  0.3986 -1.2739  0.9972
  165MPD2    H1 2519   0.789   1.179   1.743  0.7807 -0.8918  1.7418
  165MPD2    H2 2520   0.580   0.826   1.655 -0.0133  1.6373  0.5633
  165MPD2    H3 2521   0.597   1.046   1.758 -1.0805 -0.1561 -0.5040
  165MPD2     N 2522   1.011   1.114   1.615  0.2276 -0.4868  0.1322
  165MPD2    H5 2523   1.006   1.202   1.667  2.3709 -0.1898 -0.1416
  165MPD2    N1 2524   0.766   0.703   1.494 -0.3201  0.7601  0.4261
  165MPD2    H7 2525   0.685   0.644   1.511 -1.1856  2.7479  3.1717
  166TCq2    C1 2526   1.139   1.086   1.572 -0.2536 -0.1979 -0.7927
  166TCq2    O2 2527   1.184   0.986   1.521  0.3963  0.4866  0.4189
  166TCq2    C2 2528   1.228   1.198   1.574 -0.1415  0.0221 -0.0390
  166TCq2    C3 2529   1.177   1.327   1.588  0.5281  0.3894  0.8347
  166TCq2    C4 2530   1.266   1.429   1.586 -0.3728  0.2641 -1.5507
  166TCq2    C5 2531   1.400   1.400   1.550 -0.3016 -0.1990 -0.4061
  166TCq2    C6 2532   1.438   1.267   1.530 -0.9985  0.0050  0.2582
  166TCq2    C7 2533   1.361   1.167   1.556 -0.0974  0.4552 -0.1107
  166TCq2    C8 2534   1.564   1.241   1.473  0.1580  0.1849 -0.4635
  166TCq2    O4 2535   1.614   1.131   1.483 -0.5906 -0.0456 -0.5784
  166TCq2    C9 2536   1.224   1.569   1.611 -0.0663 -0.0054 -0.4997
  166TCq2    O5 2537   1.108   1.596   1.660 -0.2284  0.3829  0.2653
  166TCq2    O6 2538   1.316   1.659   1.597 -0.1906 -0.6254  0.1783
  166TCq2    H2 2539   1.071   1.348   1.597  0.7097  0.8894  1.8428
  166TCq2    H3 2540   1.463   1.488   1.542  0.7843 -1.1897 -2.7980
  166TCq2    H4 2541   1.401   1.067   1.546 -0.5705  0.2246  0.3309
  167TMC2    C1 2542   4.399   2.523  12.544 -0.4429 -0.1389 -0.0195
  167TMC2    C2 2543   4.312   2.554  12.650 -0.1488  0.2897 -0.2461
  167TMC2    C3 2544   4.303   2.461  12.747  0.0371 -0.4205 -0.0939
  167TMC2    C4 2545   4.459   2.400  12.529  0.0727 -0.2897 -0.4065
  167TMC2    C5 2546   4.453   2.312  12.638  0.0661  1.1809 -0.3892
  167TMC2    C6 2547   4.378   2.346  12.750 -0.2006 -0.4313  0.9463
  167TMC2     C 2548   4.442   2.632  12.447 -0.7349 -0.0119 -0.2176
  167TMC2     O 2549   4.377   2.737  12.451 -0.4060  0.2530  0.0195
  167TMC2     H 2550   4.269   2.652  12.666 -0.7276  0.2378 -1.5238
  167TMC2    H1 2551   4.484   2.366  12.430 -3.4598 -1.1505 -1.0222
  167TMC2    H2 2552   4.380   2.281  12.837 -0.0884 -0.6800  0.7610
  167TMC2    C7 2553   4.504   2.173  12.634 -0.0034  0.5765 -0.3739
  167TMC2    C8 2554   4.206   2.484  12.847  0.1729  0.4789 -0.0394
  167TMC2    O1 2555   4.458   2.100  12.716  0.5053 -0.2910  0.2173
  167TMC2    O2 2556   4.137   2.582  12.863  0.2120  0.3567 -0.2563
  167TMC2    O5 2557   4.151   2.362  12.856  0.4826  0.1688 -0.1759
  167TMC2    H5 2558   4.193   2.290  12.804 -2.9878 -1.3523 -0.8634
  168MPD2     C 2559   4.594   2.828  12.272  0.0796  0.3961  0.4234
  168MPD2    C1 2560   4.626   2.696  12.291  0.0580 -0.5857  0.0768
  168MPD2    C2 2561   0.010   2.643  12.222  0.1228  0.9143  0.5788
  168MPD2    C3 2562   0.079   2.720  12.129  0.1906  0.0561 -0.0673
  168MPD2    C4 2563   0.037   2.851  12.108 -0.7216  0.5999 -0.7798
  168MPD2    C5 2564   4.667   2.908  12.187  0.4709 -0.1630  0.2591
  168MPD2     H 2565   0.028   2.537  12.230  0.9756  0.8122 -2.6844
  168MPD2    H1 2566   0.092   2.915  12.040  1.2209 -0.6197 -0.3408
  168MPD2    H2 2567   4.518   2.871  12.335  0.2908 -0.1752  1.0550
  168MPD2    H3 2568   4.653   3.015  12.175  2.1768  0.0595  0.2536
  168MPD2     N 2569   0.173   2.666  12.040  0.3358  0.2560 -0.2170
  168MPD2    H5 2570   0.174   2.713  11.950  0.2761 -1.0265 -0.8820
  168MPD2    N1 2571   4.556   2.604  12.374  0.0813  0.1180 -0.2891
  168MPD2    H7 2572   4.605   2.516  12.388 -0.6659 -0.8658 -3.6806
  169MPD1     C 2573   2.438   2.224   8.654 -0.6816 -0.0201 -0.1287
  169MPD1    C1 2574   2.395   2.160   8.774 -0.3704 -0.0365  0.9306
  169MPD1    C2 2575   2.477   2.191   8.882 -0.0504  0.7621  0.8025
  169MPD1    C3 2576   2.601   2.255   8.879  0.4889  0.4416  0.6614
  169MPD1    C4 2577   2.644   2.300   8.754 -0.0589  1.0697 -0.0876
  169MPD1    C5 2578   2.561   2.283   8.643  0.1453 -0.2303  0.2622
  169MPD1     H 2579   2.439   2.159   8.979 -0.7289 -1.3787 -0.1540
  169MPD1    H1 2580   2.741   2.347   8.740  0.9998 -0.2039  2.9047
  169MPD1    H2 2581   2.387   2.220   8.559 -0.3635 -0.6848 -0.2744
  169MPD1    H3 2582   2.593   2.320   8.546  1.2627 -3.7984 -0.7384
  169MPD1     N 2583   2.677   2.264   8.998 -0.0067  0.2577 -0.0324
  169MPD1    H5 2584   2.634   2.216   9.076 -1.2853  1.2190 -0.1567
  169MPD1    N1 2585   2.263   2.113   8.777 -0.4791  0.2740  0.0896
  169MPD1    H6 2586   2.254   2.041   8.849  0.7242 -1.0727 -1.1095
  169MPD1    H7 2587   2.240   2.077   8.685  0.7783 -0.4685  0.0677
  170MPD1     C 2588   1.322   0.191  12.731 -0.0685  0.2475 -0.3335
  170MPD1    C1 2589   1.198   0.250  12.697 -0.2188 -0.1594  0.8324
  170MPD1    C2 2590   1.121   0.315  12.804 -0.8298 -0.2124  0.0844
  170MPD1    C3 2591   1.168   0.302  12.933  0.2588 -0.0065 -0.5337
  170MPD1    C4 2592   1.287   0.236  12.955  0.4547  0.6358  0.4040
  170MPD1    C5 2593   1.370   0.194  12.857  0.7080  0.7349 -0.3008
  170MPD1     H 2594   1.036   0.380  12.783  0.4593  1.4709  0.0367
  170MPD1    H1 2595   1.321   0.201  13.052  3.0355 -1.3829 -1.2383
  170MPD1    H2 2596   1.380   0.151  12.649  0.2976 -0.0245  0.0593
  170MPD1    H3 2597   1.462   0.145  12.883  0.8993  1.8624  1.1518
  170MPD1     N 2598   1.089   0.351  13.035  0.3077  0.8542 -0.2291
  170MPD1    H5 2599   0.999   0.395  13.015  0.2736  1.0244  0.2903
  170MPD1    N1 2600   1.172   0.256  12.563  0.2314 -0.3484 -0.1699
  170MPD1    H6 2601   1.209   0.175  12.513  0.6573  0.0447 -0.4880
  170MPD1    H7 2602   1.071   0.251  12.554  0.3584 -0.5725 -1.5051
  171MPD1     C 2603   4.022   1.909  15.320 -0.0237  0.3205 -0.4322
  171MPD1    C1 2604   4.020   1.788  15.253  0.1199 -0.5378  0.3072
  171MPD1    C2 2605   4.036   1.675  15.327  0.1364 -0.0771 -0.6785
  171MPD1    C3 2606   4.068   1.675  15.463 -0.6613 -0.1066 -0.6090
  171MPD1    C4 2607   4.058   1.795  15.532  0.2931  0.1625 -0.1844
  171MPD1    C5 2608   4.041   1.906  15.455 -0.1833 -0.4283  0.2231
  171MPD1     H 2609   4.029   1.582  15.272 -2.3892 -0.9209  1.1285
  171MPD1    H1 2610   4.071   1.801  15.640  0.0311 -1.1500 -0.0775
  171MPD1    H2 2611   4.009   2.010  15.283 -1.6507  0.1692 -0.2664
  171MPD1    H3 2612   4.034   2.003  15.503 -1.3298 -0.6835  0.5642
  171MPD1     N 2613   4.086   1.563  15.544 -0.3872  0.3443 -0.0093
  171MPD1    H5 2614   4.075   1.579  15.644  0.1971 -2.2922  0.4856
  171MPD1    N1 2615   3.997   1.774  15.110 -0.3015 -0.3898  0.1296
  171MPD1    H6 2616   4.044   1.853  15.066 -2.1723  1.3038  1.2159
  171MPD1    H7 2617   4.032   1.685  15.074  0.5714  0.0703 -0.1781
  172MPD1     C 2618   3.495   0.626   0.583 -0.5071 -0.3552 -0.3192
  172MPD1    C1 2619   3.421   0.748   0.596 -0.1047 -0.1632  0.0419
  172MPD1    C2 2620   3.491   0.867   0.618 -0.1161  0.1719 -0.0962
  172MPD1    C3 2621   3.627   0.877   0.603  0.2766 -0.8534 -0.4109
  172MPD1    C4 2622   3.696   0.757   0.578 -0.3489  0.0698 -0.4147
  172MPD1    C5 2623   3.635   0.633   0.579  0.0133  0.2718 -0.1032
  172MPD1     H 2624   3.429   0.945   0.660 -3.7614 -1.3876 -2.5992
  172MPD1    H1 2625   3.802   0.739   0.587 -0.8739 -2.1882  1.3241
  172MPD1    H2 2626   3.440   0.533   0.594  1.4268 -1.2224  2.1351
  172MPD1    H3 2627   3.704   0.549   0.575 -0.8663 -0.5231  1.7701
  172MPD1     N 2628   3.700   0.998   0.620  0.1742  0.2704 -0.9415
  172MPD1    H5 2629   3.800   0.989   0.608  0.5209  1.3807  1.1346
  172MPD1    N1 2630   3.293   0.739   0.641 -0.7350 -0.2512 -0.2439
  172MPD1    H6 2631   3.242   0.658   0.605 -1.4093  0.8364 -1.7223
  172MPD1    H7 2632   3.288   0.725   0.742 -1.5504  1.5095 -0.0270
  173MPD1     C 2633   0.536   0.621  13.760  0.8571 -0.5650 -0.2970
  173MPD1    C1 2634   0.402   0.651  13.799 -0.2273  0.2811  0.1870
  173MPD1    C2 2635   0.376   0.668  13.933 -0.0223  0.3161 -0.0955
  173MPD1    C3 2636   0.479   0.661  14.031  0.3432 -0.5446  0.2969
  173MPD1    C4 2637   0.608   0.636  13.986  0.4377  0.3327 -0.0850
  173MPD1    C5 2638   0.635   0.617  13.858 -0.1244 -0.8492  0.3225
  173MPD1     H 2639   0.276   0.684  13.972 -0.9596  2.2382 -3.3254
  173MPD1    H1 2640   0.696   0.629  14.048  1.3782 -2.9049 -1.7595
  173MPD1    H2 2641   0.569   0.603  13.659 -0.5123 -0.6633 -0.7272
  173MPD1    H3 2642   0.738   0.600  13.829  0.2241  0.0184  1.0293
  173MPD1     N 2643   0.438   0.667  14.170  0.0237 -0.2225  0.3301
  173MPD1    H5 2644   0.337   0.664  14.180 -0.1845 -1.0864 -2.0761
  173MPD1    N1 2645   0.293   0.652  13.711  0.0228 -0.0210  0.9991
  173MPD1    H6 2646   0.204   0.688  13.744 -0.5316 -0.1748 -0.3256
  173MPD1    H7 2647   0.327   0.697  13.626  0.7244  0.7917  1.7105
  174MPD1     C 2648   0.836   0.028  14.712  1.2792  0.2169  0.0706
  174MPD1    C1 2649   0.704   0.014  14.748 -0.2908 -0.7859 -0.6105
  174MPD1    C2 2650   0.617   0.121  14.733  0.0603 -0.0778  0.2413
  174MPD1    C3 2651   0.664   0.241  14.685  0.1362 -0.4142 -0.5396
  174MPD1    C4 2652   0.802   0.257  14.671  0.1139 -0.6038 -0.2996
  174MPD1    C5 2653   0.885   0.151  14.674 -0.3670 -0.0839 -0.4019
  174MPD1     H 2654   0.512   0.097  14.748 -0.1955  0.8293 -0.1133
  174MPD1    H1 2655   0.856   0.350  14.661  1.0884 -0.8771  2.4388
  174MPD1    H2 2656   0.897   4.661  14.714 -1.3872 -1.6224 -0.7074
  174MPD1    H3 2657   0.992   0.160  14.660 -0.7017  3.2567 -0.6667
  174MPD1     N 2658   0.577   0.357  14.656  0.0428 -0.8744  0.2463
  174MPD1    H5 2659   0.633   0.435  14.622 -1.0075  0.4072  1.4879
  174MPD1    N1 2660   0.660   4.612  14.780  0.0948  0.0421 -0.4925
  174MPD1    H6 2661   0.567   4.621  14.820  0.3689  0.1476  0.1267
  174MPD1    H7 2662   0.716   4.564  14.850 -1.5703 -1.4380 -0.1712
  175MPD1     C 2663   3.291   1.829  15.658 -0.3184 -0.1489 -0.1640
  175MPD1    C1 2664   3.222   1.713  15.638  0.0250 -0.2763  0.1861
  175MPD1    C2 2665   3.181   1.633  15.752  0.2123 -0.4232 -0.5696
  175MPD1    C3 2666   3.226   1.668  15.880  1.2137  0.2438  0.3584
  175MPD1    C4 2667   3.298   1.786  15.900 -0.1508 -0.1725  0.3238
  175MPD1    C5 2668   3.317   1.865  15.788  0.4137  0.3465 -0.0111
  175MPD1     H 2669   3.112   1.551  15.737 -0.5855  0.0750  0.4035
  175MPD1    H1 2670   3.335   1.818  15.997  0.2055 -0.4639  0.2856
  175MPD1    H2 2671   3.311   1.905  15.582 -2.6248 -0.8563 -1.4998
  175MPD1    H3 2672   3.368   1.958  15.806  0.3215  0.3394  0.2826
  175MPD1     N 2673   3.198   1.591  15.997 -0.0677  0.4713  0.0774
  175MPD1    H5 2674   3.236   1.622  16.086  0.8394 -0.7468  0.1215
  175MPD1    N1 2675   3.179   1.692  15.504 -0.0774 -0.0558  0.3508
  175MPD1    H6 2676   3.138   1.599  15.496  1.9179 -0.8365 -0.7533
  175MPD1    H7 2677   3.265   1.687  15.450  0.6433 -0.8384  1.5669
  176MPD1     C 2678   4.642   3.337  16.884  0.8796 -0.1551  0.0683
  176MPD1    C1 2679   4.593   3.360  17.013  0.3634 -0.0319 -0.5498
  176MPD1    C2 2680   4.561   3.489  17.056 -0.2997  0.2886 -0.2595
  176MPD1    C3 2681   4.606   3.599  16.982 -0.3414  0.1497 -0.1975
  176MPD1    C4 2682   4.653   3.581  16.855 -0.1869  0.5124 -0.2910
  176MPD1    C5 2683   4.667   3.452  16.810 -0.0555 -0.0912  0.3830
  176MPD1     H 2684   4.526   3.506  17.157  0.7359  0.8188  0.0165
  176MPD1    H1 2685   4.678   3.657  16.782  0.0452 -0.8865 -1.6662
  176MPD1    H2 2686   4.649   3.237  16.842  2.0884  0.3299 -0.8752
  176MPD1    H3 2687   4.693   3.440  16.706 -2.0290  0.6230 -0.1732
  176MPD1     N 2688   4.605   3.729  17.038 -0.1594  0.7538  0.4460
  176MPD1    H5 2689   4.559   3.734  17.128 -0.1714 -0.7596  0.5203
  176MPD1    N1 2690   4.547   3.258  17.092  0.0257 -0.2865  0.8432
  176MPD1    H6 2691   4.583   3.166  17.067  0.4523  0.0113  0.3575
  176MPD1    H7 2692   4.571   3.270  17.190 -2.8033 -1.5765  1.6751
  177MPD1     C 2693   3.508   3.511  10.371  0.7822  0.1805 -0.2987
  177MPD1    C1 2694   3.471   3.420  10.276 -0.0586 -0.0117 -0.1988
  177MPD1    C2 2695   3.462   3.470  10.147  0.0988 -0.9014  0.6692
  177MPD1    C3 2696   3.515   3.594  10.108 -0.2041 -0.0175  0.0764
  177MPD1    C4 2697   3.554   3.681  10.206 -1.1699 -0.4062  0.6171
  177MPD1    C5 2698   3.545   3.639  10.336 -0.0392 -0.8362  0.1183
  177MPD1     H 2699   3.432   3.407  10.064  0.2020  0.8692 -0.7136
  177MPD1    H1 2700   3.589   3.781  10.185 -2.4224 -0.6150 -2.5439
  177MPD1    H2 2701   3.505   3.484  10.476  0.4622  3.4215  0.5226
  177MPD1    H3 2702   3.564   3.713  10.413 -0.8274  0.2153 -0.7016
  177MPD1     N 2703   3.520   3.629   9.972 -0.3235 -0.2158 -0.2417
  177MPD1    H5 2704   3.513   3.559   9.898 -0.6291  0.6225 -1.0002
  177MPD1    N1 2705   3.431   3.291  10.310  0.1973 -0.3080 -0.3935
  177MPD1    H6 2706   3.468   3.253  10.397 -0.7202 -1.8791 -0.6998
  177MPD1    H7 2707   3.429   3.221  10.236 -1.8391 -4.2810  3.3943
  178MPD1     C 2708   0.527   4.669  17.647  0.5656  0.4175  0.9638
  178MPD1    C1 2709   0.455   4.584  17.570 -0.5448 -0.0480 -0.0256
  178MPD1    C2 2710   0.501   4.557  17.446  0.1790 -0.5887 -0.6803
  178MPD1    C3 2711   0.609   4.627  17.397 -0.4286  0.6623  0.0350
  178MPD1    C4 2712   0.678   4.716  17.471  0.2256 -0.5484  0.0465
  178MPD1    C5 2713   0.633   0.020  17.598  0.7586  0.3456  0.0785
  178MPD1     H 2714   0.444   4.481  17.394  0.9457 -1.5114 -0.1669
  178MPD1    H1 2715   0.770   0.040  17.438  1.4952 -2.1269  1.3173
  178MPD1    H2 2716   0.499   4.679   0.057  1.7712  0.7731  1.2508
  178MPD1    H3 2717   0.689   0.087  17.662 -2.2284  1.7202  1.2744
  178MPD1     N 2718   0.651   4.597  17.263  0.7652 -1.1381 -0.8478
  178MPD1    H5 2719   0.742   4.632  17.237  0.2693  2.7292  2.6432
  178MPD1    N1 2720   0.340   4.513  17.615 -0.0663  0.0910  0.2967
  178MPD1    H6 2721   0.282   4.568  17.678 -0.8175  2.8960 -2.8503
  178MPD1    H7 2722   0.283   4.483  17.535  0.4660 -1.3702  0.4559
  179MPD1     C 2723   0.093   3.036  15.954 -0.3533 -0.3976  0.6207
  179MPD1    C1 2724   0.085   2.979  16.078 -0.5812 -0.7354 -0.1552
  179MPD1    C2 2725   0.096   2.840  16.095 -0.3737 -0.3814 -0.8560
  179MPD1    C3 2726   0.111   2.758  15.986  0.4246 -0.1555  0.0313
  179MPD1    C4 2727   0.117   2.813  15.861  0.4396 -0.0884 -0.0074
  179MPD1    C5 2728   0.109   2.949  15.848  0.3653  0.5262 -0.2813
  179MPD1     H 2729   0.089   2.806  16.198 -0.9138  0.2408 -0.6910
  179MPD1    H1 2730   0.131   2.749  15.775  3.1847 -0.0225  0.4055
  179MPD1    H2 2731   0.088   3.142  15.935  1.8217  0.1700  3.3887
  179MPD1    H3 2732   0.095   2.988  15.748 -2.2659  1.0247  0.2683
  179MPD1     N 2733   0.133   2.617  15.994  0.5088  0.5022  0.0834
  179MPD1    H5 2734   0.183   2.576  15.916  0.1972 -1.8531  1.1008
  179MPD1    N1 2735   0.082   3.065  16.187 -0.0045 -0.4192 -0.1509
  179MPD1    H6 2736   0.147   3.143  16.186 -0.0674 -0.3626  0.4904
  179MPD1    H7 2737   0.093   3.010  16.272 -0.7390  0.0477  0.2416
  180MPD1     C 2738   4.658   4.443  14.772 -0.2681  0.2913 -0.4010
  180MPD1    C1 2739   0.058   4.409  14.718 -0.1211  0.3698 -0.8665
  180MPD1    C2 2740   0.060   4.339  14.598  0.3211 -0.3472  0.0486
  180MPD1    C3 2741   4.675   4.292  14.525 -0.0207  0.4312 -0.0108
  180MPD1    C4 2742   4.555   4.318  14.584 -0.1638 -0.3233  0.1371
  180MPD1    C5 2743   4.549   4.395  14.695 -0.0066 -0.6236  0.0654
  180MPD1     H 2744   0.158   4.309  14.562  1.6451  2.3075  1.4252
  180MPD1    H1 2745   4.460   4.279  14.550  0.6591 -0.0046 -2.5858
  180MPD1    H2 2746   4.650   4.506  14.860  3.4060  1.2429 -0.7415
  180MPD1    H3 2747   4.450   4.415  14.735  1.3700  1.5590  2.3657
  180MPD1     N 2748   4.690   4.204  14.417  0.2010  0.6529  0.3203
  180MPD1    H5 2749   0.065   4.188  14.392 -0.0540  1.5407 -1.2276
  180MPD1    N1 2750   0.181   4.454  14.770  0.0544 -0.3912  0.5995
  180MPD1    H6 2751   0.249   4.381  14.752 -0.1493 -0.0620 -1.6337
  180MPD1    H7 2752   0.181   4.469  14.870  1.0921  0.1093  0.5255
  181MPD1     C 2753   1.163   0.767   9.693  0.1790 -0.4306  0.1539
  181MPD1    C1 2754   1.227   0.654   9.728  0.2820 -0.2672 -0.7921
  181MPD1    C2 2755   1.366   0.653   9.716 -0.6431 -0.5636 -0.4094
  181MPD1    C3 2756   1.443   0.758   9.659  0.2421 -0.0389  0.5897
  181MPD1    C4 2757   1.365   0.867   9.617  0.4816 -0.9144  0.6929
  181MPD1    C5 2758   1.231   0.876   9.639 -0.4266 -0.0779  0.3661
  181MPD1     H 2759   1.436   0.579   9.753  1.6034  0.5795 -2.3903
  181MPD1    H1 2760   1.402   0.959   9.573  1.0086 -1.6969 -0.5011
  181MPD1    H2 2761   1.055   0.769   9.706  0.2678  1.5216  0.5424
  181MPD1    H3 2762   1.167   0.961   9.620  0.3281  0.5061  0.4503
  181MPD1     N 2763   1.583   0.770   9.625  0.4277  0.5288  0.3479
  181MPD1    H5 2764   1.619   0.861   9.600 -0.5593  0.7046 -0.4588
  181MPD1    N1 2765   1.160   0.560   9.809 -0.3842 -0.2976  0.6654
  181MPD1    H6 2766   1.063   0.535   9.790 -0.0412  0.0550 -1.5729
  181MPD1    H7 2767   1.212   0.473   9.806 -1.0027 -0.6308 -0.3440
  182MPD1     C 2768   3.524   4.560   1.080 -0.4375 -0.4247 -0.6452
  182MPD1    C1 2769   3.473   4.495   1.196  0.5191  0.7696 -0.3300
  182MPD1    C2 2770   3.347   4.432   1.193 -0.8698 -0.0852 -0.4061
  182MPD1    C3 2771   3.280   4.433   1.073 -0.1886  0.3568  0.1862
  182MPD1    C4 2772   3.337   4.488   0.965  0.8027  0.0393  0.3586
  182MPD1    C5 2773   3.450   4.554   0.969 -0.2412 -0.4779  0.4818
  182MPD1     H 2774   3.302   4.385   1.280  0.9511  0.4096  0.7866
  182MPD1    H1 2775   3.290   4.482   0.867  0.9768 -0.1015  0.2857
  182MPD1    H2 2776   3.618   4.614   1.074  0.4397 -1.8089  0.7834
  182MPD1    H3 2777   3.466   4.617   0.882 -1.5785 -1.8256 -0.7544
  182MPD1     N 2778   3.158   4.370   1.050 -0.0260  0.5718 -0.1448
  182MPD1    H5 2779   3.129   4.377   0.953  1.0832  0.4393 -0.4871
  182MPD1    N1 2780   3.535   4.512   1.323  0.0270 -0.8435 -0.7717
  182MPD1    H6 2781   3.496   4.438   1.381  0.5244  0.1725  0.8425
  182MPD1    H7 2782   3.636   4.526   1.331 -0.2640  0.9954 -0.3802
  183MPD1     C 2783   3.545   0.461   8.747 -0.5364 -0.0211 -0.8487
  183MPD1    C1 2784   3.486   0.590   8.757 -0.4867 -0.2155  0.3217
  183MPD1    C2 2785   3.419   0.620   8.873 -0.0581 -1.2315 -0.3325
  183MPD1    C3 2786   3.399   0.522   8.969  0.2772  0.4330  0.7257
  183MPD1    C4 2787   3.441   0.392   8.953 -0.5675 -0.0702 -0.2666
  183MPD1    C5 2788   3.529   0.368   8.849 -0.3146 -0.2431  0.0334
  183MPD1     H 2789   3.388   0.723   8.884 -0.7607 -1.2657 -1.9263
  183MPD1    H1 2790   3.420   0.319   9.032  2.5628  0.4868  1.0578
  183MPD1    H2 2791   3.614   0.434   8.668  0.3317  0.9678 -0.4402
  183MPD1    H3 2792   3.589   0.278   8.852  1.6328  1.0882  1.2865
  183MPD1     N 2793   3.340   0.550   9.098  0.3552 -0.0864 -0.1520
  183MPD1    H5 2794   3.318   0.464   9.147 -1.6070  0.7208  0.3727
  183MPD1    N1 2795   3.524   0.695   8.668 -0.0011  0.7892  0.4407
  183MPD1    H6 2796   3.450   0.763   8.653 -0.0738  0.5099 -0.5012
  183MPD1    H7 2797   3.556   0.659   8.578 -0.0781 -0.9682  1.1170
  184MPD1     C 2798   2.385   2.874   9.548  0.7787 -1.3364 -0.3111
  184MPD1    C1 2799   2.437   2.868   9.420 -0.6332 -0.0698 -0.5208
  184MPD1    C2 2800   2.529   2.967   9.379 -0.8934  0.1708 -0.2418
  184MPD1    C3 2801   2.569   3.061   9.470  0.3688 -0.1695  0.5569
  184MPD1    C4 2802   2.538   3.050   9.609 -0.3030  0.0958 -0.8714
  184MPD1    C5 2803   2.443   2.953   9.642 -0.9420  0.3364 -0.3219
  184MPD1     H 2804   2.563   2.967   9.276 -1.0369 -0.1811 -0.2885
  184MPD1    H1 2805   2.573   3.116   9.687 -1.0337 -0.7573  0.1780
  184MPD1    H2 2806   2.298   2.817   9.580 -1.2238  0.9008 -1.7239
  184MPD1    H3 2807   2.405   2.929   9.740 -1.1773 -0.5123 -0.6259
  184MPD1     N 2808   2.662   3.165   9.436  0.3388  0.1394 -0.0355
  184MPD1    H5 2809   2.685   3.224   9.516  2.7456 -0.2370 -0.4785
  184MPD1    N1 2810   2.385   2.779   9.325 -0.4953  0.6061 -0.3651
  184MPD1    H6 2811   2.400   2.686   9.365  0.5425  1.3550  1.0045
  184MPD1    H7 2812   2.439   2.781   9.239  0.5267 -1.4341  0.2205
  185MPD1     C 2813   3.008   3.619   8.559 -0.2023 -0.3837 -0.0582
  185MPD1    C1 2814   3.096   3.652   8.661  0.7158  0.4867  0.6841
  185MPD1    C2 2815   3.076   3.596   8.785  0.1421 -0.1360  0.3761
  185MPD1    C3 2816   2.958   3.525   8.820  1.0463  0.1839  0.2692
  185MPD1    C4 2817   2.872   3.506   8.714  0.1830  0.0548  0.5388
  185MPD1    C5 2818   2.894   3.558   8.588  0.1708  1.0786  0.1723
  185MPD1     H 2819   3.152   3.623   8.858 -1.8193  0.5909  2.1643
  185MPD1    H1 2820   2.781   3.454   8.741  0.0719  0.2489  0.5442
  185MPD1    H2 2821   3.019   3.653   8.457 -2.2430 -1.1397 -0.5410
  185MPD1    H3 2822   2.831   3.538   8.502 -2.0338  0.0700  2.0115
  185MPD1     N 2823   2.932   3.469   8.950 -0.2899  0.3884  0.1214
  185MPD1    H5 2824   2.853   3.406   8.959 -0.4032  0.1939 -2.1282
  185MPD1    N1 2825   3.218   3.709   8.625  0.2267 -0.2633 -0.0381
  185MPD1    H6 2826   3.270   3.749   8.703  0.5593 -0.8171  0.0183
  185MPD1    H7 2827   3.217   3.787   8.560 -0.9359 -0.0517  0.2337
  186MPD1     C 2828   1.067   2.329  15.768 -0.3689 -0.2872  0.6644
  186MPD1    C1 2829   0.962   2.325  15.852  0.0263 -0.1061 -0.4131
  186MPD1    C2 2830   0.935   2.432  15.942 -0.3239  0.0886  1.2003
  186MPD1    C3 2831   1.016   2.545  15.935 -0.7678  0.2341 -0.1092
  186MPD1    C4 2832   1.115   2.550  15.837  0.4808  0.9170  0.3350
  186MPD1    C5 2833   1.149   2.439  15.765  0.0882 -0.0711  0.0618
  186MPD1     H 2834   0.847   2.428  16.005 -1.1836 -0.1989 -0.0156
  186MPD1    H1 2835   1.178   2.638  15.840  0.3451  0.9801  1.2107
  186MPD1    H2 2836   1.083   2.250  15.696  0.7292  1.2604 -0.8050
  186MPD1    H3 2837   1.232   2.437  15.695 -0.0327 -0.0791 -0.0825
  186MPD1     N 2838   1.000   2.659  16.020  0.0943 -0.3332 -0.6179
  186MPD1    H5 2839   1.046   2.746  15.997  0.2420 -1.4109 -4.4328
  186MPD1    N1 2840   0.890   2.205  15.867  0.5070 -0.2011  0.1592
  186MPD1    H6 2841   0.799   2.201  15.911  0.2216  0.1743 -0.3935
  186MPD1    H7 2842   0.890   2.163  15.774  0.3544  1.4302 -0.5781
  187MPD1     C 2843   4.146   0.765   0.386 -0.4596 -0.2019 -0.3169
  187MPD1    C1 2844   4.061   0.697   0.304 -0.6849 -0.0305  0.3492
  187MPD1    C2 2845   4.107   0.661   0.184 -0.4930  0.2148  0.0153
  187MPD1    C3 2846   4.236   0.681   0.140  0.3011 -0.9085  0.2337
  187MPD1    C4 2847   4.320   0.749   0.224 -0.7392 -0.5833  0.0166
  187MPD1    C5 2848   4.276   0.795   0.344  0.1736  0.3082  0.0602
  187MPD1     H 2849   4.044   0.596   0.125  1.0647 -0.4595 -0.8887
  187MPD1    H1 2850   4.422   0.770   0.196 -0.8336  0.0388  0.1420
  187MPD1    H2 2851   4.107   0.801   0.481 -2.5982  0.0974 -1.3247
  187MPD1    H3 2852   4.357   0.821   0.412  0.6297 -1.8700  0.3407
  187MPD1     N 2853   4.280   0.646   0.007  0.0020  0.7330  0.7361
  187MPD1    H5 2854   4.380   0.656  17.688 -0.0707 -0.3909 -0.7486
  187MPD1    N1 2855   3.922   0.685   0.341  0.3025  0.5755  0.2535
  187MPD1    H6 2856   3.872   0.610   0.293  0.7688  0.3384  0.1354
  187MPD1    H7 2857   3.922   0.675   0.442  1.8446  0.3279  0.2331
  188MPD1     C 2858   4.527   4.274  10.187  0.1124 -0.7745 -1.1679
  188MPD1    C1 2859   4.550   4.218  10.312 -0.2197  0.3775 -0.2581
  188MPD1    C2 2860   4.534   4.082  10.313  0.2547 -0.3482  1.0042
  188MPD1    C3 2861   4.476   4.015  10.207  0.1005  0.6771  0.4712
  188MPD1    C4 2862   4.427   4.076  10.090  0.2264  0.1838 -0.2268
  188MPD1    C5 2863   4.460   4.211  10.086  1.0346  0.2490  0.2365
  188MPD1     H 2864   4.569   4.033  10.404 -0.3279 -0.1164  1.3509
  188MPD1    H1 2865   4.398   4.022  10.000 -0.1457  1.2097 -0.7190
  188MPD1    H2 2866   4.529   4.383  10.178 -0.2587 -0.7431 -0.8407
  188MPD1    H3 2867   4.450   4.267   9.994  2.3616 -1.7358 -1.1201
  188MPD1     N 2868   4.471   3.872  10.203  0.1814  0.6420 -0.2058
  188MPD1    H5 2869   4.406   3.831  10.137  0.7214  0.2946 -0.5238
  188MPD1    N1 2870   4.605   4.288  10.420  0.4363 -0.4173  0.5574
  188MPD1    H6 2871   4.589   4.251  10.513 -2.3409  0.3810  0.3733
  188MPD1    H7 2872   4.582   4.386  10.410  1.9701 -0.0289  0.7535
  189MPD1     C 2873   1.641   0.295   0.105 -0.3448 -0.1349 -0.1746
  189MPD1    C1 2874   1.519   0.238   0.118  0.0873 -0.2780 -0.6827
  189MPD1    C2 2875   1.419   0.321   0.074 -0.5394  0.9794  0.4457
  189MPD1    C3 2876   1.436   0.461   0.040  0.4096 -0.4269 -0.1795
  189MPD1    C4 2877   1.555   0.523   0.061 -0.3756 -0.5263 -0.2002
  189MPD1    C5 2878   1.656   0.431   0.088  0.0016  0.0309 -0.7663
  189MPD1     H 2879   1.325   0.276   0.042 -1.0055  2.0738  0.2759
  189MPD1    H1 2880   1.578   0.625   0.033  0.1152 -0.4993  0.2869
  189MPD1    H2 2881   1.730   0.233   0.118 -0.3397 -0.2967 -0.9998
  189MPD1    H3 2882   1.760   0.462   0.087  0.3864 -1.2489 -1.7429
  189MPD1     N 2883   1.320   0.528  17.692 -0.2725  0.8789  0.1292
  189MPD1    H5 2884   1.231   0.480   0.008  0.3614 -0.5956 -1.2050
  189MPD1    N1 2885   1.507   0.100   0.123 -0.0312  0.0813  0.8496
  189MPD1    H6 2886   1.578   0.053   0.179  0.4241 -0.4974 -0.2201
  189MPD1    H7 2887   1.419   0.084   0.173 -1.1337  0.9440 -0.8373
  190MPD1     C 2888   0.469   3.787  14.593 -0.0236  0.6680  0.3748
  190MPD1    C1 2889   0.571   3.883  14.619  0.0786  1.3092 -0.4384
  190MPD1    C2 2890   0.608   3.909  14.752  0.8042 -0.7021 -0.1994
  190MPD1    C3 2891   0.546   3.846  14.859 -0.3970 -0.2992  0.3791
  190MPD1    C4 2892   0.449   3.749  14.834  0.2647  0.0385  0.9525
  190MPD1    C5 2893   0.416   3.717  14.701  0.0224 -0.4318 -0.0970
  190MPD1     H 2894   0.684   3.985  14.767  1.2806 -1.1652 -0.2695
  190MPD1    H1 2895   0.408   3.698  14.920  0.1577  0.4282  1.1323
  190MPD1    H2 2896   0.438   3.762  14.492  0.6075  2.0567 -0.1686
  190MPD1    H3 2897   0.331   3.653  14.681 -0.1913 -0.6898  1.6176
  190MPD1     N 2898   0.592   3.869  14.993  0.8134  0.5402  0.0586
  190MPD1    H5 2899   0.686   3.906  15.009  1.1110  1.0177 -2.7503
  190MPD1    N1 2900   0.608   3.968  14.523 -0.1269 -0.1249 -0.1231
  190MPD1    H6 2901   0.700   4.002  14.549 -0.5644  1.3066 -0.4599
  190MPD1    H7 2902   0.598   3.930  14.429  1.2025 -3.0669  0.9179
  191MPD1     C 2903   4.690   0.530  12.550  0.9586 -0.2575 -0.1973
  191MPD1    C1 2904   0.065   0.624  12.508 -0.0770  1.0535  0.1153
  191MPD1    C2 2905   0.031   0.714  12.412 -0.1660 -0.5454  0.1371
  191MPD1    C3 2906   4.631   0.705  12.353  0.4939  0.5753 -0.7493
  191MPD1    C4 2907   4.535   0.612  12.392 -0.2570 -0.6775  0.0665
  191MPD1    C5 2908   4.568   0.524  12.487  0.6553  0.2653  0.1733
  191MPD1     H 2909   0.096   0.796  12.383  0.5792 -1.1021  0.2303
  191MPD1    H1 2910   4.437   0.612  12.346 -0.8689 -2.3847  1.3774
  191MPD1    H2 2911   4.703   0.443  12.614 -1.0439 -1.0801 -0.8879
  191MPD1    H3 2912   4.497   0.454  12.530 -1.6268  1.7453 -1.1521
  191MPD1     N 2913   4.602   0.809  12.255 -0.3529 -0.3491  0.0484
  191MPD1    H5 2914   4.686   0.856  12.222 -1.9807  1.0016 -2.1437
  191MPD1    N1 2915   0.183   0.644  12.582  0.0938  0.0001  0.5438
  191MPD1    H6 2916   0.242   0.562  12.600  0.9153  0.8708  1.8313
  191MPD1    H7 2917   0.255   0.697  12.534  1.7587 -2.5537  0.1909
  192MPD1     C 2918   3.761   1.080  11.814  0.6412 -0.4409 -0.4799
  192MPD1    C1 2919   3.839   1.190  11.783  0.1204 -0.4376 -0.1630
  192MPD1    C2 2920   3.968   1.189  11.825  0.1579 -0.4786 -0.3110
  192MPD1    C3 2921   4.009   1.096  11.919  0.3291 -0.9270  0.2798
  192MPD1    C4 2922   3.931   0.988  11.956 -0.1072  0.4344  0.2739
  192MPD1    C5 2923   3.810   0.981  11.898 -0.3474 -0.2952  0.1862
  192MPD1     H 2924   4.032   1.269  11.791  0.3287 -0.6218 -0.3300
  192MPD1    H1 2925   3.965   0.911  12.023 -1.1757 -0.6311 -0.4052
  192MPD1    H2 2926   3.657   1.075  11.783  0.3874  1.4424  0.0797
  192MPD1    H3 2927   3.738   0.905  11.925 -1.7588 -0.2476 -3.4456
  192MPD1     N 2928   4.144   1.088  11.969 -0.5977  0.0800  0.1386
  192MPD1    H5 2929   4.159   1.002  12.021  1.7957  1.0515  1.0945
  192MPD1    N1 2930   3.795   1.300  11.707  0.5680 -0.1613  0.6250
  192MPD1    H6 2931   3.694   1.307  11.703  0.6154  0.0434 -0.2837
  192MPD1    H7 2932   3.827   1.390  11.744 -0.9529 -0.3296  2.3365
  193MPD1     C 2933   3.849   1.589  16.211  0.3615  0.0293 -0.2587
  193MPD1    C1 2934   3.939   1.695  16.189  0.0581  0.1702 -0.2479
  193MPD1    C2 2935   4.037   1.708  16.287 -0.1880 -0.1215 -0.5457
  193MPD1    C3 2936   4.051   1.627  16.396 -0.2925 -0.6436  0.7728
  193MPD1    C4 2937   3.965   1.523  16.411  0.0663 -0.5514 -0.2335
  193MPD1    C5 2938   3.865   1.508  16.320 -0.2887 -0.5917 -0.4764
  193MPD1     H 2939   4.117   1.778  16.269 -0.3483  0.2707  0.2674
  193MPD1    H1 2940   3.972   1.446  16.487 -4.1803 -3.0151 -2.3345
  193MPD1    H2 2941   3.762   1.572  16.149  0.1197  1.9093 -0.4213
  193MPD1    H3 2942   3.797   1.426  16.339  1.2504 -1.4147  1.4597
  193MPD1     N 2943   4.151   1.648  16.490  0.0630  0.1159  0.0401
  193MPD1    H5 2944   4.159   1.584  16.569  1.8028  1.3731  0.8821
  193MPD1    N1 2945   3.939   1.769  16.071 -0.1624  0.8756 -0.4963
  193MPD1    H6 2946   3.979   1.862  16.077 -0.0669  0.8279 -0.3857
  193MPD1    H7 2947   3.841   1.780  16.046  0.2577 -1.1497 -3.0268
  194MPD1     C 2948   1.776   3.393  16.524  0.1038 -0.1963  0.0239
  194MPD1    C1 2949   1.826   3.464  16.630  0.3753 -0.0955 -0.1025
  194MPD1    C2 2950   1.913   3.398  16.715 -0.2445  0.3244 -0.2641
  194MPD1    C3 2951   1.931   3.265  16.705 -0.1546  0.1519  0.2377
  194MPD1    C4 2952   1.872   3.190  16.605  0.3178 -0.1243  0.0641
  194MPD1    C5 2953   1.799   3.257  16.511 -0.2579  0.6264  0.5160
  194MPD1     H 2954   1.947   3.447  16.805 -2.0312  1.0140  0.0254
  194MPD1    H1 2955   1.882   3.082  16.603  1.0750 -0.0903  1.6913
  194MPD1    H2 2956   1.708   3.441  16.454  1.4939  2.7719  0.7288
  194MPD1    H3 2957   1.753   3.201  16.431  0.2786 -1.9871  2.0610
  194MPD1     N 2958   2.010   3.193  16.806 -0.3462 -0.0614  0.3231
  194MPD1    H5 2959   2.005   3.091  16.806 -0.7522 -0.0388  1.2294
  194MPD1    N1 2960   1.777   3.589  16.673  0.8288  0.0844 -0.1886
  194MPD1    H6 2961   1.765   3.642  16.587 -2.0666  0.4532  0.4571
  194MPD1    H7 2962   1.845   3.641  16.728  0.9210 -0.2243 -0.0082
  195MPD1     C 2963   4.126   0.732  16.883  0.1749 -0.1898  0.0287
  195MPD1    C1 2964   3.993   0.743  16.918  0.2105 -0.0481 -0.6123
  195MPD1    C2 2965   3.935   0.639  16.999 -0.5460  0.2991 -0.1530
  195MPD1    C3 2966   4.023   0.540  17.057  0.3078  0.1013 -0.2062
  195MPD1    C4 2967   4.153   0.532  17.008 -0.1078 -0.8597 -0.0257
  195MPD1    C5 2968   4.209   0.634  16.933  0.0624  0.2710 -0.6349
  195MPD1     H 2969   3.827   0.631  17.000 -0.2422 -4.2060 -2.6403
  195MPD1    H1 2970   4.216   0.453  17.047  0.7809 -0.1174  0.0417
  195MPD1    H2 2971   4.174   0.807  16.822 -0.8591  0.4639  0.0262
  195MPD1    H3 2972   4.316   0.641  16.923  0.3167 -0.2409  1.7483
  195MPD1     N 2973   3.977   0.431  17.131 -0.7423 -0.0536 -0.0947
  195MPD1    H5 2974   4.039   0.356  17.158  0.9147  0.3702 -2.7673
  195MPD1    N1 2975   3.916   0.841  16.852  1.2930  0.3264  0.5946
  195MPD1    H6 2976   3.969   0.921  16.819  0.3272  0.9867  0.6480
  195MPD1    H7 2977   3.843   0.876  16.913  1.5398 -0.3875  1.2998
  196MPD1     C 2978   3.397   3.885   0.500  0.1432 -0.6714  0.1916
  196MPD1    C1 2979   3.442   3.875   0.632 -0.3928 -0.0974  0.1003
  196MPD1    C2 2980   3.525   3.973   0.681 -0.0867 -0.5631  0.2388
  196MPD1    C3 2981   3.533   4.096   0.618 -0.6596  0.1972 -0.4280
  196MPD1    C4 2982   3.476   4.108   0.497 -0.4347 -0.1734 -0.6143
  196MPD1    C5 2983   3.416   4.003   0.433 -0.3990  0.7206  0.3277
  196MPD1     H 2984   3.563   3.942   0.778  0.8752 -1.0315 -0.2824
  196MPD1    H1 2985   3.497   4.197   0.439  0.2605 -1.0375 -1.6891
  196MPD1    H2 2986   3.338   3.810   0.449  4.0113 -1.4128 -3.2240
  196MPD1    H3 2987   3.378   4.016   0.333  0.9375 -0.6649 -0.3445
  196MPD1     N 2988   3.622   4.187   0.678  0.0265 -0.0242 -0.4149
  196MPD1    H5 2989   3.668   4.166   0.767  0.2402  0.8030 -0.3323
  196MPD1    N1 2990   3.427   3.754   0.703  0.0827  0.1536  0.5581
  196MPD1    H6 2991   3.341   3.700   0.691 -0.9821  2.3811 -1.7309
  196MPD1    H7 2992   3.436   3.757   0.804  0.6278  1.0150  0.4873
  197MPD1     C 2993   3.134   1.436   0.117 -0.1176 -0.4268  0.5354
  197MPD1    C1 2994   3.250   1.502   0.150 -0.4908  0.2186  0.6807
  197MPD1    C2 2995   3.293   1.591   0.056  0.2521 -0.3156  0.6367
  197MPD1    C3 2996   3.228   1.616  17.633  0.0074  1.1332 -0.1097
  197MPD1    C4 2997   3.109   1.555  17.605  0.7119  0.2407  0.3068
  197MPD1    C5 2998   3.069   1.462   0.003 -0.0693 -0.0130  0.5645
  197MPD1     H 2999   3.385   1.647   0.071 -0.5247  1.6749 -1.8798
  197MPD1    H1 3000   3.051   1.575  17.515  0.7732  0.8757  0.4066
  197MPD1    H2 3001   3.095   1.353   0.174  0.4849 -1.6061 -0.7607
  197MPD1    H3 3002   2.979   1.403  17.682  0.7430 -0.7320 -1.4475
  197MPD1     N 3003   3.277   1.707  17.531 -0.2245  0.0234  0.4374
  197MPD1    H5 3004   3.237   1.702  17.438  1.3632  0.1717 -0.2648
  197MPD1    N1 3005   3.339   1.473   0.257 -0.1415  0.5744  0.0522
  197MPD1    H6 3006   3.409   1.545   0.275  0.4256  0.0036  0.1094
  197MPD1    H7 3007   3.285   1.461   0.342  1.1871 -2.1033  0.5066
  198MPD1     C 3008   0.138   0.088  15.061  0.5464  0.1664 -0.3064
  198MPD1    C1 3009   0.266   0.140  15.072  0.2743  0.1599 -0.6775
  198MPD1    C2 3010   0.319   0.142  15.204  0.6375  0.0086 -1.0439
  198MPD1    C3 3011   0.230   0.134  15.315 -0.4658 -0.1134  0.7053
  198MPD1    C4 3012   0.104   0.083  15.295 -1.0679  0.4299  0.6533
  198MPD1    C5 3013   0.053   0.070  15.165  0.5422  0.1721 -0.0557
  198MPD1     H 3014   0.421   0.174  15.225  0.5588  0.5799 -1.5133
  198MPD1    H1 3015   0.035   0.067  15.376 -0.4195 -1.0364  0.8997
  198MPD1    H2 3016   0.097   0.090  14.961  1.4786 -0.8785 -0.7119
  198MPD1    H3 3017   4.674   0.037  15.147  0.2762  0.7233  0.4336
  198MPD1     N 3018   0.284   0.166  15.448 -0.3774  0.1311 -0.2606
  198MPD1    H5 3019   0.368   0.223  15.451 -0.8751  0.9146 -1.3680
  198MPD1    N1 3020   0.356   0.148  14.963  0.8023  0.0271  0.0826
  198MPD1    H6 3021   0.432   0.213  14.983  1.4392 -1.1967  1.6582
  198MPD1    H7 3022   0.308   0.168  14.876 -1.2315  2.7212  1.8383
  199MPD1     C 3023   2.118   0.757   9.269 -0.8052  0.2075  0.6518
  199MPD1    C1 3024   2.225   0.809   9.338  0.4081 -0.0232 -0.0761
  199MPD1    C2 3025   2.214   0.940   9.374  0.6448  0.1930  0.0725
  199MPD1    C3 3026   2.091   1.011   9.366 -0.4294 -0.5696  0.1905
  199MPD1    C4 3027   1.981   0.942   9.320 -0.5425 -0.3341  1.1456
  199MPD1    C5 3028   1.999   0.821   9.263 -0.1614  0.5732 -0.3129
  199MPD1     H 3029   2.301   0.988   9.418  2.3725 -1.0907 -1.9494
  199MPD1    H1 3030   1.883   0.988   9.316  0.1366  1.2916  3.2785
  199MPD1    H2 3031   2.125   0.656   9.229 -0.8267  1.6603 -2.9563
  199MPD1    H3 3032   1.914   0.770   9.219  1.1176  0.4583 -2.6517
  199MPD1     N 3033   2.082   1.149   9.401 -0.0315  0.2373  0.7900
  199MPD1    H5 3034   1.992   1.191   9.384 -1.0488 -1.9906  0.5780
  199MPD1    N1 3035   2.347   0.745   9.339  0.1648 -0.8863  0.5463
  199MPD1    H6 3036   2.348   0.647   9.312  0.5590  0.4000 -4.1168
  199MPD1    H7 3037   2.411   0.752   9.419  0.4624 -3.9629  0.5934
  200MPD1     C 3038   1.112   1.404  15.416 -0.6649 -0.3800 -0.2562
  200MPD1    C1 3039   1.062   1.370  15.300 -0.0633 -0.8092  0.4600
  200MPD1    C2 3040   1.143   1.359  15.193  0.3507 -0.0136  0.9409
  200MPD1    C3 3041   1.270   1.414  15.197  0.5230 -0.0724 -0.2439
  200MPD1    C4 3042   1.319   1.470  15.312 -0.3571 -0.1646  1.1351
  200MPD1    C5 3043   1.242   1.454  15.421  0.3175  0.3427  0.2878
  200MPD1     H 3044   1.111   1.329  15.094  2.1333  0.9302  0.0789
  200MPD1    H1 3045   1.417   1.515  15.324 -0.6289  0.6852  0.1716
  200MPD1    H2 3046   1.059   1.381  15.508  1.0462  0.1771  0.8603
  200MPD1    H3 3047   1.278   1.480  15.520 -0.1286  0.7950  0.3335
  200MPD1     N 3048   1.343   1.406  15.074 -1.1000 -0.9039 -0.2065
  200MPD1    H5 3049   1.295   1.379  14.989 -0.6160  0.1053 -0.8022
  200MPD1    N1 3050   0.932   1.316  15.293 -0.3366 -0.0311 -0.5252
  200MPD1    H6 3051   0.895   1.351  15.205 -0.6323  0.4077 -0.2236
  200MPD1    H7 3052   0.875   1.340  15.374 -1.4778 -0.8307 -1.0817
  201MPD1     C 3053   3.535   0.385  12.972  0.1631 -0.1494 -0.7672
  201MPD1    C1 3054   3.440   0.285  13.001 -0.0599 -0.3172 -0.1295
  201MPD1    C2 3055   3.479   0.178  13.082  0.3870 -0.0966  0.8444
  201MPD1    C3 3056   3.606   0.174  13.142 -0.1339  0.4764  0.0403
  201MPD1    C4 3057   3.697   0.275  13.111 -0.7057 -0.4007  0.2293
  201MPD1    C5 3058   3.658   0.377  13.026 -0.5704 -0.2526  0.8381
  201MPD1     H 3059   3.413   0.094  13.105 -0.8635  0.9266  0.9946
  201MPD1    H1 3060   3.793   0.283  13.160 -0.8272 -0.1959  0.4340
  201MPD1    H2 3061   3.504   0.467  12.908  1.0438  1.8983  1.4513
  201MPD1    H3 3062   3.724   0.461  13.012  0.8437 -1.2526  1.4347
  201MPD1     N 3063   3.627   0.070  13.238  0.1922 -0.0875  0.3697
  201MPD1    H5 3064   3.559   4.718  13.238  0.0711 -0.0028 -2.2795
  201MPD1    N1 3065   3.309   0.276  12.935  0.5501  0.5465  0.3667
  201MPD1    H6 3066   3.277   0.367  12.903  0.7597 -0.0797 -1.5923
  201MPD1    H7 3067   3.243   0.216  12.985  0.0513  1.9367  1.3741
  202MPD1     C 3068   4.034   4.322   8.848 -1.1511  0.0265 -0.0564
  202MPD1    C1 3069   4.013   4.436   8.921 -0.0218 -0.6391  0.4788
  202MPD1    C2 3070   3.931   4.441   9.032 -0.1189 -0.3575  0.0745
  202MPD1    C3 3071   3.887   4.320   9.092  0.1690  0.2452  0.3854
  202MPD1    C4 3072   3.924   4.203   9.023  0.0995  0.8274  0.5576
  202MPD1    C5 3073   3.998   4.204   8.907 -0.1588  0.5338 -0.3685
  202MPD1     H 3074   3.886   4.535   9.061  0.6634  0.7426 -2.2627
  202MPD1    H1 3075   3.901   4.107   9.067  0.0559  0.4748 -0.2287
  202MPD1    H2 3076   4.094   4.327   8.758 -0.1708 -1.3838  0.5234
  202MPD1    H3 3077   4.012   4.110   8.855 -0.3241 -0.0049  0.5625
  202MPD1     N 3078   3.804   4.303   9.206  0.1646 -0.3275 -0.2432
  202MPD1    H5 3079   3.804   4.209   9.244 -2.0851  1.7948  4.9896
  202MPD1    N1 3080   3.995   4.547   8.836 -0.2373  0.7258  0.3681
  202MPD1    H6 3081   4.048   4.545   8.748  0.5683  1.6647  0.8340
  202MPD1    H7 3082   4.000   4.639   8.879 -0.5386 -0.4459  2.8630
  203MPD1     C 3083   2.406   0.927  12.351 -0.1666  0.0624 -0.1952
  203MPD1    C1 3084   2.384   0.813  12.273 -0.1781 -0.2046 -0.5915
  203MPD1    C2 3085   2.480   0.710  12.266  0.6590 -0.1171 -0.1369
  203MPD1    C3 3086   2.589   0.708  12.350 -0.5499  0.1655 -0.1428
  203MPD1    C4 3087   2.612   0.820  12.427  0.0614 -0.6648  0.0374
  203MPD1    C5 3088   2.516   0.922  12.434 -0.0127 -0.6672  0.3665
  203MPD1     H 3089   2.461   0.631  12.194 -0.3154  0.1231 -0.1457
  203MPD1    H1 3090   2.705   0.828  12.482 -1.3915 -0.4773  2.4701
  203MPD1    H2 3091   2.339   1.011  12.362 -0.4150 -0.1651  0.0377
  203MPD1    H3 3092   2.534   1.008  12.499 -1.1390  2.6203 -3.6726
  203MPD1     N 3093   2.674   0.592  12.344 -0.3812 -0.0348 -0.8056
  203MPD1    H5 3094   2.647   0.515  12.283 -0.7963 -1.6161  1.3507
  203MPD1    N1 3095   2.290   0.814  12.169  0.1384  0.4826  0.1131
  203MPD1    H6 3096   2.257   0.718  12.155 -0.4112  0.4126  1.9351
  203MPD1    H7 3097   2.202   0.861  12.189 -0.7611 -1.2192  0.1460
  204MPD1     C 3098   1.379   1.754  17.406  0.4167  0.3251  0.4806
  204MPD1    C1 3099   1.428   1.720  17.284  0.1492  0.0862 -0.4068
  204MPD1    C2 3100   1.534   1.630  17.282 -0.1989 -0.4734  0.7555
  204MPD1    C3 3101   1.567   1.556  17.400 -0.4755  0.1881 -0.1383
  204MPD1    C4 3102   1.499   1.576  17.516  0.2566  0.0940 -1.3407
  204MPD1    C5 3103   1.415   1.683  17.515 -0.4452 -0.1800 -0.4176
  204MPD1     H 3104   1.567   1.599  17.183 -1.4098 -0.9531  0.5018
  204MPD1    H1 3105   1.508   1.521  17.609  1.4565  0.1675 -1.4090
  204MPD1    H2 3106   1.305   1.832  17.418  0.2970 -0.0958  2.4721
  204MPD1    H3 3107   1.374   1.710  17.611  0.2654  1.2092 -0.4992
  204MPD1     N 3108   1.680   1.471  17.392 -0.4241  0.6278  0.2820
  204MPD1    H5 3109   1.725   1.463  17.301  0.8387 -2.3041  1.1628
  204MPD1    N1 3110   1.386   1.786  17.164  0.3735 -0.3697  0.2368
  204MPD1    H6 3111   1.295   1.831  17.172 -0.1333 -1.5462  0.9990
  204MPD1    H7 3112   1.385   1.726  17.082  1.1424 -1.3901  0.9770
  205MPD1     C 3113   2.462   1.007  16.285  0.3596 -0.0401  0.6443
  205MPD1    C1 3114   2.529   0.888  16.301  0.9222  0.2261 -0.0613
  205MPD1    C2 3115   2.496   0.799  16.408 -0.2792  0.1583  0.5121
  205MPD1    C3 3116   2.395   0.839  16.493 -0.0218 -0.6147  0.3890
  205MPD1    C4 3117   2.335   0.958  16.482 -0.0399 -0.0432 -0.0010
  205MPD1    C5 3118   2.370   1.042  16.377 -0.0656 -0.9386  0.3693
  205MPD1     H 3119   2.550   0.706  16.418 -1.3575 -0.4286  0.8184
  205MPD1    H1 3120   2.264   1.001  16.551  0.4177 -0.4661  0.7301
  205MPD1    H2 3121   2.474   1.072  16.200  0.0218  1.6879  1.9192
  205MPD1    H3 3122   2.333   1.142  16.361  2.2234  0.1059  1.5881
  205MPD1     N 3123   2.354   0.760  16.607  0.9376 -0.1141  0.3233
  205MPD1    H5 3124   2.262   0.784  16.643  1.2463  2.3217 -0.5094
  205MPD1    N1 3125   2.614   0.854  16.194 -0.2488 -0.2478  0.7302
  205MPD1    H6 3126   2.659   0.942  16.170 -0.2148 -0.2615  0.7428
  205MPD1    H7 3127   2.685   0.784  16.214  0.8175  0.5777 -0.1377
  206MPD1     C 3128   2.425   3.684  16.982  0.1388 -0.2053  0.3404
  206MPD1    C1 3129   2.354   3.768  16.906 -0.0993 -0.1821 -0.7520
  206MPD1    C2 3130   2.289   3.708  16.803 -0.0511  0.0786  0.2484
  206MPD1    C3 3131   2.307   3.578  16.766 -0.3786  0.2891  0.3231
  206MPD1    C4 3132   2.380   3.497  16.848 -0.0955  0.2626  0.1904
  206MPD1    C5 3133   2.429   3.550  16.965 -0.3103 -0.3297  0.3217
  206MPD1     H 3134   2.233   3.773  16.736  2.2560  1.4465 -0.3343
  206MPD1    H1 3135   2.393   3.392  16.826 -1.1305  0.5545 -1.8432
  206MPD1    H2 3136   2.473   3.732  17.067  1.4666  0.1750 -0.6211
  206MPD1    H3 3137   2.481   3.489  17.038  2.6850  1.6039 -0.1995
  206MPD1     N 3138   2.261   3.520  16.640 -0.6324  0.0174 -0.5011
  206MPD1    H5 3139   2.289   3.426  16.614  0.4203 -0.6896  3.1582
  206MPD1    N1 3140   2.334   3.904  16.944  0.1039  0.2301  0.1208
  206MPD1    H6 3141   2.249   3.919  16.999  0.9162 -0.0003  1.4353
  206MPD1    H7 3142   2.407   3.937  17.007  1.5612 -0.2918 -1.3169
  207MPD1     C 3143   4.176   0.026   9.180 -0.3373  0.7509  0.5744
  207MPD1    C1 3144   4.288   4.684   9.234  0.7682 -0.0712 -0.0501
  207MPD1    C2 3145   4.402   0.032   9.251  0.2207 -0.0924  0.2040
  207MPD1    C3 3146   4.404   0.169   9.227 -0.2143 -0.2883  0.9221
  207MPD1    C4 3147   4.288   0.239   9.183  0.1682 -0.3223 -0.0774
  207MPD1    C5 3148   4.180   0.157   9.158 -0.6042 -0.6552 -0.4675
  207MPD1     H 3149   4.491   4.702   9.285  0.4473 -0.5288 -1.0721
  207MPD1    H1 3150   4.271   0.346   9.185  0.1688 -0.3327  0.6055
  207MPD1    H2 3151   4.084   4.695   9.157 -0.4739  1.3789 -0.3414
  207MPD1    H3 3152   4.090   0.194   9.111 -0.8683 -0.6592  0.0352
  207MPD1     N 3153   4.518   0.249   9.258  0.5414 -0.3699 -0.3050
  207MPD1    H5 3154   4.507   0.350   9.268 -2.3257 -0.8462  1.2712
  207MPD1    N1 3155   4.292   4.543   9.234  0.0041  0.2918  0.5667
  207MPD1    H6 3156   4.351   4.496   9.302 -0.3572  1.6979  1.8371
  207MPD1    H7 3157   4.201   4.502   9.254  0.9404 -1.6829  0.8175
  208MPD1     C 3158   3.450   0.415   0.178 -0.3872 -0.3074  0.3420
  208MPD1    C1 3159   3.470   0.281   0.196  0.1134 -0.2948  0.1898
  208MPD1    C2 3160   3.372   0.188   0.165 -0.4879  0.9620  0.3666
  208MPD1    C3 3161   3.252   0.227   0.117 -0.3641 -0.0581 -0.4677
  208MPD1    C4 3162   3.217   0.361   0.099  0.1435  0.2438 -0.1551
  208MPD1    C5 3163   3.322   0.449   0.130 -0.4582 -0.7249 -0.4412
  208MPD1     H 3164   3.400   0.084   0.180  0.6252  1.2355  0.1573
  208MPD1    H1 3165   3.127   0.393   0.048 -0.5430 -0.6305  0.5053
  208MPD1    H2 3166   3.525   0.489   0.201  0.0185 -0.5680 -0.1574
  208MPD1    H3 3167   3.314   0.554   0.104 -0.6391 -0.0375  2.3808
  208MPD1     N 3168   3.158   0.123   0.083  0.5775  0.5847  0.2418
  208MPD1    H5 3169   3.177   0.024   0.098  2.9194  1.0670  0.3785
  208MPD1    N1 3170   3.583   0.248   0.272  0.0589  0.7253 -0.1751
  208MPD1    H6 3171   3.612   0.151   0.267  0.4855  0.8160  0.5327
  208MPD1    H7 3172   3.654   0.311   0.236 -0.4804 -0.0101 -2.4830
  209MPD1     C 3173   0.028   0.300  10.555 -0.3895 -0.0472  0.5760
  209MPD1    C1 3174   0.086   0.419  10.607  0.6935  0.1457  1.0059
  209MPD1    C2 3175   0.070   0.533  10.534  0.1281  0.1587  0.5288
  209MPD1    C3 3176   4.716   0.542  10.417 -0.3406  0.7301  0.1403
  209MPD1    C4 3177   4.643   0.432  10.381 -0.4181  0.4477  0.4668
  209MPD1    C5 3178   4.671   0.314  10.450  0.5370 -0.3886  0.8439
  209MPD1     H 3179   0.124   0.621  10.566  1.0182 -0.6385  1.2136
  209MPD1    H1 3180   4.587   0.421  10.289  1.3102  1.2856 -0.6772
  209MPD1    H2 3181   0.043   0.202  10.598  0.2906  0.0109  0.4665
  209MPD1    H3 3182   4.625   0.222  10.417 -0.1379  0.3060 -0.1491
  209MPD1     N 3183   4.707   0.664  10.348 -0.1243  0.1369 -0.5233
  209MPD1    H5 3184   0.039   0.741  10.385 -0.1736  0.1948 -0.5707
  209MPD1    N1 3185   0.180   0.416  10.710 -0.2861 -0.3262  0.3457
  209MPD1    H6 3186   0.156   0.351  10.784  0.7857 -2.3221 -1.0513
  209MPD1    H7 3187   0.194   0.505  10.757  0.1674 -0.2732  0.1168
  210MPD1     C 3188   0.527   1.256  10.509  0.1019  0.3950 -0.5871
  210MPD1    C1 3189   0.529   1.268  10.370  0.4693 -0.5536  0.2970
  210MPD1    C2 3190   0.419   1.225  10.306  0.9411 -0.2464 -0.2426
  210MPD1    C3 3191   0.314   1.163  10.377  0.1912 -0.3547  0.2752
  210MPD1    C4 3192   0.318   1.144  10.510  0.8636 -0.5693 -0.2963
  210MPD1    C5 3193   0.425   1.194  10.575  0.6132 -0.0925 -0.1104
  210MPD1     H 3194   0.406   1.229  10.198  0.2895  2.5639 -0.0493
  210MPD1    H1 3195   0.237   1.094  10.561  0.4595  0.3273 -0.0669
  210MPD1    H2 3196   0.612   1.285  10.570  0.7660  0.1855 -1.4109
  210MPD1    H3 3197   0.415   1.194  10.683  0.1060 -0.3512 -0.1574
  210MPD1     N 3198   0.209   1.087  10.314 -0.0404  0.3803 -0.3299
  210MPD1    H5 3199   0.157   1.025  10.376  1.4681 -1.1398 -0.5836
  210MPD1    N1 3200   0.623   1.343  10.300  0.2446 -0.3940  0.6764
  210MPD1    H6 3201   0.630   1.320  10.201 -2.9708  2.0563 -0.1515
  210MPD1    H7 3202   0.709   1.347  10.353  0.3721  2.4589  0.2488
  211MPD1     C 3203   2.666   0.329  16.422 -0.4897 -1.0209  0.0840
  211MPD1    C1 3204   2.666   0.422  16.322  0.3557 -0.2805 -0.7652
  211MPD1    C2 3205   2.547   0.467  16.271  0.4663  0.1108 -0.2403
  211MPD1    C3 3206   2.426   0.421  16.313  0.4820 -0.4319 -0.2129
  211MPD1    C4 3207   2.425   0.356  16.432  0.6712 -0.2733 -0.2743
  211MPD1    C5 3208   2.540   0.305  16.477  0.0050 -0.2680 -0.0067
  211MPD1     H 3209   2.554   0.540  16.191  1.5089  0.8697  0.5483
  211MPD1    H1 3210   2.331   0.327  16.479  1.2880  0.0274  1.1671
  211MPD1    H2 3211   2.751   0.275  16.463 -0.8801  0.7178  3.1983
  211MPD1    H3 3212   2.539   0.253  16.573 -0.7867 -0.7197 -0.2587
  211MPD1     N 3213   2.317   0.475  16.247 -0.1070  0.6776 -0.1087
  211MPD1    H5 3214   2.342   0.543  16.176  0.6512  1.3981  0.8434
  211MPD1    N1 3215   2.781   0.460  16.251 -0.0571  0.0982 -0.3498
  211MPD1    H6 3216   2.865   0.421  16.293 -0.0955  2.8664  2.2715
  211MPD1    H7 3217   2.780   0.558  16.224 -1.5977  0.3982  0.7919
  212MPD1     C 3218   1.343   4.061  16.170  0.9264  0.4804  0.8127
  212MPD1    C1 3219   1.451   3.975  16.175  0.0453 -0.7229  0.6685
  212MPD1    C2 3220   1.446   3.869  16.262  0.3145  0.2126  0.4036
  212MPD1    C3 3221   1.331   3.847  16.341 -0.6123 -0.7412 -0.1095
  212MPD1    C4 3222   1.222   3.923  16.326  0.3436  0.1088 -0.1831
  212MPD1    C5 3223   1.225   4.028  16.235  0.5343  0.1120 -0.3894
  212MPD1     H 3224   1.529   3.800  16.279  0.8544  1.1984  1.7608
  212MPD1    H1 3225   1.133   3.911  16.387  0.0647 -3.4027 -1.3255
  212MPD1    H2 3226   1.346   4.146  16.102 -0.4698  0.2790  0.5016
  212MPD1    H3 3227   1.135   4.085  16.217  0.1925 -0.6748 -1.1531
  212MPD1     N 3228   1.323   3.745  16.443  0.6017  0.3979  0.1438
  212MPD1    H5 3229   1.235   3.754  16.493  1.5244  0.5464  1.7250
  212MPD1    N1 3230   1.552   3.984  16.079 -0.2592 -0.0999 -0.1885
  212MPD1    H6 3231   1.648   3.957  16.100 -0.2297 -1.3853 -1.9764
  212MPD1    H7 3232   1.558   4.083  16.056 -0.3852 -0.4896 -1.8701
  213MPD1     C 3233   4.319   4.248  15.695  0.9527  0.4015  0.0614
  213MPD1    C1 3234   4.388   4.278  15.580  0.1989 -0.1006 -0.4860
  213MPD1    C2 3235   4.319   4.292  15.461  0.0216  0.4652 -0.1231
  213MPD1    C3 3236   4.183   4.317  15.465  0.3142 -0.5189 -0.1153
  213MPD1    C4 3237   4.119   4.320  15.582 -0.4902 -0.0963 -0.6028
  213MPD1    C5 3238   4.188   4.288  15.694  0.9850 -0.3746  0.1948
  213MPD1     H 3239   4.363   4.285  15.362  0.6466  2.7751 -0.0180
  213MPD1    H1 3240   4.014   4.343  15.598  0.1725  2.7057 -0.4298
  213MPD1    H2 3241   4.364   4.235  15.793  0.7296 -3.8996 -0.4176
  213MPD1    H3 3242   4.146   4.287  15.794  1.2462  0.0640  0.3103
  213MPD1     N 3243   4.125   4.348  15.338  0.4128 -0.3264 -0.4145
  213MPD1    H5 3244   4.199   4.343  15.268  0.8411  1.2323 -0.0872
  213MPD1    N1 3245   4.526   4.245  15.569 -0.5335  0.0586  0.2806
  213MPD1    H6 3246   4.574   4.261  15.657  2.0062  1.2357 -1.3206
  213MPD1    H7 3247   4.579   4.277  15.488 -0.5144 -2.2630 -0.6162
  214MPD1     C 3248   3.809   3.763  14.685 -0.4526 -0.5052 -0.2556
  214MPD1    C1 3249   3.770   3.789  14.812  0.2985 -0.0208 -0.2029
  214MPD1    C2 3250   3.785   3.917  14.863 -0.3527 -0.0759 -0.0890
  214MPD1    C3 3251   3.828   4.018  14.779  0.3265  0.4974 -1.4427
  214MPD1    C4 3252   3.878   3.990  14.647  0.1012  0.4579  0.2087
  214MPD1    C5 3253   3.867   3.858  14.605  0.1612  0.2055  0.1852
  214MPD1     H 3254   3.760   3.936  14.966  1.1928  1.6481 -0.0428
  214MPD1    H1 3255   3.919   4.058  14.574  1.0562 -0.4263 -0.0745
  214MPD1    H2 3256   3.811   3.661  14.647 -1.5075  0.0174 -1.7106
  214MPD1    H3 3257   3.894   3.830  14.504 -2.2215 -0.7968 -0.1696
  214MPD1     N 3258   3.845   4.149  14.822  0.0874 -0.5210 -0.6639
  214MPD1    H5 3259   3.912   4.203  14.769 -1.3208  0.3131 -1.5868
  214MPD1    N1 3260   3.748   3.694  14.910 -0.4526  0.0297 -0.4560
  214MPD1    H6 3261   3.694   3.719  14.992 -0.2816 -0.7340 -0.1148
  214MPD1    H7 3262   3.696   3.615  14.871  0.2666  0.4168 -2.1796
  215MPD1     C 3263   3.927   4.684  10.351 -0.0504  0.8555 -0.2643
  215MPD1    C1 3264   3.952   4.653  10.483  0.2119  0.3646  0.2441
  215MPD1    C2 3265   4.041   0.005  10.549  0.4894  0.7482  0.5119
  215MPD1    C3 3266   4.101   0.108  10.486 -0.5434  1.0690 -0.0146
  215MPD1    C4 3267   4.080   0.130  10.353 -0.2602  0.1088 -0.1012
  215MPD1    C5 3268   3.989   0.055  10.279 -0.2709 -0.5101  0.6381
  215MPD1     H 3269   4.063   4.700  10.651 -0.0893  0.9359  0.6922
  215MPD1    H1 3270   4.134   0.206  10.299 -3.6169  3.2802  1.0393
  215MPD1    H2 3271   3.858   4.621  10.296 -1.2016  0.1170  2.0087
  215MPD1    H3 3272   3.959   0.077  10.177  0.1966 -2.6818  0.0212
  215MPD1     N 3273   4.174   0.199  10.564  0.3000  0.2962 -0.6842
  215MPD1    H5 3274   4.200   0.173  10.659  2.4928  0.1712 -1.3020
  215MPD1    N1 3275   3.878   4.555  10.554  0.3292  0.4180  0.0503
  215MPD1    H6 3276   3.932   4.539  10.639 -1.3712 -0.6024  0.9477
  215MPD1    H7 3277   3.790   4.600  10.578 -0.4479 -0.1045 -1.7924
  216MPD1     C 3278   1.470   2.478  16.647 -0.0719 -0.8659 -0.4657
  216MPD1    C1 3279   1.406   2.475  16.774 -0.2523 -0.3000  0.1640
  216MPD1    C2 3280   1.451   2.373  16.855  0.6835  0.7289 -0.2232
  216MPD1    C3 3281   1.545   2.274  16.822 -0.8790 -0.3211  0.2671
  216MPD1    C4 3282   1.605   2.288  16.696  0.5624  0.0321 -0.0355
  216MPD1    C5 3283   1.567   2.393  16.614 -0.7478  0.0859  0.2747
  216MPD1     H 3284   1.416   2.360  16.957  3.5626  1.3332  0.8639
  216MPD1    H1 3285   1.684   2.220  16.669  1.1239  0.1179  1.4216
  216MPD1    H2 3286   1.439   2.545  16.568 -0.3309  1.0010  1.2132
  216MPD1    H3 3287   1.620   2.405  16.520  0.1438 -1.5357  0.5672
  216MPD1     N 3288   1.593   2.184  16.925 -0.2291 -0.9719 -0.8749
  216MPD1    H5 3289   1.545   2.206  17.012  2.9485  0.5641  0.5126
  216MPD1    N1 3290   1.313   2.576  16.811 -0.0281 -0.3151  0.4457
  216MPD1    H6 3291   1.347   2.632  16.889  0.6627 -0.4323  0.2313
  216MPD1    H7 3292   1.295   2.640  16.734 -1.6821 -1.2696  0.0324
  217MPD1     C 3293   3.469   0.986   8.380  0.2235 -0.4501  0.4242
  217MPD1    C1 3294   3.372   1.021   8.473 -0.1314  0.5013  0.1687
  217MPD1    C2 3295   3.287   0.923   8.517  0.4239 -0.1602  0.6924
  217MPD1    C3 3296   3.291   0.794   8.457  0.2876  0.3320  0.4907
  217MPD1    C4 3297   3.382   0.771   8.357 -0.2903 -0.6480  0.2356
  217MPD1    C5 3298   3.473   0.866   8.319 -0.1679  0.3905 -0.0995
  217MPD1     H 3299   3.213   0.941   8.595 -1.9368 -0.6721 -1.4424
  217MPD1    H1 3300   3.367   0.675   8.310  1.1067 -0.9917  0.4918
  217MPD1    H2 3301   3.552   1.050   8.352  0.6013  1.3244  5.4951
  217MPD1    H3 3302   3.540   0.850   8.236 -0.9235  1.1439 -0.8515
  217MPD1     N 3303   3.206   0.689   8.500  0.1495 -0.4389 -0.3886
  217MPD1    H5 3304   3.221   0.602   8.450 -1.5016 -1.5654  1.0375
  217MPD1    N1 3305   3.370   1.150   8.533 -0.0483 -0.5374 -0.1626
  217MPD1    H6 3306   3.271   1.172   8.544  0.2453  1.6704 -1.8725
  217MPD1    H7 3307   3.408   1.212   8.462 -1.7016 -1.7196 -2.0975
  218MPD1     C 3308   3.388   0.404  12.105  0.3444 -0.1561  0.2454
  218MPD1    C1 3309   3.460   0.320  12.174  0.7096 -0.2726  0.0930
  218MPD1    C2 3310   3.589   0.357  12.207 -0.0415 -0.2920  0.2674
  218MPD1    C3 3311   3.642   0.482  12.172  0.0164  0.5997 -0.3380
  218MPD1    C4 3312   3.559   0.566  12.100  0.1308 -0.2884  1.1429
  218MPD1    C5 3313   3.433   0.523  12.066 -0.4113 -0.6954  0.7693
  218MPD1     H 3314   3.659   0.288  12.252  0.1763 -0.6242 -0.5776
  218MPD1    H1 3315   3.591   0.662  12.062  1.6718 -2.8413 -3.9541
  218MPD1    H2 3316   3.288   0.367  12.087  1.0100 -1.3451 -1.0209
  218MPD1    H3 3317   3.358   0.587  12.020 -0.8679 -0.7015  1.5028
  218MPD1     N 3318   3.776   0.517  12.201 -0.4780  0.0116 -0.0593
  218MPD1    H5 3319   3.824   0.451  12.262  0.0532  1.1148  0.7180
  218MPD1    N1 3320   3.405   0.207  12.230  0.0120 -0.9172  0.1549
  218MPD1    H6 3321   3.324   0.167  12.181  0.7326 -0.9029 -1.0544
  218MPD1    H7 3322   3.473   0.139  12.262  0.9216  0.9309  2.1179
  219MPD1     C 3323   4.723   0.799  11.744 -0.1762  0.3260 -0.4266
  219MPD1    C1 3324   4.598   0.867  11.742 -0.2161 -0.5605  0.3104
  219MPD1    C2 3325   4.493   0.818  11.814  0.5049  0.7655  0.6435
  219MPD1    C3 3326   4.507   0.699  11.886 -0.2137  0.0315  0.2695
  219MPD1    C4 3327   4.633   0.642  11.886  0.3891  0.4578 -0.0608
  219MPD1    C5 3328   0.011   0.691  11.822  0.5775 -0.5112 -0.2394
  219MPD1     H 3329   4.396   0.864  11.799  0.8639  1.3798  0.2082
  219MPD1    H1 3330   4.652   0.553  11.945 -3.1023 -0.0861  0.2477
  219MPD1    H2 3331   0.076   0.829  11.673 -0.0459  0.0027 -0.4192
  219MPD1    H3 3332   0.106   0.639  11.827  0.6549 -0.1611  1.8319
  219MPD1     N 3333   4.397   0.642  11.956  0.5737  0.1504 -0.0241
  219MPD1    H5 3334   4.406   0.544  11.983 -0.6358 -0.2907 -1.2170
  219MPD1    N1 3335   4.571   0.952  11.636  0.0274  0.2282  0.0848
  219MPD1    H6 3336   4.639   1.024  11.613  1.9238 -1.9018 -1.0444
  219MPD1    H7 3337   4.479   0.995  11.632 -0.8695 -1.6953  0.2078
  220MPD1     C 3338   4.646   1.348   9.206 -0.0461  1.0731  0.3802
  220MPD1    C1 3339   4.619   1.453   9.293 -0.3805 -0.6700 -0.7071
  220MPD1    C2 3340   4.540   1.430   9.410  0.0815 -0.1812 -0.7077
  220MPD1    C3 3341   4.466   1.308   9.425 -0.0990  0.3781 -0.8807
  220MPD1    C4 3342   4.474   1.219   9.316 -0.8753 -0.1178 -0.5126
  220MPD1    C5 3343   4.567   1.234   9.209 -0.3921  0.0733 -0.4715
  220MPD1     H 3344   4.542   1.514   9.478  0.3829 -1.0094  0.3038
  220MPD1    H1 3345   4.421   1.125   9.306 -1.6905  0.1572  1.2949
  220MPD1    H2 3346   4.700   1.373   9.115  0.7656  0.6397  0.7417
  220MPD1    H3 3347   4.579   1.160   9.132  0.0109  0.2883 -0.6167
  220MPD1     N 3348   4.375   1.286   9.532 -0.0787 -0.1652 -0.3683
  220MPD1    H5 3349   4.369   1.354   9.608  1.7189  2.5563 -2.6273
  220MPD1    N1 3350   4.685   1.579   9.276  0.5113 -0.1870  0.6712
  220MPD1    H6 3351   4.630   1.656   9.315  0.1054  0.2807 -0.8166
  220MPD1    H7 3352   4.693   1.595   9.176 -0.4820 -0.4767  0.5446
  221MPD1     C 3353   1.236   0.296  15.826 -0.3845  0.1932  0.5244
  221MPD1    C1 3354   1.273   0.240  15.703 -0.4076  0.0920 -0.8953
  221MPD1    C2 3355   1.403   0.217  15.688 -1.2565  0.0148 -0.0935
  221MPD1    C3 3356   1.491   0.219  15.800  0.3443  0.3056  0.1430
  221MPD1    C4 3357   1.451   0.259  15.922 -0.3468 -0.3182  0.0070
  221MPD1    C5 3358   1.325   0.292  15.930 -0.2643  0.6832 -0.2248
  221MPD1     H 3359   1.434   0.180  15.591  0.9204 -0.8129  0.9273
  221MPD1    H1 3360   1.520   0.269  16.005  1.5256  1.3498 -1.7616
  221MPD1    H2 3361   1.133   0.321  15.849 -0.0348  1.6066  0.5243
  221MPD1    H3 3362   1.284   0.322  16.026 -1.3041  0.1994 -0.5108
  221MPD1     N 3363   1.627   0.180  15.795 -0.1136  0.1636 -0.2795
  221MPD1    H5 3364   1.687   0.210  15.871 -0.7477  0.5023  0.0885
  221MPD1    N1 3365   1.195   0.254  15.593 -0.2692  0.6536  0.1402
  221MPD1    H6 3366   1.227   0.190  15.521  1.9093 -2.1834  3.6470
  221MPD1    H7 3367   1.098   0.232  15.615 -0.8040 -0.6623 -3.5020
  222MPD1     C 3368   2.116   3.157  17.372  0.0914  0.2172 -0.6535
  222MPD1    C1 3369   2.095   3.291  17.354 -0.3343  0.0531  0.2901
  222MPD1    C2 3370   1.984   3.318  17.267  0.3769 -0.2582  0.1261
  222MPD1    C3 3371   1.910   3.226  17.192  0.2101  0.1475  0.6611
  222MPD1    C4 3372   1.945   3.093  17.209 -1.2034 -0.1454  0.4046
  222MPD1    C5 3373   2.040   3.064  17.302 -0.4580  0.1332 -0.1739
  222MPD1     H 3374   1.955   3.422  17.266 -1.4584 -0.7805 -0.2334
  222MPD1    H1 3375   1.890   3.012  17.162 -0.5192 -0.6356  0.4519
  222MPD1    H2 3376   2.177   3.123  17.455  0.5769  0.5538 -0.8689
  222MPD1    H3 3377   2.059   2.958  17.317 -0.2116  0.2214  0.1303
  222MPD1     N 3378   1.813   3.259  17.093 -0.3127  0.3398  0.9259
  222MPD1    H5 3379   1.764   3.181  17.050 -1.0714  1.6988 -0.6332
  222MPD1    N1 3380   2.153   3.389  17.435  0.8291 -0.1242 -0.2563
  222MPD1    H6 3381   2.154   3.478  17.385 -0.0937  0.0178 -0.0131
  222MPD1    H7 3382   2.249   3.363  17.459  0.8664 -1.8414 -2.1893
  223MPD1     C 3383   0.943   3.379  17.524  0.2241  0.2214  0.2450
  223MPD1    C1 3384   0.978   3.507  17.492 -0.0765  0.2997 -0.3352
  223MPD1    C2 3385   1.078   3.528  17.394  0.0359  0.5976  0.1624
  223MPD1    C3 3386   1.149   3.422  17.344  0.2710  0.3846  0.3979
  223MPD1    C4 3387   1.101   3.292  17.367 -0.5997  0.0780 -0.0386
  223MPD1    C5 3388   0.996   3.273  17.455  1.2272 -0.0354 -0.2115
  223MPD1     H 3389   1.094   3.632  17.366 -2.3512  0.7669 -0.6269
  223MPD1    H1 3390   1.143   3.214  17.306  0.3443  0.2466  0.3916
  223MPD1    H2 3391   0.871   3.362  17.603  1.2837 -1.3709  0.8616
  223MPD1    H3 3392   0.966   3.173  17.482 -0.6341  1.0647  1.7665
  223MPD1     N 3393   1.247   3.452  17.246 -0.2933 -0.5430  0.2978
  223MPD1    H5 3394   1.278   3.548  17.237  1.2266 -0.7446  3.2529
  223MPD1    N1 3395   0.913   3.616  17.556 -0.3063 -0.3302  0.0760
  223MPD1    H6 3396   0.964   3.704  17.550  0.7167 -0.9644 -0.4842
  223MPD1    H7 3397   0.889   3.591  17.652 -1.1920 -1.7990 -0.5322
  224MPD1     C 3398   2.912   1.040   9.071 -0.0061 -0.3651  0.0578
  224MPD1    C1 3399   2.961   0.948   8.982  0.1369  0.1943 -0.2589
  224MPD1    C2 3400   2.965   0.821   9.025 -0.8344  0.6812  0.8766
  224MPD1    C3 3401   2.902   0.788   9.151  0.3449 -0.3830 -0.3837
  224MPD1    C4 3402   2.845   0.880   9.231  0.1394  0.3021 -0.3505
  224MPD1    C5 3403   2.854   1.006   9.188 -0.1518  0.6653 -0.0457
  224MPD1     H 3404   3.018   0.741   8.975  0.7212  1.2328  1.6517
  224MPD1    H1 3405   2.775   0.861   9.311  0.9728  0.8499  0.5175
  224MPD1    H2 3406   2.921   1.143   9.040  0.1819  0.4265  2.7018
  224MPD1    H3 3407   2.809   1.087   9.245  0.5756  1.0857 -0.0720
  224MPD1     N 3408   2.885   0.656   9.206 -0.2507 -0.8470  0.0351
  224MPD1    H5 3409   2.803   0.637   9.264 -0.3680 -0.3636  0.0236
  224MPD1    N1 3410   3.046   0.997   8.881 -0.3170 -0.0918 -0.5302
  224MPD1    H6 3411   3.057   0.937   8.799 -2.2424 -0.3098 -0.6266
  224MPD1    H7 3412   3.015   1.087   8.845  4.3794  2.0626  0.8746
  225MPD1     C 3413   4.216   1.289  12.579 -0.5040 -0.0927  0.2541
  225MPD1    C1 3414   4.229   1.268  12.444 -0.3675 -0.2730 -0.4863
  225MPD1    C2 3415   4.126   1.313  12.366 -0.1895 -0.2118 -0.5267
  225MPD1    C3 3416   4.026   1.390  12.414 -0.2937  0.8554 -0.2995
  225MPD1    C4 3417   4.027   1.429  12.546  0.8942  0.4520  0.2146
  225MPD1    C5 3418   4.126   1.376  12.631 -0.3195  0.3968 -0.0956
  225MPD1     H 3419   4.137   1.289  12.260 -0.6698 -3.3844  0.1425
  225MPD1    H1 3420   3.948   1.489  12.589  0.4855 -1.0622  1.5800
  225MPD1    H2 3421   4.287   1.238  12.643  0.6759 -0.0767 -1.0299
  225MPD1    H3 3422   4.110   1.385  12.738  1.8387  0.9175  0.1630
  225MPD1     N 3423   3.920   1.441  12.334 -0.1309  0.4757  0.2317
  225MPD1    H5 3424   3.860   1.509  12.380 -0.5967  0.5041 -0.4014
  225MPD1    N1 3425   4.318   1.172  12.401  0.4448 -0.2081  0.4766
  225MPD1    H6 3426   4.350   1.189  12.306 -1.2589 -1.6261 -0.3339
  225MPD1    H7 3427   4.405   1.158  12.453  0.8698 -1.8961 -0.7192
  226MPD1     C 3428   2.147   1.483   9.058 -0.5255  0.3104 -0.1857
  226MPD1    C1 3429   2.238   1.388   9.079 -0.2536  0.3896  0.0097
  226MPD1    C2 3430   2.371   1.425   9.085  0.5302  0.4333  0.0064
  226MPD1    C3 3431   2.403   1.561   9.095  0.3185 -0.5997  0.1756
  226MPD1    C4 3432   2.306   1.659   9.090  0.4900  0.1713 -0.3746
  226MPD1    C5 3433   2.178   1.616   9.072  0.4069  0.1610 -0.0675
  226MPD1     H 3434   2.450   1.352   9.098 -0.6098 -0.5707  1.3518
  226MPD1    H1 3435   2.318   1.766   9.100 -0.4621  0.2542 -0.1849
  226MPD1    H2 3436   2.043   1.459   9.040 -1.1458  2.8974 -0.0671
  226MPD1    H3 3437   2.103   1.693   9.059  1.2506  0.8847 -0.5849
  226MPD1     N 3438   2.546   1.590   9.116 -0.0358  0.6579 -0.4373
  226MPD1    H5 3439   2.603   1.509   9.140  0.3863  2.1029  3.4642
  226MPD1    N1 3440   2.205   1.256   9.058 -0.0394  0.4981  0.3394
  226MPD1    H6 3441   2.106   1.235   9.069 -0.4584  2.6285  0.7597
  226MPD1    H7 3442   2.263   1.193   9.113  1.6287  0.3162 -1.6263
  227MPD1     C 3443   3.347   2.334   9.040 -0.7560  0.1741 -0.5765
  227MPD1    C1 3444   3.387   2.237   9.129 -0.5103  0.4512 -0.1347
  227MPD1    C2 3445   3.302   2.125   9.142 -0.0778  0.0305  0.0097
  227MPD1    C3 3446   3.176   2.116   9.089 -0.2060 -0.4524 -0.6555
  227MPD1    C4 3447   3.134   2.217   9.007  0.0298 -0.4484 -0.9468
  227MPD1    C5 3448   3.223   2.322   8.986 -0.7135  0.1204 -0.1934
  227MPD1     H 3449   3.339   2.037   9.194  1.4200  0.8924  0.4206
  227MPD1    H1 3450   3.033   2.224   8.968 -0.1360 -4.5781 -1.3256
  227MPD1    H2 3451   3.402   2.426   9.022 -0.8410 -0.5694 -4.6801
  227MPD1    H3 3452   3.193   2.397   8.914  0.1400  1.4351  0.8173
  227MPD1     N 3453   3.096   2.003   9.116  0.7056 -0.4615 -0.1077
  227MPD1    H5 3454   3.136   1.932   9.175 -0.7879 -0.5210  0.8243
  227MPD1    N1 3455   3.521   2.240   9.187  0.3465 -0.8602 -0.5518
  227MPD1    H6 3456   3.556   2.334   9.203 -1.4524  0.0744 -2.1510
  227MPD1    H7 3457   3.526   2.177   9.267  0.4016 -0.4040 -0.1982
  228MPD1     C 3458   1.327   3.034  12.781 -0.3281 -0.0953  0.6442
  228MPD1    C1 3459   1.343   3.167  12.763  0.3144  0.6283  0.2336
  228MPD1    C2 3460   1.236   3.249  12.774  0.6838  0.4399 -0.5498
  228MPD1    C3 3461   1.115   3.205  12.825 -0.3983 -0.5897 -0.7530
  228MPD1    C4 3462   1.115   3.080  12.876 -0.1878  0.1762 -0.6369
  228MPD1    C5 3463   1.217   2.995  12.846 -0.7455 -0.0275 -0.4892
  228MPD1     H 3464   1.243   3.350  12.735  0.0849  1.4452  1.9514
  228MPD1    H1 3465   1.037   3.041  12.940  1.3660 -0.2810  0.9638
  228MPD1    H2 3466   1.397   2.957  12.751  0.8162  1.0383  0.4005
  228MPD1    H3 3467   1.204   2.889  12.868  1.4052  0.0989  1.4145
  228MPD1     N 3468   1.004   3.273  12.805 -0.3877  0.3615  0.0705
  228MPD1    H5 3469   1.028   3.364  12.767 -0.8001  0.4681  0.0636
  228MPD1    N1 3470   1.454   3.217  12.695 -0.3753  0.1271  0.1564
  228MPD1    H6 3471   1.473   3.316  12.710  0.8836  0.0057 -0.6634
  228MPD1    H7 3472   1.536   3.157  12.693 -1.3117 -1.2079  1.4738
  229MPD1     C 3473   0.237   3.138  15.189 -0.3892  0.0080  0.2850
  229MPD1    C1 3474   0.297   3.023  15.142 -0.0071 -0.0172 -0.1508
  229MPD1    C2 3475   0.375   2.950  15.237  0.1524 -0.2686  0.0332
  229MPD1    C3 3476   0.398   3.008  15.363  0.4003  0.3832  0.1273
  229MPD1    C4 3477   0.335   3.124  15.395  0.1450 -0.1118  0.5620
  229MPD1    C5 3478   0.251   3.181  15.318 -0.2667 -0.3187  0.2959
  229MPD1     H 3479   0.430   2.862  15.206  1.8455  0.4066  1.1038
  229MPD1    H1 3480   0.353   3.164  15.494 -2.3603 -0.0025  0.9833
  229MPD1    H2 3481   0.171   3.194  15.123  0.8172  0.2155 -0.7356
  229MPD1    H3 3482   0.199   3.273  15.344  1.6117  0.2435  2.0621
  229MPD1     N 3483   0.480   2.950  15.461 -0.3026 -0.4850 -0.5252
  229MPD1    H5 3484   0.472   2.990  15.554  0.3776 -2.8195  0.5466
  229MPD1    N1 3485   0.256   2.978  15.018  0.1164 -0.0302 -0.0936
  229MPD1    H6 3486   0.322   2.907  14.986  0.4846  0.5076 -0.5179
  229MPD1    H7 3487   0.243   3.059  14.959 -2.6175  1.5832  2.7382
  230MPD1     C 3488   0.427   2.750  16.433  0.1187  0.3858 -0.0879
  230MPD1    C1 3489   0.461   2.630  16.383 -0.5726 -0.5081 -0.6620
  230MPD1    C2 3490   0.512   2.627  16.249 -0.5453 -0.0930  0.4583
  230MPD1    C3 3491   0.527   2.740  16.172 -0.6773  0.1468 -0.1553
  230MPD1    C4 3492   0.494   2.860  16.226 -0.6343  0.2504 -0.2111
  230MPD1    C5 3493   0.446   2.863  16.353 -0.1205 -0.0082 -0.1045
  230MPD1     H 3494   0.552   2.531  16.220  0.2386 -0.3095  2.2781
  230MPD1    H1 3495   0.513   2.951  16.171  0.8748  0.5018  0.7323
  230MPD1    H2 3496   0.394   2.763  16.536  1.2497  1.6654  0.1031
  230MPD1    H3 3497   0.414   2.961  16.385  0.9663  0.1037  0.6262
  230MPD1     N 3498   0.581   2.724  16.037  0.5300 -0.0261  0.7311
  230MPD1    H5 3499   0.597   2.626  16.013 -2.0954  0.8277 -4.4058
  230MPD1    N1 3500   0.461   2.518  16.470 -0.1581 -0.1260 -0.4300
  230MPD1    H6 3501   0.381   2.520  16.532  0.9159 -0.8843  0.9764
  230MPD1    H7 3502   0.451   2.437  16.410 -0.4055 -1.0631  0.8782
  231MPD1     C 3503   3.609   4.562  15.271 -0.3296 -0.2030 -0.9900
  231MPD1    C1 3504   3.581   4.518  15.142  0.3303  0.6318 -1.0004
  231MPD1    C2 3505   3.649   4.570  15.036 -0.4686 -0.1575 -0.2632
  231MPD1    C3 3506   3.748   4.656  15.042  0.5692  0.2603  0.2198
  231MPD1    C4 3507   3.769   4.714  15.170 -0.3340  0.0974  0.0970
  231MPD1    C5 3508   3.704   4.668  15.281 -0.1986  0.2421  0.0201
  231MPD1     H 3509   3.632   4.533  14.936 -0.2803 -1.0031  0.0169
  231MPD1    H1 3510   3.837   0.074  15.184 -0.6505  0.4741 -0.5747
  231MPD1    H2 3511   3.545   4.532  15.354  0.3885 -0.6095 -0.5912
  231MPD1    H3 3512   3.724   4.719  15.375  4.6591 -0.0095 -0.8854
  231MPD1     N 3513   3.818   4.700  14.919 -0.1819  0.5932  0.0887
  231MPD1    H5 3514   3.802   4.641  14.838  1.6087 -0.0942  0.2320
  231MPD1    N1 3515   3.470   4.435  15.108  0.3784  0.5561  0.3340
  231MPD1    H6 3516   3.492   4.375  15.028  1.3432  0.7867  0.4356
  231MPD1    H7 3517   3.434   4.391  15.192  0.1103  0.4537  0.1690
  232MPD1     C 3518   1.729   2.453  17.231  0.3158 -0.4647  0.3337
  232MPD1    C1 3519   1.763   2.440  17.366 -0.2110  0.1009  0.3935
  232MPD1    C2 3520   1.660   2.424  17.458 -0.2431  0.2220 -0.1378
  232MPD1    C3 3521   1.525   2.429  17.419  0.2933 -0.0480 -0.3047
  232MPD1    C4 3522   1.495   2.451  17.289  0.1376  0.2852 -0.4144
  232MPD1    C5 3523   1.597   2.456  17.197  0.5441 -0.0653  0.7544
  232MPD1     H 3524   1.675   2.415  17.565 -2.8169 -1.9395  0.0373
  232MPD1    H1 3525   1.395   2.470  17.251 -0.5569  1.7328  2.1226
  232MPD1    H2 3526   1.801   2.482  17.155  0.1473  0.4811  0.5403
  232MPD1    H3 3527   1.578   2.470  17.091  0.6116 -2.7522  0.3714
  232MPD1     N 3528   1.425   2.450  17.517  0.2305 -0.6379  0.6375
  232MPD1    H5 3529   1.474   2.448  17.606 -0.7254 -0.0542  1.1694
  232MPD1    N1 3530   1.893   2.441  17.418 -0.1402 -0.0230 -0.4195
  232MPD1    H6 3531   1.959   2.415  17.345 -1.2682 -4.0667  0.0210
  232MPD1    H7 3532   1.904   2.383  17.500  1.6202 -0.1201 -0.7180
  233MPD1     C 3533   2.087   2.724   1.683  0.6594 -0.1286  0.1756
  233MPD1    C1 3534   2.067   2.802   1.574  0.8532  0.5386  0.2416
  233MPD1    C2 3535   2.142   2.920   1.565  0.4677  0.7104  0.0884
  233MPD1    C3 3536   2.225   2.956   1.672  0.4058  0.3958 -0.4358
  233MPD1    C4 3537   2.246   2.879   1.778 -0.4161  0.0113  0.1137
  233MPD1    C5 3538   2.169   2.765   1.785 -0.3838 -0.5515 -0.4692
  233MPD1     H 3539   2.143   2.980   1.476 -1.0449  0.6284  0.0224
  233MPD1    H1 3540   2.324   2.893   1.853 -0.4141 -2.4461  0.5657
  233MPD1    H2 3541   2.044   2.624   1.691  1.1075 -0.4595 -1.5745
  233MPD1    H3 3542   2.173   2.694   1.867 -2.1431 -0.4910 -0.3421
  233MPD1     N 3543   2.291   3.081   1.674 -0.9566 -0.6265  0.5606
  233MPD1    H5 3544   2.342   3.097   1.760  0.5744 -0.7527 -0.3235
  233MPD1    N1 3545   1.979   2.756   1.474  0.0728 -0.2523 -0.4643
  233MPD1    H6 3546   1.909   2.693   1.512 -0.6533  1.5850  1.2932
  233MPD1    H7 3547   1.937   2.828   1.415  1.4655  0.8666 -0.1071
  234MPD1     C 3548   3.490   3.534   8.805 -0.3876 -0.0218  0.1655
  234MPD1    C1 3549   3.424   3.586   8.915 -0.0463  0.7636  0.1607
  234MPD1    C2 3550   3.422   3.723   8.934 -0.3913 -0.0925 -0.3652
  234MPD1    C3 3551   3.492   3.805   8.852  0.2855 -0.2386 -0.8391
  234MPD1    C4 3552   3.567   3.753   8.750 -0.1577 -0.4146 -0.5856
  234MPD1    C5 3553   3.567   3.621   8.726 -0.5643 -0.0946 -0.3555
  234MPD1     H 3554   3.365   3.763   9.017  2.9472 -0.3240  2.0029
  234MPD1    H1 3555   3.608   3.819   8.675 -1.2811  0.0619 -0.7858
  234MPD1    H2 3556   3.483   3.429   8.779 -0.2037  0.1987 -0.7643
  234MPD1    H3 3557   3.620   3.595   8.636 -0.6892  3.6861 -1.5138
  234MPD1     N 3558   3.478   3.945   8.869 -0.4316 -0.7529 -0.0921
  234MPD1    H5 3559   3.403   3.967   8.934  0.0561  0.2846  0.1289
  234MPD1    N1 3560   3.379   3.494   9.006 -0.4779 -0.6467 -0.2307
  234MPD1    H6 3561   3.285   3.514   9.037  0.0015  0.1509  0.7205
  234MPD1    H7 3562   3.355   3.414   8.948  0.7909 -1.2892  0.1213
  235MPD1     C 3563   0.371   1.492   9.648  0.0060  0.1129  0.2004
  235MPD1    C1 3564   0.503   1.456   9.661  0.2329  0.2418  0.5633
  235MPD1    C2 3565   0.597   1.556   9.669  0.0173  0.2799 -0.7504
  235MPD1    C3 3566   0.572   1.682   9.640  0.1556 -0.4755 -0.4254
  235MPD1    C4 3567   0.439   1.720   9.634 -0.5151  0.3195  0.8100
  235MPD1    C5 3568   0.342   1.624   9.630  0.5335  0.2602 -0.7103
  235MPD1     H 3569   0.700   1.530   9.689 -0.8711 -0.8544  2.3219
  235MPD1    H1 3570   0.407   1.824   9.632  0.0199  0.4624 -0.4850
  235MPD1    H2 3571   0.293   1.422   9.674 -0.8819  1.0619  0.0804
  235MPD1    H3 3572   0.239   1.652   9.644  0.6391  0.7473 -0.9136
  235MPD1     N 3573   0.673   1.781   9.635 -0.0939  0.5307  0.1088
  235MPD1    H5 3574   0.768   1.748   9.650  0.1627  1.0823 -0.2782
  235MPD1    N1 3575   0.539   1.328   9.703  0.0175 -0.0604 -0.4616
  235MPD1    H6 3576   0.468   1.255   9.689 -0.1849 -0.6156  3.4465
  235MPD1    H7 3577   0.624   1.286   9.667  0.3771  0.1493  0.1589
  236MPD1     C 3578   4.548   3.261  10.480  0.1163  0.8941 -0.1039
  236MPD1    C1 3579   4.453   3.168  10.441  0.2149 -0.4994  0.4050
  236MPD1    C2 3580   4.487   3.036  10.440  0.3462  0.0077 -0.1313
  236MPD1    C3 3581   4.614   2.999  10.474 -1.2775 -0.3349 -0.2755
  236MPD1    C4 3582   4.708   3.090  10.503 -0.3515 -0.1885 -0.1014
  236MPD1    C5 3583   4.674   3.218  10.510 -0.5330  0.7869  0.0783
  236MPD1     H 3584   4.415   2.970  10.392  1.0771  0.5052 -1.9105
  236MPD1    H1 3585   0.087   3.063  10.527 -0.3408  0.3523  0.4648
  236MPD1    H2 3586   4.532   3.368  10.482  1.0559  1.0840 -2.4326
  236MPD1    H3 3587   0.024   3.297  10.524 -0.2948  0.4534  0.7198
  236MPD1     N 3588   4.656   2.864  10.462  0.3057 -0.5669  0.3780
  236MPD1    H5 3589   0.028   2.843  10.488 -0.2213 -1.6418  1.4171
  236MPD1    N1 3590   4.332   3.212  10.385  0.5116 -0.1226 -0.2943
  236MPD1    H6 3591   4.260   3.148  10.418  0.5788  0.6422  1.3524
  236MPD1    H7 3592   4.312   3.305  10.423  1.0424 -0.4243  0.7456
  237MPD1     C 3593   3.776   1.377  15.615  0.2514  0.3989  0.4940
  237MPD1    C1 3594   3.714   1.262  15.664 -0.4788  0.5981  0.4417
  237MPD1    C2 3595   3.633   1.178  15.584  0.2906  0.0834 -0.9714
  237MPD1    C3 3596   3.633   1.206  15.441  0.6560  0.1816 -0.1274
  237MPD1    C4 3597   3.704   1.309  15.390  0.1926 -0.3692  0.2287
  237MPD1    C5 3598   3.772   1.397  15.483 -0.2161 -0.1042 -0.1134
  237MPD1     H 3599   3.561   1.105  15.620  1.3422 -0.5338 -0.1324
  237MPD1    H1 3600   3.708   1.335  15.285 -1.7600 -3.3191 -0.5680
  237MPD1    H2 3601   3.832   1.444  15.679  1.2734  0.3528 -0.3497
  237MPD1    H3 3602   3.824   1.482  15.440 -1.3753  0.0595 -1.2009
  237MPD1     N 3603   3.533   1.158  15.352 -0.5585 -0.5068 -0.0594
  237MPD1    H5 3604   3.516   1.204  15.263  1.2993  0.6133  0.1665
  237MPD1    N1 3605   3.703   1.246  15.802  0.1601 -0.2642 -0.3337
  237MPD1    H6 3606   3.688   1.147  15.818 -2.5681  0.2489  0.3284
  237MPD1    H7 3607   3.788   1.279  15.848 -0.4620  1.8284 -0.6982
  238MPD1     C 3608   1.385   4.582  14.677  0.2405 -0.7550 -0.0795
  238MPD1    C1 3609   1.364   4.472  14.755 -0.1073 -0.1788 -0.6363
  238MPD1    C2 3610   1.230   4.424  14.754  0.2818 -0.4029  0.0786
  238MPD1    C3 3611   1.129   4.479  14.670 -0.0472  0.8573 -0.3938
  238MPD1    C4 3612   1.161   4.589  14.601 -0.2720 -0.2978  0.2239
  238MPD1    C5 3613   1.283   4.643  14.611 -0.7461  0.1135  0.1793
  238MPD1     H 3614   1.213   4.319  14.775 -1.8404 -0.0729 -0.0074
  238MPD1    H1 3615   1.086   4.641  14.543  1.7961  0.9116 -1.3560
  238MPD1    H2 3616   1.485   4.624  14.679 -1.1544  2.5585  1.0905
  238MPD1    H3 3617   1.297   0.010  14.552 -0.7990 -0.1894 -0.2879
  238MPD1     N 3618   1.000   4.428  14.657  0.0198 -0.5705  0.1251
  238MPD1    H5 3619   0.947   4.469  14.581 -0.6404 -0.2338  0.7674
  238MPD1    N1 3620   1.471   4.393  14.810  0.7866 -0.0118  0.0701
  238MPD1    H6 3621   1.549   4.448  14.845 -1.5456  0.9537  3.7795
  238MPD1    H7 3622   1.450   4.322  14.879 -0.9619  0.3597 -0.0702
  239MPD1     C 3623   1.120   0.376  14.496 -0.4302 -0.2642 -0.2016
  239MPD1    C1 3624   1.116   0.488  14.577  0.0734  0.7986  0.0109
  239MPD1    C2 3625   1.051   0.596  14.527  0.4935  0.8318  0.1896
  239MPD1    C3 3626   0.974   0.583  14.412 -0.3729  0.6345  0.3164
  239MPD1    C4 3627   0.950   0.461  14.352 -0.1201  0.2346  0.7545
  239MPD1    C5 3628   1.033   0.361  14.390 -0.4200 -0.1038  0.1015
  239MPD1     H 3629   1.044   0.686  14.587  1.1212  1.6309 -0.9371
  239MPD1    H1 3630   0.879   0.456  14.271  1.2761 -0.8571 -0.4133
  239MPD1    H2 3631   1.187   0.294  14.519 -0.4755 -0.5232 -0.9960
  239MPD1    H3 3632   1.038   0.266  14.337 -2.1876 -0.7990  1.1506
  239MPD1     N 3633   0.889   0.688  14.360 -0.4937  0.3305 -0.2354
  239MPD1    H5 3634   0.815   0.655  14.299 -1.1900  0.6002  0.4682
  239MPD1    N1 3635   1.209   0.503  14.681 -0.5132 -0.2801  0.2694
  239MPD1    H6 3636   1.235   0.411  14.717  0.4854  0.1962  0.7727
  239MPD1    H7 3637   1.164   0.556  14.755 -0.4850 -0.3506  0.3374
  240MPD1     C 3638   4.639   0.123  13.207  0.3649 -0.2572  0.1497
  240MPD1    C1 3639   4.577   0.037  13.291  0.2142 -0.5041 -0.1488
  240MPD1    C2 3640   4.654   4.698  13.388  0.0096  0.2251 -0.0680
  240MPD1    C3 3641   0.069   0.001  13.403 -0.0812 -0.6782  0.5708
  240MPD1    C4 3642   0.129   0.076  13.308  0.0462 -0.6151 -0.4985
  240MPD1    C5 3643   0.053   0.133  13.206  0.5091  0.5802  1.0959
  240MPD1     H 3644   4.614   4.632  13.463 -0.9729  0.4027 -0.4384
  240MPD1    H1 3645   0.235   0.095  13.294  0.1546 -0.2564  0.8855
  240MPD1    H2 3646   4.585   0.169  13.125 -0.6396  0.9100  1.4736
  240MPD1    H3 3647   0.098   0.209  13.144 -0.7388 -0.2061 -0.7416
  240MPD1     N 3648   0.142   4.668  13.511 -0.1962  0.1972  0.0633
  240MPD1    H5 3649   0.089   4.629  13.588  0.5790 -0.9487  0.0275
  240MPD1    N1 3650   4.436   0.041  13.311  0.1793  0.3085 -0.9865
  240MPD1    H6 3651   4.397   4.683  13.360 -0.8657  0.6492 -1.2616
  240MPD1    H7 3652   4.379   0.053  13.228  0.3642 -2.8194 -1.5858
  241MPD1     C 3653   0.867   0.098  14.300  0.3661 -0.0523 -0.4247
  241MPD1    C1 3654   0.909   0.036  14.185 -0.0798 -0.0705 -1.0387
  241MPD1    C2 3655   0.815   0.021  14.088  0.3139  0.0015  0.2062
  241MPD1    C3 3656   0.685   0.065  14.107  0.7986 -0.2692  0.5195
  241MPD1    C4 3657   0.649   0.130  14.216  0.1608 -0.1533 -0.2361
  241MPD1    C5 3658   0.745   0.160  14.311 -0.5567 -0.2667 -0.7577
  241MPD1     H 3659   0.829   4.678  14.003 -1.6308 -0.1946  0.0431
  241MPD1    H1 3660   0.552   0.173  14.241  2.2337  4.3280  0.1621
  241MPD1    H2 3661   0.932   0.102  14.386 -1.5631  1.3199  0.9790
  241MPD1    H3 3662   0.709   0.212  14.399  1.8363  0.1433 -0.0491
  241MPD1     N 3663   0.587   0.060  14.002 -0.2710 -0.0750  0.0345
  241MPD1    H5 3664   0.494   0.082  14.035  0.2898  1.0011  0.9029
  241MPD1    N1 3665   1.036   4.692  14.190  0.5678 -0.4754 -0.5576
  241MPD1    H6 3666   1.077   4.673  14.099  0.2465 -5.2701  0.3010
  241MPD1    H7 3667   1.106   0.014  14.249  0.4331  0.2670 -0.9669
  242MPD1     C 3668   4.508   3.674  15.758 -0.3773 -0.3451  1.3916
  242MPD1    C1 3669   4.455   3.571  15.688  0.4737 -0.1175  0.4511
  242MPD1    C2 3670   4.505   3.544  15.559 -0.0177 -1.0280 -0.3469
  242MPD1    C3 3671   4.599   3.629  15.502 -0.2350 -0.3619 -0.3722
  242MPD1    C4 3672   4.666   3.720  15.583 -0.0881 -0.6154  0.8089
  242MPD1    C5 3673   4.617   3.734  15.710  0.6038  0.5214 -0.2908
  242MPD1     H 3674   4.468   3.455  15.509  0.7867 -0.5460 -1.8107
  242MPD1    H1 3675   0.026   3.782  15.549  1.4267 -2.4085  1.2249
  242MPD1    H2 3676   4.471   3.713  15.852 -0.4891  0.0308  1.1921
  242MPD1    H3 3677   4.651   3.816  15.772  3.6322 -0.2438 -0.9107
  242MPD1     N 3678   4.660   3.602  15.376 -0.3444 -0.1800 -0.2221
  242MPD1    H5 3679   0.033   3.635  15.370  0.1724 -1.7332 -0.3402
  242MPD1    N1 3680   4.355   3.485  15.740 -0.6488  0.0610 -0.5048
  242MPD1    H6 3681   4.304   3.531  15.814  0.5440  1.2069 -0.3989
  242MPD1    H7 3682   4.290   3.464  15.665 -0.1957 -2.6777 -0.1370
  243MPD1     C 3683   1.495   1.028  17.411  0.1037 -0.6352 -0.7146
  243MPD1    C1 3684   1.599   0.948  17.382 -0.0653  0.8944 -0.0505
  243MPD1    C2 3685   1.687   0.983  17.276  0.6209  0.1283 -0.0464
  243MPD1    C3 3686   1.682   1.113  17.223  0.2590  0.2558  0.0914
  243MPD1    C4 3687   1.570   1.188  17.252 -0.4120  0.2183 -0.6233
  243MPD1    C5 3688   1.477   1.150  17.351  0.2007 -0.3450  0.8348
  243MPD1     H 3689   1.771   0.917  17.258  1.0596  0.0984  2.1447
  243MPD1    H1 3690   1.557   1.281  17.198  1.0397  0.4915 -0.4982
  243MPD1    H2 3691   1.433   0.989  17.491  2.3754 -1.1570  0.8053
  243MPD1    H3 3692   1.397   1.221  17.370 -1.1104 -1.4369 -0.5223
  243MPD1     N 3693   1.782   1.163  17.138 -0.0679  0.4189 -0.1939
  243MPD1    H5 3694   1.845   1.097  17.094 -0.0948  1.6324 -2.0492
  243MPD1    N1 3695   1.590   0.816  17.413  0.8118 -0.0631  0.1726
  243MPD1    H6 3696   1.540   0.795  17.500 -0.5474  0.8310 -0.3959
  243MPD1    H7 3697   1.685   0.784  17.399  1.2219  0.8625  0.8283
  244MPD1     C 3698   2.547   0.800  17.116 -0.1253  0.0439 -0.2926
  244MPD1    C1 3699   2.433   0.801  17.188  0.2226  0.4445  1.0434
  244MPD1    C2 3700   2.325   0.885  17.158 -0.1876 -0.1423  0.7865
  244MPD1    C3 3701   2.337   0.969  17.049  1.5691 -0.3304  0.0489
  244MPD1    C4 3702   2.455   0.970  16.976 -0.5578 -0.3966 -0.0654
  244MPD1    C5 3703   2.557   0.883  17.007 -0.3755  0.1639 -0.9954
  244MPD1     H 3704   2.240   0.886  17.224  0.8075 -2.9978  2.1002
  244MPD1    H1 3705   2.485   1.039  16.898  0.8316 -0.4788  0.3995
  244MPD1    H2 3706   2.627   0.730  17.138  0.1248  0.5328  0.3524
  244MPD1    H3 3707   2.641   0.873  16.939  1.2996  1.4768  0.8462
  244MPD1     N 3708   2.233   1.059  17.024  0.1646  0.1390 -0.5786
  244MPD1    H5 3709   2.162   1.059  17.097 -0.4476  1.0260 -1.1720
  244MPD1    N1 3710   2.418   0.726  17.304  0.2518  0.1309 -0.1898
  244MPD1    H6 3711   2.322   0.726  17.339  0.1203 -2.0077 -0.4999
  244MPD1    H7 3712   2.468   0.763  17.384 -1.5026  3.4844 -0.6554
  245MPD1     C 3713   3.714   2.286  13.044 -0.3346  0.0546 -0.7040
  245MPD1    C1 3714   3.643   2.343  13.146  0.4399  0.0209 -0.3811
  245MPD1    C2 3715   3.697   2.456  13.210 -0.5649  0.0483  0.2859
  245MPD1    C3 3716   3.819   2.514  13.170  0.1694  0.5688 -0.2226
  245MPD1    C4 3717   3.879   2.460  13.055 -0.7874  0.5433 -1.0150
  245MPD1    C5 3718   3.833   2.344  13.008 -0.3533  0.6686 -0.4080
  245MPD1     H 3719   3.635   2.499  13.288 -0.2688  1.6502 -0.3473
  245MPD1    H1 3720   3.974   2.500  13.023 -0.1266  0.0662  0.3533
  245MPD1    H2 3721   3.672   2.202  12.991  1.5747  0.5122 -2.9476
  245MPD1    H3 3722   3.900   2.304  12.933  0.0996 -0.0181  0.3588
  245MPD1     N 3723   3.876   2.615  13.253  0.2132  0.6441  0.9992
  245MPD1    H5 3724   3.830   2.636  13.341 -1.0689 -1.4280  0.7990
  245MPD1    N1 3725   3.511   2.302  13.165 -0.0524  0.2212 -0.9231
  245MPD1    H6 3726   3.468   2.334  13.252 -0.8562  1.2154 -1.6870
  245MPD1    H7 3727   3.497   2.201  13.161 -0.7712  0.3478 -1.5887
  246MPD1     C 3728   0.160   3.900   9.595 -0.2569 -0.4312  0.6286
  246MPD1    C1 3729   0.239   3.796   9.554 -0.4235 -0.3548 -0.0875
  246MPD1    C2 3730   0.177   3.682   9.508  0.1444 -0.4968  0.8339
  246MPD1    C3 3731   0.041   3.671   9.504 -0.3442 -0.5572 -0.6917
  246MPD1    C4 3732   4.686   3.778   9.537 -0.5944 -0.2199  0.2543
  246MPD1    C5 3733   0.026   3.890   9.589 -0.1476 -0.9899  0.3688
  246MPD1     H 3734   0.233   3.607   9.452  1.7248  0.7691  0.7203
  246MPD1    H1 3735   4.579   3.781   9.553 -0.9792 -0.5966 -2.3413
  246MPD1    H2 3736   0.208   3.988   9.635  1.0141 -0.9200  0.1669
  246MPD1    H3 3737   4.692   3.979   9.613  2.2550  0.8255 -0.7190
  246MPD1     N 3738   4.710   3.547   9.467  0.2596 -0.9784 -0.3927
  246MPD1    H5 3739   0.055   3.472   9.464 -1.4627 -2.4312 -2.7819
  246MPD1    N1 3740   0.380   3.811   9.546 -0.4975 -0.1364 -0.0551
  246MPD1    H6 3741   0.414   3.889   9.602 -1.3521  0.4172 -0.3162
  246MPD1    H7 3742   0.433   3.742   9.599  1.0748  0.3970 -0.9170
  247MPD1     C 3743   3.154   2.299  17.035 -0.7260 -0.1484 -0.5537
  247MPD1    C1 3744   3.201   2.378  16.941 -0.2849  0.1208 -0.6479
  247MPD1    C2 3745   3.189   2.336  16.812 -0.4478 -0.1291 -0.1241
  247MPD1    C3 3746   3.133   2.214  16.783  0.9503  0.0450 -0.0190
  247MPD1    C4 3747   3.096   2.129  16.883 -0.0225  0.1846 -0.2877
  247MPD1    C5 3748   3.103   2.176  17.010  0.3044  0.3019  0.4928
  247MPD1     H 3749   3.232   2.398  16.734 -0.4827 -1.1410 -0.9419
  247MPD1    H1 3750   3.048   2.033  16.869 -1.2203  0.5159  1.6038
  247MPD1    H2 3751   3.164   2.324  17.140 -0.7608 -0.3454 -0.5035
  247MPD1    H3 3752   3.058   2.121  17.092  1.6569  1.1334  1.7839
  247MPD1     N 3753   3.115   2.165  16.652 -0.5015 -0.1989 -0.1665
  247MPD1    H5 3754   3.087   2.068  16.646 -0.5363 -0.2396  0.6062
  247MPD1    N1 3755   3.285   2.484  16.976 -0.1891  0.6988  0.7974
  247MPD1    H6 3756   3.284   2.552  16.900  1.3202  0.5654  0.6667
  247MPD1    H7 3757   3.252   2.527  17.062  0.0003 -0.0534  1.2400
  248MPD1     C 3758   4.237   1.920   1.326 -0.6145 -0.0056  0.1814
  248MPD1    C1 3759   4.213   2.045   1.384 -0.1876  0.0325 -0.5578
  248MPD1    C2 3760   4.108   2.116   1.341  0.2351 -0.6542  0.7636
  248MPD1    C3 3761   4.047   2.090   1.217  0.5438  0.0562 -0.2171
  248MPD1    C4 3762   4.083   1.969   1.152  0.9789 -0.2527  0.2980
  248MPD1    C5 3763   4.170   1.880   1.211 -0.0149  0.0531  0.5850
  248MPD1     H 3764   4.069   2.207   1.385  1.3558  0.7759 -1.1612
  248MPD1    H1 3765   4.039   1.944   1.057 -0.5671 -1.0402  1.2165
  248MPD1    H2 3766   4.317   1.858   1.365 -0.4203 -1.0112 -1.8171
  248MPD1    H3 3767   4.192   1.785   1.164 -1.5386 -0.0820  0.1467
  248MPD1     N 3768   3.952   2.180   1.161 -0.0216 -0.9908  0.5425
  248MPD1    H5 3769   3.940   2.263   1.218  0.5422 -3.0846  3.7523
  248MPD1    N1 3770   4.286   2.076   1.500  0.1251  0.5768  0.3428
  248MPD1    H6 3771   4.295   2.174   1.525 -1.1240  0.0385  2.9497
  248MPD1    H7 3772   4.383   2.047   1.493 -0.0238  0.5347 -1.4947
  249MPD1     C 3773   4.447   4.519  10.657  0.1130  0.4144  0.4800
  249MPD1    C1 3774   4.349   4.527  10.570 -0.1628 -0.3146 -0.4368
  249MPD1    C2 3775   4.386   4.564  10.436  0.2512  0.1441  0.0722
  249MPD1    C3 3776   4.516   4.613  10.405  0.0661  0.2510 -1.1699
  249MPD1    C4 3777   4.614   4.604  10.504  1.2762 -0.0295 -0.3081
  249MPD1    C5 3778   4.579   4.552  10.629  0.3951  0.4412 -0.2110
  249MPD1     H 3779   4.310   4.566  10.359  0.0405  1.3377  0.3172
  249MPD1    H1 3780   4.715   4.641  10.492  2.0451 -1.6896  1.0108
  249MPD1    H2 3781   4.437   4.466  10.751  0.6680  1.0374  0.8879
  249MPD1    H3 3782   4.654   4.528  10.703 -1.0069  0.5892  1.2707
  249MPD1     N 3783   4.551   4.658  10.272 -0.2712  0.1997  0.1078
  249MPD1    H5 3784   4.482   4.653  10.197 -1.2228  3.9976  0.7293
  249MPD1    N1 3785   4.227   4.469  10.604  0.2330 -0.2171  0.4150
  249MPD1    H6 3786   4.153   4.514  10.550 -1.1333 -0.9285  1.6803
  249MPD1    H7 3787   4.209   4.487  10.703 -1.9840  0.8130 -0.1816
  250MPD2     C 3788   2.781   0.690  13.040  0.4506  0.0344  0.1308
  250MPD2    C1 3789   2.658   0.745  13.071 -0.1935 -0.2413 -0.1937
  250MPD2    C2 3790   2.549   0.663  13.044 -0.2188 -0.0624 -0.6159
  250MPD2    C3 3791   2.564   0.539  12.979 -0.2074  0.8205 -0.1113
  250MPD2    C4 3792   2.689   0.500  12.943 -0.0915 -0.3471 -0.3111
  250MPD2    C5 3793   2.802   0.574  12.966  0.6863 -0.5170 -0.0110
  250MPD2     H 3794   2.453   0.708  13.069  0.3811  0.6787  0.3413
  250MPD2    H1 3795   2.707   0.402  12.899  0.6859 -0.2064 -0.3157
  250MPD2    H2 3796   2.870   0.747  13.065  1.1516 -0.7517 -0.5428
  250MPD2    H3 3797   2.903   0.553  12.932  0.9398  1.9684 -0.8219
  250MPD2     N 3798   2.457   0.444  12.965  0.5271  0.4215 -0.0354
  250MPD2    H5 3799   2.487   0.347  12.955  1.4675  0.5239  1.7775
  250MPD2    N1 3800   2.656   0.878  13.126 -0.0878  0.3445 -0.8180
  250MPD2    H7 3801   2.746   0.926  13.131 -0.7657  1.3766  1.3881
  251TMC3    C1 3802   2.566   1.067  13.226  0.1250  0.6291  1.2547
  251TMC3    C2 3803   2.448   1.127  13.272 -0.3582  0.5341  0.0325
  251TMC3    C3 3804   2.460   1.259  13.308 -0.3420  0.4975  0.5037
  251TMC3    C4 3805   2.674   1.140  13.200 -0.1190 -0.1832 -0.4076
  251TMC3    C5 3806   2.669   1.276  13.216 -0.4020 -0.1683 -0.4712
  251TMC3    C6 3807   2.576   1.339  13.291  0.4688  0.3690  0.0100
  251TMC3     C 3808   2.540   0.945  13.153  0.0050 -0.1158  0.3066
  251TMC3     O 3809   2.423   0.910  13.149  0.4228  0.2402 -0.2520
  251TMC3     H 3810   2.357   1.075  13.302 -0.4789  0.6258 -0.1716
  251TMC3    H1 3811   2.764   1.094  13.161  1.0331  1.5397  0.2006
  251TMC3    H2 3812   2.590   1.440  13.329  4.5354  0.2381 -1.1467
  251TMC3    C7 3813   2.804   1.343  13.206 -1.2983  1.1233  0.3791
  251TMC3    C8 3814   2.354   1.328  13.377  0.3354 -0.6663  0.6004
  251TMC3    O1 3815   2.901   1.267  13.219  0.4060 -0.2263 -0.5686
  251TMC3    O2 3816   2.243   1.302  13.337 -0.4860  0.3642 -0.8297
  252TMC3    C1 3817   2.832   2.344   9.158  0.3889 -0.6169 -0.7120
  252TMC3    C2 3818   2.907   2.448   9.210 -0.1176 -0.4945 -0.5476
  252TMC3    C3 3819   2.958   2.441   9.333  0.0484 -0.1566  0.4070
  252TMC3    C4 3820   2.799   2.237   9.240  0.5309 -0.1162 -0.8854
  252TMC3    C5 3821   2.853   2.235   9.362  0.3705 -0.1471 -0.0443
  252TMC3    C6 3822   2.939   2.332   9.411 -0.0885  0.8823  0.3768
  252TMC3     C 3823   2.787   2.348   9.018  0.5414  0.0371  0.5924
  252TMC3     O 3824   2.840   2.429   8.946  0.0179  0.7352 -0.5281
  252TMC3     H 3825   2.941   2.534   9.153 -1.2446  0.4529  0.2107
  252TMC3    H1 3826   2.766   2.142   9.199 -1.8305  0.1798  0.3461
  252TMC3    H2 3827   2.999   2.308   9.498 -0.1839  2.6148  0.9107
  252TMC3    C7 3828   2.864   2.111   9.431  0.2760  0.4527  0.1230
  252TMC3    C8 3829   3.051   2.538   9.379 -0.1540  0.6029  0.1559
  252TMC3    O1 3830   2.968   2.082   9.487  0.3010  0.4408  0.2219
  252TMC3    O2 3831   3.095   2.619   9.298 -0.5968 -1.3493 -0.3206
  253MPD2     C 3832   3.385   1.532  15.301  0.6947 -0.6497  0.0980
  253MPD2    C1 3833   3.275   1.453  15.276 -0.1709  0.1548  0.4971
  253MPD2    C2 3834   3.232   1.371  15.379 -0.3135 -0.3327  0.0252
  253MPD2    C3 3835   3.296   1.363  15.501 -0.1670  0.2875 -0.6123
  253MPD2    C4 3836   3.413   1.436  15.517 -0.1381  0.9407  0.8812
  253MPD2    C5 3837   3.457   1.526  15.419  0.0675 -0.6052  0.4227
  253MPD2     H 3838   3.146   1.311  15.353  0.4736 -1.1015 -0.7933
  253MPD2    H1 3839   3.468   1.414  15.608  0.7279 -0.5310  0.0211
  253MPD2    H2 3840   3.427   1.607  15.234 -1.5705  0.2556 -0.3223
  253MPD2    H3 3841   3.533   1.602  15.434 -0.8535  0.1657  1.2207
  253MPD2     N 3842   3.243   1.288  15.611  0.0592  0.1101 -0.4368
  253MPD2    H5 3843   3.301   1.287  15.694  3.4747  0.3145 -2.8277
  253MPD2    N1 3844   3.192   1.475  15.156 -0.0469 -0.3662 -0.3071
  253MPD2    H7 3845   3.107   1.420  15.145 -1.3668  1.9225 -1.3363
  254TMC3    C1 3846   3.079   1.174  15.747  0.3597  0.0537  0.0460
  254TMC3    C2 3847   2.943   1.155  15.768  0.4137 -0.3283  0.7173
  254TMC3    C3 3848   2.908   1.074  15.869 -0.5606  0.1428 -0.2804
  254TMC3    C4 3849   3.181   1.103  15.815  0.1480  0.1045 -0.4432
  254TMC3    C5 3850   3.141   1.021  15.910  0.0018  0.0024 -0.3740
  254TMC3    C6 3851   3.011   1.012  15.943  0.5748  0.1054 -0.6766
  254TMC3     C 3852   3.120   1.229  15.617 -0.8524 -0.0374 -0.3246
  254TMC3     O 3853   3.028   1.257  15.548 -0.0905  0.5866  0.6768
  254TMC3     H 3854   2.869   1.198  15.701 -0.4678 -0.4713  1.5952
  254TMC3    H1 3855   3.280   1.093  15.772  0.8393 -2.3003  1.7161
  254TMC3    H2 3856   2.979   0.955  16.030  0.7068  0.7240 -0.2255
  254TMC3    C7 3857   3.228   0.994  16.018  0.1158 -0.2272  0.1455
  254TMC3    C8 3858   2.796   1.110  15.946 -0.6606  0.0379 -0.3821
  254TMC3    O1 3859   3.186   0.901  16.086 -0.2912 -0.0043 -0.4535
  254TMC3    O2 3860   2.786   1.070  16.061 -0.2222 -1.1532  0.0706
  255MPD2     C 3861   1.661   3.205   9.326 -0.4653 -0.7278  0.1459
  255MPD2    C1 3862   1.787   3.236   9.299 -0.1923 -0.1048 -0.0080
  255MPD2    C2 3863   1.879   3.197   9.398  0.1490 -0.2938 -0.2961
  255MPD2    C3 3864   1.838   3.142   9.514  1.2353 -0.3030  0.8624
  255MPD2    C4 3865   1.706   3.113   9.536  0.0818 -0.6035 -0.2267
  255MPD2    C5 3866   1.614   3.139   9.440 -0.2012 -0.0004  0.2737
  255MPD2     H 3867   1.984   3.221   9.386  0.0401  0.0062 -0.6463
  255MPD2    H1 3868   1.681   3.059   9.626 -0.7827  0.9192  0.4465
  255MPD2    H2 3869   1.589   3.223   9.247 -0.1027  0.8367  0.1707
  255MPD2    H3 3870   1.509   3.119   9.458 -0.0246 -0.0654  1.2349
  255MPD2     N 3871   1.926   3.109   9.624 -0.5358  0.4086 -0.1898
  255MPD2    H5 3872   1.891   3.043   9.692  0.3095  0.1140 -0.0385
  255MPD2    N1 3873   1.824   3.330   9.199  0.1124 -0.5584  0.4493
  255MPD2    H7 3874   1.752   3.386   9.156  0.3473  0.1369  0.9654
  256TMC3    C1 3875   1.950   3.516   9.120 -0.3472  0.8017  1.4446
  256TMC3    C2 3876   2.040   3.604   9.171 -0.0039 -0.2463 -0.2983
  256TMC3    C3 3877   2.040   3.731   9.115  0.3220  0.4256 -0.0531
  256TMC3    C4 3878   1.852   3.559   9.034 -0.0144  0.4254 -0.4401
  256TMC3    C5 3879   1.846   3.687   8.990  0.0071 -0.1192  0.2634
  256TMC3    C6 3880   1.948   3.772   9.021 -0.7840 -0.0234  0.2538
  256TMC3     C 3881   1.949   3.381   9.179 -0.1003  0.5723 -0.4152
  256TMC3     O 3882   2.057   3.336   9.205  0.0938  0.2334  0.0715
  256TMC3     H 3883   2.112   3.569   9.243 -1.3640  1.5716  1.9672
  256TMC3    H1 3884   1.779   3.493   8.991  0.9674  0.5585 -2.3064
  256TMC3    H2 3885   1.953   3.876   8.991 -1.2007  0.2202  1.0262
  256TMC3    C7 3886   1.768   3.714   8.874 -0.1519  0.2302 -0.5851
  256TMC3    C8 3887   2.138   3.818   9.171 -0.6409  0.9767 -0.1418
  256TMC3    O1 3888   1.746   3.621   8.798 -0.2097 -0.0529  0.2958
  256TMC3    O2 3889   2.235   3.765   9.227  0.6393 -0.2414  0.1203
  257MPD2     C 3890   0.478   0.807  12.831 -0.5603  0.2213 -0.6068
  257MPD2    C1 3891   0.605   0.798  12.806 -0.1068 -0.8532 -0.2682
  257MPD2    C2 3892   0.693   0.758  12.903  1.0321 -0.6733 -0.5148
  257MPD2    C3 3893   0.645   0.721  13.024  0.3398 -0.1537  0.2982
  257MPD2    C4 3894   0.506   0.705  13.047 -0.0556 -0.1873 -1.0380
  257MPD2    C5 3895   0.424   0.756  12.952 -0.6457  0.2409 -0.8896
  257MPD2     H 3896   0.800   0.745  12.891  1.2754  2.5260 -1.7620
  257MPD2    H1 3897   0.456   0.668  13.136 -1.4737 -0.0987 -1.7978
  257MPD2    H2 3898   0.403   0.836  12.758 -0.5362 -0.5858 -0.9565
  257MPD2    H3 3899   0.318   0.770  12.972 -0.6234 -2.5446  1.2151
  257MPD2     N 3900   0.736   0.684  13.119 -0.9625  0.1656 -0.1629
  257MPD2    H5 3901   0.831   0.703  13.090  0.4195 -3.4978  2.0637
  257MPD2    N1 3902   0.646   0.837  12.677 -0.0043 -0.6455  0.1300
  257MPD2    H7 3903   0.572   0.849  12.609  0.7595  1.1593 -0.3791
  258TMC3    C1 3904   0.835   0.559  13.282  0.5951  0.4393  0.2240
  258TMC3    C2 3905   0.915   0.498  13.192  0.3338 -0.5959  0.0203
  258TMC3    C3 3906   1.016   0.424  13.247 -0.4436 -0.2477 -0.5953
  258TMC3    C4 3907   0.835   0.541  13.422  0.4081  0.6911  0.4698
  258TMC3    C5 3908   0.931   0.454  13.470 -0.1789  0.1271  0.4699
  258TMC3    C6 3909   1.030   0.406  13.386 -0.3632  0.7381 -0.6195
  258TMC3     C 3910   0.716   0.630  13.239 -0.0634 -0.0456  0.0549
  258TMC3     O 3911   0.621   0.641  13.318 -0.1407  0.3166 -0.0107
  258TMC3     H 3912   0.916   0.530  13.088  1.3384  1.9592  0.8298
  258TMC3    H1 3913   0.767   0.593  13.489 -0.9940  0.7204 -0.9834
  258TMC3    H2 3914   1.092   0.327  13.427 -2.3124 -0.9150 -0.8622
  258TMC3    C7 3915   0.935   0.420  13.607 -0.0951 -0.5825 -1.2590
  258TMC3    C8 3916   1.115   0.351  13.170  0.1632 -0.3335  0.4959
  258TMC3    O1 3917   0.822   0.399  13.649  0.2015  0.5928  0.2920
  258TMC3    O2 3918   1.214   0.302  13.225 -0.7697 -0.5935  0.1536
  259MPD2     C 3919   0.115   3.111   1.270 -0.2112 -0.3433  0.2185
  259MPD2    C1 3920   0.047   3.006   1.208 -0.5234  0.6868 -0.7629
  259MPD2    C2 3921   0.066   2.995   1.069 -0.1052 -0.1138 -0.0867
  259MPD2    C3 3922   0.162   3.068   0.997 -0.0222 -0.7978 -0.1810
  259MPD2    C4 3923   0.236   3.168   1.063  0.0789 -0.1884 -0.3789
  259MPD2    C5 3924   0.209   3.184   1.199 -0.3260 -0.7055  0.2286
  259MPD2     H 3925   0.005   2.923   1.016  0.7783 -0.0119 -1.2471
  259MPD2    H1 3926   0.302   3.238   1.014  1.1255 -0.7827  0.1982
  259MPD2    H2 3927   0.105   3.124   1.377  0.6892  1.1601  0.1279
  259MPD2    H3 3928   0.260   3.266   1.247 -0.0732 -1.2411  0.8731
  259MPD2     N 3929   0.163   3.047   0.858 -0.1736 -0.5757 -0.6080
  259MPD2    H5 3930   0.100   2.977   0.822 -0.0496 -0.6067 -0.7640
  259MPD2    N1 3931   4.687   2.931   1.287  0.3490  0.1332  0.1278
  259MPD2    H7 3932   4.686   2.946   1.388 -0.0008 -0.5578  0.2280
  260TMC3    C1 3933   0.252   3.018   0.642  0.4233 -0.5189 -0.3639
  260TMC3    C2 3934   0.347   3.056   0.549  0.1032  0.1186  0.3443
  260TMC3    C3 3935   0.382   2.964   0.453 -0.5087 -0.2558 -0.0956
  260TMC3    C4 3936   0.191   2.892   0.637 -0.0676  0.4067 -0.7090
  260TMC3    C5 3937   0.225   2.809   0.536  0.2004  0.1523 -0.1541
  260TMC3    C6 3938   0.315   2.845   0.442 -1.3297  0.7593  0.2538
  260TMC3     C 3939   0.258   3.088   0.768 -0.1747  0.4147 -0.3131
  260TMC3     O 3940   0.355   3.160   0.793  0.0295  0.3812  0.9127
  260TMC3     H 3941   0.399   3.150   0.562 -0.5174  0.2952  1.5174
  260TMC3    H1 3942   0.116   2.855   0.706 -0.9574 -0.6606 -2.2180
  260TMC3    H2 3943   0.329   2.780   0.357 -0.8131  0.7395  0.3525
  260TMC3    C7 3944   0.137   2.695   0.504  0.6502 -0.4465  0.9284
  260TMC3    C8 3945   0.466   3.019   0.348  0.3256 -0.5235  0.1582
  260TMC3    O1 3946   0.188   2.623   0.418 -0.0259 -0.2585  0.3645
  260TMC3    O2 3947   0.484   3.142   0.349  0.3809  0.1087 -0.2676
  261MPD2     C 3948   1.628   0.468  12.781  0.0904 -0.6743  0.0929
  261MPD2    C1 3949   1.730   0.428  12.701  0.3181 -0.4410 -0.2124
  261MPD2    C2 3950   1.717   0.451  12.565 -0.2070  0.1998  0.5370
  261MPD2    C3 3951   1.604   0.508  12.511 -0.2962  0.5110 -0.3670
  261MPD2    C4 3952   1.494   0.531  12.589  0.2376 -0.2050  0.3489
  261MPD2    C5 3953   1.507   0.514  12.725 -0.0771 -0.1284 -0.2988
  261MPD2     H 3954   1.797   0.441  12.492 -0.0856 -0.7629  0.7975
  261MPD2    H1 3955   1.405   0.579  12.548 -0.9682 -1.2250  1.7547
  261MPD2    H2 3956   1.630   0.458  12.889  2.2953  1.4847  0.2674
  261MPD2    H3 3957   1.427   0.531  12.797  1.0658  0.5533  0.8255
  261MPD2     N 3958   1.600   0.532  12.375  0.1616 -0.0374 -0.5472
  261MPD2    H5 3959   1.679   0.501  12.319  1.4359  1.2409  0.5462
  261MPD2    N1 3960   1.848   0.376  12.754 -0.0571 -0.1556  0.2936
  261MPD2    H7 3961   1.919   0.335  12.695 -1.3304  0.4371 -1.6464
  262TMC3    C1 3962   1.555   0.648  12.169 -0.6221  0.1183  0.4090
  262TMC3    C2 3963   1.533   0.773  12.126  0.2257 -0.4441  0.2328
  262TMC3    C3 3964   1.627   0.830  12.049 -0.7955 -0.4538  0.5127
  262TMC3    C4 3965   1.643   0.562  12.104  0.6108  0.2209 -0.1449
  262TMC3    C5 3966   1.741   0.617  12.026  0.2346 -0.3845  0.0608
  262TMC3    C6 3967   1.732   0.755  11.998 -0.2678 -1.1010  0.6024
  262TMC3     C 3968   1.526   0.628  12.314  0.1550 -0.0088  0.5417
  262TMC3     O 3969   1.439   0.698  12.365  0.1781 -0.5344 -0.8362
  262TMC3     H 3970   1.456   0.831  12.175  0.4661  0.1715 -0.1146
  262TMC3    H1 3971   1.647   0.462  12.148  1.2195 -0.1317 -0.9946
  262TMC3    H2 3972   1.813   0.809  11.952 -1.4020 -0.6099 -0.7985
  262TMC3    C7 3973   1.743   0.558  11.896 -0.4829  0.4049 -1.0260
  262TMC3    C8 3974   1.581   0.916  11.940 -0.3385 -0.2422 -0.9771
  262TMC3    O1 3975   1.769   0.437  11.896  0.1684 -0.4690  0.0661
  262TMC3    O2 3976   1.660   0.949  11.849 -0.1754 -0.1157 -0.0256
  263MPD2     C 3977   2.566   4.631  10.988 -0.4600  0.4048 -0.2321
  263MPD2    C1 3978   2.580   0.041  11.011 -1.0742  0.2908 -0.1300
  263MPD2    C2 3979   2.522   0.132  10.920  0.0192 -0.6427  0.3285
  263MPD2    C3 3980   2.472   0.079  10.801  0.1265 -0.4614 -0.7679
  263MPD2    C4 3981   2.467   4.664  10.778 -0.1144 -0.1095  0.5518
  263MPD2    C5 3982   2.511   4.579  10.874  0.4475 -0.1442  0.2221
  263MPD2     H 3983   2.540   0.239  10.923 -1.1567 -0.3833 -2.1546
  263MPD2    H1 3984   2.428   4.618  10.689 -0.7192 -0.0834  0.8051
  263MPD2    H2 3985   2.607   4.556  11.054  0.3094 -0.5836 -1.8338
  263MPD2    H3 3986   2.503   4.471  10.861 -1.3632 -0.0697  0.7449
  263MPD2     N 3987   2.437   0.176  10.708 -0.4011  0.1660 -0.3257
  263MPD2    H5 3988   2.457   0.273  10.728 -2.4031  0.8220 -1.5427
  263MPD2    N1 3989   2.640   0.081  11.137 -0.1444 -0.4320 -0.6121
  263MPD2    H7 3990   2.696   0.014  11.190  0.3193 -0.5339 -1.2378
  264TMC3    C1 3991   2.332   0.266  10.507  0.4780 -0.5160 -0.7788
  264TMC3    C2 3992   2.280   0.370  10.574 -0.0224 -0.3300  0.2968
  264TMC3    C3 3993   2.254   0.484  10.501 -0.7025 -0.6280  0.3068
  264TMC3    C4 3994   2.387   0.271  10.377 -0.1179  0.5536  0.1938
  264TMC3    C5 3995   2.368   0.390  10.309  0.4163  0.4247  0.6989
  264TMC3    C6 3996   2.294   0.489  10.367  0.2905  0.4126  0.7878
  264TMC3     C 3997   2.385   0.150  10.576 -0.0301 -0.4917  0.2221
  264TMC3     O 3998   2.378   0.046  10.513  0.0905  0.3861 -0.0429
  264TMC3     H 3999   2.262   0.364  10.680  0.2478  0.5351  0.3943
  264TMC3    H1 4000   2.443   0.188  10.336 -1.5642 -0.3113 -0.0481
  264TMC3    H2 4001   2.274   0.576  10.305 -0.6171  0.3471  0.9856
  264TMC3    C7 4002   2.500   0.442  10.268  0.3653  0.4804 -0.1895
  264TMC3    C8 4003   2.285   0.616  10.555  0.2292 -0.1603  0.2731
  264TMC3    O1 4004   2.560   0.355  10.203  0.3139 -0.1581  0.0739
  264TMC3    O2 4005   2.341   0.702  10.485  0.4808  0.1495  0.5522
  265MPD2     C 4006   4.102   0.696  15.527  1.1091 -0.1258  0.5654
  265MPD2    C1 4007   4.163   0.807  15.464  0.6043  0.0527 -0.3795
  265MPD2    C2 4008   4.248   0.772  15.358  0.3266 -0.2592 -0.1109
  265MPD2    C3 4009   4.285   0.646  15.324 -0.1050 -0.1874  0.3772
  265MPD2    C4 4010   4.229   0.542  15.398  0.2875  0.0848 -0.2676
  265MPD2    C5 4011   4.147   0.572  15.503  0.0814  0.7339  0.0743
  265MPD2     H 4012   4.279   0.846  15.286  2.3585 -1.6024 -0.6245
  265MPD2    H1 4013   4.245   0.436  15.379 -0.8238 -0.2124  0.4140
  265MPD2    H2 4014   4.039   0.709  15.614 -0.8018 -1.8947 -0.5435
  265MPD2    H3 4015   4.102   0.492  15.560  0.2499  0.8650  0.3898
  265MPD2     N 4016   4.377   0.608  15.223  0.5852 -0.0417 -0.1367
  265MPD2    H5 4017   4.393   0.508  15.225  1.7856  0.1292 -0.9100
  265MPD2    N1 4018   4.132   0.941  15.506 -0.0494  0.1387 -0.1314
  265MPD2    H7 4019   4.158   1.014  15.440 -0.9871 -0.3723 -1.0727
  266TMC3    C1 4020   4.095   1.118  15.657  0.1406  0.1403  0.0987
  266TMC3    C2 4021   4.139   1.145  15.783  0.1738  0.3270  0.4039
  266TMC3    C3 4022   4.185   1.273  15.810 -0.6194 -0.3670 -0.4229
  266TMC3    C4 4023   4.079   1.208  15.560  0.0250  0.0400  0.1421
  266TMC3    C5 4024   4.115   1.336  15.596  0.4791 -0.1069  0.2188
  266TMC3    C6 4025   4.171   1.374  15.717 -0.5570 -0.1863 -0.4386
  266TMC3     C 4026   4.076   0.977  15.625 -0.1462 -0.8737  0.1771
  266TMC3     O 4027   4.050   0.905  15.720  0.0010  0.3911  0.3195
  266TMC3     H 4028   4.137   1.068  15.860  0.5787 -1.8384 -1.7522
  266TMC3    H1 4029   4.031   1.177  15.468 -0.8871 -1.4841  1.1213
  266TMC3    H2 4030   4.216   1.471  15.734 -0.8629 -0.4180  1.7277
  266TMC3    C7 4031   4.111   1.438  15.496 -1.1456 -0.1226 -0.0060
  266TMC3    C8 4032   4.275   1.279  15.926 -0.0046  0.0237 -0.5008
  266TMC3    O1 4033   4.133   1.401  15.377  0.2424  0.1933  0.1772
  266TMC3    O2 4034   4.313   1.171  15.969  0.0017  0.3677 -0.1818
  267MPD2     C 4035   2.510   1.913  17.265  0.5408 -0.5481  0.1975
  267MPD2    C1 4036   2.475   2.037  17.309  0.1755 -0.1577  0.2209
  267MPD2    C2 4037   2.354   2.091  17.263 -0.4070  0.8584 -0.0624
  267MPD2    C3 4038   2.269   2.016  17.188  0.5749  0.1042  0.2170
  267MPD2    C4 4039   2.308   1.897  17.128  0.9482  0.0536 -0.5842
  267MPD2    C5 4040   2.437   1.847  17.169  0.0741 -0.2905 -0.5712
  267MPD2     H 4041   2.331   2.190  17.299  0.4913  0.5770  1.3148
  267MPD2    H1 4042   2.247   1.834  17.064  0.7582  0.2016 -0.5485
  267MPD2    H2 4043   2.599   1.859  17.295 -1.2909 -3.4969  0.3572
  267MPD2    H3 4044   2.471   1.750  17.134  0.7618  0.2535 -1.3986
  267MPD2     N 4045   2.135   2.054  17.171 -0.1507 -0.1626 -0.6788
  267MPD2    H5 4046   2.072   1.993  17.121  2.6407 -2.5693 -1.2916
  267MPD2    N1 4047   2.560   2.111  17.396  0.3199  0.1831 -0.6643
  267MPD2    H7 4048   2.628   2.058  17.451 -1.4452 -3.2799 -1.7962
  268TMC3    C1 4049   2.659   2.284  17.504  0.1407  0.1373  0.4317
  268TMC3    C2 4050   2.668   2.426  17.521  0.2939  0.3684 -0.1618
  268TMC3    C3 4051   2.728   2.478  17.632 -0.2513  0.0249  0.0322
  268TMC3    C4 4052   2.718   2.205  17.600  0.1558  0.8077  0.0088
  268TMC3    C5 4053   2.781   2.266   0.013  0.0200  0.1052 -0.0892
  268TMC3    C6 4054   2.790   2.400   0.025 -0.5715  0.5119 -0.0076
  268TMC3     C 4055   2.553   2.245  17.417 -0.0683  0.1740 -0.7226
  268TMC3     O 4056   2.475   2.326  17.366  0.4533  0.0497 -0.2111
  268TMC3     H 4057   2.632   2.491  17.442  2.2712  2.7847  0.8984
  268TMC3    H1 4058   2.698   2.099  17.610  0.3778  0.7658  0.0109
  268TMC3    H2 4059   2.844   2.452   0.103  0.4628 -0.0492 -0.3385
  268TMC3    C7 4060   2.779   2.199   0.139 -0.4778 -0.3904 -0.3465
  268TMC3    C8 4061   2.754   2.624  17.636 -0.1053  0.5180 -0.3302
  268TMC3    O1 4062   2.693   2.115   0.167  0.5119  0.0165 -0.3620
  268TMC3    O2 4063   2.857   2.664  17.682 -0.2405 -0.3837  0.5845
  269MPD2     C 4064   2.201   1.156  15.598  0.7357 -0.3344  0.2260
  269MPD2    C1 4065   2.091   1.224  15.647  0.2381 -0.3239 -0.6215
  269MPD2    C2 4066   2.072   1.358  15.625  0.3650 -0.4171 -0.0649
  269MPD2    C3 4067   2.170   1.426  15.553  0.2012 -0.1191  0.2500
  269MPD2    C4 4068   2.274   1.356  15.490 -0.6248 -0.5497  0.8088
  269MPD2    C5 4069   2.290   1.220  15.517 -0.1603  0.1578 -0.3037
  269MPD2     H 4070   1.985   1.410  15.665  0.8039  0.2978 -0.0517
  269MPD2    H1 4071   2.362   1.394  15.439 -1.4695  1.1738  0.6361
  269MPD2    H2 4072   2.202   1.048  15.604 -0.0362 -0.4512 -1.7025
  269MPD2    H3 4073   2.375   1.166  15.478  0.2769  1.9948 -1.9014
  269MPD2     N 4074   2.137   1.560  15.525 -0.1934  0.0175 -0.1009
  269MPD2    H5 4075   2.055   1.595  15.572  0.0965  0.4775  0.0674
  269MPD2    N1 4076   1.998   1.143  15.716 -0.1517 -0.6356  0.0339
  269MPD2    H7 4077   2.016   1.043  15.720 -0.4066 -0.7312 -1.2700
  270TMC3    C1 4078   1.786   1.089  15.805  0.2741  0.5215  0.0139
  270TMC3    C2 4079   1.660   1.091  15.752 -0.1310 -0.0353  0.0670
  270TMC3    C3 4080   1.579   0.988  15.793 -0.2456 -0.8814  0.4142
  270TMC3    C4 4081   1.840   0.975  15.873  1.2830  0.7470  0.3410
  270TMC3    C5 4082   1.759   0.869  15.884 -0.4002  0.3935 -0.2574
  270TMC3    C6 4083   1.628   0.868  15.850 -0.1126 -0.0208 -0.1305
  270TMC3     C 4084   1.876   1.191  15.763 -0.7755 -0.2283 -0.0105
  270TMC3     O 4085   1.831   1.306  15.776  0.1923 -0.0147  0.4731
  270TMC3     H 4086   1.623   1.175  15.694 -0.8040 -0.2745  0.1548
  270TMC3    H1 4087   1.942   0.979  15.909  1.1423 -3.6914  1.1727
  270TMC3    H2 4088   1.561   0.782  15.849  0.6771 -0.6433  1.7348
  270TMC3    C7 4089   1.838   0.747  15.851 -0.2552 -0.4382  0.0114
  270TMC3    C8 4090   1.480   0.957  15.691 -0.2165  0.0004 -0.4471
  270TMC3    O1 4091   1.951   0.757  15.897 -0.0705  0.4452 -0.3787
  270TMC3    O2 4092   1.366   0.988  15.719 -0.2546  0.2223 -0.0490
  271MPD2     C 4093   1.134   1.023  14.054 -0.2844 -0.0396  0.1170
  271MPD2    C1 4094   1.089   1.049  14.185 -0.0860 -0.4204 -0.5705
  271MPD2    C2 4095   0.986   1.133  14.207 -0.7798  0.2658 -0.7449
  271MPD2    C3 4096   0.918   1.190  14.101  0.0076  0.0832 -1.0161
  271MPD2    C4 4097   0.960   1.159  13.975 -0.6690 -0.0880  0.5632
  271MPD2    C5 4098   1.067   1.072  13.948  0.4995  0.0801  0.1310
  271MPD2     H 4099   0.950   1.152  14.307  1.6714  0.6760  0.0791
  271MPD2    H1 4100   0.911   1.192  13.884  1.0945  1.3568  0.1470
  271MPD2    H2 4101   1.220   0.963  14.024 -0.9274 -0.7073 -0.3784
  271MPD2    H3 4102   1.105   1.058  13.847  0.5013  1.8707 -0.1116
  271MPD2     N 4103   0.807   1.271  14.119 -0.0215 -0.6022  0.0479
  271MPD2    H5 4104   0.750   1.280  14.036 -1.1740  1.4263  1.0682
  271MPD2    N1 4105   1.158   0.989  14.295 -0.1427  0.2171  0.0710
  271MPD2    H7 4106   1.144   1.033  14.385 -0.5550  1.7013 -0.7088
  272TMC3    C1 4107   1.294   0.839  14.403 -0.2381 -0.0840  0.8714
  272TMC3    C2 4108   1.412   0.767  14.400  0.1168 -0.4358  0.2087
  272TMC3    C3 4109   1.478   0.751  14.517 -0.9397 -0.5133 -0.6642
  272TMC3    C4 4110   1.248   0.890  14.523  0.5220  0.8793 -0.1967
  272TMC3    C5 4111   1.317   0.868  14.636  0.5052  0.2924 -0.2848
  272TMC3    C6 4112   1.440   0.803  14.639 -0.2207  0.1163 -0.2343
  272TMC3     C 4113   1.236   0.880  14.279 -0.0825  0.4229 -0.2060
  272TMC3     O 4114   1.261   0.810  14.185 -0.4800  0.4772  0.5795
  272TMC3     H 4115   1.446   0.716  14.310  1.9472  1.6069 -0.2340
  272TMC3    H1 4116   1.151   0.940  14.525  0.4103  0.6453  0.3656
  272TMC3    H2 4117   1.492   0.777  14.731  0.6660 -0.8874 -1.0251
  272TMC3    C7 4118   1.261   0.915  14.764  0.2366  0.5771 -0.8034
  272TMC3    C8 4119   1.618   0.709  14.497 -0.7290 -0.1102 -0.7406
  272TMC3    O1 4120   1.144   0.951  14.765  0.2744  0.1666 -0.1786
  272TMC3    O2 4121   1.668   0.711  14.387  0.4920  0.5087 -0.4868
  273MPD2     C 4122   3.249   3.668  11.548 -0.7871  0.4530  0.4797
  273MPD2    C1 4123   3.312   3.785  11.531  0.3176 -0.4149 -0.5082
  273MPD2    C2 4124   3.310   3.834  11.407 -0.2095 -0.0742 -0.3112
  273MPD2    C3 4125   3.232   3.781  11.301 -0.1832  0.8012  0.3502
  273MPD2    C4 4126   3.165   3.661  11.330 -0.4842 -0.0275 -0.5799
  273MPD2    C5 4127   3.178   3.607  11.449 -0.2593 -1.0771  0.3202
  273MPD2     H 4128   3.364   3.923  11.376 -1.5611  0.6241 -0.6930
  273MPD2    H1 4129   3.108   3.611  11.252  0.3330  0.8547 -1.7404
  273MPD2    H2 4130   3.265   3.618  11.643 -0.4047  2.2662  1.3713
  273MPD2    H3 4131   3.130   3.511  11.463 -1.0576 -0.6498  0.5134
  273MPD2     N 4132   3.244   3.823  11.166  0.3048 -0.0943 -0.0817
  273MPD2    H5 4133   3.164   3.798  11.109  0.7404  0.6423 -1.0048
  273MPD2    N1 4134   3.387   3.848  11.640 -0.1043 -0.8918 -0.5844
  273MPD2    H7 4135   3.392   3.784  11.719  2.0054 -0.7184 -0.5813
  274TMC3    C1 4136   3.276   3.998  11.003  0.8870  0.7135 -0.0209
  274TMC3    C2 4137   3.243   3.943  10.889 -1.3238  1.0370  0.2345
  274TMC3    C3 4138   3.205   4.027  10.791 -0.1196 -0.3806 -0.7075
  274TMC3    C4 4139   3.298   4.135  11.017 -0.2948  0.3246 -0.2834
  274TMC3    C5 4140   3.270   4.214  10.903 -0.0748  0.0505 -0.2721
  274TMC3    C6 4141   3.226   4.162  10.787 -0.1469  0.7010  0.2625
  274TMC3     C 4142   3.328   3.919  11.116  0.1463 -0.1537 -0.0605
  274TMC3     O 4143   3.429   3.963  11.171  0.0226 -0.2353  0.2690
  274TMC3     H 4144   3.220   3.837  10.886 -2.2630  1.3040 -2.6226
  274TMC3    H1 4145   3.326   4.187  11.107 -1.4187 -1.3182  1.0206
  274TMC3    H2 4146   3.154   4.223  10.733  0.1312 -0.1048 -1.0083
  274TMC3    C7 4147   3.230   4.353  10.926  0.0644  0.2201 -0.1684
  274TMC3    C8 4148   3.087   3.974  10.713  0.3209  0.3223  0.3169
  274TMC3    O1 4149   3.177   4.371  11.035 -0.1849  0.0331  0.2482
  274TMC3    O2 4150   3.019   3.895  10.775  0.4232 -0.8253  0.5274
  275MPD2     C 4151   2.909   1.625  14.581 -0.5116  0.7347 -0.0242
  275MPD2    C1 4152   2.840   1.746  14.560  0.4049  0.8099  0.8973
  275MPD2    C2 4153   2.712   1.752  14.519  1.0296  0.0514  0.2896
  275MPD2    C3 4154   2.637   1.632  14.518 -0.1433 -0.7057 -0.5368
  275MPD2    C4 4155   2.704   1.519  14.547  0.3274 -0.9856  0.1417
  275MPD2    C5 4156   2.840   1.507  14.575  0.1823 -0.3464  0.0412
  275MPD2     H 4157   2.662   1.847  14.506 -1.1019 -1.2824 -1.2418
  275MPD2    H1 4158   2.652   1.424  14.551  1.4533 -1.6297 -0.6474
  275MPD2    H2 4159   3.016   1.622  14.597 -0.8686  0.3998  2.3939
  275MPD2    H3 4160   2.889   1.411  14.583 -1.0309 -0.8171  1.7535
  275MPD2     N 4161   2.500   1.632  14.483 -0.2671  0.0422  0.9356
  275MPD2    H5 4162   2.453   1.542  14.479  1.4513 -0.8223 -0.0885
  275MPD2    N1 4163   2.907   1.874  14.568 -0.4053  0.0350 -0.2894
  275MPD2    H7 4164   2.850   1.952  14.537  2.0072  1.4846 -1.1242
  276TMC3    C1 4165   3.065   2.028  14.653  0.8378  0.0625  0.7932
  276TMC3    C2 4166   2.972   2.124  14.636 -0.4663  0.2669 -0.2570
  276TMC3    C3 4167   2.984   2.242  14.710  0.6329  0.2407  0.1918
  276TMC3    C4 4168   3.174   2.056  14.732  0.0831 -0.2024  0.3376
  276TMC3    C5 4169   3.195   2.182  14.780  0.0401 -0.3004  0.3772
  276TMC3    C6 4170   3.097   2.279  14.777 -0.6200  0.4469 -0.1852
  276TMC3     C 4171   3.034   1.891  14.618 -0.9154 -0.0103 -0.1616
  276TMC3     O 4172   3.121   1.812  14.652 -0.0640 -0.2608  0.3302
  276TMC3     H 4173   2.883   2.119  14.575  1.2408 -0.5088 -2.6618
  276TMC3    H1 4174   3.241   1.973  14.751 -0.4455 -0.9599 -1.1001
  276TMC3    H2 4175   3.124   2.378  14.812  0.6653  0.5928 -1.5856
  276TMC3    C7 4176   3.295   2.199  14.886 -0.0009  0.0011 -0.4688
  276TMC3    C8 4177   2.886   2.341  14.676 -0.1702 -0.4435 -0.3173
  276TMC3    O1 4178   3.284   2.289  14.972  0.1990 -0.0493 -0.3797
  276TMC3    O2 4179   2.926   2.455  14.653 -0.5423 -0.2418  0.4875
  277MPD2     C 4180   0.164   0.488  12.925  0.4228 -0.4538  0.2266
  277MPD2    C1 4181   0.049   0.533  12.974 -0.6573 -0.0514 -0.1691
  277MPD2    C2 4182   0.024   0.524  13.107  0.1943  0.7457  0.4270
  277MPD2    C3 4183   0.124   0.481  13.199 -0.0116 -0.3844 -0.7807
  277MPD2    C4 4184   0.245   0.442  13.156  0.2938  0.4127  0.1958
  277MPD2    C5 4185   0.261   0.442  13.018 -0.3938 -0.2830  0.5313
  277MPD2     H 4186   4.661   0.572  13.153 -0.5881 -1.6419  1.4522
  277MPD2    H1 4187   0.331   0.409  13.212  0.2343  0.6446  0.4240
  277MPD2    H2 4188   0.192   0.510  12.823  0.9330  0.4589  0.5604
  277MPD2    H3 4189   0.357   0.422  12.972  0.4366 -2.3147  3.1450
  277MPD2     N 4190   0.094   0.486  13.335 -0.3490  0.0494  0.0793
  277MPD2    H5 4191   4.722   0.517  13.357 -0.8029 -0.6610 -0.8797
  277MPD2    N1 4192   4.686   0.605  12.892 -0.5501 -0.1355 -0.2984
  277MPD2    H7 4193   4.721   0.610  12.797 -0.0734  1.1880 -0.0460
  278TMC3    C1 4194   0.076   0.426  13.552 -0.7025  0.2775 -0.2567
  278TMC3    C2 4195   0.055   0.309  13.611  0.4793 -0.6255  0.4513
  278TMC3    C3 4196   4.659   0.296  13.682  0.2088  0.1424  0.0933
  278TMC3    C4 4197   4.706   0.530  13.556 -0.2350 -0.2159  0.2481
  278TMC3    C5 4198   4.598   0.515  13.629  0.1716  0.2730 -0.0553
  278TMC3    C6 4199   4.575   0.396  13.697 -0.5839  0.6252 -0.0271
  278TMC3     C 4200   0.162   0.421  13.432 -0.1340 -1.1534  0.1497
  278TMC3     O 4201   0.268   0.360  13.439  0.2792  0.1916 -0.0248
  278TMC3     H 4202   0.125   0.227  13.610  1.2685  0.0487  0.5367
  278TMC3    H1 4203   0.020   0.626  13.523  0.0263  0.0936  1.4472
  278TMC3    H2 4204   4.487   0.390  13.760 -0.1497  1.7057  0.6888
  278TMC3    C7 4205   4.545   0.646  13.672  0.1678 -0.5845  0.0615
  278TMC3    C8 4206   4.630   0.163  13.727  0.0132 -0.6397  0.1860
  278TMC3    O1 4207   4.608   0.748  13.646  0.6548  0.2157  0.4733
  278TMC3    O2 4208   4.717   0.095  13.777 -0.3473 -0.5368 -0.0520
  279MPD2     C 4209   4.305   1.126   0.378 -1.0820  0.0324  0.1484
  279MPD2    C1 4210   4.178   1.180   0.361  0.0901 -0.0570  0.0122
  279MPD2    C2 4211   4.133   1.203   0.232 -0.0059 -0.4582 -0.3441
  279MPD2    C3 4212   4.206   1.173   0.119 -1.3047 -0.0184 -0.1568
  279MPD2    C4 4213   4.333   1.121   0.139  0.5358 -0.4107  0.8738
  279MPD2    C5 4214   4.380   1.094   0.272 -0.1148  0.6611 -0.5883
  279MPD2     H 4215   4.032   1.240   0.221  0.7210  1.4267 -0.5897
  279MPD2    H1 4216   4.395   1.092   0.055  0.5628  1.7018  0.1839
  279MPD2    H2 4217   4.333   1.095   0.478 -0.9656 -0.2347  0.0314
  279MPD2    H3 4218   4.472   1.037   0.275 -0.7750 -0.4380 -1.3689
  279MPD2     N 4219   4.161   1.200  17.684  0.0949  0.2870  0.3786
  279MPD2    H5 4220   4.234   1.204  17.613  2.6325  0.4356  2.9951
  279MPD2    N1 4221   4.100   1.202   0.473 -0.3075  0.0997  0.3174
  279MPD2    H7 4222   4.140   1.173   0.562  1.1723 -1.5527 -0.8804
  280TMC3    C1 4223   3.945   1.311   0.609  0.1401 -0.0648  0.0638
  280TMC3    C2 4224   3.863   1.211   0.633  0.0265  0.2781  0.4316
  280TMC3    C3 4225   3.734   1.240   0.663 -0.0001 -0.4300 -0.2293
  280TMC3    C4 4226   3.901   1.440   0.619 -0.0138  0.2754 -0.3488
  280TMC3    C5 4227   3.771   1.462   0.656  0.1501 -0.8054  0.2447
  280TMC3    C6 4228   3.687   1.365   0.688 -0.2060  0.2614 -0.1955
  280TMC3     C 4229   4.004   1.303   0.474 -0.4130  0.0099 -0.1001
  280TMC3     O 4230   3.985   1.388   0.387 -0.6519  0.0695 -0.5460
  280TMC3     H 4231   3.893   1.112   0.598 -0.8058  0.1030  0.2239
  280TMC3    H1 4232   3.970   1.523   0.628 -0.4096  0.6189 -0.4771
  280TMC3    H2 4233   3.589   1.386   0.730  0.9832  0.0569  2.6585
  280TMC3    C7 4234   3.736   1.599   0.694 -0.7914 -0.1605 -0.0847
  280TMC3    C8 4235   3.644   1.127   0.644 -0.3707 -0.2783  0.6109
  280TMC3    O1 4236   3.832   1.670   0.729 -0.3438  0.1589 -0.2299
  280TMC3    O2 4237   3.521   1.152   0.637 -0.9026  0.4307 -0.2597
  281TMC3    C1 4238   3.131   1.329  13.476  0.5705 -0.7632 -0.4477
  281TMC3    C2 4239   3.183   1.399  13.371 -0.7565  0.2624  0.7428
  281TMC3    C3 4240   3.239   1.326  13.270 -1.2271  0.3188 -0.6499
  281TMC3    C4 4241   3.142   1.189  13.482  1.0523 -0.2686  0.2421
  281TMC3    C5 4242   3.201   1.124  13.379  0.0999  0.1487  0.2426
  281TMC3    C6 4243   3.250   1.192  13.275 -0.5284 -0.0174 -0.6913
  281TMC3     C 4244   3.019   1.391  13.546  0.2168 -0.0549  0.8974
  281TMC3     O 4245   2.985   1.342  13.651  0.1132 -0.8426 -0.0952
  281TMC3     H 4246   3.192   1.507  13.379 -1.5691  0.3064  1.0472
  281TMC3    H1 4247   3.104   1.144  13.574  2.0881 -0.1864  0.7045
  281TMC3    H2 4248   3.298   1.130  13.201  0.6414  0.4380 -0.3014
  281TMC3    C7 4249   3.166   0.980  13.352  0.7458  0.9699  0.1975
  281TMC3    C8 4250   3.321   1.399  13.165  0.6986 -0.1626 -0.2355
  281TMC3    O1 4251   3.232   0.923  13.268  0.2295 -0.2708 -0.4824
  281TMC3    O2 4252   3.430   1.347  13.130 -0.4672 -0.4036  0.3252
  282MPD2     C 4253   4.485   2.842  15.223 -0.3300 -0.3217 -0.7898
  282MPD2    C1 4254   4.352   2.873  15.226 -0.3074 -0.7087 -0.8404
  282MPD2    C2 4255   4.272   2.870  15.112 -0.0391  0.3789 -0.2556
  282MPD2    C3 4256   4.329   2.814  14.999  0.5360  0.5515  0.3786
  282MPD2    C4 4257   4.463   2.769  14.994  0.4014  1.0526 -0.2389
  282MPD2    C5 4258   4.534   2.786  15.110 -0.3783 -0.1878 -0.0480
  282MPD2     H 4259   4.171   2.909  15.118 -0.3356 -0.2550 -1.1919
  282MPD2    H1 4260   4.514   2.723  14.910  1.6196 -0.9681  1.6027
  282MPD2    H2 4261   4.547   2.854  15.311  0.0284 -0.5345 -1.0147
  282MPD2    H3 4262   4.637   2.754  15.120 -0.4012 -1.1359 -2.7788
  282MPD2     N 4263   4.247   2.809  14.885  0.5764  0.6477  0.2814
  282MPD2    H5 4264   4.146   2.817  14.896  0.3766 -3.1844  1.3409
  282MPD2    N1 4265   4.292   2.913  15.345 -0.8102 -0.1142 -0.2500
  282MPD2    H7 4266   4.201   2.956  15.331 -1.0966 -0.5059  0.4091
  283TMC3    C1 4267   4.226   2.915  15.570 -0.2423  0.6170 -0.4887
  283TMC3    C2 4268   4.173   3.040  15.556  0.2136 -0.1554  0.1029
  283TMC3    C3 4269   4.116   3.093  15.666 -0.2275 -0.2309  0.3892
  283TMC3    C4 4270   4.224   2.849  15.682 -0.0211 -0.0686  0.0856
  283TMC3    C5 4271   4.146   2.895  15.783 -0.0700 -0.0302  0.4926
  283TMC3    C6 4272   4.102   3.019  15.781  0.2582 -0.1401  0.0720
  283TMC3     C 4273   4.332   2.874  15.470 -0.0361  0.1039 -0.2003
  283TMC3     O 4274   4.432   2.813  15.512  0.3018 -0.2497  0.3208
  283TMC3     H 4275   4.172   3.095  15.463  1.2507 -1.3235 -0.6033
  283TMC3    H1 4276   4.281   2.756  15.686  1.4369  0.8956  1.5786
  283TMC3    H2 4277   4.047   3.043  15.871  2.3707 -0.3492  1.4019
  283TMC3    C7 4278   4.095   2.792  15.878 -0.3645  0.1433 -0.6381
  283TMC3    C8 4279   4.081   3.237  15.669 -0.2989  0.1574 -0.3879
  283TMC3    O1 4280   4.051   2.822  15.989  0.4018  0.0139  1.2520
  283TMC3    O2 4281   4.019   3.274  15.766 -0.0465 -0.0765 -0.2673
  284MPD2     C 4282   2.875   1.561  11.853 -0.0666 -0.1440  0.6551
  284MPD2    C1 4283   2.750   1.586  11.800  0.4921 -0.3262  0.3744
  284MPD2    C2 4284   2.644   1.501  11.834 -0.1720  0.5653  0.6290
  284MPD2    C3 4285   2.667   1.406  11.936 -0.0765  0.2381  0.5772
  284MPD2    C4 4286   2.796   1.384  11.979  0.1707  0.4744  0.0996
  284MPD2    C5 4287   2.896   1.464  11.943 -0.3282 -0.4723 -0.3618
  284MPD2     H 4288   2.552   1.515  11.778  0.2905 -0.7972 -0.4804
  284MPD2    H1 4289   2.817   1.303  12.048  0.0324 -1.2374 -1.8582
  284MPD2    H2 4290   2.960   1.617  11.817  1.4681 -2.1333  1.1896
  284MPD2    H3 4291   2.994   1.441  11.983  0.3755  1.6779 -0.8189
  284MPD2     N 4292   2.570   1.320  11.986  0.4662 -0.1351 -0.1975
  284MPD2    H5 4293   2.605   1.239  12.036 -0.0228 -0.1735  0.0844
  284MPD2    N1 4294   2.723   1.693  11.714  0.6062 -0.1898  0.0592
  284MPD2    H7 4295   2.628   1.712  11.685 -0.4005 -0.9833  2.8395
  285TMC3    C1 4296   2.775   1.871  11.575 -0.1373 -0.6730 -0.5198
  285TMC3    C2 4297   2.670   1.848  11.491 -0.2143 -0.0122  0.2005
  285TMC3    C3 4298   2.626   1.955  11.420 -0.1431  0.3379 -0.2603
  285TMC3    C4 4299   2.832   1.986  11.596  0.6563  0.0904  0.7171
  285TMC3    C5 4300   2.780   2.093  11.523  0.8341  0.3252 -0.2174
  285TMC3    C6 4301   2.682   2.080  11.434 -0.2270  0.6040  0.7276
  285TMC3     C 4302   2.823   1.779  11.670 -0.4401  0.8604 -0.3876
  285TMC3     O 4303   2.938   1.790  11.709 -0.4040  0.6384  0.0289
  285TMC3     H 4304   2.609   1.758  11.488  0.5255 -0.5444  0.9624
  285TMC3    H1 4305   2.916   1.996  11.665  0.1611 -0.7700  1.4375
  285TMC3    H2 4306   2.647   2.165  11.377  0.4138  0.0341 -0.5274
  285TMC3    C7 4307   2.838   2.227  11.537  0.2882  0.4584  0.5610
  285TMC3    C8 4308   2.583   1.935  11.284  0.4809  0.4211  0.0221
  285TMC3    O1 4309   2.824   2.314  11.451  0.0453 -0.3349  0.2785
  285TMC3    O2 4310   2.529   2.028  11.229  0.3889 -0.0099  0.4247
  286MPD2     C 4311   2.647   0.859   1.469  0.3889  0.4558 -0.5291
  286MPD2    C1 4312   2.633   0.803   1.350 -0.6272 -0.0093 -0.6496
  286MPD2    C2 4313   2.735   0.715   1.311  0.5836 -0.3711 -0.5051
  286MPD2    C3 4314   2.853   0.703   1.384 -0.2731  0.6505 -0.6631
  286MPD2    C4 4315   2.854   0.769   1.502  0.0973  0.0697  0.0140
  286MPD2    C5 4316   2.755   0.854   1.543  0.0915  0.5628 -0.3716
  286MPD2     H 4317   2.723   0.663   1.216 -1.6048  0.1247 -0.4989
  286MPD2    H1 4318   2.939   0.757   1.567  0.8259  0.4986 -0.8517
  286MPD2    H2 4319   2.578   0.925   1.520 -0.8854 -1.7761  0.5913
  286MPD2    H3 4320   2.766   0.915   1.632 -0.1649  2.4968 -1.6830
  286MPD2     N 4321   2.959   0.613   1.349 -0.4454  0.1272 -0.0248
  286MPD2    H5 4322   3.033   0.618   1.419  0.7337 -1.6341 -1.1730
  286MPD2    N1 4323   2.522   0.824   1.257  0.4127 -0.0327  0.1842
  286MPD2    H7 4324   2.539   0.785   1.165  1.5063 -1.2035  0.8826
  287TMC3    C1 4325   3.098   0.474   1.209  0.2464  0.0735 -0.5430
  287TMC3    C2 4326   3.111   0.415   1.085  0.5300 -0.1321 -0.4589
  287TMC3    C3 4327   3.235   0.381   1.050 -0.0777  0.8635  0.6076
  287TMC3    C4 4328   3.203   0.494   1.291  0.5003 -0.4204  0.5552
  287TMC3    C5 4329   3.326   0.444   1.255  0.2619  0.0871  0.0777
  287TMC3    C6 4330   3.341   0.397   1.131  0.1392 -0.4594 -0.1434
  287TMC3     C 4331   2.969   0.532   1.239 -0.1624 -0.3331  0.4614
  287TMC3     O 4332   2.889   0.518   1.146  0.0367  0.3322  0.3454
  287TMC3     H 4333   3.035   0.398   1.009 -0.9624 -0.0691  1.0077
  287TMC3    H1 4334   3.180   0.519   1.394 -1.9377 -2.2529  0.4305
  287TMC3    H2 4335   3.439   0.361   1.100 -0.1516 -1.4055  0.0281
  287TMC3    C7 4336   3.438   0.489   1.334 -0.5673  0.0939 -0.3174
  287TMC3    C8 4337   3.252   0.287   0.937  0.1884  0.7310  0.6805
  287TMC3    O1 4338   3.414   0.578   1.415  0.1649 -0.1966  0.5756
  287TMC3    O2 4339   3.154   0.223   0.905 -0.1496  0.0053 -0.4537
  288TMC3    C1 4340   0.408   0.475  14.582 -0.1432  0.3379  0.1734
  288TMC3    C2 4341   0.279   0.511  14.595  0.1829  0.4283  0.0708
  288TMC3    C3 4342   0.232   0.599  14.501  0.5382 -0.4872 -0.3149
  288TMC3    C4 4343   0.490   0.514  14.477  0.3489 -0.0200  0.0639
  288TMC3    C5 4344   0.439   0.619  14.399 -0.3853  0.5577 -0.2918
  288TMC3    C6 4345   0.311   0.664  14.411  0.3574  0.4078  0.5783
  288TMC3     C 4346   0.443   0.363  14.664 -0.0160  0.0548 -0.0805
  288TMC3     O 4347   0.357   0.279  14.689 -0.0169 -0.3918  0.0456
  288TMC3     H 4348   0.212   0.463  14.666  0.2907  1.8246  1.1137
  288TMC3    H1 4349   0.581   0.463  14.446  0.1003 -0.3056 -0.2012
  288TMC3    H2 4350   0.267   0.739  14.346 -1.0945  0.1581  1.2863
  288TMC3    C7 4351   0.510   0.638  14.278  0.2415 -0.4827  0.4308
  288TMC3    C8 4352   0.098   0.662  14.512  0.2312  0.2758  0.0859
  288TMC3    O1 4353   0.629   0.612  14.278  0.1451 -0.2286  0.0952
  288TMC3    O2 4354   0.083   0.776  14.474  0.3759  0.2945  0.2660
  289MPD2     C 4355   0.101   4.624  14.325 -0.1356 -0.4503 -0.1134
  289MPD2    C1 4356   0.076   4.563  14.201  0.4274  0.5539 -0.2098
  289MPD2    C2 4357   4.668   4.520  14.174  0.4861  0.4258 -0.1300
  289MPD2    C3 4358   4.562   4.544  14.263  0.2046 -0.0205  0.4855
  289MPD2    C4 4359   4.591   4.595  14.386  0.7844  0.1234 -0.0649
  289MPD2    C5 4360   0.003   4.633  14.413  0.3839 -0.7051 -0.0098
  289MPD2     H 4361   4.647   4.482  14.075 -0.0352  1.5827 -0.4655
  289MPD2    H1 4362   4.512   4.603  14.459  0.8611 -1.5181  0.1978
  289MPD2    H2 4363   0.196   4.672  14.346 -0.8672  0.0376  2.0842
  289MPD2    H3 4364   0.026   4.665  14.514 -1.5052 -1.3671  0.6241
  289MPD2     N 4365   4.426   4.537  14.228 -0.3206 -0.7288 -0.3333
  289MPD2    H5 4366   4.356   4.590  14.279 -1.1622 -3.5750  1.4990
  289MPD2    N1 4367   0.175   4.569  14.107  0.5522 -0.2488  0.1299
  289MPD2    H7 4368   0.255   4.625  14.133 -0.3892  1.1956 -0.1069
  290TMC3    C1 4369   4.252   4.506  14.064 -0.5944 -0.1483 -0.6557
  290TMC3    C2 4370   4.198   4.622  14.097 -0.1926  0.3105  0.1328
  290TMC3    C3 4371   4.069   4.646  14.039 -0.0282 -0.9123  0.9865
  290TMC3    C4 4372   4.211   4.422  13.967 -0.2428  0.2245 -0.3851
  290TMC3    C5 4373   4.088   4.453  13.912  0.2830 -0.2618  0.3861
  290TMC3    C6 4374   4.017   4.566  13.944 -0.0934 -0.3348  0.3788
  290TMC3     C 4375   4.383   4.466  14.118 -0.3756  0.1912 -0.1911
  290TMC3     O 4376   4.447   4.371  14.072  0.7513 -0.5236  0.4265
  290TMC3     H 4377   4.257   4.697  14.147  0.1527 -0.6534  1.1790
  290TMC3    H1 4378   4.265   4.333  13.936  1.6516  1.3198 -0.2473
  290TMC3    H2 4379   3.928   4.589  13.888  0.8370  1.9231 -0.1789
  290TMC3    C7 4380   4.001   4.338  13.917  0.6160  0.6341  0.1503
  290TMC3    C8 4381   4.000   0.041  14.079 -0.3613  0.0101  0.2614
  290TMC3    O1 4382   3.888   4.362  13.883  0.2274 -0.2092 -0.2983
  290TMC3    O2 4383   3.881   0.047  14.043  0.1370  0.0751  0.2838
  291MPD2     C 4384   4.067   0.071   0.366  0.1148  0.5255  0.2160
  291MPD2    C1 4385   3.949   0.053   0.303 -0.4716  0.4372  0.2624
  291MPD2    C2 4386   3.914   0.121   0.191  0.1880  0.1151 -0.2576
  291MPD2    C3 4387   4.008   0.214   0.139 -0.3348 -0.0215  0.3004
  291MPD2    C4 4388   4.116   0.244   0.215 -0.2086 -0.0595  0.2475
  291MPD2    C5 4389   4.150   0.169   0.318  0.3842 -0.0999  0.7257
  291MPD2     H 4390   3.822   0.092   0.142  0.2169  0.9956 -0.8298
  291MPD2    H1 4391   4.182   0.323   0.181  1.0922 -0.9659  0.6600
  291MPD2    H2 4392   4.093   0.013   0.454  0.1453 -0.0501 -0.1789
  291MPD2    H3 4393   4.240   0.186   0.376  1.0605  0.5440 -0.5064
  291MPD2     N 4394   3.993   0.261   0.007  0.1612 -0.0694 -0.3094
  291MPD2    H5 4395   4.072   0.304  17.654  0.5293  1.2275  1.4878
  291MPD2    N1 4396   3.880   4.661   0.349 -0.6371 -0.3299  0.0575
  291MPD2    H7 4397   3.934   4.589   0.398  0.3114 -0.8806 -1.7887
  292TMC3    C1 4398   3.741   4.483   0.310  0.2832  0.0770 -0.9253
  292TMC3    C2 4399   3.840   4.408   0.369 -1.1439 -0.3169 -0.1620
  292TMC3    C3 4400   3.842   4.274   0.341  0.2171 -0.3391  0.0580
  292TMC3    C4 4401   3.645   4.439   0.228  0.1990 -0.0304 -0.6036
  292TMC3    C5 4402   3.654   4.307   0.200 -0.3538 -0.4857  0.5636
  292TMC3    C6 4403   3.742   4.224   0.265  0.0326  0.2034 -0.9934
  292TMC3     C 4404   3.754   4.627   0.310  0.4095 -0.8064  0.2141
  292TMC3     O 4405   3.665   4.692   0.257  0.0791  0.4407 -0.7011
  292TMC3     H 4406   3.906   4.445   0.447 -2.3977  0.3328  0.5932
  292TMC3    H1 4407   3.554   4.490   0.196 -0.8064 -0.2552  1.8659
  292TMC3    H2 4408   3.740   4.117   0.250 -0.4586 -0.2218  2.0813
  292TMC3    C7 4409   3.535   4.241   0.140  0.5580 -0.0105 -0.1918
  292TMC3    C8 4410   3.913   4.186   0.431  0.0910 -0.2715  0.7470
  292TMC3    O1 4411   3.433   4.309   0.138  0.2529 -0.4647  0.1380
  292TMC3    O2 4412   4.014   4.235   0.484 -0.0110  0.5457 -0.1078
  293MPD2     C 4413   1.319   0.986  12.638  0.3744  1.4029  0.0698
  293MPD2    C1 4414   1.292   0.862  12.685 -0.4225 -0.1846 -0.5881
  293MPD2    C2 4415   1.331   0.829  12.813  0.1880 -0.0545  0.2638
  293MPD2    C3 4416   1.395   0.928  12.892  0.2289 -0.0936 -0.1951
  293MPD2    C4 4417   1.426   1.052  12.840 -0.2371 -0.8920  0.2765
  293MPD2    C5 4418   1.393   1.076  12.710  0.5354  0.1678 -0.5204
  293MPD2     H 4419   1.297   0.742  12.867  2.0014 -0.5160  0.6490
  293MPD2    H1 4420   1.477   1.128  12.898 -1.3366 -0.2581  0.4082
  293MPD2    H2 4421   1.285   1.020  12.541 -2.2365  1.1607  0.9091
  293MPD2    H3 4422   1.424   1.166  12.659 -0.3019  0.5863 -0.2931
  293MPD2     N 4423   1.396   0.888  13.030 -0.2173 -1.0279 -0.2526
  293MPD2    H5 4424   1.357   0.801  13.065  0.2839 -1.5983 -1.1122
  293MPD2    N1 4425   1.206   0.786  12.604 -0.6025 -0.3743  0.3475
  293MPD2    H7 4426   1.192   0.821  12.510 -0.6469 -0.8672  0.1713
  294TMC3    C1 4427   1.060   0.606  12.540  0.2530  0.0283 -0.6314
  294TMC3    C2 4428   0.947   0.546  12.580 -0.4450 -0.1298  0.5341
  294TMC3    C3 4429   0.853   0.524  12.489  0.2596 -0.6763  0.3696
  294TMC3    C4 4430   1.083   0.642  12.413  0.4315  0.1663 -0.0630
  294TMC3    C5 4431   0.983   0.618  12.316  0.2455 -0.0788  0.1840
  294TMC3    C6 4432   0.870   0.560  12.360  0.7510  0.5792  0.0533
  294TMC3     C 4433   1.145   0.667  12.643  0.4741  0.1378 -0.3516
  294TMC3     O 4434   1.138   0.623  12.755 -0.0954  0.1520  0.2482
  294TMC3     H 4435   0.923   0.531  12.685  0.8778 -1.3395  0.6481
  294TMC3    H1 4436   1.181   0.682  12.392  0.7708 -0.3618  0.5141
  294TMC3    H2 4437   0.810   0.530  12.275  1.0939  0.9091 -0.3064
  294TMC3    C7 4438   1.006   0.633  12.173 -0.6499 -0.1110  0.5704
  294TMC3    C8 4439   0.722   0.477  12.538  0.0651 -0.4236  0.2301
  294TMC3    O1 4440   0.903   0.636  12.099  0.2396  0.2518  0.6074
  294TMC3    O2 4441   0.719   0.442  12.653 -0.6655  0.3173  0.1505
  295MPD2     C 4442   0.690   4.205  17.367  0.4253 -0.1087 -0.0852
  295MPD2    C1 4443   0.809   4.265  17.398 -0.6542 -0.0953  0.2676
  295MPD2    C2 4444   0.822   4.326  17.524 -0.4979 -0.3867  0.1229
  295MPD2    C3 4445   0.717   4.324  17.616  0.1990  0.5421 -0.5333
  295MPD2    C4 4446   0.610   4.252  17.591 -0.1870 -0.1951 -0.2884
  295MPD2    C5 4447   0.603   4.183  17.468 -0.1088  0.4639 -0.1103
  295MPD2     H 4448   0.910   4.383  17.553  0.5167 -1.9118  0.0649
  295MPD2    H1 4449   0.525   4.250  17.658 -0.0343  1.0239 -0.0592
  295MPD2    H2 4450   0.664   4.164  17.270  1.4739 -1.2535  0.1278
  295MPD2    H3 4451   0.517   4.125  17.438  0.2601  1.5836 -3.3654
  295MPD2     N 4452   0.726   4.383   0.055  0.2420  1.0989 -0.1909
  295MPD2    H5 4453   0.643   4.376   0.112  0.7140  1.2682  0.5245
  295MPD2    N1 4454   0.911   4.300  17.306  0.1687  0.1721  1.0731
  295MPD2    H7 4455   0.984   4.355  17.349  0.6418  0.0789  0.3893
  296TMC3    C1 4456   0.796   4.514   0.238 -0.3306  0.2573  0.6718
  296TMC3    C2 4457   0.863   4.633   0.279  0.0077  0.1738 -0.7534
  296TMC3    C3 4458   0.822   4.686   0.401  0.4602  0.4893 -0.4084
  296TMC3    C4 4459   0.705   4.450   0.319  0.2079  0.2653 -0.0568
  296TMC3    C5 4460   0.668   4.507   0.439 -0.7453 -0.8800  0.1485
  296TMC3    C6 4461   0.734   4.624   0.480  0.5412  0.0830  0.4911
  296TMC3     C 4462   0.824   4.465   0.108  0.3244 -0.4026  0.4176
  296TMC3     O 4463   0.921   4.516   0.055 -0.7129  0.7192  0.0933
  296TMC3     H 4464   0.926   4.686   0.208 -0.6223  2.0992  0.1432
  296TMC3    H1 4465   0.666   4.355   0.284  2.0060 -0.1575 -0.9515
  296TMC3    H2 4466   0.689   4.681   0.560  0.7836  1.1444 -0.1242
  296TMC3    C7 4467   0.569   4.455   0.524  0.0204  0.1482 -0.2248
  296TMC3    C8 4468   0.882   0.088   0.437  0.6987  0.5434  0.1613
  296TMC3    O1 4469   0.485   4.383   0.465  0.1649  0.2368 -0.5560
  296TMC3    O2 4470   0.929   0.155   0.346  0.2420 -0.6780 -0.0782
  297MPD2     C 4471   3.586   1.471  16.595  0.4121  0.0225 -0.0701
  297MPD2    C1 4472   3.551   1.526  16.475 -0.2640  0.4874  0.0741
  297MPD2    C2 4473   3.609   1.648  16.432 -0.5112 -0.1755 -0.1590
  297MPD2    C3 4474   3.705   1.711  16.508 -0.1213  0.0884  0.4382
  297MPD2    C4 4475   3.744   1.642  16.621  0.4469  0.4635  0.1434
  297MPD2    C5 4476   3.680   1.530  16.670 -0.5640 -0.2225  0.2787
  297MPD2     H 4477   3.575   1.687  16.337 -2.8487 -4.1118 -0.9262
  297MPD2    H1 4478   3.817   1.688  16.685 -0.6084  0.9114  1.0181
  297MPD2    H2 4479   3.542   1.375  16.622 -3.1551  1.6887  0.1291
  297MPD2    H3 4480   3.707   1.490  16.767 -0.8760  0.6814  0.7357
  297MPD2     N 4481   3.756   1.836  16.473  0.3097  0.4979  0.0209
  297MPD2    H5 4482   3.728   1.877  16.384 -0.2587 -0.8383 -0.4005
  297MPD2    N1 4483   3.447   1.479  16.389  0.0206  0.3497 -0.3082
  297MPD2    H7 4484   3.411   1.538  16.315  0.9823  0.7087 -0.4998
  298TMC3    C1 4485   3.254   1.384  16.335  0.5424 -0.1108  0.2228
  298TMC3    C2 4486   3.258   1.425  16.205  0.3553 -0.4023 -0.2000
  298TMC3    C3 4487   3.139   1.419  16.139 -0.2688 -0.1746 -0.2703
  298TMC3    C4 4488   3.129   1.368  16.395  0.4485 -0.9318 -0.1266
  298TMC3    C5 4489   3.008   1.388  16.331  0.3204  0.0648  0.0266
  298TMC3    C6 4490   3.015   1.412  16.201 -0.5639  0.5332 -1.0829
  298TMC3     C 4491   3.368   1.369  16.418 -0.1037 -0.1713 -0.5685
  298TMC3     O 4492   3.362   1.293  16.514 -0.2878 -0.2353  0.0480
  298TMC3     H 4493   3.354   1.443  16.157  1.6271  2.1926  3.3496
  298TMC3    H1 4494   3.122   1.355  16.503  1.4304 -1.1007 -0.0792
  298TMC3    H2 4495   2.924   1.420  16.143 -1.4081 -0.7408  0.0447
  298TMC3    C7 4496   2.917   1.480  16.408  0.1424  0.6017 -0.4242
  298TMC3    C8 4497   3.131   1.474  16.000  0.3836  0.6588  0.2887
  298TMC3    O1 4498   2.924   1.486  16.529 -0.1900  0.5577 -0.1711
  298TMC3    O2 4499   3.045   1.441  15.919  0.0622 -0.5462  0.0596
  299MPD2     C 4500   4.191   1.499  10.213  0.5671  0.1458  0.5839
  299MPD2    C1 4501   4.142   1.395  10.280  0.2045 -0.4193 -0.3327
  299MPD2    C2 4502   4.032   1.323  10.226  0.6948 -0.1995 -0.3124
  299MPD2    C3 4503   3.968   1.355  10.108  0.2160 -0.8391  0.3257
  299MPD2    C4 4504   4.029   1.448  10.032  0.5628  0.7615  1.2030
  299MPD2    C5 4505   4.135   1.516  10.086 -0.0920 -0.5357  0.2606
  299MPD2     H 4506   3.996   1.235  10.279 -0.9743  1.0806  0.6490
  299MPD2    H1 4507   3.996   1.473   9.932 -2.4120  0.3077  2.0532
  299MPD2    H2 4508   4.266   1.570  10.247  1.4998  0.2130 -1.6087
  299MPD2    H3 4509   4.185   1.592  10.026  0.5288 -1.3518 -0.2612
  299MPD2     N 4510   3.855   1.291  10.053 -0.5083 -0.9085  0.0712
  299MPD2    H5 4511   3.813   1.332   9.971 -1.3076 -0.2981  0.7818
  299MPD2    N1 4512   4.192   1.373  10.411 -0.3192 -0.1154 -0.1412
  299MPD2    H7 4513   4.267   1.437  10.434  2.0258 -2.4256 -1.2836
  300TMC3    C1 4514   3.654   1.163  10.063 -1.0626 -0.1105  0.6570
  300TMC3    C2 4515   3.581   1.265   9.998  0.5823  0.5149 -0.7853
  300TMC3    C3 4516   3.443   1.252   9.982  0.1537 -0.4308 -0.4822
  300TMC3    C4 4517   3.594   1.041  10.083  0.0668 -0.3144 -0.5814
  300TMC3    C5 4518   3.460   1.035  10.063 -0.6646 -0.7738 -0.4287
  300TMC3    C6 4519   3.376   1.138  10.015 -0.2978 -0.0886  0.1992
  300TMC3     C 4520   3.784   1.192  10.113  0.6773  0.4545  0.1538
  300TMC3     O 4521   3.801   1.135  10.217  0.3206 -0.6767  0.5296
  300TMC3     H 4522   3.624   1.362   9.977 -1.0216  0.8494 -2.6350
  300TMC3    H1 4523   3.647   0.959  10.129 -0.5692  0.2242  1.1276
  300TMC3    H2 4524   3.268   1.138  10.010 -0.2067  1.8660 -1.8464
  300TMC3    C7 4525   3.395   0.924  10.134  0.3981 -0.2267  0.8636
  300TMC3    C8 4526   3.381   1.380   9.997  0.4693  0.6656  0.5663
  300TMC3    O1 4527   3.437   0.807  10.126 -0.2405  0.2452  0.7785
  300TMC3    O2 4528   3.320   1.427   9.900 -0.6990  0.5996  0.0766
  301MPD2     C 4529   0.572   2.510   1.532 -0.3496  0.3379 -0.1164
  301MPD2    C1 4530   0.666   2.574   1.452 -0.5453 -0.2686 -0.3665
  301MPD2    C2 4531   0.760   2.498   1.381  0.4235  0.0721 -0.0480
  301MPD2    C3 4532   0.770   2.360   1.393 -0.2847 -0.1365  0.7363
  301MPD2    C4 4533   0.668   2.297   1.457  0.1921 -0.2756 -0.4024
  301MPD2    C5 4534   0.574   2.378   1.522  0.6711  0.3264 -0.7662
  301MPD2     H 4535   0.830   2.553   1.319 -0.4563  0.1530 -0.9671
  301MPD2    H1 4536   0.662   2.188   1.461 -1.1137 -0.1963 -0.2699
  301MPD2    H2 4537   0.495   2.560   1.590 -0.7140  1.2589 -1.3863
  301MPD2    H3 4538   0.489   2.331   1.570  3.0971 -2.3106  0.8732
  301MPD2     N 4539   0.883   2.289   1.340  0.1226  0.3021  0.1355
  301MPD2    H5 4540   0.945   2.354   1.295  3.3353 -3.6972 -1.2062
  301MPD2    N1 4541   0.663   2.705   1.412  0.0556  0.4936 -0.2419
  301MPD2    H7 4542   0.745   2.736   1.359 -0.5773  1.3253 -0.7423
  302TMC3    C1 4543   1.043   2.124   1.303 -0.4552  0.3577 -0.2861
  302TMC3    C2 4544   1.074   1.999   1.276  0.3869  0.2095  0.3802
  302TMC3    C3 4545   1.185   1.958   1.208  0.2634  0.1571  0.6393
  302TMC3    C4 4546   1.131   2.224   1.263  0.4739  0.9692 -0.0378
  302TMC3    C5 4547   1.244   2.187   1.192 -0.1553  0.0481  0.1113
  302TMC3    C6 4548   1.277   2.058   1.178 -0.1605 -0.1812  0.4070
  302TMC3     C 4549   0.921   2.159   1.366 -0.0960  0.1483 -0.3977
  302TMC3     O 4550   0.855   2.067   1.413  0.4220  0.1104  0.4691
  302TMC3     H 4551   1.009   1.924   1.320  1.4025 -0.5399  0.5975
  302TMC3    H1 4552   1.113   2.329   1.280 -1.3824  0.6757 -0.2296
  302TMC3    H2 4553   1.365   2.032   1.121  0.8272 -0.8737  2.2514
  302TMC3    C7 4554   1.342   2.285   1.149 -0.7963 -0.2093  0.6192
  302TMC3    C8 4555   1.230   1.823   1.199  0.9063 -0.0812  0.3280
  302TMC3    O1 4556   1.461   2.278   1.164  0.5821  0.3205  0.5281
  302TMC3    O2 4557   1.351   1.799   1.188 -0.4484 -0.6246  0.0743
  303MPD2     C 4558   1.589   0.835  10.103  0.2316  0.9483 -0.3802
  303MPD2    C1 4559   1.468   0.864  10.162 -0.1524 -0.4489  0.6310
  303MPD2    C2 4560   1.381   0.961  10.114 -0.4151  0.0513 -0.8699
  303MPD2    C3 4561   1.418   1.023   9.996 -0.2942 -0.4217 -0.0362
  303MPD2    C4 4562   1.551   1.011   9.949  0.2136 -0.4583  0.0315
  303MPD2    C5 4563   1.634   0.911  10.004 -0.2008 -0.5859  0.4788
  303MPD2     H 4564   1.284   0.988  10.155 -0.5681 -1.0411 -0.5077
  303MPD2    H1 4565   1.587   1.071   9.866 -1.8550 -0.5097 -0.9206
  303MPD2    H2 4566   1.644   0.747  10.137  1.1017  0.9934 -1.6971
  303MPD2    H3 4567   1.735   0.890   9.972  0.2127  0.5259  1.0516
  303MPD2     N 4568   1.332   1.112   9.929 -0.3397 -0.1673 -0.4575
  303MPD2    H5 4569   1.374   1.156   9.847  2.3447  1.7393  1.9327
  303MPD2    N1 4570   1.425   0.779  10.266 -0.2456 -0.2096  0.2168
  303MPD2    H7 4571   1.480   0.694  10.277  0.7020  0.6805  2.3930
  304TMC3    C1 4572   1.257   0.672  10.390  0.3625 -0.9267 -0.2348
  304TMC3    C2 4573   1.190   0.672  10.506  0.5090 -0.0665 -0.3489
  304TMC3    C3 4574   1.128   0.554  10.547 -0.3454 -0.2076  0.0525
  304TMC3    C4 4575   1.281   0.557  10.320  0.3744 -0.0837  0.4836
  304TMC3    C5 4576   1.222   0.440  10.360  0.1670  0.5640  0.1523
  304TMC3    C6 4577   1.145   0.437  10.472  0.3092  0.5359 -0.8558
  304TMC3     C 4578   1.308   0.797  10.339  0.0777  0.1500 -0.8038
  304TMC3     O 4579   1.228   0.890  10.346 -0.3858 -0.2350 -0.1684
  304TMC3     H 4580   1.173   0.765  10.559 -0.4031  0.0052 -0.7790
  304TMC3    H1 4581   1.311   0.565  10.216  2.2855 -2.0998  0.8771
  304TMC3    H2 4582   1.122   0.336  10.506 -0.6267  1.0174 -0.0697
  304TMC3    C7 4583   1.141   0.357  10.267  0.8064 -0.0914 -0.5864
  304TMC3    C8 4584   0.992   0.579  10.593  0.0757 -0.3808 -0.2365
  304TMC3    O1 4585   1.032   0.325  10.310 -0.6719 -0.9262 -0.3244
  304TMC3    O2 4586   0.965   0.680  10.659 -0.2610 -0.5789  0.3665
  305MPD2     C 4587   4.064   2.555  14.003 -0.4654  0.3326  0.5968
  305MPD2    C1 4588   4.172   2.614  13.932  0.2304 -0.8026 -0.3903
  305MPD2    C2 4589   4.192   2.590  13.792 -0.1951  0.2904  0.6254
  305MPD2    C3 4590   4.102   2.507  13.721  0.5638 -0.1455  0.4087
  305MPD2    C4 4591   3.990   2.459  13.794  0.2412 -0.6686  0.2526
  305MPD2    C5 4592   3.979   2.476  13.934 -0.7834 -0.1247  0.1905
  305MPD2     H 4593   4.270   2.644  13.740 -0.2533 -0.0151  0.2213
  305MPD2    H1 4594   3.910   2.401  13.748 -1.1297  1.7949 -0.4640
  305MPD2    H2 4595   4.041   2.571  14.108  0.4056 -0.4105  0.9059
  305MPD2    H3 4596   3.893   2.436  13.986 -2.0911  0.5103 -1.4934
  305MPD2     N 4597   4.103   2.471  13.582 -0.1866 -0.4079  0.5320
  305MPD2    H5 4598   4.024   2.411  13.560  0.6278 -0.8363 -1.2586
  305MPD2    N1 4599   4.258   2.698  14.009  0.4506  0.4844 -0.0489
  305MPD2    H7 4600   4.233   2.701  14.107  1.5227 -0.7235  0.2548
  306TMC3    C1 4601   4.445   2.815  14.081 -0.6371  0.2713  0.5172
  306TMC3    C2 4602   4.586   2.809  14.084 -1.1523 -0.3599 -0.4541
  306TMC3    C3 4603   4.639   2.862  14.197 -0.0688  0.0560 -0.3255
  306TMC3    C4 4604   4.376   2.893  14.173  0.1975 -0.4927 -0.5436
  306TMC3    C5 4605   4.447   2.958  14.274 -0.5518  0.0296 -0.6118
  306TMC3    C6 4606   4.584   2.944  14.286  0.2101 -0.3773 -0.8696
  306TMC3     C 4607   4.377   2.748  13.972 -0.4555  0.2730 -0.0943
  306TMC3     O 4608   4.455   2.706  13.883  0.3197  0.8311  0.5636
  306TMC3     H 4609   4.651   2.751  14.019  1.2782  2.2700 -0.3664
  306TMC3    H1 4610   4.269   2.901  14.179  0.2376 -0.1651 -0.2355
  306TMC3    H2 4611   4.621   2.973  14.383  0.2917  0.1801 -1.0673
  306TMC3    C7 4612   4.367   3.043  14.364  0.0662  0.8534  0.5071
  306TMC3    C8 4613   0.052   2.823  14.232  0.1391  0.6394 -0.7132
  306TMC3    O1 4614   4.249   3.010  14.378 -0.3118 -0.4532 -0.2208
  306TMC3    O2 4615   0.103   2.728  14.170  0.7390 -0.0549  0.2337
  307MPD2     C 4616   2.193   0.416   0.158  0.0767 -0.0604  0.1719
  307MPD2    C1 4617   2.135   0.536   0.197  0.1982 -0.3638  0.0705
  307MPD2    C2 4618   2.017   0.532   0.268  0.3639  0.1827 -0.1686
  307MPD2    C3 4619   1.956   0.414   0.308  0.3611  0.0092  0.4122
  307MPD2    C4 4620   2.024   0.293   0.279 -0.1000 -0.7945  0.5785
  307MPD2    C5 4621   2.143   0.292   0.209 -0.8102 -0.4096 -0.2485
  307MPD2     H 4622   1.965   0.625   0.286  1.9004  1.2128 -1.0986
  307MPD2    H1 4623   1.987   0.197   0.315 -0.6440 -0.2158  1.5296
  307MPD2    H2 4624   2.284   0.413   0.099  0.5885 -0.2965  0.9671
  307MPD2    H3 4625   2.200   0.204   0.180 -0.8182 -0.7751  0.8550
  307MPD2     N 4626   1.837   0.418   0.383  0.0890 -0.0306 -0.6091
  307MPD2    H5 4627   1.795   0.333   0.421 -1.8558  0.8109 -0.8596
  307MPD2    N1 4628   2.182   0.661   0.149  0.1862  0.0393  0.3608
  307MPD2    H7 4629   2.133   0.739   0.192  1.4676  2.0231 -1.7943
  308TMC3    C1 4630   1.444   0.397   0.497  0.0460 -0.1541  0.1351
  308TMC3    C2 4631   1.401   0.475   0.607  0.0430 -0.0457 -0.1770
  308TMC3    C3 4632   1.488   0.572   0.653  0.1274 -0.1545  0.2656
  308TMC3    C4 4633   1.573   0.414   0.448 -0.1091 -0.5451  0.1207
  308TMC3    C5 4634   1.658   0.500   0.507  0.1577 -0.1370 -0.4015
  308TMC3    C6 4635   1.614   0.585   0.606  0.0114  0.0021  0.6322
  308TMC3     C 4636   1.347   0.398   0.392  0.2804 -0.0145  0.4727
  308TMC3     O 4637   1.304   0.293   0.352  0.0392  0.1384  0.2901
  308TMC3     H 4638   1.300   0.479   0.645  0.8702 -0.7370  2.0710
  308TMC3    H1 4639   1.599   0.349   0.365 -0.0631 -0.1880 -0.1441
  308TMC3    H2 4640   1.686   0.657   0.644  2.4721 -0.2945 -3.5448
  308TMC3    C7 4641   1.774   0.535   0.432  0.2289 -0.4721 -0.4379
  308TMC3    C8 4642   1.431   0.673   0.739 -0.3802 -0.4778  0.2585
  308TMC3    O1 4643   1.810   0.652   0.428  0.1291 -0.2215  0.2041
  308TMC3    O2 4644   1.348   0.632   0.817 -0.4440  0.6654 -0.2250
  309MPD2     C 4645   1.343   1.455  16.996 -0.2230  0.1329  0.8810
  309MPD2    C1 4646   1.278   1.519  16.891  0.6447 -0.6726 -0.4514
  309MPD2    C2 4647   1.155   1.574  16.907  0.4879  0.2565 -0.3919
  309MPD2    C3 4648   1.084   1.557  17.022 -0.1126  0.4524  0.4871
  309MPD2    C4 4649   1.136   1.472  17.110  0.1359 -0.3733  0.6214
  309MPD2    C5 4650   1.268   1.425  17.103  0.3484 -1.0612  0.0761
  309MPD2     H 4651   1.114   1.637  16.829  1.1546  0.5113 -0.5423
  309MPD2    H1 4652   1.065   1.446  17.188  0.6864 -1.8329  0.6357
  309MPD2    H2 4653   1.445   1.418  16.995 -0.1331  0.3942  0.2830
  309MPD2    H3 4654   1.303   1.366  17.186 -0.2022  1.0396  1.7982
  309MPD2     N 4655   0.964   1.620  17.045 -0.4750  0.5997 -0.0615
  309MPD2    H5 4656   0.919   1.588  17.130 -0.3653  1.3387  0.2781
  309MPD2    N1 4657   1.346   1.548  16.771 -0.0505  0.6573 -0.6500
  309MPD2    H7 4658   1.289   1.589  16.698 -1.2145  0.7344  0.2933
  310TMC3    C1 4659   1.494   1.517  16.601  0.0774  0.2295 -0.5151
  310TMC3    C2 4660   1.448   1.623  16.535  0.1640  0.2745  0.3033
  310TMC3    C3 4661   1.491   1.648  16.406 -0.2547 -0.2042  0.6734
  310TMC3    C4 4662   1.597   1.445  16.552 -0.7299  0.0993 -0.6810
  310TMC3    C5 4663   1.648   1.474  16.429  0.5184 -0.6503 -1.0903
  310TMC3    C6 4664   1.594   1.571  16.353 -0.7326  0.1216 -0.1300
  310TMC3     C 4665   1.470   1.509  16.747 -0.0583 -0.2803  0.0775
  310TMC3     O 4666   1.561   1.450  16.810  0.0343  0.0115  0.0765
  310TMC3     H 4667   1.366   1.680  16.579 -0.6229 -1.5597  1.1950
  310TMC3    H1 4668   1.638   1.356  16.598 -3.1839 -0.6078  0.1453
  310TMC3    H2 4669   1.627   1.588  16.251 -0.5529  0.7677  0.0325
  310TMC3    C7 4670   1.736   1.377  16.367 -0.6145 -0.3430  0.4868
  310TMC3    C8 4671   1.398   1.723  16.326  0.3003  0.1107  0.4101
  310TMC3    O1 4672   1.729   1.267  16.423 -0.8490  0.1011 -0.3066
  310TMC3    O2 4673   1.283   1.716  16.363  0.0721  0.0533 -0.6632
  311MPD2     C 4674   3.405   2.023  12.826 -0.2144 -0.1931  0.0611
  311MPD2    C1 4675   3.399   2.164  12.827 -0.0574  0.0814  0.0146
  311MPD2    C2 4676   3.282   2.229  12.874 -0.6664 -0.0014  0.2693
  311MPD2    C3 4677   3.173   2.156  12.914 -0.0230 -0.2326  0.0560
  311MPD2    C4 4678   3.178   2.013  12.910  0.3750 -0.7711  0.2503
  311MPD2    C5 4679   3.294   1.952  12.871  0.3898  0.7085 -0.3694
  311MPD2     H 4680   3.290   2.336  12.882  1.2411 -0.3343  3.0903
  311MPD2    H1 4681   3.099   1.948  12.944 -1.0649 -0.4622 -2.4719
  311MPD2    H2 4682   3.492   1.962  12.806  0.9410  1.8928 -1.2758
  311MPD2    H3 4683   3.295   1.843  12.865 -0.5625  0.7187 -0.7776
  311MPD2     N 4684   3.064   2.237  12.952 -0.6232  0.3051 -0.0730
  311MPD2    H5 4685   3.076   2.337  12.956  0.5342  0.1392  0.4859
  311MPD2    N1 4686   3.510   2.242  12.777 -0.0575 -0.6534  0.0971
  311MPD2    H7 4687   3.492   2.340  12.756  1.3460 -0.4267 -0.0578
  312TMC3    C1 4688   2.845   2.287  13.025 -0.8071  0.5652  0.7048
  312TMC3    C2 4689   2.716   2.247  13.028  0.6229  0.2312  0.0177
  312TMC3    C3 4690   2.621   2.332  13.072 -0.8103 -0.2433  0.2627
  312TMC3    C4 4691   2.893   2.408  13.069 -0.2135  0.2910  0.9972
  312TMC3    C5 4692   2.788   2.500  13.097 -0.3819  1.0233  0.0574
  312TMC3    C6 4693   2.660   2.462  13.103 -0.1539 -0.4582 -0.5641
  312TMC3     C 4694   2.939   2.188  12.983  0.4643 -0.1282  0.4841
  312TMC3     O 4695   2.892   2.078  12.962 -0.2589 -0.7227  0.3627
  312TMC3     H 4696   2.691   2.159  12.970 -0.5020  0.4049  0.2466
  312TMC3    H1 4697   2.996   2.442  13.072 -0.2772  0.6320 -1.0848
  312TMC3    H2 4698   2.589   2.531  13.147 -0.2529 -1.3557  0.6790
  312TMC3    C7 4699   2.822   2.622  13.153 -0.2719 -0.2270  0.1184
  312TMC3    C8 4700   2.481   2.291  13.054 -0.2865 -0.3989  0.6726
  312TMC3    O1 4701   2.745   2.716  13.128 -0.0777  0.1901 -0.2934
  312TMC3    O2 4702   2.471   2.174  13.019 -0.0935  0.2826  0.6795
  313MPD2     C 4703   3.148   1.573  10.582 -0.7665 -0.2919 -0.1539
  313MPD2    C1 4704   3.011   1.564  10.573  0.0037  0.4168  0.3797
  313MPD2    C2 4705   2.949   1.492  10.471  0.0893 -0.1633  0.2638
  313MPD2    C3 4706   3.024   1.433  10.372  0.9036  0.4869 -0.5349
  313MPD2    C4 4707   3.161   1.447  10.380 -0.1401 -0.9896 -0.0562
  313MPD2    C5 4708   3.221   1.511  10.488  0.4653 -0.1494 -0.4332
  313MPD2     H 4709   2.844   1.469  10.464  0.2149  0.1641 -2.4855
  313MPD2    H1 4710   3.232   1.399  10.313 -0.6463 -3.8308  1.4222
  313MPD2    H2 4711   3.209   1.617  10.661 -1.9126  2.9551 -1.0804
  313MPD2    H3 4712   3.328   1.522  10.486  0.6375 -1.5335  1.4752
  313MPD2     N 4713   2.962   1.365  10.263  0.5097 -0.7499 -0.0048
  313MPD2    H5 4714   2.865   1.386  10.246  0.9090 -0.2351 -1.6084
  313MPD2    N1 4715   2.925   1.631  10.669  0.1390  0.3955 -0.1232
  313MPD2    H7 4716   2.826   1.626  10.646 -0.4733  1.2470  2.2232
  314TMC3    C1 4717   2.855   1.777  10.850 -0.2264 -0.4978  0.6674
  314TMC3    C2 4718   2.893   1.837  10.970 -0.1131  0.1431 -0.5014
  314TMC3    C3 4719   2.824   1.954  11.009 -0.5589 -0.1251 -0.2669
  314TMC3    C4 4720   2.755   1.829  10.775 -0.5895  0.2851 -0.6099
  314TMC3    C5 4721   2.693   1.940  10.817  0.6522  0.8096 -0.0312
  314TMC3    C6 4722   2.725   2.011  10.932  0.6373 -0.5648 -0.5437
  314TMC3     C 4723   2.966   1.698  10.785  0.2145  0.5278 -0.0108
  314TMC3     O 4724   3.073   1.714  10.840 -0.3432 -0.0157  0.5989
  314TMC3     H 4725   2.977   1.797  11.026 -0.8635 -1.0874 -0.2421
  314TMC3    H1 4726   2.747   1.801  10.671 -1.4892 -2.6095  0.2172
  314TMC3    H2 4727   2.679   2.108  10.950  0.2779 -0.3828 -2.5095
  314TMC3    C7 4728   2.632   2.020  10.715 -0.1109  0.2058 -0.2327
  314TMC3    C8 4729   2.893   2.043  11.104 -0.0269 -0.3612  0.6301
  314TMC3    O1 4730   2.512   2.010  10.685  0.6351  0.3233  0.5888
  314TMC3    O2 4731   2.852   2.157  11.105  0.1306 -0.1908 -0.2486
  315MPD2     C 4732   2.574   1.255   0.283  0.1234  0.5987  0.1371
  315MPD2    C1 4733   2.704   1.265   0.327  0.2726 -0.2788  0.0407
  315MPD2    C2 4734   2.784   1.381   0.322 -0.4402  0.2884 -0.3107
  315MPD2    C3 4735   2.737   1.482   0.243  0.3274  0.0691  0.7938
  315MPD2    C4 4736   2.606   1.475   0.184 -0.4607  0.1294  0.2452
  315MPD2    C5 4737   2.527   1.365   0.208  0.7088 -0.2342  0.7162
  315MPD2     H 4738   2.880   1.387   0.372 -0.9873  0.7163  0.6854
  315MPD2    H1 4739   2.555   1.547   0.121  0.6650  1.7938  1.2631
  315MPD2    H2 4740   2.514   1.170   0.311 -1.6077  1.7134 -0.1792
  315MPD2    H3 4741   2.427   1.359   0.165  0.3094  5.1367  0.8573
  315MPD2     N 4742   2.824   1.595   0.221 -0.1585  0.0798 -0.4715
  315MPD2    H5 4743   2.914   1.590   0.269 -0.6306 -0.2922  0.3673
  315MPD2    N1 4744   2.767   1.162   0.400 -0.1007  0.3971 -0.0419
  315MPD2    H7 4745   2.865   1.178   0.422 -0.1197  0.8605 -0.3043
  316TMC3    C1 4746   2.911   1.809   0.167 -0.2429 -0.6135 -0.3788
  316TMC3    C2 4747   2.999   1.794   0.263 -0.3081 -0.7364  0.6632
  316TMC3    C3 4748   3.122   1.847   0.260 -1.3130 -0.1427  0.5986
  316TMC3    C4 4749   2.945   1.880   0.055 -0.5374 -0.2527  1.0891
  316TMC3    C5 4750   3.077   1.930   0.047 -0.0591  0.2949 -0.0160
  316TMC3    C6 4751   3.160   1.925   0.153  0.5079  0.2231 -0.5851
  316TMC3     C 4752   2.807   1.708   0.144 -0.4589 -0.5438 -0.4249
  316TMC3     O 4753   2.711   1.744   0.078 -0.7177 -0.3145  0.0801
  316TMC3     H 4754   2.977   1.750   0.359 -0.3066  0.4513  1.2079
  316TMC3    H1 4755   2.870   1.891  17.672  0.3960  4.1792  0.8174
  316TMC3    H2 4756   3.261   1.963   0.146 -0.4084  2.5599 -1.1773
  316TMC3    C7 4757   3.110   2.027  17.638  0.0509  0.0697 -0.1888
  316TMC3    C8 4758   3.222   1.813   0.363 -0.3829  0.2250 -0.0722
  316TMC3    O1 4759   3.195   2.115  17.667  0.5855 -0.9165  0.3491
  316TMC3    O2 4760   3.211   1.696   0.408 -0.3134  0.6178 -0.5682
  317MPD2     C 4761   0.096   4.322  12.602  0.0166  0.0048  0.3160
  317MPD2    C1 4762   0.216   4.308  12.665  0.5416  0.2342 -0.2106
  317MPD2    C2 4763   0.225   4.269  12.797  0.3848 -0.7363  0.2526
  317MPD2    C3 4764   0.110   4.224  12.865  0.5401 -0.4181  0.1275
  317MPD2    C4 4765   4.712   4.250  12.805  0.6017 -0.3993  0.4176
  317MPD2    C5 4766   4.709   4.306  12.679 -0.5032 -0.1353  0.4298
  317MPD2     H 4767   0.323   4.257  12.840  0.2554 -0.4616  0.6285
  317MPD2    H1 4768   4.617   4.232  12.854 -0.1603  1.4940 -0.3319
  317MPD2    H2 4769   0.091   4.369  12.504  1.6280  0.7061  0.5720
  317MPD2    H3 4770   4.616   4.340  12.633  0.2891 -0.0334 -1.1160
  317MPD2     N 4771   0.119   4.159  12.988  0.0525  0.0282  0.3326
  317MPD2    H5 4772   0.214   4.157  13.025  0.9621  0.0636 -2.0115
  317MPD2    N1 4773   0.340   4.328  12.599  0.1104  0.0657  0.0654
  317MPD2    H7 4774   0.415   4.348  12.663  1.0837  2.1544 -1.7411
  318TMC3    C1 4775   0.067   3.998  13.150  0.1057  0.8724 -0.0992
  318TMC3    C2 4776   0.015   3.871  13.152 -0.2513  0.3713 -0.2496
  318TMC3    C3 4777   0.072   3.781  13.240 -0.7740  0.3342  0.0099
  318TMC3    C4 4778   0.169   4.037  13.228 -0.3647 -0.0818 -0.1541
  318TMC3    C5 4779   0.220   3.943  13.322 -0.4915 -0.4251 -0.0895
  318TMC3    C6 4780   0.174   3.814  13.325  0.8064  0.4848  0.0476
  318TMC3     C 4781   0.020   4.081  13.045  0.0131  0.8909 -0.2725
  318TMC3     O 4782   4.635   4.044  13.002  0.1818 -0.7187 -0.4545
  318TMC3     H 4783   4.671   3.832  13.077  0.9220  2.7409 -2.5147
  318TMC3    H1 4784   0.200   4.141  13.237  2.3140 -0.9738  1.1006
  318TMC3    H2 4785   0.220   3.738  13.388 -3.1395  0.3511  2.7811
  318TMC3    C7 4786   0.347   3.987  13.398  0.5274  0.2212 -0.8404
  318TMC3    C8 4787   0.039   3.640  13.227 -0.2944 -0.1699 -0.0182
  318TMC3    O1 4788   0.377   4.104  13.391 -0.8422 -0.4422  1.0162
  318TMC3    O2 4789   0.121   3.560  13.256 -0.1303  0.3007  0.3171
  319MPD2     C 4790   0.842   0.926  16.218  0.3905 -0.1333 -0.4642
  319MPD2    C1 4791   0.737   0.977  16.295 -0.5896  0.0698  0.0372
  319MPD2    C2 4792   0.610   0.932  16.266  0.0207  0.2918 -0.2605
  319MPD2    C3 4793   0.589   0.843  16.164 -0.0740 -0.6317 -0.6290
  319MPD2    C4 4794   0.696   0.799  16.086  0.8862 -0.6989 -0.3071
  319MPD2    C5 4795   0.821   0.851  16.107 -0.0008 -0.0189 -0.6879
  319MPD2     H 4796   0.528   0.953  16.333 -0.4360  0.6159 -0.9243
  319MPD2    H1 4797   0.684   0.738  15.997 -1.4966  2.2494 -2.0348
  319MPD2    H2 4798   0.948   0.933  16.241  0.2539 -2.3818  0.8998
  319MPD2    H3 4799   0.906   0.820  16.047  1.3440 -2.1316  2.3225
  319MPD2     N 4800   0.453   0.800  16.150  0.2372 -0.2480  0.5953
  319MPD2    H5 4801   0.390   0.845  16.215 -2.0960  0.0787 -1.9113
  319MPD2    N1 4802   0.759   1.052  16.412 -0.6207  0.7807 -0.2033
  319MPD2    H7 4803   0.684   1.062  16.480  0.4237  0.6832  0.9836
  320TMC3    C1 4804   0.270   0.712  16.039  0.2253  0.4768  0.3506
  320TMC3    C2 4805   0.196   0.832  16.032 -0.4044 -0.1950  0.2328
  320TMC3    C3 4806   0.060   0.829  16.004  0.2457  0.6237  0.6142
  320TMC3    C4 4807   0.215   0.601  15.994  0.5854 -0.3724  0.7812
  320TMC3    C5 4808   0.088   0.605  15.960 -0.1621 -0.2663  0.4722
  320TMC3    C6 4809   4.723   0.711  15.965 -0.1412 -0.1392 -0.3620
  320TMC3     C 4810   0.410   0.718  16.049  0.2218  0.3204  0.5948
  320TMC3     O 4811   0.480   0.650  15.979 -0.2038 -0.0013  0.2157
  320TMC3     H 4812   0.241   0.930  16.046  0.6423 -0.9679  2.2475
  320TMC3    H1 4813   0.273   0.510  15.999 -0.4904 -1.0514  0.7641
  320TMC3    H2 4814   4.617   0.693  15.949 -0.4661  0.4626  1.1651
  320TMC3    C7 4815   0.030   0.477  15.963 -0.6691 -0.5665 -0.2411
  320TMC3    C8 4816   0.014   0.952  15.955 -0.3517 -0.3029  0.1324
  320TMC3    O1 4817   4.661   0.447  15.889 -0.3555  0.0429  0.2843
  320TMC3    O2 4818   0.077   1.053  15.981  0.5804 -0.3537 -0.1814
  321TMC3    C1 4819   0.875   1.158  16.589 -0.3400  0.4191  0.1181
  321TMC3    C2 4820   0.767   1.123  16.670  0.5885 -1.0418 -0.9676
  321TMC3    C3 4821   0.784   1.146  16.802 -0.3396 -0.5038  0.9514
  321TMC3    C4 4822   0.988   1.196  16.644 -0.1971 -0.6586  0.1694
  321TMC3    C5 4823   0.988   1.229  16.779  1.1119  0.6353 -0.3075
  321TMC3    C6 4824   0.887   1.209  16.862  0.1274  0.2043  0.6116
  321TMC3     C 4825   0.880   1.099  16.455 -0.6787 -0.2853 -0.3181
  321TMC3     O 4826   0.989   1.094  16.402 -0.3490  0.1912 -0.2986
  321TMC3     H 4827   0.685   1.059  16.638 -1.0904 -0.8583  2.9389
  321TMC3    H1 4828   1.071   1.223  16.579  0.1942 -0.9277  0.5585
  321TMC3    H2 4829   0.883   1.225  16.969 -0.5754 -0.7684  0.7211
  321TMC3    C7 4830   1.114   1.193  16.842  0.5768 -0.4845  0.7871
  321TMC3    C8 4831   0.752   1.031  16.880  0.8889 -0.0143  0.2519
  321TMC3    O1 4832   1.100   1.153  16.958 -0.2469  0.0797  0.0779
  321TMC3    O2 4833   0.638   0.993  16.866 -0.0161  0.2348 -0.2526
  322MPD2     C 4834   4.360   2.237  13.646  0.4191 -0.2719 -0.4300
  322MPD2    C1 4835   4.338   2.217  13.777  0.2451  0.7915  0.5731
  322MPD2    C2 4836   4.261   2.099  13.819 -0.6592  0.2044 -0.4755
  322MPD2    C3 4837   4.225   2.000  13.727 -0.3354 -0.1761  0.2392
  322MPD2    C4 4838   4.262   2.022  13.595 -0.6783  0.8948 -0.0978
  322MPD2    C5 4839   4.319   2.144  13.556 -0.0112 -0.1647 -0.1173
  322MPD2     H 4840   4.231   2.083  13.922  0.1034  1.1156 -0.1121
  322MPD2    H1 4841   4.258   1.947  13.517 -0.5115 -0.1913  0.9453
  322MPD2    H2 4842   4.418   2.318  13.603  2.3784 -2.0223 -1.1057
  322MPD2    H3 4843   4.356   2.151  13.454 -1.3991  3.0610 -0.3927
  322MPD2     N 4844   4.163   1.876  13.761  0.6309  0.5797 -0.1878
  322MPD2    H5 4845   4.169   1.855  13.860 -3.0950 -0.2159 -0.1420
  322MPD2    N1 4846   4.388   2.316  13.869 -0.0569  0.1118  0.4975
  322MPD2    H7 4847   4.441   2.390  13.826  0.7168  0.4765  2.0629
  323TMC3    C1 4848   4.455   2.404  14.061 -0.7750 -0.6000 -1.1574
  323TMC3    C2 4849   4.575   2.414  14.002 -0.1916  0.0461 -0.0448
  323TMC3    C3 4850   4.681   2.456  14.077  0.0360 -0.0819  0.0108
  323TMC3    C4 4851   4.427   2.433  14.193 -0.7526  0.2738  0.4264
  323TMC3    C5 4852   4.533   2.473  14.268 -0.2473 -0.1851  0.0395
  323TMC3    C6 4853   4.662   2.485  14.210  0.0259  0.6593  0.0295
  323TMC3     C 4854   4.363   2.315  13.997 -0.5767  0.1144 -0.0976
  323TMC3     O 4855   4.302   2.244  14.075  0.9185 -0.5045  0.4563
  323TMC3     H 4856   4.604   2.357  13.914  2.2736  2.8881 -1.0620
  323TMC3    H1 4857   4.332   2.403  14.236 -0.6695 -0.3221  0.1821
  323TMC3    H2 4858   0.024   2.501  14.275 -0.1097 -0.4244  0.4669
  323TMC3    C7 4859   4.557   2.379  14.384  0.1862 -0.0659  0.5150
  323TMC3    C8 4860   0.093   2.428  14.037 -0.4115 -0.1024 -0.4681
  323TMC3    O1 4861   4.516   2.264  14.373  1.0275 -0.2202 -0.3240
  323TMC3    O2 4862   0.175   2.385  14.119  0.0210 -0.4314 -0.2203
  324MPD2     C 4863   1.396   2.789  14.338 -0.0842  0.3477  1.2721
  324MPD2    C1 4864   1.420   2.925  14.320 -0.7898 -0.1041 -0.0696
  324MPD2    C2 4865   1.317   3.009  14.274 -0.4198 -0.2799  0.1173
  324MPD2    C3 4866   1.185   2.956  14.251 -0.0258 -0.1888  0.6686
  324MPD2    C4 4867   1.169   2.815  14.270 -0.5321 -0.4645 -0.0613
  324MPD2    C5 4868   1.275   2.736  14.302  0.2613  0.7954 -0.0137
  324MPD2     H 4869   1.339   3.112  14.247 -1.4842 -0.6538 -2.2210
  324MPD2    H1 4870   1.074   2.764  14.262 -0.1330 -1.2102 -0.1257
  324MPD2    H2 4871   1.477   2.728  14.377  0.0471 -0.4081 -0.1822
  324MPD2    H3 4872   1.251   2.632  14.319 -1.7848  1.5369  1.5550
  324MPD2     N 4873   1.071   3.027  14.205  0.7885  0.3195  0.7555
  324MPD2    H5 4874   0.985   2.974  14.200  0.3071  1.3420 -1.7603
  324MPD2    N1 4875   1.551   2.981  14.338 -0.2033 -0.4162  0.3153
  324MPD2    H7 4876   1.576   3.068  14.291  1.1408 -1.0093 -0.0728
  325TMC3    C1 4877   0.944   3.218  14.150 -0.5011 -0.2568 -0.3030
  325TMC3    C2 4878   0.837   3.133  14.131  0.3276 -0.4167 -0.4580
  325TMC3    C3 4879   0.717   3.199  14.108  0.0332  0.7278  0.6779
  325TMC3    C4 4880   0.936   3.353  14.148  0.1870  0.3525  0.3584
  325TMC3    C5 4881   0.809   3.405  14.133  0.5570 -0.0495  0.0376
  325TMC3    C6 4882   0.703   3.327  14.115  0.1529  0.2752 -0.0168
  325TMC3     C 4883   1.074   3.165  14.186  0.0407  0.0191 -0.0087
  325TMC3     O 4884   1.164   3.242  14.209  0.0640 -0.2023  0.1975
  325TMC3     H 4885   0.851   3.026  14.126 -0.1689 -0.4807 -0.4760
  325TMC3    H1 4886   1.028   3.409  14.163  0.3447  0.4280 -0.8406
  325TMC3    H2 4887   0.611   3.371  14.078  1.8411  3.0830 -0.9118
  325TMC3    C7 4888   0.795   3.546  14.156 -0.2400  0.2660  0.4585
  325TMC3    C8 4889   0.617   3.111  14.058 -0.8102  0.4188  0.2080
  325TMC3    O1 4890   0.899   3.607  14.155  0.1296 -0.0834  0.1428
  325TMC3    O2 4891   0.645   2.992  14.033  0.1937  0.1224  0.2029
  326MPD2     C 4892   2.531   4.084  11.102 -0.5922 -0.3113  1.3871
  326MPD2    C1 4893   2.526   4.106  10.967 -0.8603  0.0912  0.0097
  326MPD2    C2 4894   2.606   4.195  10.901  1.1555  0.4098  0.1906
  326MPD2    C3 4895   2.709   4.251  10.966  0.1742  0.5993  0.0246
  326MPD2    C4 4896   2.718   4.220  11.101  0.4817 -0.3514  0.1302
  326MPD2    C5 4897   2.628   4.142  11.165  0.8546 -0.2300  0.6487
  326MPD2     H 4898   2.601   4.204  10.793  1.0387  0.7888  0.2301
  326MPD2    H1 4899   2.795   4.266  11.161 -3.3647  1.6841  3.5796
  326MPD2    H2 4900   2.485   4.003  11.158  2.5960 -1.6556  2.0955
  326MPD2    H3 4901   2.646   4.124  11.270  0.6996  0.0520  0.7223
  326MPD2     N 4902   2.806   4.339  10.913 -0.0818  0.0629 -0.0639
  326MPD2    H5 4903   2.870   4.387  10.976  1.3674 -1.4750 -0.3615
  326MPD2    N1 4904   2.424   4.040  10.893  0.1016 -0.0545 -0.0682
  326MPD2    H7 4905   2.420   4.059  10.793 -1.5818  1.1004  0.2107
  327TMC3    C1 4906   2.272   3.904  10.815 -0.4618 -0.4624 -0.3458
  327TMC3    C2 4907   2.148   3.958  10.794 -0.6756 -0.8376 -0.0480
  327TMC3    C3 4908   2.116   4.008  10.665 -0.1433 -0.1567 -0.1468
  327TMC3    C4 4909   2.364   3.888  10.719  0.3675 -0.0100  0.1091
  327TMC3    C5 4910   2.333   3.939  10.599  0.4220 -0.1714 -0.2472
  327TMC3    C6 4911   2.209   3.994  10.567 -1.1937  0.0305  0.1585
  327TMC3     C 4912   2.344   3.939  10.932 -0.1915 -0.4060  0.1250
  327TMC3     O 4913   2.313   3.903  11.045  0.0177  0.0725  0.4218
  327TMC3     H 4914   2.075   3.972  10.873 -0.8620  2.1604 -0.7444
  327TMC3    H1 4915   2.461   3.848  10.746  0.1004 -1.8752 -1.6789
  327TMC3    H2 4916   2.187   4.043  10.473 -0.2821  0.2196  0.0399
  327TMC3    C7 4917   2.441   3.985  10.515  0.7996 -0.4674 -0.1203
  327TMC3    C8 4918   2.057   4.138  10.665  0.2651  0.0983 -0.2199
  327TMC3    O1 4919   2.410   4.059  10.422 -0.1641 -0.4503 -1.0927
  327TMC3    O2 4920   2.099   4.224  10.587  0.1930  0.4969 -0.1419
  328MPD2     C 4921   0.110   4.590  17.288  0.1720  0.0420 -0.1041
  328MPD2    C1 4922   0.087   4.520  17.171 -0.2980 -0.1198  0.0317
  328MPD2    C2 4923   0.119   4.582  17.052 -0.4511  0.0906  0.7864
  328MPD2    C3 4924   0.156   4.716  17.041 -0.3336  0.2913  0.1047
  328MPD2    C4 4925   0.173   0.057  17.164 -0.0232  0.2155 -0.4980
  328MPD2    C5 4926   0.157   4.723  17.285  0.4676  0.1493 -0.0445
  328MPD2     H 4927   0.107   4.522  16.962 -0.8854 -0.7680  1.4179
  328MPD2    H1 4928   0.192   0.163  17.173  0.7987  0.0752 -0.6062
  328MPD2    H2 4929   0.070   4.554  17.382 -1.7538  0.7073 -0.6691
  328MPD2    H3 4930   0.170   0.062  17.373  0.4912  1.3866 -0.9228
  328MPD2     N 4931   0.153   0.062  16.919  0.1321  0.3539 -0.1764
  328MPD2    H5 4932   0.166   0.162  16.926 -0.9825  0.3320  1.9930
  328MPD2    N1 4933   0.029   4.389  17.183 -0.3399 -0.1342  0.2004
  328MPD2    H7 4934   0.002   4.360  17.276 -0.5572 -0.6569 -0.0237
  329TMC3    C1 4935   4.672   4.177  17.111  0.1826  0.5311 -0.4167
  329TMC3    C2 4936   4.567   4.183  17.187 -0.2270  0.2442  0.1793
  329TMC3    C3 4937   4.479   4.071  17.189  0.0386  0.0825  0.9874
  329TMC3    C4 4938   4.716   4.063  17.046  1.0223 -0.7947 -0.4488
  329TMC3    C5 4939   4.628   3.957  17.055 -0.3436 -0.1580  0.9407
  329TMC3    C6 4940   4.513   3.957  17.124 -0.4243 -0.1089  0.0629
  329TMC3     C 4941   0.019   4.297  17.082 -0.3006  0.0086  0.3620
  329TMC3     O 4942   0.070   4.304  16.973 -0.1740  0.2614  0.0181
  329TMC3     H 4943   4.532   4.279  17.222 -0.3471 -0.1136  1.0426
  329TMC3    H1 4944   0.081   4.061  16.982  2.1896  0.7146  1.1097
  329TMC3    H2 4945   4.430   3.889  17.110 -0.8749  0.4125  0.1676
  329TMC3    C7 4946   4.647   3.844  16.977  0.0392  0.1590  0.6907
  329TMC3    C8 4947   4.337   4.087  17.205  0.3037 -0.6477 -0.4801
  329TMC3    O1 4948   0.008   3.860  16.891 -0.3439 -0.3708  0.6181
  329TMC3    O2 4949   4.263   3.994  17.191  0.1345  0.0871  0.3036
  330TMC3    C1 4950   3.376   3.906   9.642 -0.4562  0.5109  1.0730
  330TMC3    C2 4951   3.390   3.808   9.547  0.3044  0.3438  0.1308
  330TMC3    C3 4952   3.454   3.692   9.583 -0.2686  0.2583  0.3671
  330TMC3    C4 4953   3.437   3.898   9.763 -0.8104  0.4336 -0.5811
  330TMC3    C5 4954   3.504   3.774   9.790 -0.1675 -0.2065 -0.2851
  330TMC3    C6 4955   3.506   3.670   9.705 -0.0452 -0.2326  0.1551
  330TMC3     C 4956   3.250   3.985   9.642 -0.0664 -0.6165  0.1264
  330TMC3     O 4957   3.201   4.033   9.744  0.6030  0.3894 -0.3063
  330TMC3     H 4958   3.341   3.811   9.449  2.0824  0.8296 -0.7391
  330TMC3    H1 4959   3.429   3.984   9.828  2.0615  1.9286 -2.2141
  330TMC3    H2 4960   3.564   3.582   9.727 -1.1443 -0.1900  3.2984
  330TMC3    C7 4961   3.523   3.756   9.930  0.2837  0.3484  1.0312
  330TMC3    C8 4962   3.455   3.592   9.488 -0.1427  0.0859  0.4004
  330TMC3    O1 4963   3.517   3.863   9.993  0.8740 -0.0671 -0.3505
  330TMC3    O2 4964   3.477   3.634   9.374  0.0009 -0.3319 -0.0785
  331MPD2     C 4965   0.628   2.019  12.144 -0.1200  0.5717  0.1901
  331MPD2    C1 4966   0.693   2.091  12.040  0.2514  0.1591  0.3349
  331MPD2    C2 4967   0.798   2.029  11.971  0.2016 -0.1452 -0.1976
  331MPD2    C3 4968   0.847   1.906  12.014  1.1237 -0.1800  0.2558
  331MPD2    C4 4969   0.775   1.837  12.108 -0.7989 -0.0537 -0.0662
  331MPD2    C5 4970   0.663   1.888  12.173  0.2219 -0.1617  0.3623
  331MPD2     H 4971   0.852   2.082  11.893  1.3229 -0.1504  0.5749
  331MPD2    H1 4972   0.818   1.751  12.158  1.7209  0.6192 -1.0573
  331MPD2    H2 4973   0.551   2.074  12.197 -0.1923  2.4594 -1.8343
  331MPD2    H3 4974   0.612   1.829  12.247 -0.2126  0.2718  0.4090
  331MPD2     N 4975   0.957   1.852  11.948  0.4751  0.1422  0.0720
  331MPD2    H5 4976   0.997   1.901  11.868 -0.1298  2.5793  1.2675
  331MPD2    N1 4977   0.658   2.230  12.017  0.4738 -0.3520 -0.1070
  331MPD2    H7 4978   0.570   2.264  12.055 -0.2008 -2.5242  0.2845
  332TMC3    C1 4979   1.114   1.697  11.882  0.1017  0.0256 -0.3285
  332TMC3    C2 4980   1.101   1.736  11.750 -0.5246  0.0361  0.2318
  332TMC3    C3 4981   1.218   1.760  11.682  0.0622 -0.1435  0.2198
  332TMC3    C4 4982   1.237   1.679  11.940  0.0794  0.4316  0.3810
  332TMC3    C5 4983   1.347   1.713  11.865  0.5628  0.8407 -0.5979
  332TMC3    C6 4984   1.344   1.746  11.737 -0.0947  0.3455 -0.0556
  332TMC3     C 4985   1.016   1.739  11.983  0.2069  0.1364 -0.0667
  332TMC3     O 4986   1.012   1.672  12.087 -0.3005  0.5047 -0.4943
  332TMC3     H 4987   1.011   1.779  11.707 -0.3986 -1.2696 -1.3126
  332TMC3    H1 4988   1.234   1.657  12.046 -0.5006 -1.3021  0.0127
  332TMC3    H2 4989   1.432   1.778  11.681 -1.2905  1.1121 -1.4984
  332TMC3    C7 4990   1.471   1.670  11.905 -0.2348 -0.1076  0.0371
  332TMC3    C8 4991   1.206   1.818  11.553 -0.1875  0.2926  0.5023
  332TMC3    O1 4992   1.546   1.619  11.827 -0.3660 -0.8255  0.0450
  332TMC3    O2 4993   1.143   1.756  11.467  0.0207  0.3098 -0.3199
  333MPD2     C 4994   0.995   2.454  10.868  0.5380 -0.0482  0.7503
  333MPD2    C1 4995   1.088   2.368  10.810 -0.2230  0.2023 -0.3999
  333MPD2    C2 4996   1.079   2.237  10.850 -0.5835 -0.1954  0.0732
  333MPD2    C3 4997   0.980   2.196  10.938  0.4275  0.0510  0.0529
  333MPD2    C4 4998   0.890   2.284  10.991 -0.0305 -0.0844  0.2268
  333MPD2    C5 4999   0.898   2.413  10.955 -0.3111 -0.0549 -0.1483
  333MPD2     H 5000   1.151   2.165  10.812 -0.6570  1.4234 -3.1133
  333MPD2    H1 5001   0.816   2.256  11.064 -1.5083  0.6932 -0.9750
  333MPD2    H2 5002   1.004   2.562  10.854  1.7515 -0.3082 -0.4759
  333MPD2    H3 5003   0.824   2.478  11.001 -0.8038 -0.7420  0.0388
  333MPD2     N 5004   0.985   2.059  10.968  0.4561 -0.0051 -0.5399
  333MPD2    H5 5005   1.049   2.007  10.908 -0.9787 -1.0015 -1.1966
  333MPD2    N1 5006   1.188   2.414  10.723  0.4180  0.6445 -0.2794
  333MPD2    H7 5007   1.191   2.515  10.720 -1.6515  0.7646  1.2339
  334TMC3    C1 5008   1.387   2.413  10.598  0.2964 -0.9104  0.3732
  334TMC3    C2 5009   1.514   2.348  10.609 -0.1567  0.3156 -0.7198
  334TMC3    C3 5010   1.627   2.416  10.582 -0.3166 -0.4575 -0.5914
  334TMC3    C4 5011   1.381   2.543  10.567  0.2896  0.6181 -0.2165
  334TMC3    C5 5012   1.495   2.607  10.526  0.1146  0.1819  0.4102
  334TMC3    C6 5013   1.622   2.549  10.540  0.3357  0.1658  0.5388
  334TMC3     C 5014   1.282   2.335  10.662 -0.6813 -0.6763  0.1050
  334TMC3     O 5015   1.303   2.218  10.666 -0.6109  0.0451  0.2955
  334TMC3     H 5016   1.522   2.247  10.648  0.4244  1.3597  1.8479
  334TMC3    H1 5017   1.284   2.590  10.564  1.4890  3.1946  1.3811
  334TMC3    H2 5018   1.706   2.617  10.532 -0.0385  0.5682  0.0570
  334TMC3    C7 5019   1.489   2.748  10.534  0.2726  0.2621  0.6118
  334TMC3    C8 5020   1.737   2.371  10.660 -1.0003 -0.4145 -0.2776
  334TMC3    O1 5021   1.563   2.803  10.618 -0.2258 -0.4134  0.3989
  334TMC3    O2 5022   1.725   2.282  10.743 -0.1349 -0.1979  0.2732
  335TMC3    C1 5023   0.670   4.506  17.046 -0.5020  0.5095 -0.3230
  335TMC3    C2 5024   0.604   4.435  16.941 -0.4391 -0.3256 -0.6576
  335TMC3    C3 5025   0.669   4.436  16.821  0.3674 -0.1599  0.4954
  335TMC3    C4 5026   0.788   4.569  17.023 -0.1966  0.1106 -0.0275
  335TMC3    C5 5027   0.833   4.581  16.895  0.1651 -0.2965 -0.3155
  335TMC3    C6 5028   0.775   4.515  16.793 -0.1306 -0.2969 -0.1030
  335TMC3     C 5029   0.584   4.523  17.163  0.7540  0.1981  0.2443
  335TMC3     O 5030   0.469   4.487  17.150  0.5378  0.6185 -0.4209
  335TMC3     H 5031   0.511   4.383  16.963  0.7229 -2.1506 -0.0118
  335TMC3    H1 5032   0.840   4.632  17.095 -2.3013 -0.5685  2.0861
  335TMC3    H2 5033   0.824   4.512  16.696  0.0250 -0.0031 -0.0337
  335TMC3    C7 5034   0.971   4.626  16.890 -0.1521  0.1618 -0.1433
  335TMC3    C8 5035   0.615   4.358  16.710  0.2789  0.3071 -0.2919
  335TMC3    O1 5036   1.037   4.581  16.799 -0.0207  0.0454  0.1654
  335TMC3    O2 5037   0.650   4.389  16.594 -0.1774  0.4597  0.2905
  336MPD2     C 5038   0.544   1.985  16.409  0.1698 -0.0170 -0.1829
  336MPD2    C1 5039   0.499   1.956  16.279  0.4785 -0.0907 -0.1714
  336MPD2    C2 5040   0.534   1.827  16.235 -0.2059  0.7492 -0.8799
  336MPD2    C3 5041   0.596   1.734  16.316 -0.1068 -0.6839  0.1096
  336MPD2    C4 5042   0.625   1.769  16.447  0.1728 -0.4689 -0.0398
  336MPD2    C5 5043   0.599   1.892  16.491 -0.4749 -0.3609 -0.2915
  336MPD2     H 5044   0.505   1.795  16.136  1.0435 -2.3127 -0.2594
  336MPD2    H1 5045   0.670   1.707  16.525  0.9283  2.3538  1.7833
  336MPD2    H2 5046   0.527   2.082  16.453 -0.6247 -0.6082  0.8060
  336MPD2    H3 5047   0.624   1.921  16.593 -0.2553 -2.2479  0.1893
  336MPD2     N 5048   0.609   1.603  16.271 -0.2677  0.0327 -0.4510
  336MPD2    H5 5049   0.620   1.529  16.339  1.4422  0.4541 -0.2548
  336MPD2    N1 5050   0.430   2.043  16.195  0.6207 -0.3810  0.1348
  336MPD2    H7 5051   0.400   2.002  16.107  0.3670 -0.3192  0.1922
  337TMC3    C1 5052   0.294   2.231  16.141  0.2252  0.5742  0.9972
  337TMC3    C2 5053   0.251   2.164  16.027 -0.2175  0.0186 -0.7316
  337TMC3    C3 5054   0.153   2.223  15.950 -0.5682  0.4686 -0.0381
  337TMC3    C4 5055   0.253   2.361  16.172  0.3124  0.6210 -0.0787
  337TMC3    C5 5056   0.164   2.410  16.094  0.6756 -0.2889  0.8006
  337TMC3    C6 5057   0.107   2.350  15.986 -0.0564  0.1029 -0.3471
  337TMC3     C 5058   0.394   2.173  16.231 -0.1667 -0.0476 -0.4220
  337TMC3     O 5059   0.442   2.250  16.314 -0.7327 -0.2089 -0.6711
  337TMC3     H 5060   0.277   2.061  16.005  0.8043  0.2431 -0.5509
  337TMC3    H1 5061   0.285   2.422  16.256  2.7422  0.5493 -0.9689
  337TMC3    H2 5062   0.029   2.410  15.940 -2.7092 -3.0338  0.0486
  337TMC3    C7 5063   0.131   2.547  16.111 -0.2807  0.1223  0.3523
  337TMC3    C8 5064   0.075   2.141  15.860 -0.6300  0.0244  0.2988
  337TMC3    O1 5065   0.114   2.581  16.228  0.1963  0.1189 -0.6198
  337TMC3    O2 5066   0.077   2.025  15.891 -0.3728 -0.4228  0.4130
  338MPD2     C 5067   0.988   1.349   0.809 -0.2528  0.1536  0.2824
  338MPD2    C1 5068   0.959   1.441   0.712 -0.8195 -0.9239  0.4764
  338MPD2    C2 5069   0.913   1.564   0.744  0.0870 -0.0649 -0.4712
  338MPD2    C3 5070   0.897   1.604   0.878  0.7636  0.1151  0.4903
  338MPD2    C4 5071   0.930   1.509   0.971  0.0730  0.0622 -0.3592
  338MPD2    C5 5072   0.971   1.388   0.937 -0.4691  0.8736  0.5179
  338MPD2     H 5073   0.888   1.631   0.662  3.2301  0.3708 -1.0673
  338MPD2    H1 5074   0.924   1.536   1.076 -1.9679 -0.3825 -0.3541
  338MPD2    H2 5075   1.010   1.244   0.793 -0.2426 -0.3739  3.9126
  338MPD2    H3 5076   0.984   1.317   1.018  0.4400 -1.1210 -1.3681
  338MPD2     N 5077   0.851   1.739   0.908 -0.0103  0.1341  0.3110
  338MPD2    H5 5078   0.844   1.811   0.837  1.5334  2.0590  2.1241
  338MPD2    N1 5079   0.967   1.412   0.574 -0.0108  0.1748  0.7126
  338MPD2    H7 5080   0.941   1.488   0.511  1.5226  1.8783  2.1231
  339TMC3    C1 5081   0.785   1.929   1.039  0.1286 -0.7644  0.0448
  339TMC3    C2 5082   0.688   1.976   1.125  0.8255 -0.1557  0.0176
  339TMC3    C3 5083   0.674   2.110   1.132 -0.1259 -1.1017 -0.3405
  339TMC3    C4 5084   0.848   2.011   0.951  0.2455 -0.3600 -0.1274
  339TMC3    C5 5085   0.837   2.145   0.971  0.0954 -0.4978  0.5972
  339TMC3    C6 5086   0.757   2.197   1.065 -0.9031  0.3214  0.2317
  339TMC3     C 5087   0.824   1.787   1.034  0.0800 -0.1120 -0.1400
  339TMC3     O 5088   0.794   1.733   1.141 -0.1472  1.2069  0.2735
  339TMC3     H 5089   0.609   1.912   1.164  1.4787 -1.2872 -0.5479
  339TMC3    H1 5090   0.932   1.972   0.895  0.3899  0.4592 -0.4737
  339TMC3    H2 5091   0.747   2.305   1.069  0.3507  0.4455 -0.0304
  339TMC3    C7 5092   0.943   2.223   0.912 -0.2567 -0.2242  0.3898
  339TMC3    C8 5093   0.544   2.166   1.173  0.4422  0.7716  0.5071
  339TMC3    O1 5094   1.019   2.282   0.994 -0.3151  0.8918  0.0542
  339TMC3    O2 5095   0.518   2.276   1.126  0.2574  0.0595  0.3356
  340MPD2     C 5096   1.735   4.036   8.480 -0.0816 -0.1435 -0.6390
  340MPD2    C1 5097   1.732   3.893   8.485  0.5616 -0.2929 -0.1719
  340MPD2    C2 5098   1.727   3.829   8.609 -0.1465  0.0116  0.0439
  340MPD2    C3 5099   1.745   3.904   8.726 -0.4146 -0.8170 -0.0721
  340MPD2    C4 5100   1.778   4.036   8.717 -0.4833  0.1272  0.0435
  340MPD2    C5 5101   1.771   4.102   8.597 -0.6828  0.1471 -0.2215
  340MPD2     H 5102   1.704   3.723   8.609 -1.7130  0.3731  1.2455
  340MPD2    H1 5103   1.798   4.092   8.808 -1.7754 -0.9878  1.0210
  340MPD2    H2 5104   1.738   4.090   8.386  0.4244  1.0114  0.0463
  340MPD2    H3 5105   1.779   4.210   8.598  3.0967 -0.1400  1.7139
  340MPD2     N 5106   1.741   3.848   8.851  0.0667  0.0136 -0.1646
  340MPD2    H5 5107   1.772   3.916   8.920 -0.1363 -0.1935  0.1301
  340MPD2    N1 5108   1.725   3.831   8.357 -0.2451 -0.1147 -0.1790
  340MPD2    H7 5109   1.696   3.897   8.286  1.6819  0.1821 -0.6960
  341TMC3    C1 5110   1.823   3.625   8.403  0.5734 -0.1396 -0.7289
  341TMC3    C2 5111   1.784   3.511   8.461  0.3777 -0.6422 -0.0418
  341TMC3    C3 5112   1.857   3.450   8.553  0.9093 -0.3476 -0.0056
  341TMC3    C4 5113   1.944   3.672   8.424  0.3559 -0.5100 -0.4904
  341TMC3    C5 5114   2.024   3.612   8.516  0.0240  0.1097 -0.0654
  341TMC3    C6 5115   1.981   3.497   8.581 -0.0218  0.1075 -0.4646
  341TMC3     C 5116   1.728   3.699   8.326 -0.1325 -0.2243 -0.4234
  341TMC3     O 5117   1.657   3.642   8.245 -0.0948 -0.1212 -0.2586
  341TMC3     H 5118   1.685   3.471   8.441  0.0960  0.3110 -0.5044
  341TMC3    H1 5119   1.961   3.763   8.367 -0.9287  0.5778  0.8739
  341TMC3    H2 5120   2.037   3.466   8.668 -0.7679 -2.0929 -0.7868
  341TMC3    C7 5121   2.167   3.651   8.532  0.2048  0.4005  0.1132
  341TMC3    C8 5122   1.789   3.356   8.638  0.0904  0.0339  0.3000
  341TMC3    O1 5123   2.224   3.615   8.633  0.0814  0.4033 -0.7839
  341TMC3    O2 5124   1.666   3.343   8.626  0.5428 -0.0312  0.0096
  342MPD2     C 5125   3.684   2.588   0.192 -0.6242 -0.5362 -0.4345
  342MPD2    C1 5126   3.711   2.608   0.055  0.0331 -0.7542  0.7426
  342MPD2    C2 5127   3.702   2.738   0.007  0.3120 -0.5520  0.6701
  342MPD2    C3 5128   3.677   2.847   0.088 -0.4066  1.0221 -0.6350
  342MPD2    C4 5129   3.653   2.819   0.222 -0.1460 -0.0691  0.9360
  342MPD2    C5 5130   3.660   2.692   0.271 -0.4104  0.3930 -0.6923
  342MPD2     H 5131   3.711   2.760  17.595  0.2723  0.0551  0.7949
  342MPD2    H1 5132   3.629   2.896   0.295 -0.5694  0.0237  0.6993
  342MPD2    H2 5133   3.705   2.495   0.244  1.8178 -1.5921 -3.3353
  342MPD2    H3 5134   3.645   2.678   0.377  0.0873 -1.0793 -0.8082
  342MPD2     N 5135   3.665   2.977   0.041 -0.2185 -0.1836  0.4629
  342MPD2    H5 5136   3.705   2.999  17.644  0.8229  2.8563  1.6381
  342MPD2    N1 5137   3.751   2.499  17.666  0.1127 -0.0596  0.0762
  342MPD2    H7 5138   3.766   2.536  17.572 -0.0722 -0.0504  0.0486
  343TMC3    C1 5139   3.811   2.277  17.588  0.5207  0.4709 -0.2667
  343TMC3    C2 5140   3.868   2.324  17.476  0.1677  0.5473  0.9106
  343TMC3    C3 5141   3.909   2.236  17.380  0.2834  0.0226  0.5725
  343TMC3    C4 5142   3.788   2.144  17.606  0.2677 -0.4187  0.4092
  343TMC3    C5 5143   3.817   2.061  17.498  0.5656 -0.5127 -0.6004
  343TMC3    C6 5144   3.867   2.107  17.379 -0.0476  0.1224 -0.6701
  343TMC3     C 5145   3.750   2.363   0.000  0.8937 -0.2772 -0.1952
  343TMC3     O 5146   3.694   2.313   0.098  0.0630  0.5121 -0.4260
  343TMC3     H 5147   3.884   2.430  17.463  1.5394  0.2388  0.1020
  343TMC3    H1 5148   3.734   2.104  17.691 -0.5038 -0.6836 -0.2123
  343TMC3    H2 5149   3.917   2.033  17.317  2.1450  0.8030  0.2980
  343TMC3    C7 5150   3.797   1.924  17.490 -0.5724  0.5727 -0.1063
  343TMC3    C8 5151   4.025   2.275  17.307  0.1296  0.4333  0.9528
  343TMC3    O1 5152   3.758   1.873  17.382  0.3848 -0.1449  0.7381
  343TMC3    O2 5153   4.079   2.374  17.354 -0.7157  0.3452 -0.4303
  344MPD2     C 5154   0.111   1.435  10.710  0.1380 -0.0956  0.1480
  344MPD2    C1 5155   0.024   1.414  10.610 -0.2249 -0.3531  0.2375
  344MPD2    C2 5156   0.054   1.426  10.477 -0.5133  0.8192 -0.2159
  344MPD2    C3 5157   0.169   1.483  10.441 -0.0266  0.0180 -0.5234
  344MPD2    C4 5158   0.251   1.527  10.542  0.2743  0.3650 -0.0033
  344MPD2    C5 5159   0.224   1.496  10.676 -0.9344  0.2827 -0.2849
  344MPD2     H 5160   4.696   1.397  10.411 -0.5187 -3.0221  1.4801
  344MPD2    H1 5161   0.344   1.580  10.521  1.9831 -3.3023 -1.6259
  344MPD2    H2 5162   0.079   1.417  10.812 -2.1187  0.9465 -0.3587
  344MPD2    H3 5163   0.307   1.510  10.745  0.3141 -0.8152 -1.5399
  344MPD2     N 5164   0.207   1.500  10.309  0.2895  0.2156 -0.0498
  344MPD2    H5 5165   0.298   1.544  10.308  0.7113 -0.6127  1.6494
  344MPD2    N1 5166   4.614   1.362  10.628 -0.2613  0.0895 -0.2043
  344MPD2    H7 5167   4.542   1.379  10.559 -1.0569 -1.4645  0.2341
  345TMC3    C1 5168   0.182   1.566  10.081  0.3587 -0.0750 -0.0798
  345TMC3    C2 5169   0.314   1.611  10.084  0.6170  0.4578  0.3039
  345TMC3    C3 5170   0.327   1.734  10.023 -0.4922  0.0428  0.4002
  345TMC3    C4 5171   0.084   1.631  10.018 -0.5619  0.3204 -0.3654
  345TMC3    C5 5172   0.105   1.755   9.961  0.0727  0.1154 -0.3287
  345TMC3    C6 5173   0.232   1.808   9.961  0.3704 -0.5294  0.1395
  345TMC3     C 5174   0.130   1.484  10.194  0.0778 -0.1526 -0.5418
  345TMC3     O 5175   0.014   1.448  10.190 -0.4792  0.1493 -0.1192
  345TMC3     H 5176   0.395   1.566  10.140 -0.6616 -1.6573  0.4494
  345TMC3    H1 5177   4.711   1.581  10.018  0.2262 -1.2132 -1.1241
  345TMC3    H2 5178   0.253   1.909   9.930 -0.6325 -0.5869 -0.7087
  345TMC3    C7 5179   0.000   1.846   9.928  0.5380 -0.4461  0.0914
  345TMC3    C8 5180   0.452   1.803  10.037  0.0820 -0.7160  0.3079
  345TMC3    O1 5181   0.031   1.957   9.884 -0.0932  0.1977 -0.2136
  345TMC3    O2 5182   0.452   1.924  10.034  0.2316  0.3543 -0.1873
  346MPD2     C 5183   4.288   3.434  13.744 -0.1029 -0.1904  0.0934
  346MPD2    C1 5184   4.426   3.446  13.738 -0.3561  0.2203  0.1725
  346MPD2    C2 5185   4.495   3.545  13.808 -0.0668  0.2443 -0.2394
  346MPD2    C3 5186   4.424   3.621  13.890  0.4271  0.6312 -0.1336
  346MPD2    C4 5187   4.290   3.598  13.907 -0.9718 -0.1897  0.0446
  346MPD2    C5 5188   4.218   3.510  13.835 -0.3666  0.1253  0.5447
  346MPD2     H 5189   4.603   3.559  13.806  0.2915 -2.2817  0.8293
  346MPD2    H1 5190   4.237   3.660  13.979 -2.3709  0.3047 -1.4069
  346MPD2    H2 5191   4.230   3.369  13.680  0.4258  1.3619 -1.9586
  346MPD2    H3 5192   4.110   3.516  13.836 -0.3873 -0.1735 -0.7081
  346MPD2     N 5193   4.489   3.723  13.956 -0.0125  0.3675  0.3474
  346MPD2    H5 5194   4.588   3.725  13.931 -0.7624  0.0859 -2.6367
  346MPD2    N1 5195   4.505   3.368  13.652  0.3572  0.1947  0.3918
  346MPD2    H7 5196   4.599   3.403  13.638  1.6491 -2.8722  1.3486
  347TMC3    C1 5197   4.551   3.879  14.114 -0.1292  0.1742  0.4123
  347TMC3    C2 5198   4.673   3.830  14.099 -0.2595  0.2412  0.2868
  347TMC3    C3 5199   0.050   3.886  14.171 -0.7589 -0.6908 -0.1209
  347TMC3    C4 5200   4.516   3.989  14.190  0.8425 -1.4742  0.2765
  347TMC3    C5 5201   4.628   4.048  14.246 -0.2658  0.4873 -0.0365
  347TMC3    C6 5202   0.032   3.999  14.239 -0.2961 -0.2865 -0.0875
  347TMC3     C 5203   4.442   3.805  14.054  0.3219 -0.3295  0.0761
  347TMC3     O 5204   4.332   3.828  14.100 -0.2032  0.3262 -0.5152
  347TMC3     H 5205   4.698   3.738  14.047 -1.8518 -0.7149  1.2208
  347TMC3    H1 5206   4.419   4.036  14.180  0.7551 -2.5321 -3.5625
  347TMC3    H2 5207   0.103   4.027  14.316  0.3154  0.6280 -0.9789
  347TMC3    C7 5208   4.589   4.144  14.352 -0.5469  0.2897  0.3017
  347TMC3    C8 5209   0.186   3.829  14.169  0.5705  0.5212  0.5126
  347TMC3    O1 5210   4.472   4.136  14.388  0.4653  0.0711  0.3851
  347TMC3    O2 5211   0.196   3.710  14.127  0.7701 -0.2464 -0.6787
  348MPD2     C 5212   3.035   2.654  12.185 -0.2493 -0.4607  0.0629
  348MPD2    C1 5213   3.142   2.723  12.135 -0.8050  0.3347 -0.2815
  348MPD2    C2 5214   3.128   2.780  12.012 -0.8615 -0.5673  0.2793
  348MPD2    C3 5215   3.021   2.759  11.925  0.3778 -0.6101 -0.6119
  348MPD2    C4 5216   2.917   2.685  11.980  0.6387  0.1591  0.0172
  348MPD2    C5 5217   2.919   2.634  12.109  0.3305  0.8122  0.1268
  348MPD2     H 5218   3.215   2.835  11.978 -0.0547 -1.0542  1.5749
  348MPD2    H1 5219   2.824   2.670  11.926  0.1955 -1.9038  1.3767
  348MPD2    H2 5220   3.033   2.618  12.287 -1.8328  0.5888  0.4198
  348MPD2    H3 5221   2.834   2.581  12.151  0.2811  1.4738  0.8588
  348MPD2     N 5222   3.016   2.823  11.799 -0.2008 -0.0919  0.0052
  348MPD2    H5 5223   3.097   2.877  11.770  0.7270 -1.6154 -0.2272
  348MPD2    N1 5224   3.262   2.739  12.209  0.0830 -0.0315  0.4841
  348MPD2    H7 5225   3.342   2.769  12.155 -1.1306 -0.6684 -1.6844
  349TMC3    C1 5226   3.428   2.679  12.351 -0.8910  0.4087 -0.6064
  349TMC3    C2 5227   3.472   2.556  12.394 -0.2118  0.5209  0.2111
  349TMC3    C3 5228   3.595   2.513  12.354  0.0719  0.2103  0.2197
  349TMC3    C4 5229   3.510   2.756  12.265 -0.0584  0.3087  0.6733
  349TMC3    C5 5230   3.640   2.720  12.246  0.0177 -0.2294 -0.3560
  349TMC3    C6 5231   3.682   2.594  12.285 -0.1317 -0.2451  0.4704
  349TMC3     C 5232   3.288   2.682  12.332 -0.4162 -0.1755  0.3727
  349TMC3     O 5233   3.225   2.630  12.420 -0.0666 -0.2149 -0.2584
  349TMC3     H 5234   3.401   2.478  12.417 -0.3168  1.3183  2.5735
  349TMC3    H1 5235   3.473   2.846  12.217  0.0403 -0.0463 -0.0609
  349TMC3    H2 5236   3.777   2.549  12.261 -1.1886 -1.7556 -0.8522
  349TMC3    C7 5237   3.686   2.741  12.116 -0.2153 -0.4091 -0.1736
  349TMC3    C8 5238   3.612   2.370  12.372  0.6260 -0.6617  0.1049
  349TMC3    O1 5239   3.648   2.657  12.037  0.1636 -0.5251 -0.0255
  349TMC3    O2 5240   3.540   2.327  12.463 -0.2531 -0.9278 -0.6986
  350MPD2     C 5241   2.174   1.274   9.767  0.6523  0.4483  0.1174
  350MPD2    C1 5242   2.237   1.150   9.764 -0.9683 -0.9907 -0.0499
  350MPD2    C2 5243   2.374   1.146   9.786 -0.5562  0.4271  0.3300
  350MPD2    C3 5244   2.437   1.259   9.819  0.2461  0.0640  0.4020
  350MPD2    C4 5245   2.375   1.383   9.824 -0.4086 -0.4520 -0.3435
  350MPD2    C5 5246   2.244   1.390   9.796 -0.9546  0.0183 -1.3666
  350MPD2     H 5247   2.429   1.053   9.794 -0.4050  0.2345 -2.8522
  350MPD2    H1 5248   2.422   1.471   9.866 -0.1868 -0.6716 -0.1310
  350MPD2    H2 5249   2.066   1.278   9.752  0.1811 -0.5164  3.3051
  350MPD2    H3 5250   2.198   1.487   9.779  2.0200  1.4477 -1.1596
  350MPD2     N 5251   2.573   1.238   9.836  0.4976 -0.0472 -0.2090
  350MPD2    H5 5252   2.604   1.141   9.828 -1.7889 -0.6524 -1.4413
  350MPD2    N1 5253   2.170   1.023   9.740 -0.4590 -0.4363 -0.7139
  350MPD2    H7 5254   2.225   0.937   9.738  0.6091  0.2483 -1.1457
  351TMC3    C1 5255   1.993   0.869   9.691 -0.0236  0.5866 -0.2760
  351TMC3    C2 5256   2.088   0.772   9.675 -0.4123 -0.0413 -0.3794
  351TMC3    C3 5257   2.042   0.648   9.645 -0.9268  0.1387  0.5423
  351TMC3    C4 5258   1.856   0.846   9.684 -0.1295 -0.6825 -0.5785
  351TMC3    C5 5259   1.813   0.723   9.644 -0.0794  0.5351  0.1630
  351TMC3    C6 5260   1.907   0.621   9.624  0.3349  0.2614  1.3693
  351TMC3     C 5261   2.031   1.008   9.716 -0.5180  0.1969 -0.0337
  351TMC3     O 5262   1.940   1.087   9.739  0.1739 -0.1116  0.1893
  351TMC3     H 5263   2.195   0.787   9.681 -0.3670 -0.8201  0.7264
  351TMC3    H1 5264   1.786   0.925   9.709 -0.1093 -2.4180  4.9283
  351TMC3    H2 5265   1.870   0.526   9.589 -0.6375  1.4360 -0.7812
  351TMC3    C7 5266   1.673   0.679   9.666  0.4054  0.1398  0.1902
  351TMC3    C8 5267   2.141   0.547   9.598 -0.1051  0.4468 -0.2460
  351TMC3    O1 5268   1.661   0.563   9.700 -0.0388 -0.4235  0.5917
  351TMC3    O2 5269   2.257   0.584   9.600 -0.0745 -0.6062  0.3454
  352MPD2     C 5270   0.332   3.741   1.365  0.0107 -0.0423 -0.1176
  352MPD2    C1 5271   0.415   3.717   1.260 -0.5783 -0.5359 -0.3806
  352MPD2    C2 5272   0.482   3.598   1.255  0.4042 -0.2247 -0.6397
  352MPD2    C3 5273   0.462   3.504   1.355 -0.9786  0.2772 -0.1884
  352MPD2    C4 5274   0.384   3.540   1.466  0.7947 -0.1709 -0.1677
  352MPD2    C5 5275   0.323   3.660   1.474  0.1581 -0.1554 -0.7407
  352MPD2     H 5276   0.549   3.571   1.175  1.1037  0.2323 -0.2056
  352MPD2    H1 5277   0.360   3.476   1.550 -1.7763  1.8958  0.6591
  352MPD2    H2 5278   0.270   3.830   1.362 -0.0118 -0.0762 -0.6319
  352MPD2    H3 5279   0.249   3.674   1.553  0.9415  0.9100 -0.1898
  352MPD2     N 5280   0.526   3.385   1.345 -0.6296 -0.4276  1.1526
  352MPD2    H5 5281   0.602   3.390   1.277  0.0783  0.5699  2.0262
  352MPD2    N1 5282   0.409   3.807   1.149 -0.6811 -0.2594  0.0797
  352MPD2    H7 5283   0.337   3.878   1.157 -1.1756 -0.6969 -0.5177
  353TMC3    C1 5284   0.547   3.154   1.363 -0.0677  0.1476  0.7289
  353TMC3    C2 5285   0.562   3.042   1.443  0.0845  0.3309  0.8474
  353TMC3    C3 5286   0.584   2.922   1.381 -0.5262  0.3691 -0.3243
  353TMC3    C4 5287   0.550   3.139   1.222  0.1012 -0.3716 -0.1409
  353TMC3    C5 5288   0.562   3.010   1.171 -0.1411  0.9886 -0.3152
  353TMC3    C6 5289   0.582   2.901   1.250 -0.4919  0.1116 -0.4871
  353TMC3     C 5290   0.508   3.277   1.425 -0.2168 -0.3737 -0.0357
  353TMC3     O 5291   0.431   3.260   1.520 -0.3943  0.3583  0.3853
  353TMC3     H 5292   0.568   3.038   1.551  3.0624  1.7576  0.7470
  353TMC3    H1 5293   0.530   3.216   1.148 -3.1070 -0.5449  0.5613
  353TMC3    H2 5294   0.599   2.808   1.196 -0.2337 -1.1723  1.7978
  353TMC3    C7 5295   0.560   2.989   1.027  0.5611 -0.1861 -0.0481
  353TMC3    C8 5296   0.583   2.804   1.461  0.7629  0.7606  0.7903
  353TMC3    O1 5297   0.590   3.090   0.960 -0.7526  0.0997 -0.4464
  353TMC3    O2 5298   0.506   2.801   1.556 -0.0865 -0.1736  0.6418
  354TMC3    C1 5299   2.750   4.111  13.161  0.4976 -0.1846 -0.0741
  354TMC3    C2 5300   2.728   4.245  13.170  0.1097  0.0362  0.1410
  354TMC3    C3 5301   2.788   4.326  13.078  0.1401 -0.1685 -0.0489
  354TMC3    C4 5302   2.820   4.056  13.054  0.4144 -0.0026 -0.9876
  354TMC3    C5 5303   2.886   4.140  12.971  0.3709 -0.4669  0.2681
  354TMC3    C6 5304   2.861   4.279  12.973  0.0288  0.0930 -0.4802
  354TMC3     C 5305   2.661   4.033  13.240  0.3081 -0.1544  0.1849
  354TMC3     O 5306   2.545   4.067  13.247  0.1646 -0.2904  0.3925
  354TMC3     H 5307   2.680   4.296  13.253 -0.1523  0.6389 -0.3770
  354TMC3    H1 5308   2.836   3.949  13.048  0.2743 -0.0304 -0.8806
  354TMC3    H2 5309   2.911   4.354  12.911 -1.5431 -1.0193 -3.1031
  354TMC3    C7 5310   2.934   4.084  12.850  0.4583 -0.1495 -0.7449
  354TMC3    C8 5311   2.783   4.475  13.103  0.0053  0.2293 -0.1631
  354TMC3    O1 5312   2.908   3.966  12.827  0.2630  0.3571 -0.2437
  354TMC3    O2 5313   2.779   4.504  13.222  0.3899  0.2431 -0.1342
  355MPD2     C 5314   2.471   0.403  11.621 -0.0330 -0.3636 -0.2638
  355MPD2    C1 5315   2.492   0.456  11.496 -0.4510  0.5018  0.1788
  355MPD2    C2 5316   2.620   0.463  11.453  0.2421  0.3231 -0.3979
  355MPD2    C3 5317   2.728   0.450  11.538  0.5454 -0.6033 -0.1832
  355MPD2    C4 5318   2.714   0.406  11.663 -0.8051 -0.3364  0.0591
  355MPD2    C5 5319   2.582   0.374  11.706 -0.2957  0.2812  0.5633
  355MPD2     H 5320   2.636   0.479  11.347 -0.6342 -0.8670 -0.7113
  355MPD2    H1 5321   2.801   0.379  11.720 -1.0681 -1.1503  0.0677
  355MPD2    H2 5322   2.369   0.387  11.655 -0.2165 -0.8123 -1.0231
  355MPD2    H3 5323   2.562   0.339  11.807  1.1778 -0.3017  0.6407
  355MPD2     N 5324   2.860   0.480  11.503  0.0100  0.6676  0.3601
  355MPD2    H5 5325   2.940   0.468  11.564  0.7470 -2.5274 -1.2681
  355MPD2    N1 5326   2.379   0.485  11.421 -0.9591  0.5214 -0.1251
  355MPD2    H7 5327   2.294   0.446  11.459 -0.1080  0.1490  1.4076
  356TMC3    C1 5328   3.034   0.609  11.396 -0.1030  0.1227  0.3552
  356TMC3    C2 5329   3.046   0.706  11.305  0.1021 -0.0911 -0.2852
  356TMC3    C3 5330   3.126   0.808  11.327  1.1081  0.3438  0.6810
  356TMC3    C4 5331   3.104   0.625  11.518  0.2856 -0.2797  0.2674
  356TMC3    C5 5332   3.177   0.736  11.549 -0.0700  0.2257 -0.5477
  356TMC3    C6 5333   3.188   0.828  11.444 -0.2358  0.2532 -0.3825
  356TMC3     C 5334   2.902   0.547  11.387 -0.1147 -0.4539 -0.8973
  356TMC3     O 5335   2.850   0.548  11.278  0.4464 -0.1357  0.0155
  356TMC3     H 5336   3.000   0.692  11.207  2.9020 -1.6214 -1.3869
  356TMC3    H1 5337   3.084   0.554  11.598  0.7976 -1.7495 -0.9039
  356TMC3    H2 5338   3.247   0.917  11.461  0.6981 -0.7640  1.6713
  356TMC3    C7 5339   3.228   0.767  11.680  0.1325 -0.0927 -0.1604
  356TMC3    C8 5340   3.117   0.918  11.232 -0.8009  0.3059 -0.0930
  356TMC3    O1 5341   3.250   0.666  11.745 -0.7620  0.7745 -0.6426
  356TMC3    O2 5342   3.014   0.929  11.167 -0.4015  0.7265 -0.2283
  357MPD2     C 5343   2.421   3.796   0.977 -0.9172 -0.3953  0.3579
  357MPD2    C1 5344   2.516   3.819   1.074  0.3283 -0.0642  0.1918
  357MPD2    C2 5345   2.504   3.762   1.199 -0.2941  0.4620 -0.1784
  357MPD2    C3 5346   2.395   3.675   1.220  0.3928  0.8649  0.9301
  357MPD2    C4 5347   2.303   3.651   1.117  0.1214  0.1113 -0.8535
  357MPD2    C5 5348   2.315   3.710   0.993  0.3484  0.4689 -0.3944
  357MPD2     H 5349   2.582   3.780   1.272  1.6543  0.0423 -2.1528
  357MPD2    H1 5350   2.216   3.587   1.131 -0.8262  1.7129  0.5912
  357MPD2    H2 5351   2.429   3.841   0.879 -1.4755  1.0800  0.9925
  357MPD2    H3 5352   2.240   3.694   0.916 -1.3990  1.9855  0.9962
  357MPD2     N 5353   2.374   3.597   1.346 -0.1171  0.8392  0.0128
  357MPD2    H5 5354   2.311   3.518   1.339  1.0045 -0.1636  1.4594
  357MPD2    N1 5355   2.620   3.904   1.038 -0.0791  0.7410  0.1577
  357MPD2    H7 5356   2.621   3.932   0.940 -0.8696  1.1765  0.2786
  358TMC3    C1 5357   2.786   4.085   1.049 -0.8306 -0.4460  0.5451
  358TMC3    C2 5358   2.744   4.138   0.937  0.1385 -0.1009 -0.1091
  358TMC3    C3 5359   2.802   4.257   0.888  0.1626  0.2656 -0.1787
  358TMC3    C4 5360   2.892   4.138   1.125  0.3486  0.2680 -0.5025
  358TMC3    C5 5361   2.951   4.254   1.077  0.5474 -0.4109 -0.6475
  358TMC3    C6 5362   2.907   4.312   0.960 -0.8983 -0.7117 -0.1450
  358TMC3     C 5363   2.720   3.968   1.115 -0.1024 -0.0154  0.0331
  358TMC3     O 5364   2.731   3.958   1.235  0.2353 -0.1303  0.3527
  358TMC3     H 5365   2.650   4.103   0.898  1.6275 -1.1052 -2.7605
  358TMC3    H1 5366   2.930   4.080   1.209 -1.6422  0.1384  0.3183
  358TMC3    H2 5367   2.958   4.404   0.935 -0.4457 -1.5039 -2.1573
  358TMC3    C7 5368   3.083   4.303   1.142  0.2241  0.6229 -0.7888
  358TMC3    C8 5369   2.781   4.287   0.746  0.7914  0.2416 -0.2553
  358TMC3    O1 5370   3.114   4.251   1.252 -0.2509  0.1831 -0.2519
  358TMC3    O2 5371   2.839   4.387   0.704 -0.0146 -0.4143 -0.3390
  359MPD2     C 5372   3.303   3.850  12.353  0.4761  0.1855  0.1663
  359MPD2    C1 5373   3.259   3.843  12.227 -0.4610 -0.1870  0.2685
  359MPD2    C2 5374   3.155   3.762  12.201 -0.1585 -0.2419  0.3320
  359MPD2    C3 5375   3.080   3.710  12.301 -0.2248  0.7534 -0.1544
  359MPD2    C4 5376   3.114   3.717  12.429 -0.2549  0.2363 -0.2471
  359MPD2    C5 5377   3.236   3.783  12.454 -0.0585  0.4113  0.4736
  359MPD2     H 5378   3.134   3.744  12.096 -3.6819  2.0933  0.6487
  359MPD2    H1 5379   3.068   3.659  12.508  1.8628  0.2414  0.9911
  359MPD2    H2 5380   3.377   3.924  12.382  1.0123 -0.2745 -0.0238
  359MPD2    H3 5381   3.275   3.796  12.554 -2.0258  0.0733  1.2711
  359MPD2     N 5382   2.956   3.642  12.278  0.7115 -0.0654  0.7699
  359MPD2    H5 5383   2.914   3.601  12.361 -0.0805  0.3777  0.5784
  359MPD2    N1 5384   3.322   3.905  12.117  0.1333 -0.0479  0.0855
  359MPD2    H7 5385   3.268   3.898  12.031  0.9171  1.9532 -0.5617
  360TMC3    C1 5386   3.476   4.040  11.996 -0.4799 -0.6439  0.5832
  360TMC3    C2 5387   3.597   4.102  11.995  0.4174 -0.2347 -0.0238
  360TMC3    C3 5388   3.663   4.130  11.881  0.3202 -0.7777  0.1864
  360TMC3    C4 5389   3.422   3.999  11.880  0.2781  0.2850 -0.3165
  360TMC3    C5 5390   3.500   4.006  11.766  0.0798  0.1396 -0.1544
  360TMC3    C6 5391   3.619   4.072  11.765 -0.0445 -0.2088 -0.4133
  360TMC3     C 5392   3.439   3.978  12.119  0.6798  0.7389  0.2267
  360TMC3     O 5393   3.527   3.976  12.205 -0.7916 -0.3089  0.5714
  360TMC3     H 5394   3.625   4.151  12.088  0.0972  1.6558 -0.9316
  360TMC3    H1 5395   3.327   3.951  11.865 -0.6697  1.7168  1.1104
  360TMC3    H2 5396   3.675   4.073  11.672 -0.4728 -1.5408 -0.6898
  360TMC3    C7 5397   3.449   3.976  11.638  0.1831 -0.0315 -0.2987
  360TMC3    C8 5398   3.803   4.143  11.887  0.0458  0.3409 -0.5791
  360TMC3    O1 5399   3.467   4.053  11.547 -0.0193  0.0116 -0.6018
  360TMC3    O2 5400   3.840   4.239  11.954 -0.0656 -0.1092 -0.0242
  361MPD2     C 5401   4.138   2.815  16.829  0.2817 -0.2527 -0.1583
  361MPD2    C1 5402   4.196   2.930  16.874  0.1011  0.0830  0.5702
  361MPD2    C2 5403   4.336   2.944  16.862 -0.1361  0.1977 -0.3475
  361MPD2    C3 5404   4.411   2.833  16.829  0.8964 -0.0087  0.3703
  361MPD2    C4 5405   4.349   2.720  16.770 -0.7629 -0.3839  0.3702
  361MPD2    C5 5406   4.213   2.717  16.767  0.7523 -0.0504 -0.0205
  361MPD2     H 5407   4.392   3.031  16.896 -2.8770  1.8498 -0.0305
  361MPD2    H1 5408   4.395   2.628  16.736 -2.7890 -0.3962 -2.3541
  361MPD2    H2 5409   4.031   2.804  16.836  0.3611 -0.8947  0.0719
  361MPD2    H3 5410   4.158   2.632  16.728  1.3882 -0.7726  0.6576
  361MPD2     N 5411   4.547   2.830  16.839 -1.4965 -0.3499 -0.3287
  361MPD2    H5 5412   4.591   2.747  16.800 -0.2643 -0.3257  1.0140
  361MPD2    N1 5413   4.123   3.039  16.927  0.1349  0.0517 -0.4449
  361MPD2    H7 5414   4.175   3.125  16.918  0.8048 -0.4397 -1.2204
  362TMC3    C1 5415   3.966   3.170  17.025  0.2272 -0.0255 -0.0513
  362TMC3    C2 5416   3.871   3.170  17.127  0.0375 -0.0931  0.4153
  362TMC3    C3 5417   3.809   3.292  17.163 -1.1425 -0.1867 -0.5034
  362TMC3    C4 5418   4.001   3.281  16.954 -0.0561 -0.2215  0.2336
  362TMC3    C5 5419   3.948   3.402  17.002 -0.2449 -0.4721 -0.0573
  362TMC3    C6 5420   3.864   3.411  17.108 -0.4686 -0.4374  0.4660
  362TMC3     C 5421   3.992   3.040  16.975  0.4064  0.3381 -0.7671
  362TMC3     O 5422   3.919   2.945  16.998  0.0308  0.3153  0.9400
  362TMC3     H 5423   3.838   3.077  17.172  0.0294 -0.7065 -0.8542
  362TMC3    H1 5424   4.046   3.267  16.857  0.5970 -0.5996  0.5895
  362TMC3    H2 5425   3.818   3.507  17.127 -0.7509 -0.1529 -1.6941
  362TMC3    C7 5426   3.980   3.523  16.929 -0.3667  0.4542  0.6687
  362TMC3    C8 5427   3.679   3.298  17.236 -0.5662 -0.4632 -0.2244
  362TMC3    O1 5428   3.896   3.607  16.911 -0.5360  0.1453  0.1807
  362TMC3    O2 5429   3.644   3.185  17.274  0.3379  0.2305 -0.2567
  363TMC3    C1 5430   3.229   0.674   9.264  0.5839 -0.3273 -0.2126
  363TMC3    C2 5431   3.198   0.557   9.322 -0.5620  0.4317 -0.3212
  363TMC3    C3 5432   3.152   0.563   9.450 -0.1158  0.5932  0.1361
  363TMC3    C4 5433   3.189   0.795   9.309 -0.0741  0.2089  0.2161
  363TMC3    C5 5434   3.127   0.793   9.428  0.3857 -0.4994 -0.1133
  363TMC3    C6 5435   3.119   0.681   9.509 -0.0020  0.1059  0.2360
  363TMC3     C 5436   3.310   0.674   9.145 -0.4055  0.9913 -0.4138
  363TMC3     O 5437   3.348   0.784   9.101 -0.1458 -0.4515 -0.2432
  363TMC3     H 5438   3.188   0.466   9.263  2.1877  0.3139 -0.6154
  363TMC3    H1 5439   3.210   0.888   9.257  0.2257  1.4377  2.5184
  363TMC3    H2 5440   3.082   0.671   9.611 -1.0086 -1.2425 -0.2631
  363TMC3    C7 5441   3.139   0.914   9.513  0.3621 -0.3584 -0.5151
  363TMC3    C8 5442   3.102   0.451   9.521  0.5765  0.3165  0.1899
  363TMC3    O1 5443   3.148   0.901   9.635 -0.1913 -0.0132 -0.3488
  363TMC3    O2 5444   3.013   0.469   9.601  0.0814  0.2076 -0.5404
  364MPD2     C 5445   1.723   4.456  10.894  0.0050 -0.7923 -0.1805
  364MPD2    C1 5446   1.807   4.483  10.787 -0.0587  0.3840  0.0338
  364MPD2    C2 5447   1.881   4.379  10.734 -0.1012 -0.7462 -0.1351
  364MPD2    C3 5448   1.866   4.251  10.790 -0.4419  0.5267  0.0191
  364MPD2    C4 5449   1.776   4.224  10.894 -0.6108 -0.1137  0.0139
  364MPD2    C5 5450   1.711   4.332  10.951  0.2654  1.0390  0.2714
  364MPD2     H 5451   1.945   4.393  10.648  1.3220 -0.6976  0.9342
  364MPD2    H1 5452   1.780   4.132  10.952  2.0103  0.2299  0.3770
  364MPD2    H2 5453   1.659   4.531  10.938 -0.2444  0.4633 -2.6918
  364MPD2    H3 5454   1.655   4.327  11.044 -2.2933  2.0601 -1.2421
  364MPD2     N 5455   1.950   4.147  10.748 -0.2243  0.1298  0.9256
  364MPD2    H5 5456   1.926   4.055  10.783  0.0042  0.6278  2.3969
  364MPD2    N1 5457   1.795   4.612  10.720  0.5573 -0.1150 -0.1050
  364MPD2    H7 5458   1.744   4.681  10.773  0.1907 -0.7404  0.3514
  365TMC3    C1 5459   1.837   0.069  10.566  0.1849  0.5276  0.4847
  365TMC3    C2 5460   1.919   0.116  10.472  0.7887 -0.1784  0.2811
  365TMC3    C3 5461   1.920   0.252  10.446  0.0428 -0.2229 -0.0627
  365TMC3    C4 5462   1.763   0.149  10.650  0.1776  0.4657  0.0860
  365TMC3    C5 5463   1.769   0.283  10.620 -0.1667 -0.5657 -0.3598
  365TMC3    C6 5464   1.844   0.336  10.516 -0.0779 -0.8034  0.0844
  365TMC3     C 5465   1.856   4.653  10.603  0.6197 -0.2715 -0.0250
  365TMC3     O 5466   1.936   4.592  10.536  0.6828 -0.2671  0.2964
  365TMC3     H 5467   1.965   0.047  10.402 -0.5006  0.4375 -1.1596
  365TMC3    H1 5468   1.694   0.109  10.723  0.7420  2.3824  1.6696
  365TMC3    H2 5469   1.855   0.444  10.512 -0.5375 -0.8759 -3.1414
  365TMC3    C7 5470   1.661   0.362  10.638 -0.2683  0.3570  0.3299
  365TMC3    C8 5471   1.982   0.303  10.328 -0.4207 -0.4624  0.6220
  365TMC3    O1 5472   1.632   0.443  10.549 -0.3725 -0.0857 -0.1749
  365TMC3    O2 5473   1.974   0.425  10.322 -0.4759  0.3322 -0.0173
  366MPD2     C 5474   4.578   1.244  15.270 -0.9929 -0.4221 -0.3180
  366MPD2    C1 5475   4.699   1.301  15.247 -0.1150 -0.6817  0.5570
  366MPD2    C2 5476   0.086   1.226  15.238 -0.1680 -0.5476 -0.2545
  366MPD2    C3 5477   0.075   1.086  15.239  0.1571  0.1616  1.0434
  366MPD2    C4 5478   4.675   1.027  15.265 -0.2593 -0.4513  0.7278
  366MPD2    C5 5479   4.561   1.106  15.276  0.7450 -0.3824  0.4577
  366MPD2     H 5480   0.186   1.265  15.220  0.1451 -0.0891  2.4059
  366MPD2    H1 5481   4.671   0.920  15.280  0.9446 -0.4986  0.6590
  366MPD2    H2 5482   4.498   1.307  15.308 -1.8912 -2.1778  0.7218
  366MPD2    H3 5483   4.463   1.061  15.287  1.1945 -1.8895 -1.8378
  366MPD2     N 5484   0.198   1.018  15.222 -0.0200 -0.0926  0.5357
  366MPD2    H5 5485   0.275   1.078  15.195 -1.2755  1.4575  0.4030
  366MPD2    N1 5486   4.717   1.436  15.236  0.1382 -0.1461  0.5964
  366MPD2    H7 5487   0.091   1.464  15.247  0.2784 -0.0790 -0.9033
  367TMC3    C1 5488   4.678   1.666  15.206  0.6403 -0.8066 -0.2007
  367TMC3    C2 5489   0.040   1.679  15.307 -0.1704 -0.2857 -0.1736
  367TMC3    C3 5490   0.119   1.792  15.311 -0.2821  0.0443 -0.7907
  367TMC3    C4 5491   4.666   1.750  15.106 -0.7839 -0.4366  0.4122
  367TMC3    C5 5492   0.021   1.858  15.107 -0.1773  0.3810  0.5200
  367TMC3    C6 5493   0.109   1.882  15.209 -0.2353  0.1830 -0.6513
  367TMC3     C 5494   4.622   1.531  15.204 -0.5879 -0.1524 -0.0138
  367TMC3     O 5495   4.500   1.511  15.175 -0.2759 -0.4440  0.2849
  367TMC3     H 5496   0.029   1.612  15.391 -0.8055 -1.9563 -1.5882
  367TMC3    H1 5497   4.585   1.737  15.035  0.8761 -3.5009 -0.9191
  367TMC3    H2 5498   0.171   1.970  15.199  0.8781 -0.2463  2.3911
  367TMC3    C7 5499   4.705   1.972  15.031 -0.4589 -1.2958 -0.9448
  367TMC3    C8 5500   0.203   1.818  15.429  0.6284  0.7001  0.4651
  367TMC3    O1 5501   0.035   2.081  15.054 -0.7694 -0.0175 -0.7459
  367TMC3    O2 5502   0.223   1.723  15.500  0.0986 -0.1454 -0.3088
  368MPD2     C 5503   1.546   2.734  13.057  0.4827  0.0622  0.4217
  368MPD2    C1 5504   1.544   2.872  13.038  0.3702 -0.4268  0.0927
  368MPD2    C2 5505   1.611   2.921  12.923 -0.5566 -0.5089 -0.9611
  368MPD2    C3 5506   1.682   2.844  12.829 -0.1583  0.3923 -0.2463
  368MPD2    C4 5507   1.685   2.712  12.858 -0.0322 -0.1280  0.3362
  368MPD2    C5 5508   1.619   2.654  12.966 -0.4563  0.2272  0.2698
  368MPD2     H 5509   1.619   3.029  12.914 -0.9453 -0.5757 -2.1651
  368MPD2    H1 5510   1.739   2.644  12.793 -0.8808 -0.8418  0.3788
  368MPD2    H2 5511   1.498   2.695  13.147  1.0960  1.4283  1.3297
  368MPD2    H3 5512   1.620   2.547  12.978  1.0044  0.3578  1.3123
  368MPD2     N 5513   1.754   2.896  12.718 -0.3023  0.2360 -0.3742
  368MPD2    H5 5514   1.790   2.829  12.651  0.6227 -0.3769  0.7319
  368MPD2    N1 5515   1.470   2.948  13.131 -0.1834 -0.2650 -0.2455
  368MPD2    H7 5516   1.407   2.894  13.190  0.3621 -1.2484 -0.5674
  369TMC3    C1 5517   1.340   3.146  13.180 -0.4481  0.0612  0.1467
  369TMC3    C2 5518   1.339   3.280  13.186  0.1076 -1.3080 -0.0650
  369TMC3    C3 5519   1.222   3.343  13.217 -0.1733  0.2460 -0.5702
  369TMC3    C4 5520   1.222   3.077  13.202 -0.5681  0.2597  0.1754
  369TMC3    C5 5521   1.106   3.148  13.231  0.3890 -0.7350  0.0551
  369TMC3    C6 5522   1.101   3.286  13.238  0.9465 -0.0332 -0.3668
  369TMC3     C 5523   1.462   3.086  13.121 -0.7935  0.0604  0.2936
  369TMC3     O 5524   1.542   3.168  13.078 -0.2822 -0.9668 -0.5554
  369TMC3     H 5525   1.429   3.339  13.170 -0.6507 -0.6298 -1.8967
  369TMC3    H1 5526   1.216   2.969  13.208 -0.3354  0.2532  0.2851
  369TMC3    H2 5527   1.011   3.337  13.270  0.7633  1.6725 -3.6610
  369TMC3    C7 5528   0.988   3.070  13.251 -0.1157 -0.1787 -0.3802
  369TMC3    C8 5529   1.193   3.449  13.129 -0.4339 -0.3882  0.0734
  369TMC3    O1 5530   1.001   2.952  13.281 -0.2640  0.3297  0.2361
  369TMC3    O2 5531   1.080   3.455  13.084  0.1792  0.6275 -0.8512
  370TMC3    C1 5532   0.826   3.777  15.888  0.1834  0.9047  0.0711
  370TMC3    C2 5533   0.769   3.708  15.993  0.0791  0.0522 -0.5446
  370TMC3    C3 5534   0.764   3.573  15.995 -0.3624 -0.3945  0.1743
  370TMC3    C4 5535   0.913   3.711  15.802 -0.0600 -0.2916  0.0106
  370TMC3    C5 5536   0.917   3.577  15.822  0.0223  0.2537  0.0722
  370TMC3    C6 5537   0.847   3.503  15.918  0.0492  0.6302 -0.0679
  370TMC3     C 5538   0.861   3.912  15.939  0.7519  0.5488 -0.4569
  370TMC3     O 5539   0.830   3.937  16.056 -0.7414  0.4048  0.9622
  370TMC3     H 5540   0.685   3.760  16.039  0.3448  0.6137 -0.6980
  370TMC3    H1 5541   0.969   3.751  15.718 -0.2450 -1.8152 -0.8299
  370TMC3    H2 5542   0.842   3.395  15.925  2.3671  0.5400  0.2491
  370TMC3    C7 5543   0.988   3.504  15.715 -0.3965  0.3041  0.0215
  370TMC3    C8 5544   0.711   3.506  16.108 -0.5047 -0.1782  0.1459
  370TMC3    O1 5545   0.970   3.539  15.600  0.5143  0.0754  0.2339
  370TMC3    O2 5546   0.734   3.386  16.125 -0.2997 -0.4526 -0.3738
  371TMC3    C1 5547   2.145   1.783  15.456  0.0875  0.2298 -0.2693
  371TMC3    C2 5548   2.044   1.809  15.547  0.2923 -0.2681  0.6064
  371TMC3    C3 5549   1.989   1.934  15.563  0.2528 -0.5167 -0.4831
  371TMC3    C4 5550   2.195   1.886  15.381 -0.2184 -0.5743  0.1576
  371TMC3    C5 5551   2.135   2.015  15.388  0.5760 -0.5842  0.2076
  371TMC3    C6 5552   2.039   2.035  15.483 -0.2478  0.2983 -0.0092
  371TMC3     C 5553   2.207   1.652  15.450  0.2863  0.1221  0.3553
  371TMC3     O 5554   2.305   1.619  15.380 -0.3009 -0.3329  0.0306
  371TMC3     H 5555   2.014   1.739  15.624 -1.0033 -2.8203 -2.2247
  371TMC3    H1 5556   2.277   1.873  15.311 -1.6244 -1.7396 -1.2864
  371TMC3    H2 5557   2.002   2.135  15.503 -0.0997  0.1652  0.9344
  371TMC3    C7 5558   2.196   2.141  15.334 -0.1455 -0.2991  0.3813
  371TMC3    C8 5559   1.922   1.964  15.690 -0.8426 -0.0689 -0.0575
  371TMC3    O1 5560   2.141   2.247  15.359  0.3740  0.3141 -0.6396
  371TMC3    O2 5561   1.906   1.875  15.771 -0.7907 -0.1955 -0.2214
  372MPD2     C 5562   1.398   3.196  13.516  0.2144 -0.1057 -0.1045
  372MPD2    C1 5563   1.512   3.129  13.475  0.2287 -0.3962  0.5332
  372MPD2    C2 5564   1.505   2.992  13.474 -0.3365 -0.3241  0.0899
  372MPD2    C3 5565   1.391   2.917  13.496 -0.7009 -0.2363  0.1033
  372MPD2    C4 5566   1.279   2.986  13.539  0.0449 -0.1653  0.8767
  372MPD2    C5 5567   1.288   3.122  13.543 -0.1354  0.2809 -0.1887
  372MPD2     H 5568   1.596   2.938  13.455 -2.0905 -2.5621 -1.8508
  372MPD2    H1 5569   1.184   2.943  13.566  0.5902 -1.8264  0.1759
  372MPD2    H2 5570   1.397   3.303  13.534  0.1858  0.0644 -1.1300
  372MPD2    H3 5571   1.196   3.175  13.564 -0.9273 -1.4260  0.6222
  372MPD2     N 5572   1.384   2.783  13.500  0.0669  0.1889  0.6367
  372MPD2    H5 5573   1.295   2.744  13.532 -0.6814  0.7030 -0.8182
  372MPD2    N1 5574   1.628   3.202  13.440  0.2623  0.3321 -0.1342
  372MPD2    H7 5575   1.713   3.154  13.410  0.1187 -0.3790  0.6273
  373TMC3    C1 5576   1.459   2.559  13.522  0.2100 -0.6122  0.6329
  373TMC3    C2 5577   1.396   2.553  13.645 -0.2691 -0.2748  0.0364
  373TMC3    C3 5578   1.401   2.442  13.717 -0.1005 -0.0518  0.6944
  373TMC3    C4 5579   1.537   2.454  13.476 -0.4420 -0.2435  0.6560
  373TMC3    C5 5580   1.550   2.346  13.559 -0.4335 -0.7366  0.1018
  373TMC3    C6 5581   1.478   2.338  13.679  0.0271 -0.0148 -0.3422
  373TMC3     C 5582   1.485   2.691  13.466  1.5958  0.1612 -0.7329
  373TMC3     O 5583   1.579   2.707  13.389  0.5243 -0.4714 -0.1684
  373TMC3     H 5584   1.335   2.630  13.690 -3.9544 -2.0018 -1.9707
  373TMC3    H1 5585   1.601   2.460  13.388 -0.3478  1.0964  0.8203
  373TMC3    H2 5586   1.503   2.256  13.745 -0.5716  1.0934  1.2800
  373TMC3    C7 5587   1.651   2.246  13.534  0.3792  0.0023  0.3043
  373TMC3    C8 5588   1.412   2.473  13.864 -0.1793  0.1818 -0.4371
  373TMC3    O1 5589   1.649   2.175  13.437  0.1553 -0.1691 -0.9412
  373TMC3    O2 5590   1.378   2.382  13.938 -0.2142  0.2727  0.3046
  374TMC3    C1 5591   2.811   3.298   9.309 -0.5506  0.0278 -0.2004
  374TMC3    C2 5592   2.882   3.326   9.424  0.2014  0.0339  0.9801
  374TMC3    C3 5593   3.002   3.387   9.406 -0.3072 -0.8147  0.0841
  374TMC3    C4 5594   2.848   3.343   9.182 -0.1452 -0.3029 -0.0754
  374TMC3    C5 5595   2.974   3.394   9.168  0.2501 -0.2734  0.0969
  374TMC3    C6 5596   3.044   3.423   9.281  0.1128  0.0980 -0.2196
  374TMC3     C 5597   2.713   3.191   9.308 -0.3483 -0.3398  0.8564
  374TMC3     O 5598   2.667   3.156   9.196  1.1523 -0.1472  0.4311
  374TMC3     H 5599   2.843   3.289   9.518  0.0936  1.4505  1.4877
  374TMC3    H1 5600   2.787   3.316   9.096 -1.9186 -0.4072  1.2256
  374TMC3    H2 5601   3.152   3.436   9.278  0.3101 -1.5718  0.0351
  374TMC3    C7 5602   3.014   3.477   9.056 -0.3797  0.8094  0.1304
  374TMC3    C8 5603   3.071   3.462   9.511  0.1891  0.0236  0.7356
  374TMC3    O1 5604   3.112   3.551   9.071  0.2881  0.1890  0.2491
  374TMC3    O2 5605   3.121   3.563   9.470  0.4104 -0.2132 -0.0875
  375MPD2     C 5606   2.151   4.468  16.980 -0.4352 -0.0011 -0.1004
  375MPD2    C1 5607   2.112   4.463  16.846 -0.6756 -0.4109 -0.0107
  375MPD2    C2 5608   2.145   4.353  16.770  0.4382 -0.5161  0.5363
  375MPD2    C3 5609   2.221   4.246  16.825 -0.4342  0.3396 -0.0408
  375MPD2    C4 5610   2.268   4.261  16.961  0.3851 -0.4676  0.1893
  375MPD2    C5 5611   2.227   4.368  17.037  0.3941  0.2357  0.3248
  375MPD2     H 5612   2.111   4.341  16.668 -0.8070  0.1916  0.8764
  375MPD2    H1 5613   2.342   4.193  17.003 -0.2565 -1.1222  0.2623
  375MPD2    H2 5614   2.128   4.552  17.045 -0.7777 -1.5419  1.7657
  375MPD2    H3 5615   2.267   4.383  17.137 -1.2844 -0.5215  1.1113
  375MPD2     N 5616   2.273   4.127  16.762 -0.2398 -0.1376  0.5140
  375MPD2    H5 5617   2.308   4.049  16.815  0.6460  0.8844  1.4310
  375MPD2    N1 5618   2.028   4.555  16.785  1.0499 -0.4132 -0.5207
  375MPD2    H7 5619   2.001   4.531  16.690  0.4976 -3.1034  0.3091
  376TMC3    C1 5620   2.342   3.991  16.581  0.3827  0.7951 -0.3747
  376TMC3    C2 5621   2.467   3.980  16.635 -0.4041  0.5123  0.0794
  376TMC3    C3 5622   2.552   3.890  16.575  0.4363  0.2979 -0.4534
  376TMC3    C4 5623   2.298   3.922  16.472  0.3226 -0.3553 -0.2888
  376TMC3    C5 5624   2.382   3.826  16.424  0.7684 -0.4470  0.2888
  376TMC3    C6 5625   2.509   3.809  16.474 -0.6269 -0.5459 -0.1377
  376TMC3     C 5626   2.251   4.095  16.629  0.2943  0.3473 -0.3310
  376TMC3     O 5627   2.180   4.155  16.549 -0.3398  0.2233  0.4426
  376TMC3     H 5628   2.503   4.032  16.724  1.6503 -0.1440 -0.3679
  376TMC3    H1 5629   2.196   3.927  16.434  0.2788  0.2224 -0.0874
  376TMC3    H2 5630   2.587   3.760  16.418 -1.3166 -1.3136 -0.4314
  376TMC3    C7 5631   2.336   3.766  16.297  0.5400 -0.3050  0.8860
  376TMC3    C8 5632   2.685   3.930  16.558  1.0418 -0.0142  0.3355
  376TMC3    O1 5633   2.257   3.836  16.235 -0.6471 -0.5682  0.2546
  376TMC3    O2 5634   2.700   4.025  16.487 -0.0506  0.4716  0.1701
  377MPD2     C 5635   0.426   3.473  12.457  0.1436 -0.1465 -0.7492
  377MPD2    C1 5636   0.448   3.340  12.458 -0.5979  0.1014  0.5602
  377MPD2    C2 5637   0.338   3.256  12.466  0.2748  0.4033  0.2898
  377MPD2    C3 5638   0.214   3.314  12.500  0.6461 -0.5993 -1.0094
  377MPD2    C4 5639   0.196   3.454  12.508  0.1071  0.1989 -0.6581
  377MPD2    C5 5640   0.305   3.534  12.480 -0.4821  0.9843 -0.4110
  377MPD2     H 5641   0.346   3.148  12.473  1.2372  0.3322 -1.8442
  377MPD2    H1 5642   0.096   3.496  12.500 -0.2534 -0.5331 -0.0865
  377MPD2    H2 5643   0.509   3.542  12.446  0.3391 -0.1991  0.3887
  377MPD2    H3 5644   0.320   3.639  12.500 -1.7462  1.2737 -0.9881
  377MPD2     N 5645   0.101   3.230  12.489  0.1349 -0.1787  0.5548
  377MPD2    H5 5646   0.013   3.277  12.506  0.5169 -0.0477  2.2315
  377MPD2    N1 5647   0.579   3.296  12.437  0.5355 -0.5926 -0.1957
  377MPD2    H7 5648   0.646   3.359  12.394  1.3301 -1.1139  0.2658
  378TMC3    C1 5649   0.962   3.216  12.336  0.3320  0.0004  0.9730
  378TMC3    C2 5650   0.835   3.242  12.367 -0.0167  0.6418  0.3395
  378TMC3    C3 5651   0.772   3.162  12.457  0.1511  0.0287 -0.3423
  378TMC3    C4 5652   1.029   3.102  12.386  0.7288 -0.1637 -0.1749
  378TMC3    C5 5653   0.968   3.028  12.480  0.3869 -0.7600 -1.0456
  378TMC3    C6 5654   0.838   3.056  12.516  0.4349  0.6180 -0.0486
  378TMC3     C 5655   1.016   3.269  12.217 -0.5677 -0.1779  0.5081
  378TMC3     O 5656   0.933   3.314  12.136 -0.0340  0.1544  0.1432
  378TMC3     H 5657   0.782   3.324  12.320  1.7900  2.6411  1.8169
  378TMC3    H1 5658   1.126   3.085  12.340  1.1992  0.3859  0.6111
  378TMC3    H2 5659   0.793   2.987  12.586  0.9376  0.2326 -0.1092
  378TMC3    C7 5660   1.037   2.914  12.537  0.5114  0.6201 -0.0844
  378TMC3    C8 5661   0.628   3.175  12.483  0.7095 -0.2664 -0.3796
  378TMC3    O1 5662   0.988   2.821  12.599 -0.0284  0.3309  0.2925
  378TMC3    O2 5663   0.577   3.086  12.549  0.2066  0.0781 -0.1231
  379MPD2     C 5664   1.272   2.103  15.999 -0.0583  0.7936  0.0391
  379MPD2    C1 5665   1.194   2.052  16.104  0.3641  0.1832  0.5118
  379MPD2    C2 5666   1.256   1.960  16.191 -0.1585  0.1187  0.4690
  379MPD2    C3 5667   1.385   1.902  16.163 -0.1811  0.9109 -0.1140
  379MPD2    C4 5668   1.462   1.960  16.064 -0.0165  0.6758  0.2604
  379MPD2    C5 5669   1.405   2.059  15.982  0.4482 -0.0156 -0.1944
  379MPD2     H 5670   1.197   1.926  16.276 -0.0991 -1.2479 -0.0398
  379MPD2    H1 5671   1.559   1.914  16.053 -0.6027 -0.4055 -0.3900
  379MPD2    H2 5672   1.222   2.174  15.934 -2.3237 -0.8524 -0.0315
  379MPD2    H3 5673   1.458   2.109  15.902 -2.2647  0.3684 -1.7143
  379MPD2     N 5674   1.453   1.804  16.234  0.7243 -0.4948  0.5000
  379MPD2    H5 5675   1.553   1.792  16.229  0.6231 -1.3632  0.5032
  379MPD2    N1 5676   1.056   2.080  16.112  0.6761 -0.3254  0.7012
  379MPD2    H7 5677   1.015   2.115  16.026 -0.6645 -2.1933  0.5656
  380TMC3    C1 5678   0.880   1.952  16.138 -0.5560 -0.8486  0.0034
  380TMC3    C2 5679   0.930   1.852  16.052 -0.1100  0.5455 -0.5045
  380TMC3    C3 5680   0.858   1.806  15.952  0.5967  0.5037  0.9282
  380TMC3    C4 5681   0.773   2.027  16.080 -0.5452  0.0652 -0.6666
  380TMC3    C5 5682   0.696   1.967  15.977 -0.4177 -0.3274 -0.0154
  380TMC3    C6 5683   0.740   1.857  15.907 -0.1404 -0.2331  0.5932
  380TMC3     C 5684   0.973   2.031  16.210  0.3679  0.4947 -0.3641
  380TMC3     O 5685   0.990   2.014  16.332  0.0199  0.2994 -0.2813
  380TMC3     H 5686   1.028   1.814  16.083 -0.6042  0.1461  0.5841
  380TMC3    H1 5687   0.713   2.091  16.143  2.1510 -0.8822  2.9061
  380TMC3    H2 5688   0.678   1.820  15.826 -3.3412  0.7320  2.6067
  380TMC3    C7 5689   0.591   2.053  15.914 -0.1877  0.3630 -0.1760
  380TMC3    C8 5690   0.923   1.751  15.833  0.4018  0.0211 -0.3071
  380TMC3    O1 5691   0.594   2.174  15.943 -0.3118 -0.5795 -0.2481
  380TMC3    O2 5692   0.880   1.756  15.720 -0.0053  0.4542 -0.2355
  381TMC3    C1 5693   0.909   2.805  16.188  0.0480 -0.6800  0.3331
  381TMC3    C2 5694   0.933   2.913  16.110  0.9586 -0.2520  0.1376
  381TMC3    C3 5695   0.918   3.032  16.182  0.0457  0.0088  0.0868
  381TMC3    C4 5696   0.861   2.804  16.320 -0.2263  0.6496  0.2295
  381TMC3    C5 5697   0.834   2.922  16.370 -0.8938  0.0118  0.3749
  381TMC3    C6 5698   0.869   3.044  16.307  0.5256  0.4423 -0.2008
  381TMC3     C 5699   0.905   2.671  16.123 -0.1182  0.4619  0.5724
  381TMC3     O 5700   0.838   2.584  16.181  0.2853  0.1358  0.1450
  381TMC3     H 5701   0.957   2.908  16.004 -2.4508  1.2145 -0.7121
  381TMC3    H1 5702   0.826   2.712  16.366  0.1247 -0.5026 -1.7832
  381TMC3    H2 5703   0.834   3.137  16.351 -0.8313  0.3459 -1.0877
  381TMC3    C7 5704   0.782   2.922  16.500  0.5336 -0.3293 -0.0241
  381TMC3    C8 5705   1.004   3.137  16.135 -0.1205  0.0105  0.1123
  381TMC3    O1 5706   0.803   2.815  16.556 -0.1270  0.7620 -0.2973
  381TMC3    O2 5707   1.060   3.108  16.034 -0.0544 -0.3695  0.1418
  382MPD2     C 5708   0.330   0.808  17.177  0.0030 -0.1338  0.4078
  382MPD2    C1 5709   0.264   0.839  17.291  0.5047  0.5881  0.0235
  382MPD2    C2 5710   0.140   0.789  17.319  0.3052 -0.3449 -1.0079
  382MPD2    C3 5711   0.079   0.712  17.219 -0.6704  0.4048 -0.1588
  382MPD2    C4 5712   0.140   0.683  17.097  0.2870 -0.7903  0.2433
  382MPD2    C5 5713   0.270   0.729  17.083 -0.9968  0.4724  0.2568
  382MPD2     H 5714   0.087   0.803  17.413  0.0325 -2.1731 -0.8876
  382MPD2    H1 5715   0.105   0.626  17.012  0.6978 -2.8707  1.4592
  382MPD2    H2 5716   0.433   0.842  17.173 -0.4025  1.3473  2.6980
  382MPD2    H3 5717   0.316   0.700  16.989  0.2560  1.4326  0.5657
  382MPD2     N 5718   4.676   0.660  17.243  0.2340 -1.0307  0.2066
  382MPD2    H5 5719   4.641   0.600  17.170  1.5221 -1.4987 -0.0149
  382MPD2    N1 5720   0.334   0.910  17.387  0.6623  0.1393  0.6114
  382MPD2    H7 5721   0.426   0.949  17.371  0.3069  0.5973 -0.2991
  383TMC3    C1 5722   4.481   0.598  17.371 -0.3597  0.0591 -0.5798
  383TMC3    C2 5723   4.451   0.490  17.290 -0.0743  0.4692  0.0134
  383TMC3    C3 5724   4.337   0.418  17.317  0.0466  0.2546 -0.0504
  383TMC3    C4 5725   4.390   0.646  17.460  0.6460  0.2359 -0.6331
  383TMC3    C5 5726   4.274   0.565  17.481 -0.0404  0.5457 -0.9565
  383TMC3    C6 5727   4.244   0.449  17.408 -0.5775 -0.1304 -0.5290
  383TMC3     C 5728   4.585   0.698  17.336 -0.1796  0.4740  1.4212
  383TMC3     O 5729   4.592   0.790  17.412 -0.4744 -0.4585 -0.6999
  383TMC3     H 5730   4.528   0.445  17.227 -1.5132  0.1420 -1.5075
  383TMC3    H1 5731   4.405   0.738  17.515  1.1807 -0.3504  0.1896
  383TMC3    H2 5732   4.151   0.396  17.423  1.2715 -2.8263  1.4618
  383TMC3    C7 5733   4.204   0.569  17.607  0.0595  0.0777  0.1433
  383TMC3    C8 5734   4.297   0.303  17.237 -0.2577  0.1573 -0.1271
  383TMC3    O1 5735   4.090   0.515  17.612 -0.3158  0.7813  0.0138
  383TMC3    O2 5736   4.175   0.275  17.241 -0.3486 -0.4118  1.0879
  384MPD2     C 5737   2.009   0.877  11.724 -0.0013 -0.0593  0.4412
  384MPD2    C1 5738   2.028   0.867  11.864 -0.4453 -0.1213 -0.1128
  384MPD2    C2 5739   2.054   0.743  11.917  0.0733 -0.7516  0.0834
  384MPD2    C3 5740   2.064   0.633  11.841  0.0381 -0.0102 -0.0789
  384MPD2    C4 5741   2.041   0.640  11.706 -0.1047 -0.2467  0.3422
  384MPD2    C5 5742   2.024   0.765  11.648 -0.0547  0.5021  0.0202
  384MPD2     H 5743   2.083   0.737  12.021 -0.5892  1.4344  0.3945
  384MPD2    H1 5744   2.050   0.556  11.637 -0.8752 -1.6904  1.9929
  384MPD2    H2 5745   1.989   0.972  11.677 -0.1220 -0.1548  0.2962
  384MPD2    H3 5746   2.019   0.783  11.541 -1.1958 -1.4515 -0.2525
  384MPD2     N 5747   2.088   0.504  11.905  0.7585 -0.3828 -0.2315
  384MPD2    H5 5748   2.086   0.420  11.848  0.0172 -1.2874  1.1253
  384MPD2    N1 5749   2.021   0.978  11.952  0.2881  0.4563  0.1322
  384MPD2    H7 5750   2.018   0.962  12.052  1.9686 -1.4856 -0.1390
  385TMC3    C1 5751   2.111   0.359  12.096  0.0668  0.6149 -0.7241
  385TMC3    C2 5752   1.993   0.291  12.072  0.3920  0.0163 -1.4712
  385TMC3    C3 5753   1.940   0.219  12.170  0.0378  0.0951  0.6184
  385TMC3    C4 5754   2.164   0.352  12.222  0.0101  0.1869 -0.0505
  385TMC3    C5 5755   2.100   0.287  12.324  0.4725  0.3511 -0.0768
  385TMC3    C6 5756   1.996   0.209  12.292 -0.5768  0.3859  0.3024
  385TMC3     C 5757   2.130   0.488  12.034  0.9396  0.3845 -0.1461
  385TMC3     O 5758   2.168   0.573  12.116 -0.0821  0.6404  0.2399
  385TMC3     H 5759   1.936   0.298  11.980 -0.4856  2.5735 -0.7239
  385TMC3    H1 5760   2.248   0.415  12.250  2.5849 -2.7518 -1.0870
  385TMC3    H2 5761   1.948   0.147  12.367  3.6959 -0.7738  2.0528
  385TMC3    C7 5762   2.083   0.366  12.450  0.3421  0.2195  0.4474
  385TMC3    C8 5763   1.799   0.232  12.176  0.4583 -0.2546  0.9533
  385TMC3    O1 5764   2.017   0.319  12.542  0.1757 -0.1811  0.1669
  385TMC3    O2 5765   1.768   0.292  12.277 -0.8501  0.3804  0.0731
  386TMC3    C1 5766   2.066   3.371  11.898 -0.1539 -0.0567  0.1220
  386TMC3    C2 5767   2.102   3.402  11.771  0.1185 -0.0442 -0.4944
  386TMC3    C3 5768   2.054   3.517  11.714 -0.0519 -0.4989  0.0485
  386TMC3    C4 5769   1.987   3.454  11.970 -0.1870 -0.2441  0.2525
  386TMC3    C5 5770   1.938   3.567  11.915  0.4145 -0.4142  0.5930
  386TMC3    C6 5771   1.970   3.599  11.783  0.0465 -0.0643  0.1379
  386TMC3     C 5772   2.108   3.250  11.965  0.7052  1.0719 -0.1939
  386TMC3     O 5773   2.095   3.254  12.084  0.1258 -0.3426  0.4606
  386TMC3     H 5774   2.186   3.349  11.728  0.0508  0.4926 -1.2832
  386TMC3    H1 5775   1.965   3.445  12.075  0.8850  1.9614  0.6643
  386TMC3    H2 5776   1.939   3.699  11.757 -1.0567 -0.6121 -0.7086
  386TMC3    C7 5777   1.801   3.602  11.962 -0.4215 -0.6355  0.1516
  386TMC3    C8 5778   2.026   3.531  11.571 -0.1422  0.5777  0.2061
  386TMC3    O1 5779   1.773   3.600  12.080  0.0108 -0.1357  0.3772
  386TMC3    O2 5780   1.941   3.614  11.544 -0.6289  0.3091  0.1664
  387MPD2     C 5781   4.070   3.282   9.908 -0.3131  0.0510  0.2121
  387MPD2    C1 5782   4.135   3.235  10.021 -0.2259 -0.6693  0.2120
  387MPD2    C2 5783   4.158   3.102  10.050 -0.3562  0.0499 -0.5744
  387MPD2    C3 5784   4.117   3.016   9.952  0.4798  0.9210 -0.1780
  387MPD2    C4 5785   4.035   3.051   9.846 -0.1640  0.4169 -0.9454
  387MPD2    C5 5786   4.012   3.185   9.828 -0.4443  0.5609 -0.2963
  387MPD2     H 5787   4.225   3.074  10.130 -0.4254 -1.1675 -0.9416
  387MPD2    H1 5788   4.006   2.981   9.768 -0.4480 -1.0126  0.4512
  387MPD2    H2 5789   4.045   3.387   9.893 -1.9512 -0.5470 -1.1478
  387MPD2    H3 5790   3.958   3.218   9.740 -0.2436  0.3256 -0.5107
  387MPD2     N 5791   4.175   2.889   9.964 -0.2565  0.4942 -0.4441
  387MPD2    H5 5792   4.240   2.872  10.040  1.3374  0.7596 -1.7496
  387MPD2    N1 5793   4.216   3.319  10.099 -0.1022  0.0066 -0.5912
  387MPD2    H7 5794   4.258   3.273  10.180 -0.6907  2.1977  0.9596
  388TMC3    C1 5795   4.362   3.506  10.130 -0.3017  0.3284  0.5521
  388TMC3    C2 5796   4.380   3.629  10.193 -0.0340  0.1257 -0.9361
  388TMC3    C3 5797   4.507   3.653  10.246 -0.8126 -0.2646 -0.4011
  388TMC3    C4 5798   4.464   3.414  10.130 -0.0841 -0.4017  0.0869
  388TMC3    C5 5799   4.582   3.442  10.185  0.7052  0.0583 -1.3386
  388TMC3    C6 5800   4.612   3.562  10.238 -0.3640 -0.0007  0.3121
  388TMC3     C 5801   4.230   3.455  10.086 -0.0669  0.4007  0.0749
  388TMC3     O 5802   4.156   3.535  10.022  0.6414  0.1855 -0.4634
  388TMC3     H 5803   4.297   3.698  10.204  0.6719  0.5685  1.5835
  388TMC3    H1 5804   4.458   3.323  10.072 -1.5350  0.5697 -1.2809
  388TMC3    H2 5805   4.710   3.594  10.271  0.4630 -0.9348 -1.2748
  388TMC3    C7 5806   4.691   3.355  10.156  0.3394 -0.5187  0.0708
  388TMC3    C8 5807   4.537   3.788  10.289 -0.6426  0.4944 -0.5163
  388TMC3    O1 5808   0.073   3.404  10.120 -0.5752 -0.4138  0.0589
  388TMC3    O2 5809   4.628   3.812  10.370 -0.4188  0.2039 -0.0774
  389MPD2     C 5810   3.762   1.921  11.238 -0.1114 -0.8846 -0.5174
  389MPD2    C1 5811   3.676   1.886  11.135  0.1153  0.4496  0.0774
  389MPD2    C2 5812   3.556   1.820  11.163  0.3093  0.4402  0.0751
  389MPD2    C3 5813   3.519   1.785  11.288 -0.2630  0.0635  0.0206
  389MPD2    C4 5814   3.601   1.831  11.387 -0.5315  0.8197 -0.6334
  389MPD2    C5 5815   3.719   1.901  11.365 -0.0671 -0.3663 -0.2325
  389MPD2     H 5816   3.504   1.772  11.080 -2.0974 -0.1788  1.9308
  389MPD2    H1 5817   3.582   1.805  11.491  1.3875 -1.3917 -0.8262
  389MPD2    H2 5818   3.858   1.965  11.215  0.2357 -0.2874  2.0782
  389MPD2    H3 5819   3.780   1.915  11.454 -0.1801  2.3941 -0.5849
  389MPD2     N 5820   3.415   1.699  11.326  0.0069 -0.1233 -0.0894
  389MPD2    H5 5821   3.409   1.667  11.423 -0.9101  2.1550  0.6080
  389MPD2    N1 5822   3.727   1.911  11.002  0.3733 -0.3772 -0.0228
  389MPD2    H7 5823   3.820   1.949  10.994  0.4286 -0.3314  0.8849
  390TMC3    C1 5824   3.219   1.583  11.316 -0.2600  0.5321  0.2653
  390TMC3    C2 5825   3.264   1.478  11.393 -0.1540 -0.3795 -0.3534
  390TMC3    C3 5826   3.197   1.444  11.506  0.0511  0.5072 -0.4347
  390TMC3    C4 5827   3.093   1.628  11.332 -0.1051 -0.4744  0.2968
  390TMC3    C5 5828   3.024   1.601  11.441  0.6735 -0.0265 -0.0419
  390TMC3    C6 5829   3.083   1.513  11.537 -0.5789 -0.0785 -0.2202
  390TMC3     C 5830   3.311   1.668  11.244 -0.2992 -0.4639 -0.2240
  390TMC3     O 5831   3.283   1.719  11.139 -0.5357 -0.0760 -0.2084
  390TMC3     H 5832   3.359   1.432  11.370  0.8576  0.9313  1.1922
  390TMC3    H1 5833   3.052   1.692  11.254  1.1638  0.7428  0.6318
  390TMC3    H2 5834   3.039   1.501  11.636 -0.8368 -0.3784 -0.3718
  390TMC3    C7 5835   2.883   1.585  11.423 -0.6781  0.2617  0.4826
  390TMC3    C8 5836   3.166   1.305  11.508 -0.5209 -0.0805 -0.4267
  390TMC3    O1 5837   2.830   1.656  11.341  0.4425 -0.0247  0.0083
  390TMC3    O2 5838   3.190   1.231  11.413 -0.2671 -0.3941 -0.0354
  391MPD2     C 5839   2.688   2.938  10.995 -0.7836 -0.6468  0.3233
  391MPD2    C1 5840   2.818   2.959  11.015 -0.0933 -0.6993 -0.7519
  391MPD2    C2 5841   2.888   3.028  10.915  0.2548 -0.4424  1.0154
  391MPD2    C3 5842   2.830   3.061  10.794 -0.5947 -0.6945 -0.3202
  391MPD2    C4 5843   2.688   3.053  10.784  0.2161 -0.3452  0.4791
  391MPD2    C5 5844   2.625   2.980  10.886 -0.6127 -0.1606 -0.3566
  391MPD2     H 5845   2.993   3.051  10.933  0.3997 -0.6536  0.4494
  391MPD2    H1 5846   2.628   3.079  10.698  2.4864  2.8849 -0.1053
  391MPD2    H2 5847   2.622   2.889  11.066  0.3056  0.3665  2.0183
  391MPD2    H3 5848   2.516   2.982  10.887 -0.6132  0.1527 -2.5809
  391MPD2     N 5849   2.917   3.108  10.693 -0.4651 -1.1065 -0.2573
  391MPD2    H5 5850   3.017   3.115  10.707 -0.6694  2.1772 -0.5990
  391MPD2    N1 5851   2.888   2.925  11.131 -0.0380 -0.0987  0.1428
  391MPD2    H7 5852   2.987   2.948  11.128 -0.2239  1.0027  2.7398
  392TMC3    C1 5853   2.982   3.238  10.512  0.2268  1.3147  0.0868
  392TMC3    C2 5854   2.982   3.238  10.376 -0.6173  0.2263  0.7103
  392TMC3    C3 5855   3.073   3.313  10.316  0.0505 -0.6410  0.9210
  392TMC3    C4 5856   3.066   3.315  10.593  0.7661  0.2193  0.2554
  392TMC3    C5 5857   3.148   3.399  10.529  0.3740 -0.3300 -0.2245
  392TMC3    C6 5858   3.155   3.405  10.392 -0.0285 -0.5917  0.0434
  392TMC3     C 5859   2.881   3.158  10.574  0.7810 -0.7223 -0.1856
  392TMC3     O 5860   2.768   3.151  10.528  0.9230 -0.1904  0.4997
  392TMC3     H 5861   2.907   3.183  10.321  1.0749 -1.9584  0.5917
  392TMC3    H1 5862   3.062   3.314  10.701 -1.2645 -1.3498  0.1566
  392TMC3    H2 5863   3.224   3.475  10.347  0.5982 -2.2911 -1.6234
  392TMC3    C7 5864   3.221   3.488  10.615  0.5269  0.7256 -0.5266
  392TMC3    C8 5865   3.052   3.334  10.170 -0.4738 -0.3144 -0.5127
  392TMC3    O1 5866   3.255   3.447  10.723  0.0820  0.0332 -0.4111
  392TMC3    O2 5867   2.967   3.268  10.115 -0.7240 -0.7459  0.1622
  393TMC3    C1 5868   1.981   1.257  10.087 -0.0964  0.2567 -0.8496
  393TMC3    C2 5869   1.852   1.235  10.123  0.3429  0.0833  0.8801
  393TMC3    C3 5870   1.828   1.114  10.178 -1.4480  1.3614  0.1334
  393TMC3    C4 5871   2.084   1.162  10.091  0.3624  0.0265  0.2511
  393TMC3    C5 5872   2.047   1.038  10.135 -0.6738  0.2172  0.6878
  393TMC3    C6 5873   1.923   1.013  10.181  0.5047  0.2880  0.5453
  393TMC3     C 5874   2.013   1.395  10.057 -0.4776  0.3482  0.3249
  393TMC3     O 5875   1.926   1.468  10.017  0.2835 -0.0689 -0.2142
  393TMC3     H 5876   1.773   1.309  10.117  0.9455  0.6296 -0.2795
  393TMC3    H1 5877   2.171   1.187  10.031  0.1774  0.2834  0.0885
  393TMC3    H2 5878   1.892   0.909  10.190  1.2799  0.0516  0.5294
  393TMC3    C7 5879   2.124   0.931  10.086 -0.4081 -0.1671 -0.7197
  393TMC3    C8 5880   1.720   1.109  10.281 -0.0005  0.0647  0.4928
  393TMC3    O1 5881   2.056   0.849  10.025 -0.3071  0.1018 -0.3160
  393TMC3    O2 5882   1.658   1.212  10.297 -0.1401  0.3837  0.6220
  394TMC3    C1 5883   3.724   1.911  10.759 -0.2081  0.2156  0.2841
  394TMC3    C2 5884   3.652   1.891  10.647 -0.5041 -0.3747 -0.0554
  394TMC3    C3 5885   3.708   1.937  10.531  1.0511 -0.1174 -0.0460
  394TMC3    C4 5886   3.838   1.984  10.753 -0.3359  0.8231  0.5044
  394TMC3    C5 5887   3.905   2.011  10.635 -0.2637 -0.1035 -0.0058
  394TMC3    C6 5888   3.825   1.995  10.522 -0.1386  0.2720 -0.2705
  394TMC3     C 5889   3.651   1.889  10.888  0.0484 -0.2831 -0.0994
  394TMC3     O 5890   3.535   1.852  10.878  0.2299  0.4162  0.1940
  394TMC3     H 5891   3.550   1.855  10.651 -0.5679 -0.2419 -0.5742
  394TMC3    H1 5892   3.880   2.013  10.849  0.0313 -0.5803  0.7633
  394TMC3    H2 5893   3.867   2.019  10.425 -0.6995 -0.3020 -0.6603
  394TMC3    C7 5894   4.039   2.043  10.618 -0.1704  0.2712 -0.1923
  394TMC3    C8 5895   3.628   1.939  10.414  0.3622  0.0981  0.3547
  394TMC3    O1 5896   4.068   2.094  10.509 -0.4077  0.1644 -0.3280
  394TMC3    O2 5897   3.655   2.034  10.341  0.3118  0.1922  0.3995
  395TMC3    C1 5898   3.491   3.906  14.609  0.9043 -0.4301 -0.3576
  395TMC3    C2 5899   3.448   3.835  14.494  0.5877 -0.7390  0.0514
  395TMC3    C3 5900   3.494   3.893  14.376 -0.0615 -0.0607 -0.2850
  395TMC3    C4 5901   3.549   4.029  14.608 -0.8056  0.1199  0.0595
  395TMC3    C5 5902   3.594   4.084  14.488  0.5241 -0.3082 -0.8208
  395TMC3    C6 5903   3.573   4.007  14.374 -0.4597 -0.5779  0.4676
  395TMC3     C 5904   3.465   3.855  14.745 -0.2986  0.1942 -0.3011
  395TMC3     O 5905   3.446   3.938  14.833  0.0121 -0.0331  0.1280
  395TMC3     H 5906   3.388   3.746  14.502  1.6026 -1.6286 -2.4017
  395TMC3    H1 5907   3.585   4.068  14.702  2.8843  0.8201 -1.6368
  395TMC3    H2 5908   3.617   4.043  14.281 -0.9704 -0.1749  0.3766
  395TMC3    C7 5909   3.682   4.195  14.483 -0.5055  0.0576 -0.4618
  395TMC3    C8 5910   3.472   3.816  14.252 -0.1796 -0.5590 -0.0060
  395TMC3    O1 5911   3.663   4.288  14.560 -0.2224 -0.5335  0.1093
  395TMC3    O2 5912   3.495   3.879  14.151 -0.2919 -0.2652 -0.4226
  396MPD2     C 5913   2.735   0.471  16.992  0.0264 -0.2314  0.6255
  396MPD2    C1 5914   2.836   0.399  17.052 -0.4959 -0.0459  0.7944
  396MPD2    C2 5915   2.968   0.432  17.041 -0.0484  0.0229 -0.9020
  396MPD2    C3 5916   2.998   0.541  16.960 -0.2573 -0.2479 -0.5582
  396MPD2    C4 5917   2.896   0.620  16.905 -0.5918  0.1451  0.5687
  396MPD2    C5 5918   2.765   0.586  16.917  0.0467  0.4606 -0.0142
  396MPD2     H 5919   3.047   0.369  17.081  0.5272  0.4390 -1.3956
  396MPD2    H1 5920   2.918   0.716  16.860  1.9827 -0.7302 -0.0483
  396MPD2    H2 5921   2.633   0.439  17.009 -0.5708  0.9297 -0.7768
  396MPD2    H3 5922   2.687   0.652  16.881 -1.1446 -1.3497 -0.7404
  396MPD2     N 5923   3.133   0.582  16.936  0.2326 -0.2215  0.0726
  396MPD2    H5 5924   3.200   0.551  17.005 -0.7096 -2.6670 -0.1306
  396MPD2    N1 5925   2.791   0.287  17.121 -0.1432  0.0197  0.4337
  396MPD2    H7 5926   2.700   0.249  17.097 -1.1486  1.4226  2.0079
  397TMC3    C1 5927   2.841   0.066  17.172 -0.5830 -0.2350  0.9820
  397TMC3    C2 5928   2.837   0.037  17.035  0.9705  0.2904 -0.0773
  397TMC3    C3 5929   2.906   4.655  16.980  0.3827  0.7000  0.7445
  397TMC3    C4 5930   2.914   4.698  17.244 -0.5954  0.2838 -0.1743
  397TMC3    C5 5931   2.953   4.574  17.191  0.1482 -0.0575 -0.5776
  397TMC3    C6 5932   2.959   4.554  17.054  0.1729 -0.1766  0.3806
  397TMC3     C 5933   2.880   0.206  17.195 -0.0738  0.3090  0.0592
  397TMC3     O 5934   2.973   0.247  17.263  0.4778 -0.4592 -0.1226
  397TMC3     H 5935   2.828   0.114  16.959 -1.0620 -0.5625 -0.7157
  397TMC3    H1 5936   2.925   4.719  17.350  2.7779 -0.5460 -0.3935
  397TMC3    H2 5937   2.990   4.459  17.014 -2.4263 -1.0026  0.3139
  397TMC3    C7 5938   2.927   4.456  17.269  0.2520 -0.6261  0.7015
  397TMC3    C8 5939   2.954   4.676  16.846 -0.6585  0.8219  0.0446
  397TMC3    O1 5940   2.894   4.352  17.209  0.5264  0.1453 -0.4751
  397TMC3    O2 5941   2.902   0.041  16.778  0.5849 -0.5977 -0.4895
  398MPD2     C 5942   1.086   1.292  17.473  0.1672 -0.0767 -0.1815
  398MPD2    C1 5943   1.121   1.216  17.578 -0.1116  0.1875 -0.0726
  398MPD2    C2 5944   1.168   1.273   0.001  0.2822  0.3056 -0.1864
  398MPD2    C3 5945   1.179   1.412   0.010  0.0610 -0.0862 -0.5761
  398MPD2    C4 5946   1.140   1.480  17.596 -0.1404  0.5222 -0.0735
  398MPD2    C5 5947   1.095   1.424  17.485 -0.4064  0.3201 -0.3851
  398MPD2     H 5948   1.207   1.213   0.082  2.8830  1.5933 -0.4599
  398MPD2    H1 5949   1.139   1.588  17.600 -0.7921  0.4879  0.6925
  398MPD2    H2 5950   1.051   1.248  17.380 -1.0523 -0.8135  0.6324
  398MPD2    H3 5951   1.053   1.489  17.409  0.8999  0.8574 -0.6586
  398MPD2     N 5952   1.222   1.488   0.123 -0.6080  0.0630  0.1162
  398MPD2    H5 5953   1.199   1.586   0.134 -1.0269 -0.1981  1.6983
  398MPD2    N1 5954   1.106   1.075  17.582  0.2235 -0.4554  0.4037
  398MPD2    H7 5955   1.147   1.020  17.656  0.8665 -0.1328  0.2848
  399TMC3    C1 5956   1.047   0.858  17.498 -0.4141 -0.4749  0.7738
  399TMC3    C2 5957   1.171   0.822  17.551 -0.1398 -0.1260 -0.0659
  399TMC3    C3 5958   1.176   0.700  17.612  0.5058 -0.1056 -0.0209
  399TMC3    C4 5959   0.942   0.774  17.492 -0.1820 -0.1246  0.4548
  399TMC3    C5 5960   0.966   0.645  17.532 -0.5344  0.1154 -0.4789
  399TMC3    C6 5961   1.081   0.604  17.590  0.0680  0.3452 -0.5370
  399TMC3     C 5962   1.032   1.000  17.480  0.2559  0.7120 -0.1806
  399TMC3     O 5963   0.936   1.040  17.416 -0.1514  0.7020 -0.3128
  399TMC3     H 5964   1.254   0.892  17.549 -1.4755  1.4935  1.1111
  399TMC3    H1 5965   0.852   0.816  17.448 -0.1773  0.5300  1.0590
  399TMC3    H2 5966   1.092   0.504  17.633  0.3644  0.0795 -1.2385
  399TMC3    C7 5967   0.853   0.557  17.547 -1.4373 -1.3426  0.3755
  399TMC3    C8 5968   1.312   0.658  17.649  0.0541  0.5114  0.0540
  399TMC3    O1 5969   0.873   0.444  17.587 -0.3457 -0.1237  0.3102
  399TMC3    O2 5970   1.401   0.737  17.620 -0.1726 -0.0118  0.6407
  400TMC3    C1 5971   0.111   0.119  16.700  0.4124  0.0136 -0.3877
  400TMC3    C2 5972   0.009   0.104  16.604  0.0790 -0.1006 -0.4482
  400TMC3    C3 5973   4.690   0.222  16.552 -0.3095 -0.1858 -1.1203
  400TMC3    C4 5974   0.186   0.237  16.708 -0.5517 -0.6168  0.3500
  400TMC3    C5 5975   0.150   0.348  16.634  0.5082 -0.3828 -0.1263
  400TMC3    C6 5976   0.039   0.341  16.564 -0.2664 -0.6521 -0.0256
  400TMC3     C 5977   0.126   0.013  16.796  0.0815 -0.3789  0.0946
  400TMC3     O 5978   0.091   4.626  16.755  0.3341 -0.2167 -0.3674
  400TMC3     H 5979   4.667   0.017  16.599  1.8454 -1.4662  0.1597
  400TMC3    H1 5980   0.269   0.247  16.777  1.3301 -2.1411 -1.7347
  400TMC3    H2 5981   0.010   0.424  16.501  2.8535  1.8099  1.7922
  400TMC3    C7 5982   0.198   0.479  16.677 -0.6309 -0.0211  0.2017
  400TMC3    C8 5983   4.568   0.222  16.478  0.3952 -0.4952 -0.0225
  400TMC3    O1 5984   0.315   0.503  16.708  0.0527  0.5469 -0.5717
  400TMC3    O2 5985   4.568   0.302  16.388 -0.0020  0.2366 -0.5176
  401MPD2     C 5986   2.920   3.298   0.394 -0.4385 -0.4438 -0.7389
  401MPD2    C1 5987   3.019   3.220   0.447 -0.1637 -0.1396 -0.5060
  401MPD2    C2 5988   2.987   3.090   0.473 -0.6530  0.1400  0.5609
  401MPD2    C3 5989   2.856   3.047   0.466  0.4658 -0.3242 -0.1632
  401MPD2    C4 5990   2.752   3.131   0.413 -0.6486 -0.6873 -0.7474
  401MPD2    C5 5991   2.793   3.251   0.366  0.4414  0.6283 -0.0476
  401MPD2     H 5992   3.063   3.021   0.509  2.0131  1.9966 -1.5290
  401MPD2    H1 5993   2.650   3.102   0.395 -0.4493 -2.1222  0.4406
  401MPD2    H2 5994   2.944   3.401   0.369  0.1887 -0.6376 -0.9513
  401MPD2    H3 5995   2.721   3.319   0.322 -0.8751 -1.0194 -0.4151
  401MPD2     N 5996   2.842   2.907   0.497 -0.1411 -0.0365 -0.2188
  401MPD2    H5 5997   2.925   2.850   0.512  1.2917  1.5715 -1.9919
  401MPD2    N1 5998   3.141   3.272   0.492 -0.1830 -0.0748 -0.3276
  401MPD2    H7 5999   3.211   3.211   0.533  1.3764  2.8292  1.3497
  402TMC3    C1 6000   2.744   2.700   0.488  0.2957  0.0996  0.0555
  402TMC3    C2 6001   2.694   2.632   0.599 -0.6724  0.0883 -0.0760
  402TMC3    C3 6002   2.761   2.517   0.634  0.7395 -0.0141  0.0276
  402TMC3    C4 6003   2.844   2.657   0.405 -0.2367  0.3389 -0.3166
  402TMC3    C5 6004   2.915   2.550   0.452 -0.4299 -0.0847  0.5092
  402TMC3    C6 6005   2.867   2.471   0.553  0.7869 -0.3198 -0.4666
  402TMC3     C 6006   2.724   2.843   0.490  0.0250  0.2358  0.3621
  402TMC3     O 6007   2.610   2.886   0.477  0.1721 -0.2053  0.8901
  402TMC3     H 6008   2.618   2.671   0.666  1.0627 -1.5189  2.7866
  402TMC3    H1 6009   2.875   2.726   0.328  2.6136 -2.1587 -1.3891
  402TMC3    H2 6010   2.904   2.371   0.567  1.2634 -0.1762 -0.7080
  402TMC3    C7 6011   3.048   2.541   0.414  0.4040 -0.2706 -0.4697
  402TMC3    C8 6012   2.815   2.518   0.767  0.8953  0.3182 -0.2960
  402TMC3    O1 6013   3.080   2.580   0.303 -0.0417  0.0717 -0.1630
  402TMC3    O2 6014   2.930   2.481   0.769  0.3844 -0.0709  0.4260
  403MPD2     C 6015   1.378   1.207  13.902 -1.4843 -0.2184 -0.2402
  403MPD2    C1 6016   1.469   1.220  13.801  0.6145 -0.1729  0.1730
  403MPD2    C2 6017   1.586   1.291  13.817  0.3414  0.0837  0.2710
  403MPD2    C3 6018   1.609   1.356  13.937  0.1027  0.3008 -0.2884
  403MPD2    C4 6019   1.508   1.357  14.033 -0.6215  0.5601 -0.7031
  403MPD2    C5 6020   1.392   1.284  14.015  0.3163  0.0665  0.8738
  403MPD2     H 6021   1.662   1.285  13.740 -0.3244  0.5501 -0.4157
  403MPD2    H1 6022   1.510   1.423  14.119 -3.5573  1.0138 -0.9729
  403MPD2    H2 6023   1.285   1.157  13.882 -0.9478 -1.8896  1.4177
  403MPD2    H3 6024   1.313   1.290  14.089 -0.3726  0.7499  0.0891
  403MPD2     N 6025   1.740   1.414  13.952  0.9226  0.1683  0.0729
  403MPD2    H5 6026   1.808   1.401  13.877  0.9922 -2.3040  0.5740
  403MPD2    N1 6027   1.432   1.137  13.689 -0.3773 -0.2840 -0.2998
  403MPD2    H7 6028   1.337   1.103  13.697 -0.2549 -0.7403 -0.7794
  404TMC3    C1 6029   1.443   1.007  13.484 -0.3042  0.7564 -0.3775
  404TMC3    C2 6030   1.334   0.942  13.519  0.6046  0.2873 -0.2893
  404TMC3    C3 6031   1.267   0.866  13.429  0.3841  0.2937  0.3305
  404TMC3    C4 6032   1.506   0.994  13.355 -0.0153 -0.0070 -0.0575
  404TMC3    C5 6033   1.424   0.930  13.264  0.7494 -0.5979  0.2614
  404TMC3    C6 6034   1.313   0.855  13.295  0.0859  0.1134 -0.0456
  404TMC3     C 6035   1.508   1.097  13.581  0.1072  0.3856 -0.5813
  404TMC3     O 6036   1.625   1.123  13.551  0.6885 -0.3958 -0.0897
  404TMC3     H 6037   1.316   0.932  13.626 -1.9303 -0.1175 -0.7598
  404TMC3    H1 6038   1.605   1.030  13.331  0.1324 -1.0867 -1.0562
  404TMC3    H2 6039   1.256   0.794  13.225 -0.4969 -0.5263  0.9790
  404TMC3    C7 6040   1.456   0.971  13.125 -0.0249  0.1711 -0.1912
  404TMC3    C8 6041   1.121   0.841  13.433 -0.4347 -0.7390 -1.1663
  404TMC3    O1 6042   1.521   1.072  13.114 -0.3437 -0.6124  0.5857
  404TMC3    O2 6043   1.057   0.849  13.327  0.1337  0.0876  0.1009
  405MPD2     C 6044   1.644   1.933  14.813 -0.8584 -0.2376 -0.0922
  405MPD2    C1 6045   1.668   1.836  14.724  0.3410  0.1460  0.3397
  405MPD2    C2 6046   1.671   1.861  14.586  0.1848 -0.5409 -0.2981
  405MPD2    C3 6047   1.650   1.990  14.539  0.0453  0.3059 -0.0658
  405MPD2    C4 6048   1.644   2.095  14.634 -1.0359  0.6208  0.4851
  405MPD2    C5 6049   1.638   2.064  14.767 -0.0566  0.3306 -0.1033
  405MPD2     H 6050   1.679   1.779  14.515  0.8985  0.3932 -1.2903
  405MPD2    H1 6051   1.636   2.201  14.614  2.7521  0.7787 -0.0944
  405MPD2    H2 6052   1.639   1.909  14.918 -0.1426 -2.5451 -0.5918
  405MPD2    H3 6053   1.636   2.151  14.831 -1.2599  0.0902  0.1822
  405MPD2     N 6054   1.647   2.005  14.401  0.3814  0.4662 -0.6616
  405MPD2    H5 6055   1.664   1.918  14.350 -0.1821 -0.0105 -0.0397
  405MPD2    N1 6056   1.680   1.702  14.770 -0.0747  0.4625  0.2032
  405MPD2    H7 6057   1.673   1.687  14.870  1.9809 -1.2962  0.0772
  406TMC3    C1 6058   1.345   2.083  14.122  0.1322 -0.0230  0.0577
  406TMC3    C2 6059   1.353   1.949  14.103 -0.1764  0.1079  0.3705
  406TMC3    C3 6060   1.471   1.883  14.132  0.9586  0.3970  0.5240
  406TMC3    C4 6061   1.463   2.152  14.150  0.6910 -0.0569 -0.2194
  406TMC3    C5 6062   1.569   2.084  14.192 -0.4077 -0.0020 -0.0420
  406TMC3    C6 6063   1.577   1.950  14.179  0.1911 -0.1009  1.1562
  406TMC3     C 6064   1.221   2.146  14.173  0.1787 -0.3174  0.1461
  406TMC3     O 6065   1.142   2.074  14.230  0.0505 -0.0752 -0.3624
  406TMC3     H 6066   1.268   1.906  14.050  0.4088 -0.0880 -0.4120
  406TMC3    H1 6067   1.459   2.256  14.178 -0.1868 -0.0718 -0.2941
  406TMC3    H2 6068   1.671   1.900  14.200  0.5888  0.2570  0.2282
  406TMC3    C7 6069   1.601   2.115  14.328 -0.0217 -0.1602  0.3124
  406TMC3    C8 6070   1.474   1.760  14.205  0.6928  0.7941 -0.0864
  406TMC3    O1 6071   1.554   2.212  14.378  0.1386 -0.0811  0.0709
  406TMC3    O2 6072   1.556   1.746  14.292 -0.0823 -0.2078  0.4550
  407MPD2     C 6073   3.711   2.856  10.288  0.0109 -0.0997  0.3867
  407MPD2    C1 6074   3.762   2.920  10.179  0.7242  0.2853 -0.2660
  407MPD2    C2 6075   3.790   3.053  10.181 -0.0034  0.2201  0.3609
  407MPD2    C3 6076   3.771   3.122  10.299  0.4361  0.4385 -0.5420
  407MPD2    C4 6077   3.724   3.057  10.419  1.1106 -0.6839 -0.0070
  407MPD2    C5 6078   3.693   2.921  10.402  0.3978 -0.2347 -0.1324
  407MPD2     H 6079   3.816   3.102  10.088  0.7025  0.9459  0.9319
  407MPD2    H1 6080   3.714   3.100  10.518  0.4364 -1.4640  0.2620
  407MPD2    H2 6081   3.679   2.752  10.283 -0.0012 -0.1828  2.2757
  407MPD2    H3 6082   3.650   2.858  10.479 -0.6892 -1.7828 -2.0139
  407MPD2     N 6083   3.798   3.262  10.308  0.0349  0.0431  0.2001
  407MPD2    H5 6084   3.793   3.302  10.401 -1.3849  1.0322 -0.2976
  407MPD2    N1 6085   3.775   2.864  10.052  0.3315 -0.6065 -0.0549
  407MPD2    H7 6086   3.805   2.925   9.977 -0.0675 -0.0837  0.2094
  408TMC3    C1 6087   3.732   2.706   9.869  0.3589  0.3766 -0.2614
  408TMC3    C2 6088   3.730   2.570   9.840  0.3905 -0.7293 -0.2435
  408TMC3    C3 6089   3.739   2.538   9.705  0.1363 -0.4689 -0.3208
  408TMC3    C4 6090   3.740   2.809   9.775  0.2421  0.4543  0.3460
  408TMC3    C5 6091   3.745   2.776   9.644 -0.6168  0.6148  0.2203
  408TMC3    C6 6092   3.749   2.646   9.611  0.2079  0.2757  0.5171
  408TMC3     C 6093   3.742   2.736  10.014 -0.2773 -0.2630  0.2244
  408TMC3     O 6094   3.742   2.641  10.096  0.3161 -0.7464  0.1189
  408TMC3     H 6095   3.718   2.489   9.910  1.1197 -1.5453 -1.0660
  408TMC3    H1 6096   3.726   2.912   9.807  1.8811  0.7560  0.0704
  408TMC3    H2 6097   3.759   2.617   9.507  4.7672  0.8310  0.7967
  408TMC3    C7 6098   3.807   2.866   9.555 -0.1382 -0.3724  0.0337
  408TMC3    C8 6099   3.850   2.443   9.690 -0.3877  0.6597 -0.1255
  408TMC3    O1 6100   3.889   2.827   9.474 -0.1204 -0.3293 -0.3660
  408TMC3    O2 6101   3.858   2.330   9.736 -0.0057  0.2332  0.2573
  409MPD2     C 6102   3.286   4.089  16.797  0.2697  0.8841  1.2541
  409MPD2    C1 6103   3.334   4.158  16.906 -0.2202  0.0159  0.1736
  409MPD2    C2 6104   3.450   4.231  16.890  0.4006 -0.5939 -0.3158
  409MPD2    C3 6105   3.518   4.246  16.766  0.4646  0.7756 -0.2569
  409MPD2    C4 6106   3.460   4.184  16.655  0.2932  0.3377 -0.1838
  409MPD2    C5 6107   3.353   4.098  16.678 -0.3098  0.3461  1.0100
  409MPD2     H 6108   3.486   4.275  16.982  0.0016 -0.4588 -0.2228
  409MPD2    H1 6109   3.499   4.180  16.553 -1.5870 -0.2521 -0.8702
  409MPD2    H2 6110   3.195   4.030  16.801 -0.4903  2.0482  1.2293
  409MPD2    H3 6111   3.296   4.051  16.599  0.2518  0.4253  0.5598
  409MPD2     N 6112   3.630   4.331  16.734 -0.1958  0.7797 -0.1973
  409MPD2    H5 6113   3.662   4.346  16.639 -0.1797  3.1245  0.1746
  409MPD2    N1 6114   3.280   4.137  17.036  0.0883  1.0018  0.5188
  409MPD2    H7 6115   3.325   4.190  17.110  2.0124  0.6434 -0.3944
  410TMC3    C1 6116   3.782   4.507  16.763  0.4477  0.7516 -0.0701
  410TMC3    C2 6117   3.864   4.569  16.851  0.1967  0.4520 -0.0625
  410TMC3    C3 6118   3.920   4.693  16.812 -0.5954  0.0974 -1.2162
  410TMC3    C4 6119   3.762   4.557  16.643 -0.4639 -0.0206 -0.5306
  410TMC3    C5 6120   3.808   4.680  16.609  0.6540  0.4347 -0.2503
  410TMC3    C6 6121   3.885   0.025  16.691 -0.1169 -0.7202 -0.8965
  410TMC3     C 6122   3.695   4.409  16.825  0.4071  0.1277 -0.1775
  410TMC3     O 6123   3.688   4.406  16.945 -0.1785 -0.3263  0.2915
  410TMC3     H 6124   3.886   4.522  16.947  0.1785 -1.8591 -1.2026
  410TMC3    H1 6125   3.691   4.502  16.583 -0.1424 -0.8381 -0.1549
  410TMC3    H2 6126   3.917   0.124  16.662  0.9093 -0.6676  0.3953
  410TMC3    C7 6127   3.724   0.009  16.501  0.4961 -0.1422 -0.0633
  410TMC3    C8 6128   4.026   0.037  16.881 -0.0301 -0.3376  0.4392
  410TMC3    O1 6129   3.662   4.649  16.439 -0.0495 -0.0674 -0.4119
  410TMC3    O2 6130   4.051   0.154  16.854  0.4116 -0.0682 -0.0649
  411MPD2     C 6131   3.564   0.201  14.840 -0.6874 -0.0568  0.4888
  411MPD2    C1 6132   3.636   0.234  14.725  0.1024  0.1285 -0.2843
  411MPD2    C2 6133   3.629   0.159  14.610 -0.1089  0.8689  0.2613
  411MPD2    C3 6134   3.550   0.043  14.616  0.3367 -0.3397  0.6026
  411MPD2    C4 6135   3.488   0.005  14.735  0.0222 -0.5364  0.0895
  411MPD2    C5 6136   3.492   0.088  14.844 -0.8445  0.0806  0.0609
  411MPD2     H 6137   3.680   0.190  14.519  1.3093 -3.4553 -0.4318
  411MPD2    H1 6138   3.417   4.645  14.732  0.9309 -1.3266  0.5561
  411MPD2    H2 6139   3.569   0.264  14.928  1.6910  0.7206 -0.1945
  411MPD2    H3 6140   3.437   0.050  14.929  0.2508 -1.7873 -0.0499
  411MPD2     N 6141   3.537   4.666  14.509  0.2147 -0.0894  0.6528
  411MPD2    H5 6142   3.471   4.590  14.521 -0.1228  0.3416  1.5934
  411MPD2    N1 6143   3.703   0.357  14.728  0.1831 -0.0942 -0.2505
  411MPD2    H7 6144   3.713   0.404  14.817 -2.5253 -1.6565  0.8810
  412TMC3    C1 6145   3.611   4.552  14.317 -0.6997 -0.2231  0.2198
  412TMC3    C2 6146   3.683   4.555  14.195 -0.1769  0.8972 -0.7645
  412TMC3    C3 6147   3.660   4.441  14.114 -0.4363  0.8428  0.2213
  412TMC3    C4 6148   3.512   4.458  14.340  0.1258  0.3040  0.0171
  412TMC3    C5 6149   3.498   4.349  14.256 -0.0787  0.2490  0.2496
  412TMC3    C6 6150   3.580   4.340  14.150  0.1934  0.4510 -0.0101
  412TMC3     C 6151   3.628   4.663  14.403 -0.8625 -0.6304 -1.1168
  412TMC3     O 6152   3.737   4.721  14.393 -0.2488  0.5163 -0.6790
  412TMC3     H 6153   3.758   4.631  14.174  0.1682  0.4146 -1.2857
  412TMC3    H1 6154   3.446   4.458  14.426  1.2245  1.9167  0.8650
  412TMC3    H2 6155   3.573   4.254  14.084  0.9164  0.7555 -0.4800
  412TMC3    C7 6156   3.365   4.310  14.223 -0.1692 -0.5934 -0.1931
  412TMC3    C8 6157   3.627   4.484  13.981  0.5307 -1.0336 -0.2969
  412TMC3    O1 6158   3.289   4.277  14.314 -0.2372  0.6272 -0.0463
  412TMC3    O2 6159   3.570   4.393  13.919  0.4646  0.4564 -0.1517
  413MPD2     C 6160   0.513   3.541  15.423  1.0390  0.3882  0.0651
  413MPD2    C1 6161   0.490   3.487  15.297  0.0329 -0.1446  0.4135
  413MPD2    C2 6162   0.583   3.389  15.257 -0.6426  0.5771 -0.8034
  413MPD2    C3 6163   0.680   3.342  15.336 -0.2513  0.0318 -0.3721
  413MPD2    C4 6164   0.695   3.399  15.457 -0.3216 -0.0105  0.0654
  413MPD2    C5 6165   0.615   3.501  15.498  0.0293  0.5517 -0.6851
  413MPD2     H 6166   0.568   3.355  15.155 -1.5007  0.7274 -0.7280
  413MPD2    H1 6167   0.774   3.362  15.522 -0.8145 -0.3531  0.4792
  413MPD2    H2 6168   0.456   3.630  15.449 -1.0959 -0.2529 -2.4275
  413MPD2    H3 6169   0.623   3.544  15.597 -0.4502  0.0475 -0.4233
  413MPD2     N 6170   0.753   3.237  15.282  0.5080  0.3482 -0.0931
  413MPD2    H5 6171   0.720   3.216  15.188 -1.8844  0.6375  0.6619
  413MPD2    N1 6172   0.375   3.532  15.226 -0.5382 -0.0380  0.3525
  413MPD2    H7 6173   0.310   3.588  15.279  0.7382 -1.0279  2.9622
  414TMC3    C1 6174   0.892   3.042  15.282  0.5612 -0.4658 -0.3859
  414TMC3    C2 6175   0.916   2.935  15.354  0.5893  0.2475 -0.0137
  414TMC3    C3 6176   0.915   2.817  15.287 -0.4610 -0.7524  0.2572
  414TMC3    C4 6177   0.898   3.044  15.148  0.2337  0.2847  0.0785
  414TMC3    C5 6178   0.904   2.923  15.085  0.5894 -0.2879  0.1630
  414TMC3    C6 6179   0.909   2.800  15.150  0.3660 -0.1420 -0.1797
  414TMC3     C 6180   0.830   3.154  15.355 -0.0595  0.4303  0.1207
  414TMC3     O 6181   0.842   3.146  15.475 -0.2913 -0.3156  0.0278
  414TMC3     H 6182   0.914   2.932  15.462 -1.9724  1.8834 -0.0282
  414TMC3    H1 6183   0.868   3.133  15.093 -1.5778 -0.6418 -0.4442
  414TMC3    H2 6184   0.928   2.709  15.095  2.0724  1.2597 -1.9428
  414TMC3    C7 6185   0.912   2.927  14.938  0.0337  0.3134  0.8189
  414TMC3    C8 6186   0.965   2.697  15.360 -0.0503  0.1206  0.0512
  414TMC3    O1 6187   0.883   3.029  14.871 -0.1865  0.2217  0.1588
  414TMC3    O2 6188   0.911   2.587  15.324  0.2266 -0.8169  0.0360
  415TMC3    C1 6189   1.125   1.203   9.838  0.1070  0.2619  0.2770
  415TMC3    C2 6190   1.195   1.289   9.755  0.4002  0.1298 -0.5571
  415TMC3    C3 6191   1.127   1.352   9.656  0.0618 -0.5575 -1.1331
  415TMC3    C4 6192   0.996   1.171   9.821  0.2060 -0.2337 -0.2329
  415TMC3    C5 6193   0.933   1.234   9.718 -0.2996  1.1283 -0.4450
  415TMC3    C6 6194   0.991   1.325   9.639 -0.3374  0.4840 -0.3223
  415TMC3     C 6195   1.196   1.125   9.944 -0.6534  0.3608 -0.7613
  415TMC3     O 6196   1.124   1.071  10.024 -0.1482 -0.1009 -0.7023
  415TMC3     H 6197   1.294   1.327   9.780  0.4153 -0.5502  0.4324
  415TMC3    H1 6198   0.954   1.093   9.885  0.6857 -1.1331 -1.0221
  415TMC3    H2 6199   0.942   1.356   9.548  2.2084  0.2271 -1.7999
  415TMC3    C7 6200   0.813   1.171   9.672 -0.1608 -0.3971 -0.0405
  415TMC3    C8 6201   1.192   1.453   9.568 -0.3187 -0.1695  0.4748
  415TMC3    O1 6202   0.767   1.222   9.574 -0.2154  0.3628  0.2272
  415TMC3    O2 6203   1.120   1.536   9.516  0.0057 -0.1528  0.4329
  416MPD2     C 6204   3.209   0.142  10.854 -0.5019  0.4766 -0.0139
  416MPD2    C1 6205   3.162   0.062  10.962  0.0324  0.1558 -0.1924
  416MPD2    C2 6206   3.188   4.647  10.955  0.2633 -0.6304 -0.1049
  416MPD2    C3 6207   3.250   4.594  10.846  0.8092  0.3119 -0.0940
  416MPD2    C4 6208   3.288   4.672  10.739 -0.4935  0.1242 -0.1688
  416MPD2    C5 6209   3.269   0.083  10.749 -0.0062 -0.1186 -0.0095
  416MPD2     H 6210   3.166   4.594  11.047 -0.1475  0.3780  0.3699
  416MPD2    H1 6211   3.356   4.634  10.663  0.2341 -1.4426  1.2544
  416MPD2    H2 6212   3.215   0.249  10.870 -1.7841  0.1528  2.5613
  416MPD2    H3 6213   3.326   0.149  10.685  1.3637 -2.0805 -0.8255
  416MPD2     N 6214   3.263   4.450  10.830  0.3110  0.8507  0.0744
  416MPD2    H5 6215   3.317   4.423  10.749 -0.7242 -0.5070 -0.1652
  416MPD2    N1 6216   3.102   0.129  11.075  0.4190 -0.7366 -0.3668
  416MPD2    H7 6217   3.068   0.223  11.056 -1.3552 -1.2359  0.3203
  417TMC3    C1 6218   2.995   0.167  11.291 -0.7019 -0.2040 -0.2573
  417TMC3    C2 6219   2.988   0.111  11.414  0.6843 -0.0801  0.0501
  417TMC3    C3 6220   2.860   0.093  11.463  0.0031 -0.0676  0.0702
  417TMC3    C4 6221   2.883   0.214  11.228  0.7207 -0.4274  0.0290
  417TMC3    C5 6222   2.758   0.212  11.284 -1.0459  0.4383  0.0422
  417TMC3    C6 6223   2.747   0.135  11.399 -0.0135  0.7682 -0.2708
  417TMC3     C 6224   3.071   0.077  11.200  0.0095  0.8582  0.3332
  417TMC3     O 6225   3.100   4.682  11.235 -0.4190 -0.0760  0.1395
  417TMC3     H 6226   3.079   0.073  11.460  0.9911  1.3919  0.6600
  417TMC3    H1 6227   2.881   0.238  11.123 -2.8087  0.5055  0.2994
  417TMC3    H2 6228   2.649   0.144  11.444  0.6063 -1.9541  1.6555
  417TMC3    C7 6229   2.643   0.206  11.190 -0.5641 -0.1104 -0.1864
  417TMC3    C8 6230   2.854   0.065  11.600 -0.6827 -0.4954 -0.2315
  417TMC3    O1 6231   2.619   0.315  11.134 -0.0167  0.5314 -0.2554
  417TMC3    O2 6232   2.768   0.118  11.674  0.1966 -0.1591 -0.0484
  418TMC3    C1 6233   1.554   1.551   0.291 -0.4240 -0.3387 -0.2948
  418TMC3    C2 6234   1.425   1.587   0.268 -0.1646  0.4807  0.3004
  418TMC3    C3 6235   1.328   1.518   0.327 -0.0493 -0.2857  0.2263
  418TMC3    C4 6236   1.581   1.458   0.394 -0.1696 -0.1525 -0.4711
  418TMC3    C5 6237   1.479   1.419   0.479 -0.3282  1.2607 -0.4128
  418TMC3    C6 6238   1.349   1.444   0.445  0.0447 -0.2350 -0.3011
  418TMC3     C 6239   1.660   1.593   0.208 -0.2428 -0.1134 -0.1198
  418TMC3     O 6240   1.653   1.684   0.125  0.7381 -0.1609  0.0386
  418TMC3     H 6241   1.425   1.630   0.169 -0.3654  1.3105  0.6556
  418TMC3    H1 6242   1.683   1.429   0.416 -0.1822  0.4687  0.4243
  418TMC3    H2 6243   1.273   1.379   0.486  1.4371 -0.7924  1.3923
  418TMC3    C7 6244   1.499   1.293   0.546 -0.2167  0.0078  0.3667
  418TMC3    C8 6245   1.265   1.428   0.233 -0.1392 -0.0592  0.6588
  418TMC3    O1 6246   1.584   1.221   0.503 -0.1095 -0.5433 -0.6679
  418TMC3    O2 6247   1.253   1.315   0.270  0.2755 -0.3163 -0.0655
  419MPD2     C 6248   0.388   4.676  12.305  0.1392 -0.3395 -0.6578
  419MPD2    C1 6249   0.252   4.684  12.308 -0.0419  0.2748  0.9839
  419MPD2    C2 6250   0.185   4.705  12.423 -0.2752 -0.5658  0.4748
  419MPD2    C3 6251   0.249   4.719  12.544 -0.0249 -0.2354 -0.3603
  419MPD2    C4 6252   0.384   4.716  12.539  0.3468 -1.1827 -0.4804
  419MPD2    C5 6253   0.455   4.702  12.419  0.4350 -0.0422 -1.0271
  419MPD2     H 6254   0.076   4.706  12.422 -0.2661  0.2202  0.3066
  419MPD2    H1 6255   0.445   0.009  12.627 -1.5846  0.3154  0.5686
  419MPD2    H2 6256   0.438   4.664  12.210 -2.1105  0.2750 -1.9279
  419MPD2    H3 6257   0.562   4.718  12.428  0.6497 -1.6265 -0.8843
  419MPD2     N 6258   0.167   0.014  12.656 -0.5029 -0.0537 -0.1718
  419MPD2    H5 6259   0.067   0.020  12.641 -0.1323 -0.1568 -2.5658
  419MPD2    N1 6260   0.170   4.688  12.193 -0.3232  0.1678  0.4729
  419MPD2    H7 6261   0.073   4.706  12.218 -0.4619 -0.8137  0.6441
  420TMC3    C1 6262   0.090   0.020  12.869  0.2022  0.4053 -0.5020
  420TMC3    C2 6263   0.017   0.121  12.820 -0.1099 -0.2200  0.3707
  420TMC3    C3 6264   4.602   0.115  12.836 -0.1346  0.2418  0.4147
  420TMC3    C4 6265   0.034   4.637  12.939 -0.7451 -0.3889  0.4634
  420TMC3    C5 6266   4.618   4.628  12.946 -0.0467 -0.2165  0.2042
  420TMC3    C6 6267   4.540   0.010  12.891  0.3284 -0.0364  0.8468
  420TMC3     C 6268   0.204   4.714  12.784  0.2613  0.4722  0.2170
  420TMC3     O 6269   0.307   4.667  12.832 -0.1871  0.5574  0.2535
  420TMC3     H 6270   0.066   0.203  12.768  0.1081  0.2945  1.4033
  420TMC3    H1 6271   0.098   4.552  12.962  0.8741  0.6916 -0.0942
  420TMC3    H2 6272   4.432   0.011  12.888  0.3590  0.5132 -0.1995
  420TMC3    C7 6273   4.551   4.512  13.003  0.2153 -0.0639  0.4957
  420TMC3    C8 6274   4.518   0.208  12.766  1.2701  0.9927 -0.0390
  420TMC3    O1 6275   4.433   4.502  12.979 -0.4093 -0.1629 -0.4643
  420TMC3    O2 6276   4.564   0.258  12.665  0.2876 -0.1525 -0.3059
  421TMC3    C1 6277   1.911   1.539  14.034 -0.6705  0.7953 -0.4005
  421TMC3    C2 6278   1.934   1.664  14.086 -1.1957  0.3516  0.7565
  421TMC3    C3 6279   2.064   1.705  14.104 -0.7704 -0.0497  0.2140
  421TMC3    C4 6280   2.015   1.446  14.021 -0.7111 -0.2323  0.7381
  421TMC3    C5 6281   2.141   1.495  14.043 -0.9990 -0.6899  0.3482
  421TMC3    C6 6282   2.168   1.621  14.080 -0.0495 -0.0243 -0.4954
  421TMC3     C 6283   1.779   1.493  14.057  0.8607 -0.4737 -0.1305
  421TMC3     O 6284   1.717   1.515  14.162 -0.7992 -0.1736  0.2532
  421TMC3     H 6285   1.845   1.725  14.091 -0.2655  1.6698  1.0862
  421TMC3    H1 6286   1.993   1.340  14.010  0.1864 -0.1898 -1.4426
  421TMC3    H2 6287   2.270   1.654  14.097 -0.2850  0.2419  0.3980
  421TMC3    C7 6288   2.250   1.419  14.002 -0.1480  0.3588  0.8281
  421TMC3    C8 6289   2.096   1.842  14.142  0.2842 -0.6224 -0.0909
  421TMC3    O1 6290   2.350   1.444  14.063 -0.0041 -0.1176  0.0627
  421TMC3    O2 6291   2.202   1.866  14.197  0.3560  0.0023 -0.8347
  422TMC3    C1 6292   3.926   2.370  12.590 -0.2440  0.3326  0.2538
  422TMC3    C2 6293   3.905   2.501  12.629  0.3727 -0.3327 -0.1838
  422TMC3    C3 6294   3.791   2.538  12.704  0.1483 -0.0952  0.0049
  422TMC3    C4 6295   3.834   2.272  12.622  0.6819 -0.1979  0.8620
  422TMC3    C5 6296   3.720   2.313  12.691  0.4522  0.2417  0.2014
  422TMC3    C6 6297   3.695   2.445  12.734 -0.4604 -0.7188  0.1861
  422TMC3     C 6298   4.039   2.342  12.506 -0.0383 -0.8055 -0.3076
  422TMC3     O 6299   4.092   2.440  12.463  0.4541  0.2584  0.0997
  422TMC3     H 6300   3.991   2.564  12.610  0.0439  0.6525  1.5719
  422TMC3    H1 6301   3.863   2.171  12.596  1.8340 -0.1814  2.0633
  422TMC3    H2 6302   3.610   2.477  12.795  1.6406  0.7238  2.3814
  422TMC3    C7 6303   3.633   2.203  12.734 -0.4389  0.8327  0.1184
  422TMC3    C8 6304   3.776   2.679  12.720  0.1487 -0.0854 -0.2642
  422TMC3    O1 6305   3.675   2.089  12.724  0.7894  0.4499 -0.3505
  422TMC3    O2 6306   3.878   2.746  12.733  0.3435 -0.4389  0.3024
  423MPD2     C 6307   0.783   4.150   0.419  0.0872 -0.1010 -0.0619
  423MPD2    C1 6308   0.667   4.078   0.417  0.2341 -0.2991 -0.8146
  423MPD2    C2 6309   0.625   4.021   0.296  0.3302  0.3372  0.7274
  423MPD2    C3 6310   0.706   4.019   0.183  1.0461 -0.0003 -0.7225
  423MPD2    C4 6311   0.821   4.095   0.182  0.0063  0.1562 -0.1526
  423MPD2    C5 6312   0.850   4.162   0.297  0.0781  0.6645 -0.3871
  423MPD2     H 6313   0.536   3.959   0.295  0.3920  0.2566  0.4213
  423MPD2    H1 6314   0.873   4.115   0.089 -0.1050  0.0032 -0.2484
  423MPD2    H2 6315   0.820   4.204   0.505  3.5183  0.2904 -1.7663
  423MPD2    H3 6316   0.940   4.223   0.292  0.2561  0.5882  1.8714
  423MPD2     N 6317   0.683   3.943   0.066  0.4521  0.0486  0.4214
  423MPD2    H5 6318   0.738   3.959  17.677  0.0901 -0.9095 -0.0101
  423MPD2    N1 6319   0.579   4.055   0.529 -0.2419  0.0510 -0.0672
  423MPD2    H7 6320   0.492   4.004   0.514  1.2430 -3.0750  1.9111
  424TMC3    C1 6321   0.508   4.030   0.752  0.2809 -0.1487 -0.0152
  424TMC3    C2 6322   0.542   3.965   0.867 -0.0107  0.3508  0.0576
  424TMC3    C3 6323   0.446   3.908   0.943  0.0410 -0.2552 -0.3042
  424TMC3    C4 6324   0.374   4.033   0.708  0.8283  0.0251 -0.5322
  424TMC3    C5 6325   0.282   3.966   0.786 -0.7317  0.2522 -0.5203
  424TMC3    C6 6326   0.313   3.907   0.907  0.1606 -0.6359  0.3750
  424TMC3     C 6327   0.613   4.081   0.660 -0.1519 -0.4273  1.2764
  424TMC3     O 6328   0.719   4.112   0.708 -0.2735  0.2722  0.4085
  424TMC3     H 6329   0.646   3.964   0.899  0.0977 -0.0069 -0.3070
  424TMC3    H1 6330   0.348   4.092   0.621  0.1250  0.8840  0.2679
  424TMC3    H2 6331   0.235   3.869   0.972 -0.8732  0.9276  0.0613
  424TMC3    C7 6332   0.143   3.979   0.741  0.5202 -1.7375 -1.0586
  424TMC3    C8 6333   0.492   3.817   1.044  0.9171 -0.0541 -0.6549
  424TMC3    O1 6334   0.128   4.013   0.626 -0.0292 -0.1048  0.3059
  424TMC3    O2 6335   0.596   3.757   1.019  0.1578  0.2730 -1.2552
  425MPD2     C 6336   4.268   3.338  17.265  0.0747  0.0409 -0.1125
  425MPD2    C1 6337   4.224   3.210  17.296  0.4910  0.2491  0.2581
  425MPD2    C2 6338   4.114   3.194  17.376 -0.3885 -0.2486 -0.0827
  425MPD2    C3 6339   4.047   3.306  17.430 -0.1785  0.1070 -0.5839
  425MPD2    C4 6340   4.093   3.432  17.396  0.4135  0.3637 -0.2221
  425MPD2    C5 6341   4.199   3.443  17.314 -0.0437  0.8310 -0.3442
  425MPD2     H 6342   4.068   3.096  17.385  2.8731 -1.5579  2.3506
  425MPD2    H1 6343   4.044   3.526  17.420 -0.3539  0.2174 -1.2225
  425MPD2    H2 6344   4.345   3.361  17.193 -1.7520  1.1359 -1.6951
  425MPD2    H3 6345   4.217   3.546  17.288 -0.6989  1.3966  1.4633
  425MPD2     N 6346   3.920   3.285  17.490 -0.1926  0.1058  0.6318
  425MPD2    H5 6347   3.883   3.191  17.477 -0.1738  0.1686  0.1249
  425MPD2    N1 6348   4.291   3.109  17.234  0.2175 -0.5127  0.2480
  425MPD2    H7 6349   4.377   3.128  17.184  1.2668  0.7405  2.5068
  426TMC3    C1 6350   4.361   2.886  17.224  0.3294 -0.3951  0.5866
  426TMC3    C2 6351   4.335   2.770  17.156  0.7002  0.4065  0.3309
  426TMC3    C3 6352   4.425   2.670  17.172  0.2998  0.1157 -0.0624
  426TMC3    C4 6353   4.476   2.915  17.296 -0.8173  0.3418 -0.7115
  426TMC3    C5 6354   4.567   2.818  17.315  0.2064  0.8364  0.7072
  426TMC3    C6 6355   4.544   2.697  17.243  0.1627 -0.5312  0.2376
  426TMC3     C 6356   4.248   2.978  17.225  0.2506 -0.6156  0.1715
  426TMC3     O 6357   4.140   2.922  17.249  0.0240 -0.5291  0.4357
  426TMC3     H 6358   4.242   2.751  17.104 -0.0311 -0.4669  1.9749
  426TMC3    H1 6359   4.462   3.002  17.360 -1.4403  1.0058 -1.7469
  426TMC3    H2 6360   4.625   2.627  17.257 -1.4137 -1.9204  2.5720
  426TMC3    C7 6361   4.657   2.823  17.435  0.0175 -0.7019 -0.3660
  426TMC3    C8 6362   4.430   2.559  17.077  0.5280  0.4706  0.2052
  426TMC3    O1 6363   0.040   2.761  17.427  0.4706  0.3484  0.1856
  426TMC3    O2 6364   4.533   2.504  17.044 -0.2123 -0.9421 -0.3960
  427MPD2     C 6365   2.805   0.433  15.166  0.0020 -0.2579 -0.2935
  427MPD2    C1 6366   2.772   0.306  15.212  0.5978  0.7296 -0.5486
  427MPD2    C2 6367   2.635   0.285  15.214 -0.6110 -0.1507 -0.0533
  427MPD2    C3 6368   2.537   0.371  15.164 -0.0955  0.3536  0.5443
  427MPD2    C4 6369   2.581   0.491  15.122 -0.0604  0.4635 -0.0646
  427MPD2    C5 6370   2.712   0.522  15.114 -0.1418  0.0444  0.1358
  427MPD2     H 6371   2.603   0.192  15.260 -1.8680  0.2259 -0.1678
  427MPD2    H1 6372   2.513   0.567  15.087  0.8520  0.4446 -1.8624
  427MPD2    H2 6373   2.904   0.473  15.183  0.2289 -0.6622 -0.6535
  427MPD2    H3 6374   2.739   0.616  15.068  2.1794 -0.6424  0.1143
  427MPD2     N 6375   2.402   0.345  15.176 -0.3893 -0.0731 -0.6339
  427MPD2    H5 6376   2.352   0.432  15.162 -0.4210  0.1685  1.0372
  427MPD2    N1 6377   2.866   0.216  15.254  0.1916  0.2235  0.9950
  427MPD2    H7 6378   2.843   0.166  15.339 -0.7910  0.0154  0.6043
  428TMC3    C1 6379   3.096   0.150  15.284 -1.0293 -0.6171  0.1037
  428TMC3    C2 6380   3.058   0.039  15.355 -0.1809  0.2876  0.2187
  428TMC3    C3 6381   3.154   4.684  15.416  0.2328 -0.1670  0.4987
  428TMC3    C4 6382   3.228   0.182  15.282 -0.1773  0.1992 -0.0845
  428TMC3    C5 6383   3.314   0.101  15.344  1.0776 -0.2562  0.0972
  428TMC3    C6 6384   3.282   4.713  15.411 -0.6896  0.3288 -0.0478
  428TMC3     C 6385   2.999   0.230  15.214 -0.3006 -0.2800 -0.0227
  428TMC3     O 6386   3.036   0.290  15.112 -0.1887 -0.1624  0.3104
  428TMC3     H 6387   2.955   0.010  15.367 -0.4443  2.0703  2.1976
  428TMC3    H1 6388   3.264   0.279  15.250  0.7846  0.3440  1.4254
  428TMC3    H2 6389   3.353   4.644  15.455 -0.9984 -1.8495 -2.9732
  428TMC3    C7 6390   3.446   0.144  15.376  0.2233 -0.0455 -0.1939
  428TMC3    C8 6391   3.123   4.553  15.486  0.1134  0.1994 -0.5760
  428TMC3    O1 6392   3.495   0.087  15.473 -0.3434  0.1521 -0.4129
  428TMC3    O2 6393   3.217   4.486  15.519  0.0144 -0.1119 -0.4275
  429MPD2     C 6394   3.842   0.767  17.613  0.4599 -0.1596 -0.9116
  429MPD2    C1 6395   3.779   0.737  17.488  0.8295 -0.0312  0.1898
  429MPD2    C2 6396   3.846   0.785  17.379 -0.3589  0.5667  0.3969
  429MPD2    C3 6397   3.969   0.854  17.393  0.0166  0.6869  0.2123
  429MPD2    C4 6398   4.020   0.883  17.517 -0.6663  0.1753 -1.0340
  429MPD2    C5 6399   3.949   0.849  17.629 -0.1662  0.5238 -0.2228
  429MPD2     H 6400   3.807   0.752  17.283 -0.5913  3.6009 -0.5527
  429MPD2    H1 6401   4.111   0.938  17.535 -0.0698 -0.0956 -3.1927
  429MPD2    H2 6402   3.801   0.725   0.010 -2.0196 -0.4222 -2.1575
  429MPD2    H3 6403   3.991   0.878   0.031  1.0510  0.4699 -0.7277
  429MPD2     N 6404   4.033   0.899  17.275 -0.2544 -0.6161 -0.2791
  429MPD2    H5 6405   3.976   0.897  17.191 -1.8920  2.2115  0.7482
  429MPD2    N1 6406   3.668   0.650  17.480 -0.2742 -0.1444 -0.5910
  429MPD2    H7 6407   3.627   0.643  17.387  0.3311  4.3887 -1.2101
  430TMC3    C1 6408   4.211   0.951  17.137 -0.2583  0.2565 -0.6908
  430TMC3    C2 6409   4.164   1.052  17.061 -0.0489 -0.6614 -0.2540
  430TMC3    C3 6410   4.239   1.111  16.959 -0.7571 -0.1689  0.0184
  430TMC3    C4 6411   4.339   0.914  17.119 -0.5101  0.0069 -0.1664
  430TMC3    C5 6412   4.413   0.958  17.016  0.1410 -0.0359 -0.1742
  430TMC3    C6 6413   4.368   1.060  16.940  0.5516  0.2753 -0.5184
  430TMC3     C 6414   4.163   0.940  17.271 -0.1296 -0.1117 -0.3046
  430TMC3     O 6415   4.254   0.950  17.354 -0.4390 -0.1940 -0.0477
  430TMC3     H 6416   4.064   1.093  17.078  0.6435  0.0342  2.1598
  430TMC3    H1 6417   4.363   0.824  17.175 -1.7980  0.3872  0.9976
  430TMC3    H2 6418   4.419   1.088  16.849  1.1772  1.0425  0.0653
  430TMC3    C7 6419   4.526   0.878  16.968 -0.1066  0.2754 -0.7622
  430TMC3    C8 6420   4.164   1.134  16.837 -0.5319  0.4111 -0.1591
  430TMC3    O1 6421   4.528   0.756  16.991  0.4743 -0.3759 -0.0392
  430TMC3    O2 6422   4.047   1.091  16.820 -0.2069  0.4416 -0.1419
  431MPD2     C 6423   0.435   0.408  12.564 -0.1152  0.9167 -0.0274
  431MPD2    C1 6424   0.493   0.433  12.443  0.1658  0.5752  0.2093
  431MPD2    C2 6425   0.416   0.434  12.326  0.6772  0.0729  0.2295
  431MPD2    C3 6426   0.291   0.368  12.328  0.2197 -0.1827 -0.0656
  431MPD2    C4 6427   0.239   0.335  12.456  0.3138 -0.8049  0.4886
  431MPD2    C5 6428   0.308   0.359  12.572 -0.3579 -0.6366  0.4028
  431MPD2     H 6429   0.465   0.473  12.238 -1.5282 -1.0286 -1.5011
  431MPD2    H1 6430   0.137   0.298  12.461  0.3987 -0.9107  1.4759
  431MPD2    H2 6431   0.493   0.434  12.651  2.3604 -0.5315 -1.2594
  431MPD2    H3 6432   0.259   0.342  12.668 -1.0603  1.9366  0.5123
  431MPD2     N 6433   0.204   0.345  12.221  0.0611  0.4549  0.2873
  431MPD2    H5 6434   0.123   0.286  12.237  1.1491 -0.5405  2.0480
  431MPD2    N1 6435   0.628   0.480  12.430 -0.0905 -0.0662  0.0130
  431MPD2    H7 6436   0.654   0.489  12.333 -0.1500  1.0003  0.1021
  432TMC3    C1 6437   0.141   0.302  11.992  0.0681  0.2757 -0.0394
  432TMC3    C2 6438   0.191   0.297  11.864 -0.0917  0.0240 -0.3058
  432TMC3    C3 6439   0.201   0.179  11.795  0.0631 -0.1562 -0.2609
  432TMC3    C4 6440   0.089   0.190  12.048  0.1411 -0.5905 -0.2291
  432TMC3    C5 6441   0.120   0.067  11.985 -0.0172  0.0578 -0.1466
  432TMC3    C6 6442   0.161   0.062  11.857 -0.2782 -0.4914 -0.1645
  432TMC3     C 6443   0.225   0.380  12.090  0.4326 -0.2569  0.2436
  432TMC3     O 6444   0.316   0.445  12.042 -0.8392  0.5327 -0.4482
  432TMC3     H 6445   0.239   0.388  11.832  0.1217  0.8978  2.4896
  432TMC3    H1 6446   0.049   0.179  12.148 -1.1250 -0.9127 -0.7643
  432TMC3    H2 6447   0.187   4.693  11.807  0.2538 -1.9987  2.8762
  432TMC3    C7 6448   0.213   4.715  12.067  0.0420  0.7977  0.0410
  432TMC3    C8 6449   0.312   0.173  11.711  0.6621  0.4819 -0.0581
  432TMC3    O1 6450   0.321   4.693  12.010 -0.0789 -0.8434  0.1375
  432TMC3    O2 6451   0.329   0.258  11.625  0.1731 -0.0646 -0.2712
  433MPD2     C 6452   4.170   3.559  10.946  0.5920  0.5007 -0.1465
  433MPD2    C1 6453   4.109   3.454  11.008  0.4280 -0.0307 -0.1533
  433MPD2    C2 6454   4.140   3.427  11.143 -0.0102 -0.3120  0.4528
  433MPD2    C3 6455   4.243   3.493  11.206 -0.6987  0.8824 -0.4259
  433MPD2    C4 6456   4.308   3.598  11.135  0.9847  0.6576 -0.3353
  433MPD2    C5 6457   4.270   3.628  11.007  0.0708 -0.3190  0.4723
  433MPD2     H 6458   4.077   3.359  11.199 -1.3096  0.1443 -0.4614
  433MPD2    H1 6459   4.381   3.667  11.177  2.0766 -1.5318  1.3832
  433MPD2    H2 6460   4.155   3.584  10.841 -1.3206  1.6737  0.4135
  433MPD2    H3 6461   4.334   3.696  10.951  0.8065 -1.9890 -0.7090
  433MPD2     N 6462   4.275   3.466  11.341 -0.1194 -0.3834  0.1419
  433MPD2    H5 6463   4.224   3.394  11.393  0.1871 -0.3473  0.4928
  433MPD2    N1 6464   4.020   3.370  10.935 -0.4745 -1.0441 -0.5190
  433MPD2    H7 6465   3.980   3.411  10.852  2.9179  0.1420 -1.5910
  434TMC3    C1 6466   3.891   3.194  10.865  0.6215  0.4030 -0.1100
  434TMC3    C2 6467   3.839   3.069  10.901  0.2140 -0.0333  0.6744
  434TMC3    C3 6468   3.867   2.964  10.823 -0.7651  0.5651  0.6328
  434TMC3    C4 6469   3.939   3.220  10.737  0.0541  0.1605  0.1866
  434TMC3    C5 6470   3.953   3.110  10.650 -0.3755 -0.1687 -0.9828
  434TMC3    C6 6471   3.923   2.982  10.703 -0.1710  0.1026  0.1276
  434TMC3     C 6472   3.961   3.252  10.975 -0.7456  0.3250  0.4876
  434TMC3     O 6473   3.983   3.186  11.076  0.4453  0.1050 -0.0020
  434TMC3     H 6474   3.795   3.053  10.999 -2.6417  0.0195 -0.6009
  434TMC3    H1 6475   3.992   3.311  10.711 -0.4651  0.8191  1.4728
  434TMC3    H2 6476   3.938   2.895  10.640  1.8405 -0.0676  0.8427
  434TMC3    C7 6477   4.053   3.121  10.543  0.5690 -0.2233  0.1513
  434TMC3    C8 6478   3.924   2.861  10.898 -0.3945 -0.1608 -0.1774
  434TMC3    O1 6479   4.062   3.234  10.489 -0.4521 -0.4303  0.0498
  434TMC3    O2 6480   3.867   2.821  11.002 -0.3726  0.1129 -0.3022
  435MPD2     C 6481   1.209   3.587  15.162  0.0586 -0.2897 -0.2826
  435MPD2    C1 6482   1.162   3.599  15.290  0.8531  0.0972 -0.4960
  435MPD2    C2 6483   1.248   3.575  15.400  0.0850 -0.0998  0.4696
  435MPD2    C3 6484   1.375   3.528  15.382 -0.2503 -0.2232  1.0516
  435MPD2    C4 6485   1.415   3.514  15.250  0.1564 -0.1603 -0.3071
  435MPD2    C5 6486   1.337   3.549  15.140 -0.7470 -0.0075 -0.6980
  435MPD2     H 6487   1.220   3.600  15.502 -0.7410  0.2593  0.1562
  435MPD2    H1 6488   1.515   3.481  15.223  1.0083  3.3121 -1.4995
  435MPD2    H2 6489   1.149   3.594  15.072 -0.3143  1.5306  0.1051
  435MPD2    H3 6490   1.376   3.540  15.039 -2.2371  0.5131 -1.3266
  435MPD2     N 6491   1.447   3.500  15.499  0.2687 -0.0093  0.1258
  435MPD2    H5 6492   1.398   3.498  15.588 -0.4320  1.0097 -0.2413
  435MPD2    N1 6493   1.025   3.621  15.309  0.5495 -0.1307 -0.8290
  435MPD2    H7 6494   0.993   3.621  15.405  1.8257 -1.4192 -0.4025
  436TMC3    C1 6495   0.679   3.809  15.429  0.4407  0.2327  0.2502
  436TMC3    C2 6496   0.795   3.749  15.389 -0.6170 -0.0405 -0.0410
  436TMC3    C3 6497   0.801   3.691  15.268 -0.0132 -0.3961 -0.6599
  436TMC3    C4 6498   0.585   3.829  15.334  0.5021 -0.1823 -0.3976
  436TMC3    C5 6499   0.599   3.780  15.206  0.0161  0.2615 -0.3966
  436TMC3    C6 6500   0.712   3.703  15.173 -0.2027  0.2706  0.2577
  436TMC3     C 6501   0.694   3.908  15.532  0.6155  0.2466 -0.6228
  436TMC3     O 6502   0.802   3.914  15.589  0.3174 -0.4624  0.1726
  436TMC3     H 6503   0.871   3.726  15.463 -0.1175 -0.3166 -0.6419
  436TMC3    H1 6504   0.501   3.895  15.355  1.6150  1.4764 -1.2269
  436TMC3    H2 6505   0.717   3.667  15.070 -1.5025  0.3455  0.1653
  436TMC3    C7 6506   0.520   3.837  15.102  0.5386 -0.0740 -0.3854
  436TMC3    C8 6507   0.932   3.657  15.216  0.7764  0.3103 -0.3742
  436TMC3    O1 6508   0.402   3.810  15.104 -0.1189 -0.7545  0.5515
  436TMC3    O2 6509   0.938   3.690  15.099 -0.4753  0.4914  0.5242
  437TMC3    C1 6510   4.487   0.980  12.140  0.6428 -0.2576  1.1505
  437TMC3    C2 6511   4.368   1.035  12.103  0.3190  0.3906 -0.0695
  437TMC3    C3 6512   4.380   1.124  11.996 -0.0720 -0.2127  0.1743
  437TMC3    C4 6513   4.610   1.024  12.099 -0.2520  0.0972  0.7335
  437TMC3    C5 6514   4.613   1.117  11.993  0.6472  0.3526  0.3301
  437TMC3    C6 6515   4.502   1.166  11.939 -0.4532  0.1080  0.3065
  437TMC3     C 6516   4.482   0.862  12.229  0.1999  0.1712 -1.2685
  437TMC3     O 6517   4.372   0.838  12.280 -0.0889 -0.0275  0.1135
  437TMC3     H 6518   4.279   0.984  12.139  0.7486  1.6671  2.8115
  437TMC3    H1 6519   4.702   0.977  12.132 -1.0508  0.1463  3.0341
  437TMC3    H2 6520   4.514   1.238  11.860 -0.9473 -2.5632 -2.1943
  437TMC3    C7 6521   0.016   1.168  11.943  0.0844 -0.2495 -0.4635
  437TMC3    C8 6522   4.250   1.169  11.936 -0.4523  0.4452 -0.6778
  437TMC3    O1 6523   0.011   1.245  11.845 -0.1150  0.2365  0.2040
  437TMC3    O2 6524   4.263   1.266  11.864  0.0997  0.6437 -0.1528
  438MPD2     C 6525   2.120   1.748  16.845 -0.4932  0.4687  0.1064
  438MPD2    C1 6526   2.198   1.646  16.886  0.0855  0.0668  0.2078
  438MPD2    C2 6527   2.168   1.585  17.008 -0.2672 -0.6968 -0.1416
  438MPD2    C3 6528   2.072   1.631  17.097  0.4271  0.2977 -0.3571
  438MPD2    C4 6529   1.995   1.744  17.052  0.5319  0.0941  0.4339
  438MPD2    C5 6530   2.022   1.798  16.931 -0.3807 -0.4850 -0.3220
  438MPD2     H 6531   2.238   1.507  17.036 -0.8154 -1.0582  0.2152
  438MPD2    H1 6532   1.908   1.783  17.103  0.6820  0.2122  0.6015
  438MPD2    H2 6533   2.118   1.800  16.750  0.7187  0.6722  0.2000
  438MPD2    H3 6534   1.957   1.872  16.885  1.0727  0.8714 -0.2320
  438MPD2     N 6535   2.045   1.563  17.221 -0.3256 -0.4935 -0.5482
  438MPD2    H5 6536   1.980   1.606  17.286 -0.7759 -0.8604 -0.7609
  438MPD2    N1 6537   2.302   1.589  16.811 -0.0792  0.7611  0.9428
  438MPD2    H7 6538   2.360   1.517  16.853 -0.9829  0.1020  1.0646
  439TMC3    C1 6539   2.441   1.534  16.630  0.0351 -0.1357 -0.3670
  439TMC3    C2 6540   2.448   1.483  16.502 -0.3509  0.2683  0.2829
  439TMC3    C3 6541   2.554   1.400  16.471 -0.4053  0.2053  0.1448
  439TMC3    C4 6542   2.538   1.500  16.726 -0.0841 -0.5610 -0.2506
  439TMC3    C5 6543   2.628   1.406  16.692 -0.8077  0.2668  0.0853
  439TMC3    C6 6544   2.635   1.344  16.569  0.0005 -0.3885 -0.3021
  439TMC3     C 6545   2.325   1.612  16.677  0.6363  0.7764  0.7978
  439TMC3     O 6546   2.261   1.672  16.594  0.2861 -0.1005  0.9008
  439TMC3     H 6547   2.383   1.522  16.424  0.0244  2.7816  1.2071
  439TMC3    H1 6548   2.542   1.557  16.819  0.9741 -0.7027 -0.2062
  439TMC3    H2 6549   2.727   1.296  16.540  0.9750  1.1908  0.1681
  439TMC3    C7 6550   2.736   1.380  16.791  0.6234 -0.2584  0.9190
  439TMC3    C8 6551   2.583   1.362  16.336  0.2995  0.2120  0.3728
  439TMC3    O1 6552   2.775   1.457  16.882  0.1001 -0.0927  0.0161
  439TMC3    O2 6553   2.680   1.292  16.312  0.2054 -0.1099 -0.0750
  440MPD2     C 6554   0.741   2.176  15.584 -0.5525  0.2774 -0.1704
  440MPD2    C1 6555   0.808   2.277  15.518  0.6245  0.7540  0.2012
  440MPD2    C2 6556   0.888   2.244  15.407  0.4792 -0.2027  0.5743
  440MPD2    C3 6557   0.892   2.109  15.370  0.0462 -0.0230  0.5074
  440MPD2    C4 6558   0.819   2.010  15.431  0.8419  0.5081  0.4365
  440MPD2    C5 6559   0.742   2.049  15.538  0.0569  0.3071  0.7207
  440MPD2     H 6560   0.957   2.319  15.369 -0.1536 -0.3592 -0.8787
  440MPD2    H1 6561   0.816   1.905  15.403  1.8378  0.0716  1.9605
  440MPD2    H2 6562   0.667   2.196  15.661  0.3370  2.7667  0.0540
  440MPD2    H3 6563   0.672   1.974  15.573  0.8805 -0.6884  0.2296
  440MPD2     N 6564   0.984   2.065  15.270 -0.1994  0.4254 -0.2886
  440MPD2    H5 6565   1.005   1.965  15.265 -0.5105  0.5838 -4.4488
  440MPD2    N1 6566   0.809   2.422  15.547 -0.4580  0.6615 -0.3206
  440MPD2    H7 6567   0.857   2.483  15.481 -1.0447  0.5737 -0.8326
  441TMC3    C1 6568   1.183   2.072  15.146 -0.1298  0.5017 -0.8723
  441TMC3    C2 6569   1.287   2.161  15.155 -0.3141 -0.5423  0.0155
  441TMC3    C3 6570   1.388   2.130  15.242 -0.3450  0.2542 -0.7870
  441TMC3    C4 6571   1.184   1.942  15.197  0.4489  0.0874 -0.3992
  441TMC3    C5 6572   1.285   1.911  15.281  0.6692 -0.3008  0.1501
  441TMC3    C6 6573   1.382   2.010  15.308 -1.0386 -1.3849  0.0827
  441TMC3     C 6574   1.063   2.146  15.191  0.1511  0.5593 -0.4900
  441TMC3     O 6575   1.064   2.265  15.164  0.8868 -0.5076 -0.3831
  441TMC3     H 6576   1.280   2.258  15.107 -0.7848  0.2568  1.7097
  441TMC3    H1 6577   1.105   1.875  15.165 -0.5469  0.9962  0.1365
  441TMC3    H2 6578   1.450   1.999  15.392  1.2140  1.3016 -1.4323
  441TMC3    C7 6579   1.227   1.842  15.392 -0.3750 -0.5234  0.6699
  441TMC3    C8 6580   1.413   2.242  15.325 -0.0822 -0.2645 -0.1150
  441TMC3    O1 6581   1.109   1.832  15.398  0.0495 -0.4763  0.0234
  441TMC3    O2 6582   1.510   2.239  15.401  0.5463  0.1491 -0.2766
  442MPD2     C 6583   3.828   2.908  16.618 -0.1711  0.3881  0.9702
  442MPD2    C1 6584   3.770   2.812  16.704  0.3285 -0.6475  0.4375
  442MPD2    C2 6585   3.794   2.677  16.675  0.4747 -0.2867 -0.5832
  442MPD2    C3 6586   3.871   2.641  16.565  0.6175 -0.5956  0.2723
  442MPD2    C4 6587   3.927   2.737  16.485 -0.2782 -0.3111 -0.1559
  442MPD2    C5 6588   3.909   2.865  16.515 -0.1174  0.3223  0.3300
  442MPD2     H 6589   3.761   2.592  16.733 -1.8231  0.9898 -0.0366
  442MPD2    H1 6590   3.995   2.721  16.403 -0.0095 -0.4038  0.0821
  442MPD2    H2 6591   3.825   3.015  16.639  1.6450  0.9283 -1.4654
  442MPD2    H3 6592   3.967   2.943  16.467 -0.1881  0.4029  0.3739
  442MPD2     N 6593   3.902   2.504  16.527  0.4254  0.2872  0.3012
  442MPD2    H5 6594   3.974   2.488  16.457  0.9821  2.1100  0.4566
  442MPD2    N1 6595   3.688   2.850  16.817  0.2367 -0.1827  0.0525
  442MPD2    H7 6596   3.662   2.776  16.881  0.5151 -1.1118 -0.9117
  443TMC3    C1 6597   3.576   2.998  16.967 -0.9009  0.1643  0.3779
  443TMC3    C2 6598   3.465   3.081  16.970  0.0030 -0.1698 -0.1494
  443TMC3    C3 6599   3.365   3.050  17.064  0.8587  0.2181  0.1445
  443TMC3    C4 6600   3.599   2.907  17.063 -0.8820  0.2076 -0.1965
  443TMC3    C5 6601   3.509   2.889  17.163 -0.4362  1.0406 -0.3084
  443TMC3    C6 6602   3.395   2.959  17.165 -0.3287  0.5564 -0.1807
  443TMC3     C 6603   3.643   2.980  16.838  0.0085 -0.1074 -0.0525
  443TMC3     O 6604   3.635   3.075  16.761  0.3553 -0.3746  0.4219
  443TMC3     H 6605   3.450   3.159  16.896  1.6513 -0.5708 -0.9038
  443TMC3    H1 6606   3.687   2.845  17.064 -0.8540  0.2771  1.7335
  443TMC3    H2 6607   3.315   2.919  17.227  0.3948 -1.7875 -0.7665
  443TMC3    C7 6608   3.511   2.760  17.235  0.2943  0.1068  0.2281
  443TMC3    C8 6609   3.246   3.007  16.998  0.2762 -0.1553 -0.2978
  443TMC3    O1 6610   3.586   2.674  17.198 -0.8601  0.0486 -0.0104
  443TMC3    O2 6611   3.155   2.965  17.065  0.0904  0.4646 -0.0502
  444MPD2     C 6612   4.306   2.249  17.232 -0.1951 -0.2890  0.4378
  444MPD2    C1 6613   4.201   2.175  17.174 -0.1249  0.3870  0.3575
  444MPD2    C2 6614   4.232   2.094  17.068  0.4791 -0.5700 -0.2427
  444MPD2    C3 6615   4.359   2.076  17.019 -0.3390 -0.7413  0.2585
  444MPD2    C4 6616   4.463   2.147  17.076 -0.3173 -0.7458 -0.4042
  444MPD2    C5 6617   4.430   2.233  17.176  0.4858  0.2068  0.6194
  444MPD2     H 6618   4.156   2.030  17.025 -1.4862  1.5320  0.0837
  444MPD2    H1 6619   4.567   2.132  17.052  0.1819 -0.1361  1.4253
  444MPD2    H2 6620   4.297   2.313  17.319 -1.5283  1.6145 -1.1197
  444MPD2    H3 6621   4.511   2.281  17.229  0.3018  1.0138  0.1754
  444MPD2     N 6622   4.380   1.997  16.901 -0.6634  0.6807 -0.6291
  444MPD2    H5 6623   4.298   1.949  16.867 -0.1372 -1.5972  1.2849
  444MPD2    N1 6624   4.075   2.173  17.230 -0.6174  0.5979 -0.5959
  444MPD2    H7 6625   4.002   2.116  17.189 -2.2255  0.8179  1.9477
  445TMC3    C1 6626   4.464   1.874  16.728  0.1232 -0.3565 -0.2856
  445TMC3    C2 6627   4.336   1.863  16.679  0.8401 -0.7953  0.3872
  445TMC3    C3 6628   4.313   1.749  16.605  0.4852  0.2234 -0.2250
  445TMC3    C4 6629   4.561   1.779  16.710 -0.0021  0.3468 -0.3652
  445TMC3    C5 6630   4.521   1.659  16.650 -0.0269  0.2887 -0.4045
  445TMC3    C6 6631   4.402   1.651  16.592 -0.1154 -0.8344  0.4761
  445TMC3     C 6632   4.489   1.979  16.826  0.8649 -0.9825  0.4490
  445TMC3     O 6633   4.605   2.022  16.844 -0.4449  0.3226  0.2765
  445TMC3     H 6634   4.261   1.940  16.690  0.2578 -0.9605 -2.3109
  445TMC3    H1 6635   4.654   1.794  16.763  0.6247  0.1045 -1.3927
  445TMC3    H2 6636   4.381   1.578  16.514  0.2140 -1.0803  0.6214
  445TMC3    C7 6637   4.628   1.581  16.604 -0.4339  0.4138  0.3314
  445TMC3    C8 6638   4.225   1.768  16.495 -0.0877 -0.4480  0.5816
  445TMC3    O1 6639   4.714   1.641  16.548 -0.2703  0.8056  0.0751
  445TMC3    O2 6640   4.190   1.878  16.459 -0.4096  0.0068  0.1416
  446MPD2     C 6641   3.868   2.800  11.484 -0.2432 -0.6160 -0.5024
  446MPD2    C1 6642   3.838   2.844  11.354 -0.0305  0.4151 -0.2570
  446MPD2    C2 6643   3.935   2.918  11.290 -0.4885  0.2255  0.1646
  446MPD2    C3 6644   4.060   2.944  11.349  0.8106  0.2239 -0.1091
  446MPD2    C4 6645   4.072   2.920  11.484 -0.0071 -0.2556 -0.7420
  446MPD2    C5 6646   3.978   2.843  11.546 -0.8941  0.4204 -0.5127
  446MPD2     H 6647   3.934   2.954  11.188 -1.4073 -0.5413 -0.1001
  446MPD2    H1 6648   4.164   2.936  11.540  0.0337 -2.0743 -0.2762
  446MPD2    H2 6649   3.807   2.729  11.539  0.0583 -0.1727  0.4045
  446MPD2    H3 6650   3.988   2.823  11.652 -0.1214  0.7072 -0.5311
  446MPD2     N 6651   4.152   3.010  11.269  0.0810  0.2486  0.1760
  446MPD2    H5 6652   4.140   3.011  11.168 -3.8818  2.5647  0.6966
  446MPD2    N1 6653   3.727   2.799  11.268  0.2909 -0.0637 -0.2457
  446MPD2    H7 6654   3.720   2.823  11.169 -1.1639 -0.2008 -0.1878
  447TMC3    C1 6655   4.369   3.067  11.197 -0.1468 -0.1973  0.0409
  447TMC3    C2 6656   4.310   3.124  11.088  0.6694  0.5836 -0.9876
  447TMC3    C3 6657   4.399   3.141  10.987  0.1687 -0.1111 -0.1832
  447TMC3    C4 6658   4.496   3.016  11.201 -0.2809 -0.2416 -0.7386
  447TMC3    C5 6659   4.578   3.039  11.096  0.2408 -0.3763 -0.3250
  447TMC3    C6 6660   4.525   3.089  10.980 -0.6184  0.4540 -0.3777
  447TMC3     C 6661   4.285   3.020  11.304  0.4857  0.2344 -0.3686
  447TMC3     O 6662   4.337   2.984  11.411  0.0254 -0.0734 -0.6594
  447TMC3     H 6663   4.211   3.166  11.075  0.0922 -0.6637 -0.5647
  447TMC3    H1 6664   4.520   2.949  11.284 -1.5853  2.0243  1.4808
  447TMC3    H2 6665   4.581   3.099  10.888 -0.2505 -1.8927 -0.4201
  447TMC3    C7 6666   4.711   2.992  11.090  0.7050 -0.7632  0.2018
  447TMC3    C8 6667   4.341   3.213  10.877 -0.6192 -0.2482  0.8281
  447TMC3    O1 6668   0.039   2.993  10.980 -0.0616 -0.3026  0.1542
  447TMC3    O2 6669   4.253   3.159  10.810  0.0781  0.3340  0.7398
  448TMC3    C1 6670   2.202   3.148  16.941  0.0686  0.0732 -0.0353
  448TMC3    C2 6671   2.190   3.023  16.884  0.3333  0.2651  0.3939
  448TMC3    C3 6672   2.252   2.922  16.951 -0.0641 -0.7270  0.1396
  448TMC3    C4 6673   2.276   3.184  17.043 -0.2675  0.1457  0.0857
  448TMC3    C5 6674   2.341   3.079  17.100 -0.0258 -0.2597 -0.8058
  448TMC3    C6 6675   2.335   2.948  17.056  0.5898  0.2760 -0.1259
  448TMC3     C 6676   2.102   3.246  16.894  0.0407 -0.3904 -0.2760
  448TMC3     O 6677   2.108   3.364  16.932 -0.0631 -0.0258  0.3198
  448TMC3     H 6678   2.155   3.005  16.783 -2.0156  1.4662  1.0188
  448TMC3    H1 6679   2.270   3.284  17.084  0.0567  0.4827 -0.6912
  448TMC3    H2 6680   2.395   2.870  17.101 -0.5506 -0.2557  0.4874
  448TMC3    C7 6681   2.439   3.117  17.200 -0.5555 -0.4431  0.0445
  448TMC3    C8 6682   2.235   2.775  16.933 -0.5836  0.7394 -0.1231
  448TMC3    O1 6683   2.491   3.228  17.200 -0.5016 -0.6814  0.4295
  448TMC3    O2 6684   2.327   2.712  16.980  0.6131  0.7305  0.0924
  449MPD2     C 6685   4.165   1.277  13.549 -0.4188  0.4840 -0.4649
  449MPD2    C1 6686   4.051   1.354  13.541 -0.4432 -0.4091  0.4584
  449MPD2    C2 6687   3.947   1.339  13.633 -0.2157  0.1373  0.0086
  449MPD2    C3 6688   3.960   1.234  13.728  0.3339 -0.2234 -0.6628
  449MPD2    C4 6689   4.074   1.160  13.731  0.7735 -0.0840  0.1202
  449MPD2    C5 6690   4.175   1.185  13.648 -0.6579 -0.1078 -0.5413
  449MPD2     H 6691   3.854   1.393  13.619 -0.5738 -1.0650 -2.3992
  449MPD2    H1 6692   4.085   1.079  13.802  0.1022  0.7085  1.1353
  449MPD2    H2 6693   4.250   1.294  13.484  1.0098  0.2985  1.3578
  449MPD2    H3 6694   4.262   1.120  13.647 -0.5083  0.0499  2.3191
  449MPD2     N 6695   3.848   1.217  13.816  0.3048  0.2018  0.3561
  449MPD2    H5 6696   3.767   1.277  13.803 -0.9106 -1.0953  1.9403
  449MPD2    N1 6697   4.023   1.444  13.440 -0.1903  0.5991 -0.2759
  449MPD2    H7 6698   3.941   1.503  13.442 -1.2838 -1.0075  1.5596
  450TMC3    C1 6699   4.011   1.536  13.232 -0.2911 -0.5814 -1.1403
  450TMC3    C2 6700   3.974   1.455  13.134  0.3631  0.3344 -0.3341
  450TMC3    C3 6701   3.839   1.449  13.093  0.0221  0.2426  0.0052
  450TMC3    C4 6702   3.916   1.620  13.288  0.6237  0.1287 -0.4377
  450TMC3    C5 6703   3.787   1.615  13.251 -0.6195  0.7707  0.3376
  450TMC3    C6 6704   3.745   1.524  13.153 -0.1494  0.2898  0.3612
  450TMC3     C 6705   4.094   1.466  13.323  0.3506 -1.1887 -0.0922
  450TMC3     O 6706   4.188   1.407  13.277  0.0003 -0.1824 -0.0233
  450TMC3     H 6707   4.047   1.397  13.078  0.4246 -1.2786  1.4286
  450TMC3    H1 6708   3.944   1.688  13.368  1.1669 -0.4264 -0.1524
  450TMC3    H2 6709   3.643   1.496  13.130 -0.0934 -0.5008  1.0962
  450TMC3    C7 6710   3.707   1.624  13.371 -0.0675  0.0043  0.0490
  450TMC3    C8 6711   3.794   1.350  12.994 -0.0065 -0.1721 -0.1680
  450TMC3    O1 6712   3.775   1.605  13.470  0.3343 -0.2345  0.6795
  450TMC3    O2 6713   3.679   1.349  12.957  0.3377 -0.7534 -0.2929
  451MPD2     C 6714   4.547   0.619   1.822  0.1887 -0.5308  0.1389
  451MPD2    C1 6715   4.612   0.678   1.716 -0.3415  0.0598  0.2188
  451MPD2    C2 6716   4.722   0.618   1.655  0.8779 -0.8797 -0.0026
  451MPD2    C3 6717   0.040   0.493   1.702 -1.3358  0.1699 -0.7396
  451MPD2    C4 6718   4.706   0.445   1.819  0.3838  0.7829  0.1398
  451MPD2    C5 6719   4.591   0.502   1.879 -0.1398 -0.0690  0.2749
  451MPD2     H 6720   0.035   0.652   1.558  1.9112  1.7700  1.3050
  451MPD2    H1 6721   0.014   0.347   1.853 -1.0804 -0.1038 -1.0468
  451MPD2    H2 6722   4.464   0.665   1.875  1.1321  1.2889  0.0279
  451MPD2    H3 6723   4.529   0.462   1.959 -1.1343 -1.9232 -1.4194
  451MPD2     N 6724   0.147   0.420   1.641 -0.1797  0.1559 -0.7905
  451MPD2    H5 6725   0.168   0.331   1.685 -2.3350  0.4324  0.7927
  451MPD2    N1 6726   4.556   0.803   1.668 -0.2970  0.5485  0.6138
  451MPD2    H7 6727   4.464   0.833   1.700 -0.4374 -1.0052  1.6592
  452TMC3    C1 6728   0.308   0.348   1.482 -0.2609 -0.1896  0.6453
  452TMC3    C2 6729   0.320   0.230   1.555 -0.3787 -0.3211  0.5328
  452TMC3    C3 6730   0.406   0.137   1.499 -0.7604  0.0301  0.8947
  452TMC3    C4 6731   0.357   0.368   1.357  0.0390 -0.3636  0.6746
  452TMC3    C5 6732   0.440   0.274   1.314  0.1723  0.5117  0.8557
  452TMC3    C6 6733   0.478   0.152   1.381  0.3017 -0.7183  0.1024
  452TMC3     C 6734   0.205   0.445   1.519 -0.0559  0.4723  0.5805
  452TMC3     O 6735   0.189   0.541   1.444  0.1558 -0.2169  0.0417
  452TMC3     H 6736   0.270   0.211   1.649  0.4152  0.1632  1.0558
  452TMC3    H1 6737   0.320   0.452   1.300 -0.1341 -0.9485 -0.0835
  452TMC3    H2 6738   0.532   0.074   1.329  0.6842 -1.4357  1.5873
  452TMC3    C7 6739   0.484   0.283   1.174  0.0795  0.3756 -0.2141
  452TMC3    C8 6740   0.406   0.008   1.565  0.0154 -0.8875 -0.3528
  452TMC3    O1 6741   0.512   0.173   1.124  0.0779  0.1967  0.1525
  452TMC3    O2 6742   0.309   4.695   1.632  0.0813  0.1416 -0.2705
  453TMC3    C1 6743   1.573   1.593  11.477  0.6706  0.2077  0.1252
  453TMC3    C2 6744   1.525   1.473  11.510 -0.4459  0.0308  0.8462
  453TMC3    C3 6745   1.410   1.442  11.447  0.4801 -0.0162 -0.2529
  453TMC3    C4 6746   1.522   1.672  11.374 -0.5368 -0.4947  0.6052
  453TMC3    C5 6747   1.415   1.628  11.300 -0.1843 -0.4731  0.2978
  453TMC3    C6 6748   1.357   1.511  11.338 -0.0070  0.5876 -0.0800
  453TMC3     C 6749   1.684   1.648  11.556 -0.0535  0.4471  0.0681
  453TMC3     O 6750   1.706   1.767  11.539  0.4948  0.2522 -0.1332
  453TMC3     H 6751   1.551   1.428  11.605  0.6834 -1.9491 -0.4109
  453TMC3    H1 6752   1.585   1.748  11.330  0.9823 -2.3487 -0.4581
  453TMC3    H2 6753   1.281   1.463  11.278  0.2951  2.0597 -1.6368
  453TMC3    C7 6754   1.403   1.654  11.159  0.1118  0.9577 -0.2299
  453TMC3    C8 6755   1.339   1.320  11.491 -0.1821  0.4668  0.5069
  453TMC3    O1 6756   1.353   1.568  11.087  0.8453 -0.0197 -0.2119
  453TMC3    O2 6757   1.225   1.304  11.447 -0.0311 -0.0762 -0.0705
  454MPD2     C 6758   0.236   1.686  16.198 -0.9724  0.2719  0.0159
  454MPD2    C1 6759   0.159   1.797  16.163  0.0024  0.2290  0.2793
  454MPD2    C2 6760   0.133   1.895  16.255 -0.8825 -0.2997 -0.4133
  454MPD2    C3 6761   0.182   1.887  16.388  0.3739 -0.0828  0.2147
  454MPD2    C4 6762   0.265   1.786  16.419  0.7896  0.2793 -0.8122
  454MPD2    C5 6763   0.282   1.681  16.328  0.7649 -0.4289 -0.3615
  454MPD2     H 6764   0.062   1.970  16.223 -1.2288 -0.4643 -0.0367
  454MPD2    H1 6765   0.312   1.766  16.515 -0.7870  1.2706  0.1808
  454MPD2    H2 6766   0.252   1.601  16.133  0.7424  2.0834 -1.9482
  454MPD2    H3 6767   0.340   1.592  16.352  2.4485  0.4181 -1.2973
  454MPD2     N 6768   0.129   1.969  16.488  0.3868  0.2043  0.1609
  454MPD2    H5 6769   0.113   1.929  16.580  1.9845 -0.4902  0.1335
  454MPD2    N1 6770   0.089   1.806  16.044 -0.3445 -0.5278  0.6218
  454MPD2    H7 6771   0.066   1.900  16.014  2.0968 -1.1200 -3.2223
  455TMC3    C1 6772   4.634   2.061  16.482  0.6546 -0.1377  0.2598
  455TMC3    C2 6773   4.556   2.174  16.487  0.4223 -0.4493  0.0613
  455TMC3    C3 6774   4.433   2.164  16.440  0.1441 -0.5196  0.7218
  455TMC3    C4 6775   4.585   1.945  16.419  0.8321 -1.1139  1.2769
  455TMC3    C5 6776   4.467   1.952  16.344 -0.5632  0.1897  0.2144
  455TMC3    C6 6777   4.392   2.068  16.350  0.1629  0.7148  0.3905
  455TMC3     C 6778   0.052   2.087  16.459 -0.4633 -0.0858  0.5508
  455TMC3     O 6779   0.081   2.178  16.383 -0.1628  0.2059  0.3062
  455TMC3     H 6780   4.594   2.273  16.512  1.9882 -0.9743 -0.1910
  455TMC3    H1 6781   4.653   1.861  16.412  0.2560 -1.5211  0.5656
  455TMC3    H2 6782   4.288   2.068  16.318  0.8603 -1.9678 -1.9228
  455TMC3    C7 6783   4.436   1.842  16.250  0.1219 -0.6000  0.5379
  455TMC3    C8 6784   4.329   2.225  16.519 -0.2495  0.1329  0.8165
  455TMC3    O1 6785   4.339   1.852  16.175  0.3709 -0.0315 -0.3751
  455TMC3    O2 6786   4.219   2.244  16.469  0.0164 -0.6378 -0.3349
  456MPD2     C 6787   2.722   1.749  16.256  0.2645  0.1763 -0.3090
  456MPD2    C1 6788   2.766   1.673  16.360  0.5392 -0.0563 -0.3531
  456MPD2    C2 6789   2.730   1.707  16.485 -0.1283  0.2099 -0.5798
  456MPD2    C3 6790   2.640   1.809  16.505 -0.7321 -0.4768  0.1908
  456MPD2    C4 6791   2.592   1.881  16.400  0.6320  0.4080 -0.7206
  456MPD2    C5 6792   2.635   1.846  16.277 -0.1681 -0.3392  0.3707
  456MPD2     H 6793   2.777   1.657  16.569  0.4037  3.1578  0.8614
  456MPD2    H1 6794   2.527   1.967  16.408  0.8531  0.3886  1.3849
  456MPD2    H2 6795   2.763   1.726  16.158  1.3144  0.0065  0.1650
  456MPD2    H3 6796   2.615   1.894  16.182  1.4513 -2.2557 -0.9338
  456MPD2     N 6797   2.610   1.844  16.644  0.0313  0.5660  0.5651
  456MPD2    H5 6798   2.670   1.808  16.718  1.2059  1.2288 -0.0656
  456MPD2    N1 6799   2.849   1.565  16.323  0.0377 -0.1715  0.0908
  456MPD2    H7 6800   2.864   1.560  16.223  0.6492 -1.9420  0.2755
  457TMC3    C1 6801   2.518   1.993  16.811 -0.1657  0.2336 -0.1795
  457TMC3    C2 6802   2.409   2.071  16.836 -0.6303 -0.1721  0.0389
  457TMC3    C3 6803   2.416   2.157  16.938  0.4309 -0.1003 -0.4676
  457TMC3    C4 6804   2.626   1.990  16.892 -0.8154 -0.5160  0.5252
  457TMC3    C5 6805   2.637   2.083  16.990  0.5946 -0.0243 -0.1378
  457TMC3    C6 6806   2.539   2.175  17.003  0.0658 -0.0837 -0.3500
  457TMC3     C 6807   2.520   1.946  16.674  0.1154  0.0413 -0.1358
  457TMC3     O 6808   2.424   1.988  16.609 -0.5250  0.3265 -0.2024
  457TMC3     H 6809   2.314   2.061  16.784 -0.7363  0.4088  0.1181
  457TMC3    H1 6810   2.715   1.932  16.868 -0.1850  0.5539  0.2876
  457TMC3    H2 6811   2.530   2.237  17.091  2.8291 -1.3424  0.8036
  457TMC3    C7 6812   2.749   2.072  17.082  0.3411  0.4604  0.3517
  457TMC3    C8 6813   2.328   2.267  16.941 -0.4545 -0.0355 -0.0266
  457TMC3    O1 6814   2.803   1.962  17.098 -0.0799  0.7081  0.0653
  457TMC3    O2 6815   2.358   2.351  17.030  0.6170 -0.3668  0.0201
  458MPD2     C 6816   0.524   1.223  11.926 -0.6380 -0.6597  0.6217
  458MPD2    C1 6817   0.494   1.133  12.025 -0.9678 -0.4923  0.1977
  458MPD2    C2 6818   0.365   1.114  12.056  0.0491 -0.0744  0.0047
  458MPD2    C3 6819   0.266   1.161  11.974  0.4394 -0.7326  0.2098
  458MPD2    C4 6820   0.297   1.244  11.869 -0.7106 -0.2863 -0.3153
  458MPD2    C5 6821   0.426   1.276  11.841  0.6379  0.1184  0.3259
  458MPD2     H 6822   0.337   1.065  12.149  0.2623  0.3843  0.3085
  458MPD2    H1 6823   0.230   1.304  11.808  0.3519  1.0873 -0.1359
  458MPD2    H2 6824   0.628   1.249  11.909 -0.7230 -0.4313  0.4450
  458MPD2    H3 6825   0.451   1.336  11.754 -4.4734  3.8853  1.4795
  458MPD2     N 6826   0.130   1.125  12.005  0.3925  0.6643 -0.2239
  458MPD2    H5 6827   0.126   1.059  12.082 -1.5698  0.0540 -0.8375
  458MPD2    N1 6828   0.603   1.074  12.098  0.1517 -0.1268  0.2865
  458MPD2    H7 6829   0.698   1.094  12.069 -0.9451  0.8179 -2.5881
  459TMC3    C1 6830   0.702   0.967  12.289 -0.1452  0.4858  0.6123
  459TMC3    C2 6831   0.823   0.974  12.234 -0.8131  0.2216 -0.0588
  459TMC3    C3 6832   0.936   0.954  12.311  0.7282  0.1852 -0.4164
  459TMC3    C4 6833   0.675   0.933  12.419  0.3423 -0.4514  0.9206
  459TMC3    C5 6834   0.784   0.914  12.496 -0.0500 -0.6965  0.2270
  459TMC3    C6 6835   0.909   0.930  12.444  0.3982 -0.6195  0.2563
  459TMC3     C 6836   0.585   0.987  12.210  0.3037  0.3536 -1.1250
  459TMC3     O 6837   0.481   0.935  12.251  0.3506  0.0569 -0.8373
  459TMC3     H 6838   0.839   0.986  12.128 -2.0592 -1.1154 -0.3887
  459TMC3    H1 6839   0.575   0.934  12.460  1.3103  1.8438  3.1787
  459TMC3    H2 6840   0.998   0.925  12.506  1.6460 -0.9774 -1.5372
  459TMC3    C7 6841   0.771   0.881  12.639  0.0731 -0.0906 -1.0188
  459TMC3    C8 6842   1.074   1.008  12.283  0.8335 -0.5918  0.1325
  459TMC3    O1 6843   0.873   0.870  12.705 -0.0341  0.1061  0.4176
  459TMC3    O2 6844   1.173   0.951  12.331  0.3579 -0.2992  0.4245
  460MPD2     C 6845   4.494   3.510  10.735  0.2301 -0.1616  0.1131
  460MPD2    C1 6846   4.404   3.410  10.734 -0.4256  0.3655 -0.8741
  460MPD2    C2 6847   4.291   3.413  10.660 -0.8278  0.9970 -0.7576
  460MPD2    C3 6848   4.264   3.520  10.573 -0.5041  0.5412 -0.0109
  460MPD2    C4 6849   4.353   3.625  10.586 -0.1803 -0.5744  0.4457
  460MPD2    C5 6850   4.473   3.617  10.654  0.5918 -0.5261  0.2117
  460MPD2     H 6851   4.209   3.343  10.677 -0.4799  1.0233  1.0356
  460MPD2    H1 6852   4.338   3.717  10.530 -2.6480 -0.8645  0.6470
  460MPD2    H2 6853   4.583   3.502  10.797  0.1155  0.8500  0.4133
  460MPD2    H3 6854   4.548   3.694  10.656 -0.5908  0.5842  1.9825
  460MPD2     N 6855   4.150   3.530  10.495  0.1469  0.0855 -0.0518
  460MPD2    H5 6856   4.094   3.446  10.497 -0.3945  0.4576  0.3580
  460MPD2    N1 6857   4.425   3.314  10.840  0.8379 -0.2531 -0.4068
  460MPD2    H7 6858   4.499   3.339  10.905 -0.5346 -0.1491  1.1117
  461TMC3    C1 6859   3.993   3.619  10.333  0.7882  0.0735 -0.6018
  461TMC3    C2 6860   3.928   3.500  10.341 -0.1311 -0.0587  0.4683
  461TMC3    C3 6861   3.848   3.480  10.231 -0.0862  0.5571  0.2755
  461TMC3    C4 6862   3.974   3.717  10.233  0.3164 -0.3773  1.0353
  461TMC3    C5 6863   3.898   3.678  10.130 -0.0802  0.0784 -0.0597
  461TMC3    C6 6864   3.836   3.561  10.119  0.1499  0.8141  0.5186
  461TMC3     C 6865   4.115   3.638  10.414 -0.8440  0.0141  0.1432
  461TMC3     O 6866   4.164   3.749  10.401 -0.1497  0.4039 -0.1518
  461TMC3     H 6867   3.934   3.437  10.429  1.1406  1.0454  1.1836
  461TMC3    H1 6868   4.028   3.810  10.233 -0.3631  0.0159 -2.1615
  461TMC3    H2 6869   3.773   3.538  10.034 -0.0660 -1.3848  1.2618
  461TMC3    C7 6870   3.902   3.765  10.011  0.1880 -0.1272  0.0070
  461TMC3    C8 6871   3.808   3.343  10.201 -0.1769 -0.1992  0.5778
  461TMC3    O1 6872   3.893   3.886  10.030  0.1114  0.6047 -0.2075
  461TMC3    O2 6873   3.778   3.313  10.086  0.1123  0.2436  0.3483
  462TMC3    C1 6874   3.842   0.313  17.280  0.2068  0.4605 -0.4812
  462TMC3    C2 6875   3.873   0.190  17.231 -0.2496 -0.0553 -0.2791
  462TMC3    C3 6876   3.937   0.101  17.313  0.8523  1.2639 -0.0256
  462TMC3    C4 6877   3.867   0.347  17.403  0.3679  0.0712 -0.1718
  462TMC3    C5 6878   3.924   0.247  17.486 -0.3680 -0.3218  0.6639
  462TMC3    C6 6879   3.973   0.127  17.436 -0.6308  0.2394  0.1617
  462TMC3     C 6880   3.851   0.422  17.192  0.5297  0.3316  0.1936
  462TMC3     O 6881   3.748   0.492  17.176  0.7362  0.5718 -0.1354
  462TMC3     H 6882   3.848   0.162  17.129 -0.7594  0.1084 -0.1954
  462TMC3    H1 6883   3.848   0.449  17.435 -0.5738  0.4515 -1.9688
  462TMC3    H2 6884   3.979   0.041  17.502 -0.0705  0.2991  0.1826
  462TMC3    C7 6885   3.882   0.244  17.625 -0.5017  0.4517 -0.2069
  462TMC3    C8 6886   3.924   4.686  17.279  0.9814  0.4268  0.0147
  462TMC3    O1 6887   3.765   0.221  17.656 -0.5303 -0.5950  0.6437
  462TMC3    O2 6888   3.818   4.660  17.223  0.4872 -0.6694  0.1875
  463MPD2     C 6889   0.729   3.447   1.655  0.2388 -0.4950  0.7136
  463MPD2    C1 6890   0.633   3.544   1.685  0.5330  0.1182 -0.3806
  463MPD2    C2 6891   0.636   3.665   1.615 -0.0989  0.5986 -0.2487
  463MPD2    C3 6892   0.741   3.700   1.534 -0.6962 -0.1974  0.1351
  463MPD2    C4 6893   0.832   3.603   1.513  0.5106 -0.2466  0.8951
  463MPD2    C5 6894   0.830   3.476   1.562  0.3100 -0.7002  0.3689
  463MPD2     H 6895   0.552   3.732   1.630 -0.8873 -0.6396  0.9584
  463MPD2    H1 6896   0.916   3.618   1.446 -1.1211  0.2333 -1.0031
  463MPD2    H2 6897   0.724   3.346   1.696  1.1295 -1.4125 -1.4114
  463MPD2    H3 6898   0.907   3.404   1.538  0.7867 -0.2732  0.6268
  463MPD2     N 6899   0.738   3.822   1.465  0.0270  0.4375  0.1851
  463MPD2    H5 6900   0.656   3.876   1.492  1.0837  2.1749 -0.1379
  463MPD2    N1 6901   0.533   3.531   1.776  0.8633 -0.2036  0.3604
  463MPD2    H7 6902   0.463   3.605   1.781 -0.1840 -1.0186 -2.2298
  464TMC3    C1 6903   0.390   3.422   1.931 -0.2374 -0.4823  0.2788
  464TMC3    C2 6904   0.310   3.531   1.935 -0.0045  0.8360 -0.1023
  464TMC3    C3 6905   0.181   3.514   1.984 -0.0981  0.7133 -0.0181
  464TMC3    C4 6906   0.353   3.294   1.961 -0.7731 -0.0931 -0.5332
  464TMC3    C5 6907   0.225   3.279   2.003  0.6948  0.9916 -0.6475
  464TMC3    C6 6908   0.142   3.388   2.024  0.2069  0.3129 -0.2236
  464TMC3     C 6909   0.515   3.425   1.863 -0.6475  1.2048 -0.4941
  464TMC3     O 6910   0.590   3.331   1.889 -0.4569  0.1168  0.1740
  464TMC3     H 6911   0.351   3.630   1.923 -0.0129  0.8776  0.2138
  464TMC3    H1 6912   0.415   3.209   1.933 -1.0709 -0.7187  0.6783
  464TMC3    H2 6913   0.037   3.364   2.028 -0.2121  1.8999 -1.5877
  464TMC3    C7 6914   0.173   3.144   1.987  0.3693 -0.3034  0.0051
  464TMC3    C8 6915   0.072   3.585   1.919  0.0897  0.7198 -0.6941
  464TMC3    O1 6916   0.050   3.150   1.969  0.2728 -0.0473 -0.2312
  464TMC3    O2 6917   4.673   3.555   1.925 -0.0109  0.4833  0.5096
  465MPD2     C 6918   1.950   1.677  16.484  0.3862  0.5677  0.1536
  465MPD2    C1 6919   1.862   1.662  16.589  0.1414  0.3333 -0.0485
  465MPD2    C2 6920   1.761   1.755  16.612 -0.1926 -0.7058  0.3079
  465MPD2    C3 6921   1.740   1.865  16.524  0.1740  0.7377 -0.4437
  465MPD2    C4 6922   1.824   1.866  16.409 -0.0845  0.1291  0.6900
  465MPD2    C5 6923   1.928   1.776  16.391  0.5700 -0.1193  0.6684
  465MPD2     H 6924   1.703   1.734  16.702  1.0828 -1.2514  1.0101
  465MPD2    H1 6925   1.813   1.932  16.324  2.1407 -1.4431 -0.8141
  465MPD2    H2 6926   2.038   1.617  16.466  0.4823  1.0499 -0.9914
  465MPD2    H3 6927   2.000   1.782  16.310 -2.1427 -1.2309 -1.7964
  465MPD2     N 6928   1.624   1.951  16.543  0.4218 -0.0261 -0.0147
  465MPD2    H5 6929   1.572   1.934  16.629  0.4946 -2.2276 -0.4227
  465MPD2    N1 6930   1.879   1.555  16.682 -0.0599 -0.5529 -0.1854
  465MPD2    H7 6931   1.835   1.558  16.774  0.5217 -0.1882  0.0825
  466TMC3    C1 6932   1.248   2.141  16.529  0.3442 -0.0541 -0.0016
  466TMC3    C2 6933   1.225   2.234  16.439 -0.4233 -0.4241 -0.0613
  466TMC3    C3 6934   1.328   2.262  16.357 -0.6749  0.5392  0.2110
  466TMC3    C4 6935   1.371   2.079  16.548 -0.0071  0.5030  0.4889
  466TMC3    C5 6936   1.468   2.107  16.456 -0.6896 -0.7585  0.1330
  466TMC3    C6 6937   1.441   2.192  16.359  0.1916 -0.1288  0.3633
  466TMC3     C 6938   1.153   2.128  16.639 -0.3114 -0.9157  0.5014
  466TMC3     O 6939   1.186   2.125  16.759  0.4002  0.5711  0.1022
  466TMC3     H 6940   1.137   2.296  16.435  1.9691  2.9251 -0.2387
  466TMC3    H1 6941   1.375   2.005  16.627 -0.7071 -0.3502 -0.2749
  466TMC3    H2 6942   1.519   2.209  16.286 -1.6207  0.0420 -1.5459
  466TMC3    C7 6943   1.603   2.057  16.458  0.1396 -0.2928  0.8977
  466TMC3    C8 6944   1.339   2.400  16.308 -0.6312 -0.1362 -0.2103
  466TMC3    O1 6945   1.686   2.103  16.384 -0.1419 -0.2933 -0.6750
  466TMC3    O2 6946   1.451   2.419  16.256 -0.3420 -0.5505  0.4317
  467TMC3    C1 6947   2.719   0.688  13.894  0.2970  0.2738  0.4257
  467TMC3    C2 6948   2.679   0.646  13.772 -0.0511  0.1987 -0.0189
  467TMC3    C3 6949   2.569   0.703  13.706  0.2294 -0.1025  0.2845
  467TMC3    C4 6950   2.644   0.777  13.961  0.2301 -0.9521  0.0638
  467TMC3    C5 6951   2.521   0.821  13.912  0.2704 -0.0951  0.1834
  467TMC3    C6 6952   2.487   0.778  13.784  0.4828 -0.1160  0.3956
  467TMC3     C 6953   2.857   0.672  13.935  0.3365  0.3706  0.7520
  467TMC3     O 6954   2.898   0.750  14.023  0.1982  0.3731 -0.3500
  467TMC3     H 6955   2.747   0.579  13.720 -0.5854  0.2126 -0.7550
  467TMC3    H1 6956   2.679   0.808  14.058  1.0034 -2.2946  0.2134
  467TMC3    H2 6957   2.393   0.814  13.745  1.0878  2.8639  1.7278
  467TMC3    C7 6958   2.425   0.881  14.002 -0.6397 -0.0836 -0.6700
  467TMC3    C8 6959   2.595   0.729  13.565  0.3076  0.4373  0.9805
  467TMC3    O1 6960   2.465   0.935  14.102 -0.1695  0.0789 -0.1528
  467TMC3    O2 6961   2.552   0.837  13.521  0.3525  0.3655 -0.8036
  468MPD2     C 6962   1.318   3.215  10.414  0.7469 -0.0676 -0.1130
  468MPD2    C1 6963   1.376   3.159  10.524 -0.8549  0.3136 -0.8496
  468MPD2    C2 6964   1.411   3.028  10.533 -0.0371 -0.3727 -0.1135
  468MPD2    C3 6965   1.368   2.940  10.435  0.0062 -0.5135 -0.5169
  468MPD2    C4 6966   1.318   2.995  10.319  0.0647 -0.5240  0.0194
  468MPD2    C5 6967   1.297   3.133  10.308  0.4183  0.3407 -0.1355
  468MPD2     H 6968   1.454   3.001  10.629 -0.2768  1.9401  0.6384
  468MPD2    H1 6969   1.290   2.930  10.237 -3.8130  0.9704  0.1356
  468MPD2    H2 6970   1.289   3.319  10.406 -0.0417 -0.2077  0.8509
  468MPD2    H3 6971   1.258   3.174  10.216 -2.6252 -0.2836  0.8781
  468MPD2     N 6972   1.397   2.803  10.444  0.4572 -0.3342  0.4013
  468MPD2    H5 6973   1.352   2.748  10.371  1.0352 -0.1553 -0.0874
  468MPD2    N1 6974   1.407   3.239  10.634 -0.9092 -0.6090 -0.0173
  468MPD2    H7 6975   1.457   3.188  10.706 -2.0353 -0.7838  0.6363
  469TMC3    C1 6976   1.403   3.409  10.798  0.0351  0.8361 -0.0328
  469TMC3    C2 6977   1.508   3.341  10.865 -0.3493 -0.2382  0.8296
  469TMC3    C3 6978   1.563   3.396  10.977 -1.1057  0.6869 -0.4390
  469TMC3    C4 6979   1.341   3.521  10.856  0.6024  0.1980 -0.0241
  469TMC3    C5 6980   1.395   3.574  10.973  0.0845 -0.1069 -0.6745
  469TMC3    C6 6981   1.500   3.507  11.037  0.6398  0.9514  0.0665
  469TMC3     C 6982   1.366   3.366  10.666  0.9162 -0.2796  0.7424
  469TMC3     O 6983   1.295   3.443  10.603  0.1626  0.1992  0.1462
  469TMC3     H 6984   1.567   3.268  10.811 -0.6905  0.5507 -0.6202
  469TMC3    H1 6985   1.287   3.582  10.784 -0.3637 -1.7161 -0.9378
  469TMC3    H2 6986   1.529   3.547  11.133 -1.0958 -0.7776  1.2891
  469TMC3    C7 6987   1.300   3.669  11.037 -0.5922  0.0221 -0.2082
  469TMC3    C8 6988   1.678   3.329  11.039 -0.2222 -0.2131 -0.2313
  469TMC3    O1 6989   1.184   3.663  10.997 -0.4108  0.2174  0.3110
  469TMC3    O2 6990   1.698   3.221  10.990  0.0259 -0.0084  0.5876
  470TMC3    C1 6991   3.731   4.391   0.719  0.1147  0.5887 -0.5500
  470TMC3    C2 6992   3.725   4.531   0.724 -0.6648 -0.0574  0.9216
  470TMC3    C3 6993   3.831   4.598   0.790 -1.5180  0.0817 -0.2675
  470TMC3    C4 6994   3.836   4.322   0.768  0.6431 -0.6222  0.0257
  470TMC3    C5 6995   3.934   4.393   0.826 -0.2815 -0.6251  0.0448
  470TMC3    C6 6996   3.930   4.527   0.849  0.6107 -0.5597 -0.4897
  470TMC3     C 6997   3.637   4.320   0.641 -0.1812 -0.1500  0.6464
  470TMC3     O 6998   3.583   4.373   0.547  0.2654  0.1444  0.1696
  470TMC3     H 6999   3.649   4.581   0.665 -0.2744 -0.7489 -0.1656
  470TMC3    H1 7000   3.854   4.217   0.747  2.7546  0.0713 -1.5192
  470TMC3    H2 7001   4.022   4.573   0.884  0.7596 -0.2329 -1.3056
  470TMC3    C7 7002   4.050   4.319   0.862  0.5214  0.4271  0.2469
  470TMC3    C8 7003   3.816   0.016   0.823  1.0544 -0.3506 -0.0360
  470TMC3    O1 7004   4.136   4.308   0.776  0.0248  0.0753 -0.2951
  470TMC3    O2 7005   3.702   0.062   0.832  0.3545  0.0982  0.1874
  471MPD2     C 7006   4.182   1.221  16.340  0.0624 -0.3222 -0.3026
  471MPD2    C1 7007   4.107   1.125  16.412 -0.0780  0.3276  0.3195
  471MPD2    C2 7008   4.122   1.120  16.549 -0.2900  0.1355  0.4537
  471MPD2    C3 7009   4.220   1.202  16.610  0.0191 -0.2517  0.4300
  471MPD2    C4 7010   4.293   1.292  16.538 -0.4536  0.0044 -0.0135
  471MPD2    C5 7011   4.277   1.305  16.400 -0.2288 -0.5022 -0.2205
  471MPD2     H 7012   4.063   1.051  16.609 -2.0187  0.7528 -0.5611
  471MPD2    H1 7013   4.368   1.345  16.595  0.1482 -0.7861 -0.0576
  471MPD2    H2 7014   4.182   1.222  16.232 -0.3093 -1.9693 -0.3125
  471MPD2    H3 7015   4.334   1.371  16.337  3.1252 -0.1153  3.2543
  471MPD2     N 7016   4.247   1.197  16.747 -0.4289 -0.0305  0.1376
  471MPD2    H5 7017   4.331   1.244  16.780 -0.3486  1.7370 -2.5656
  471MPD2    N1 7018   4.027   1.031  16.342  0.0549  0.4935 -0.0234
  471MPD2    H7 7019   4.001   0.949  16.396  0.7910 -1.0082 -1.9917
  472TMC3    C1 7020   3.909   0.935  16.161 -0.5029  0.1818 -0.2085
  472TMC3    C2 7021   3.818   0.958  16.065  0.0468  0.2600 -0.4068
  472TMC3    C3 7022   3.748   0.854  16.018  0.2893 -1.0508  0.4628
  472TMC3    C4 7023   3.943   0.804  16.199  0.2176  0.4076  1.3192
  472TMC3    C5 7024   3.877   0.698  16.132  0.0933  0.0037 -0.3337
  472TMC3    C6 7025   3.775   0.720  16.038  0.0767 -0.4877 -0.0500
  472TMC3     C 7026   3.986   1.046  16.206 -0.3929 -0.2241 -0.0143
  472TMC3     O 7027   3.987   1.142  16.129  0.1690 -0.0424  0.0602
  472TMC3     H 7028   3.784   1.058  16.043 -0.5413 -0.0514 -0.8835
  472TMC3    H1 7029   4.023   0.780  16.268  0.3417  0.7141  1.2802
  472TMC3    H2 7030   3.723   0.644  15.981  1.6635 -1.5347 -0.1009
  472TMC3    C7 7031   3.888   0.570  16.202  0.3461  0.0973  0.1692
  472TMC3    C8 7032   3.636   0.883  15.922 -0.2684  0.4212  0.2300
  472TMC3    O1 7033   3.942   0.554  16.313 -0.4216 -0.0156  0.2000
  472TMC3    O2 7034   3.638   0.980  15.846 -0.2657  0.0879 -0.5106
  473MPD2     C 7035   3.857   2.883  13.976 -0.8214  0.3747  0.4913
  473MPD2    C1 7036   3.962   2.939  13.908 -1.1538  0.1829 -0.3252
  473MPD2    C2 7037   4.039   3.029  13.978 -0.5136  0.1946  0.1665
  473MPD2    C3 7038   4.004   3.068  14.105  0.1214  0.2627  0.0023
  473MPD2    C4 7039   3.899   3.015  14.169  0.0068 -0.6135 -0.7790
  473MPD2    C5 7040   3.824   2.921  14.105 -0.4693  0.0712 -0.6457
  473MPD2     H 7041   4.124   3.068  13.923  0.6082 -0.7820  1.1997
  473MPD2    H1 7042   3.869   3.050  14.267  0.1454  0.5316 -1.1491
  473MPD2    H2 7043   3.807   2.798  13.931 -5.6096  4.1648 -1.4013
  473MPD2    H3 7044   3.743   2.870  14.156 -0.0422  0.2633  0.2235
  473MPD2     N 7045   4.070   3.174  14.166 -0.0600  0.9358 -0.5638
  473MPD2    H5 7046   4.025   3.227  14.241  0.3636  1.2666 -0.5452
  473MPD2    N1 7047   3.993   2.916  13.774  0.3054  0.2948  0.4534
  473MPD2    H7 7048   4.077   2.966  13.745  0.6066 -0.3756  0.1842
  474TMC3    C1 7049   4.198   3.366  14.178 -0.6004 -0.2322 -0.4173
  474TMC3    C2 7050   4.098   3.453  14.196  0.6890 -0.1655  0.1227
  474TMC3    C3 7051   4.127   3.578  14.244  0.0718  0.2918 -0.4158
  474TMC3    C4 7052   4.333   3.393  14.181 -0.5012 -0.7280 -0.4780
  474TMC3    C5 7053   4.364   3.529  14.226 -0.2179 -0.2244  0.7541
  474TMC3    C6 7054   4.258   3.617  14.251  0.6616  0.2131 -0.1470
  474TMC3     C 7055   4.184   3.234  14.120  0.6947 -0.4811 -0.9339
  474TMC3     O 7056   4.271   3.193  14.047  0.6123  0.1313 -0.9727
  474TMC3     H 7057   3.993   3.426  14.187  0.5570  0.5678 -0.5215
  474TMC3    H1 7058   4.416   3.326  14.165 -1.3474 -1.1217 -3.2134
  474TMC3    H2 7059   4.293   3.710  14.296  0.2987 -0.7841  2.2271
  474TMC3    C7 7060   4.493   3.551  14.284 -0.0360  0.0019 -0.2078
  474TMC3    C8 7061   4.023   3.679  14.224 -1.3117  0.4344 -0.2305
  474TMC3    O1 7062   4.592   3.493  14.237  0.2241 -0.0173 -0.0643
  474TMC3    O2 7063   3.911   3.640  14.241  0.2604 -0.5245  0.0411
  475MPD2     C 7064   2.588   0.742   9.961  0.8670  0.7259 -0.2252
  475MPD2    C1 7065   2.601   0.870  10.017 -0.8160 -0.0701  0.7052
  475MPD2    C2 7066   2.486   0.925  10.069  0.2736 -0.3994 -0.1919
  475MPD2    C3 7067   2.362   0.874  10.054 -0.2894  1.1032 -0.5365
  475MPD2    C4 7068   2.346   0.750  10.002  0.1508  0.2384 -0.4375
  475MPD2    C5 7069   2.458   0.683   9.952  0.7064 -0.0353 -0.2320
  475MPD2     H 7070   2.494   1.025  10.110 -2.2517  0.3090 -1.3973
  475MPD2    H1 7071   2.248   0.706   9.991  1.8324 -3.9243  1.3106
  475MPD2    H2 7072   2.678   0.697   9.920  0.8369  1.4884 -1.1051
  475MPD2    H3 7073   2.443   0.583   9.914 -0.1130 -0.2712  0.7115
  475MPD2     N 7074   2.261   0.959  10.096 -0.3499  0.5813  0.0490
  475MPD2    H5 7075   2.281   1.042  10.151  2.0090 -0.4861  0.8028
  475MPD2    N1 7076   2.722   0.945  10.022 -0.5511  0.4429  0.1368
  475MPD2    H7 7077   2.718   1.027  10.082 -0.9278  0.1914  0.4553
  476TMC3    C1 7078   2.893   1.063   9.911  0.1294  0.1920 -0.1683
  476TMC3    C2 7079   2.818   1.147   9.831 -0.1936  1.2487  0.2893
  476TMC3    C3 7080   2.800   1.273   9.882  0.7010  0.3814 -0.3373
  476TMC3    C4 7081   2.950   1.101  10.032  0.0683 -0.1847 -0.1890
  476TMC3    C5 7082   2.946   1.235  10.067  0.1155 -0.0371 -0.5684
  476TMC3    C6 7083   2.865   1.319   9.995 -0.1083 -0.3893  0.4380
  476TMC3     C 7084   2.819   0.941   9.929 -0.8823 -0.1560 -0.0640
  476TMC3     O 7085   2.813   0.871   9.829  0.2567 -0.8362 -0.4856
  476TMC3     H 7086   2.782   1.106   9.737  0.8645  3.3298 -1.0189
  476TMC3    H1 7087   3.003   1.039  10.103 -1.0124  0.6644  1.3526
  476TMC3    H2 7088   2.850   1.421  10.026  2.1672 -0.3932  1.5547
  476TMC3    C7 7089   3.029   1.292  10.173  0.3221 -0.4220 -0.8534
  476TMC3    C8 7090   2.666   1.331   9.867  0.8767  0.4418 -0.8773
  476TMC3    O1 7091   3.136   1.232  10.186  0.4114 -0.0690  0.6046
  476TMC3    O2 7092   2.648   1.450   9.877 -0.0387 -0.1786  0.3274
  477MPD2     C 7093   0.031   2.377  11.495 -0.3968  0.1813 -0.0908
  477MPD2    C1 7094   4.673   2.307  11.581 -0.2280  0.5903 -0.2825
  477MPD2    C2 7095   0.005   2.232  11.681 -0.4802  0.0496 -0.7165
  477MPD2    C3 7096   0.136   2.221  11.695  0.3813 -0.1113  0.1814
  477MPD2    C4 7097   0.220   2.297  11.610 -0.2902 -0.1818 -0.2020
  477MPD2    C5 7098   0.167   2.374  11.521  0.5485  0.1925 -0.7066
  477MPD2     H 7099   4.667   2.192  11.761 -0.2741  1.7327  0.2848
  477MPD2    H1 7100   0.328   2.292  11.618 -0.2472  0.6697 -0.2862
  477MPD2    H2 7101   4.720   2.435  11.410 -2.1322 -0.6895  0.0058
  477MPD2    H3 7102   0.228   2.421  11.446 -2.2498  0.2809 -2.9374
  477MPD2     N 7103   0.190   2.130  11.785 -0.0123  0.2994  0.5537
  477MPD2    H5 7104   0.117   2.074  11.829  0.2307 -1.5930 -1.4515
  477MPD2    N1 7105   4.531   2.321  11.565 -0.6032 -0.3603  0.0782
  477MPD2    H7 7106   4.494   2.376  11.488  2.4323  0.2213 -0.9544
  478TMC3    C1 7107   4.307   2.291  11.596  0.0590 -0.5892 -0.6002
  478TMC3    C2 7108   4.248   2.354  11.704  0.0626  0.0626 -0.0820
  478TMC3    C3 7109   4.182   2.474  11.679 -0.2798 -0.5222 -0.2566
  478TMC3    C4 7110   4.302   2.347  11.471 -0.5037  0.0407  0.3525
  478TMC3    C5 7111   4.233   2.459  11.442 -0.6603  0.3260 -0.0522
  478TMC3    C6 7112   4.173   2.522  11.547  0.2028  0.0370  0.1726
  478TMC3     C 7113   4.441   2.243  11.633  0.7724  0.8811 -0.0545
  478TMC3     O 7114   4.453   2.192  11.743 -0.0570  0.5894  0.4463
  478TMC3     H 7115   4.259   2.321  11.806  0.7383  2.9210  0.7562
  478TMC3    H1 7116   4.368   2.305  11.396 -0.9868 -2.0896  1.1377
  478TMC3    H2 7117   4.121   2.615  11.530 -0.0306  0.2678  2.0884
  478TMC3    C7 7118   4.299   2.540  11.341  0.6422 -0.9373  0.5347
  478TMC3    C8 7119   4.154   2.550  11.794  1.1326 -0.1993 -0.0897
  478TMC3    O1 7120   4.421   2.527  11.333 -0.7218 -0.5336 -0.0843
  478TMC3    O2 7121   4.125   2.497  11.902 -0.0631  0.0664  0.7027
  479MPD2     C 7122   3.674   0.380  15.209  0.2668 -0.3510 -0.0354
  479MPD2    C1 7123   3.614   0.314  15.311 -0.0514 -0.1922  0.1139
  479MPD2    C2 7124   3.664   0.330  15.437 -0.2898  0.3398 -0.0493
  479MPD2    C3 7125   3.753   0.433  15.465  0.4662  0.1785  0.6181
  479MPD2    C4 7126   3.814   0.497  15.355  0.4149 -0.6419 -0.0210
  479MPD2    C5 7127   3.775   0.467  15.231  0.1112  0.0221  0.5393
  479MPD2     H 7128   3.627   0.264  15.515  1.0787  1.1967  1.3101
  479MPD2    H1 7129   3.896   0.568  15.358  0.0920 -0.2822  0.1950
  479MPD2    H2 7130   3.643   0.362  15.107  0.1766 -0.9469  0.1013
  479MPD2    H3 7131   3.810   0.524  15.146 -0.8860 -1.0176 -0.5707
  479MPD2     N 7132   3.789   0.490  15.592  0.0981  1.2167 -0.7266
  479MPD2    H5 7133   3.870   0.550  15.593 -0.3602  1.8726 -2.9982
  479MPD2    N1 7134   3.501   0.230  15.282  0.1740 -1.0663  0.3427
  479MPD2    H7 7135   3.452   0.247  15.195 -0.3764 -0.9480  0.6743
  480TMC3    C1 7136   3.383   0.322  15.722  0.0994  0.3649 -0.3382
  480TMC3    C2 7137   3.319   0.380  15.613 -0.1012  0.2092  0.5587
  480TMC3    C3 7138   3.375   0.485  15.551 -1.0121 -0.0886  0.4879
  480TMC3    C4 7139   3.509   0.360  15.758 -0.1134 -0.0141  0.2446
  480TMC3    C5 7140   3.566   0.460  15.686  0.4007  0.2316 -1.2964
  480TMC3    C6 7141   3.502   0.527  15.590 -1.3723 -0.2698  0.0006
  480TMC3     C 7142   3.333   0.190  15.763 -0.2341 -0.5185 -0.3688
  480TMC3     O 7143   3.406   0.132  15.843  0.3571  0.4131 -0.0137
  480TMC3     H 7144   3.227   0.338  15.573  0.9670 -1.4631 -0.1561
  480TMC3    H1 7145   3.576   0.295  15.813  0.1996  1.8400  2.0115
  480TMC3    H2 7146   3.561   0.603  15.540 -1.1619 -0.3808  0.0773
  480TMC3    C7 7147   3.709   0.477  15.703 -0.1886 -0.5567  0.2833
  480TMC3    C8 7148   3.290   0.552  15.456 -0.2063 -0.3666  0.1077
  480TMC3    O1 7149   3.753   0.484  15.816 -0.0291 -0.2529 -0.0851
  480TMC3    O2 7150   3.171   0.533  15.461 -0.3820  0.1964 -0.8558
  481MPD2     C 7151   0.707   4.379  13.902  0.1696  0.2436 -0.5099
  481MPD2    C1 7152   0.590   4.325  13.961  1.1927 -0.7487  0.0451
  481MPD2    C2 7153   0.588   4.316  14.092 -0.5852 -0.0944 -0.1740
  481MPD2    C3 7154   0.698   4.356  14.166  0.2280 -0.0706  0.0049
  481MPD2    C4 7155   0.808   4.418  14.110  0.8198  0.8090 -0.5374
  481MPD2    C5 7156   0.813   4.418  13.973  0.4612 -0.1708  0.4107
  481MPD2     H 7157   0.498   4.295  14.148  1.5432  0.0344  3.3166
  481MPD2    H1 7158   0.888   4.462  14.167  2.9932 -0.8336 -2.3004
  481MPD2    H2 7159   0.711   4.414  13.800  0.6186  1.3467 -0.1069
  481MPD2    H3 7160   0.892   4.472  13.923 -1.2114  2.2794  0.3888
  481MPD2     N 7161   0.702   4.333  14.307 -0.3299 -0.1274  0.0260
  481MPD2    H5 7162   0.785   4.367  14.356  1.9167 -2.3428 -2.2137
  481MPD2    N1 7163   0.470   4.299  13.876  0.1610 -0.4758 -0.0674
  481MPD2    H7 7164   0.472   4.326  13.778 -0.7105 -1.4063 -0.3285
  482TMC3    C1 7165   0.311   4.162  13.822 -0.3928 -0.0316 -0.2261
  482TMC3    C2 7166   0.259   4.042  13.862  1.4617  0.2480 -0.5444
  482TMC3    C3 7167   0.169   3.981  13.781 -0.0988 -0.9403 -0.2906
  482TMC3    C4 7168   0.264   4.229  13.719  0.8996  1.2446  0.3114
  482TMC3    C5 7169   0.169   4.169  13.646  0.1727  0.2757 -0.5129
  482TMC3    C6 7170   0.124   4.045  13.672  0.1638  0.3245  0.3315
  482TMC3     C 7171   0.362   4.233  13.926 -0.0374  0.0268 -0.1410
  482TMC3     O 7172   0.337   4.188  14.038 -0.1850 -0.4043  0.5382
  482TMC3     H 7173   0.307   3.991  13.945  1.8141  0.3831 -0.6633
  482TMC3    H1 7174   0.287   4.334  13.708 -0.8787  1.4712 -1.1837
  482TMC3    H2 7175   0.045   3.997  13.615  2.1086 -1.6309 -0.6875
  482TMC3    C7 7176   0.102   4.249  13.548  0.2114  0.0815 -0.1367
  482TMC3    C8 7177   0.157   3.834  13.787 -0.3541  0.0327 -0.0159
  482TMC3    O1 7178   0.166   4.345  13.507 -0.5373  0.7086  0.0731
  482TMC3    O2 7179   0.039   3.789  13.775 -0.1960  0.2813 -0.4419
  483TMC3    C1 7180   3.336   3.412   0.526 -0.3413  0.5429 -0.0797
  483TMC3    C2 7181   3.430   3.486   0.465  0.0216  0.2666  0.2587
  483TMC3    C3 7182   3.551   3.499   0.520 -0.0843  0.5312  0.4917
  483TMC3    C4 7183   3.346   3.367   0.652  0.0273  0.3619 -0.0699
  483TMC3    C5 7184   3.470   3.377   0.716  0.0975 -1.5693 -0.3697
  483TMC3    C6 7185   3.570   3.444   0.648 -0.3414 -0.5955 -0.4118
  483TMC3     C 7186   3.199   3.390   0.457 -0.4122  0.0431 -0.1193
  483TMC3     O 7187   3.167   3.474   0.372  0.0223 -0.0316 -0.4925
  483TMC3     H 7188   3.412   3.540   0.372  2.9480  2.3581  0.9260
  483TMC3    H1 7189   3.259   3.337   0.709 -0.0226  2.3281  0.8974
  483TMC3    H2 7190   3.658   3.463   0.708 -0.7371  0.3098 -0.1166
  483TMC3    C7 7191   3.500   3.329   0.854 -0.1597 -0.4351  0.0869
  483TMC3    C8 7192   3.633   3.614   0.482 -0.3117 -0.1804  0.2000
  483TMC3    O1 7193   3.614   3.329   0.901 -0.8056 -0.2852  0.3600
  483TMC3    O2 7194   3.598   3.681   0.387  0.5635 -0.0301  0.4071
  484MPD2     C 7195   1.125   1.252  12.015  0.6128 -0.0715  0.3811
  484MPD2    C1 7196   1.169   1.171  12.120  0.0311 -0.4533  0.8657
  484MPD2    C2 7197   1.305   1.161  12.144 -0.1633  0.1039  0.1644
  484MPD2    C3 7198   1.390   1.236  12.065 -0.1762  0.1606 -0.1661
  484MPD2    C4 7199   1.350   1.309  11.959  0.0646 -0.4932  0.2506
  484MPD2    C5 7200   1.216   1.321  11.941 -0.0977  0.1321  0.5469
  484MPD2     H 7201   1.346   1.109  12.230 -0.4600 -0.3434  0.0348
  484MPD2    H1 7202   1.418   1.363  11.894 -0.0054 -0.8842 -0.1509
  484MPD2    H2 7203   1.019   1.266  11.993  0.5013 -0.5589  0.6267
  484MPD2    H3 7204   1.184   1.386  11.860  2.1411 -1.3693 -1.5208
  484MPD2     N 7205   1.530   1.236  12.084 -0.0965 -0.6468  0.0133
  484MPD2    H5 7206   1.577   1.292  12.014 -1.0618  0.4046  0.2062
  484MPD2    N1 7207   1.060   1.109  12.192 -0.0551 -0.2482  0.3566
  484MPD2    H7 7208   0.961   1.125  12.173  0.5281 -0.2079 -2.6177
  485TMC3    C1 7209   1.746   1.194  12.172 -0.1562 -0.4711  0.5821
  485TMC3    C2 7210   1.813   1.150  12.283  0.2001 -0.8273 -0.1839
  485TMC3    C3 7211   1.948   1.123  12.266 -0.3032 -0.4978  0.3645
  485TMC3    C4 7212   1.791   1.191  12.042 -0.8597 -0.0711 -0.4168
  485TMC3    C5 7213   1.927   1.169  12.038 -0.4201  0.5946 -0.3326
  485TMC3    C6 7214   2.004   1.157  12.149  0.2274 -0.3332  0.1023
  485TMC3     C 7215   1.601   1.189  12.189 -1.3321  0.9611 -0.1437
  485TMC3     O 7216   1.561   1.141  12.296  0.2812  0.2411 -0.3524
  485TMC3     H 7217   1.770   1.124  12.379 -0.0026  0.0789 -0.0275
  485TMC3    H1 7218   1.728   1.169  11.957 -1.8282 -0.7068  0.4652
  485TMC3    H2 7219   2.107   1.124  12.138  0.2320  0.6163 -2.6936
  485TMC3    C7 7220   1.962   1.097  11.918  0.2134  0.7117  0.0217
  485TMC3    C8 7221   1.992   0.989  12.309 -0.2228  0.4257 -0.1395
  485TMC3    O1 7222   1.919   1.138  11.812 -0.0107  0.3168  0.3399
  485TMC3    O2 7223   2.034   0.915  12.219  0.9019 -0.0474  0.1618
  486MPD2     C 7224   3.792   0.193  12.682  0.1276  0.4875  0.4716
  486MPD2    C1 7225   3.706   0.152  12.588  0.1769 -0.0636 -0.2134
  486MPD2    C2 7226   3.601   0.236  12.548 -0.5179 -0.7729  0.3443
  486MPD2    C3 7227   3.597   0.368  12.599 -0.0950  0.2902  0.2332
  486MPD2    C4 7228   3.695   0.410  12.691 -0.1054 -0.1867 -0.1740
  486MPD2    C5 7229   3.790   0.321  12.732 -0.9888 -0.4233 -0.5069
  486MPD2     H 7230   3.520   0.201  12.485  1.7511 -2.1412 -1.7696
  486MPD2    H1 7231   3.682   0.503  12.746 -1.2244 -1.3310  1.5035
  486MPD2    H2 7232   3.856   0.115  12.722  1.6711  0.9211 -1.1712
  486MPD2    H3 7233   3.861   0.356  12.806  0.4503  0.7974 -2.4754
  486MPD2     N 7234   3.490   0.450  12.559 -0.3737  0.4615 -0.1545
  486MPD2    H5 7235   3.423   0.400  12.501  1.0884 -0.1960 -1.2621
  486MPD2    N1 7236   3.716   0.011  12.551 -0.1853 -0.2130  0.5468
  486MPD2    H7 7237   3.771   4.674  12.611 -3.0975 -1.7529  1.6795
  487TMC3    C1 7238   3.647   4.534  12.432  0.2732 -0.4231  0.0073
  487TMC3    C2 7239   3.548   4.480  12.349 -0.2962  0.0742 -0.1917
  487TMC3    C3 7240   3.529   4.349  12.346 -0.7530  0.6122 -0.8214
  487TMC3    C4 7241   3.711   4.458  12.527 -0.4327  0.0446 -0.0201
  487TMC3    C5 7242   3.671   4.325  12.534 -0.1245  0.2028 -0.1661
  487TMC3    C6 7243   3.585   4.271  12.444  0.4656 -0.4193 -1.2916
  487TMC3     C 7244   3.653   4.684  12.440 -0.3657 -0.0485 -0.1931
  487TMC3     O 7245   3.601   0.021  12.344  0.1504  0.1608 -0.2389
  487TMC3     H 7246   3.503   4.549  12.279  1.6150  2.2158  0.6917
  487TMC3    H1 7247   3.783   4.500  12.596  0.2976 -1.7862  0.3402
  487TMC3    H2 7248   3.532   4.180  12.468  0.1450  0.4676  1.2765
  487TMC3    C7 7249   3.626   4.298  12.668  0.6211  0.1571 -0.7437
  487TMC3    C8 7250   3.393   4.299  12.324 -0.5830 -0.3007  0.5148
  487TMC3    O1 7251   3.649   4.395  12.738  0.3494 -0.0851  0.2174
  487TMC3    O2 7252   3.353   4.275  12.210  0.4270  0.0241  0.7730
  488MPD2     C 7253   3.432   1.900  16.561  0.6035  0.0941  0.3376
  488MPD2    C1 7254   3.455   2.027  16.618  0.4514 -0.1278 -0.1175
  488MPD2    C2 7255   3.432   2.050  16.752  0.4046  0.0611 -0.0473
  488MPD2    C3 7256   3.392   1.947  16.838 -0.4593 -0.1236 -0.0585
  488MPD2    C4 7257   3.372   1.822  16.780  0.1982  0.1062 -0.6374
  488MPD2    C5 7258   3.386   1.806  16.642  0.3535 -0.4619  0.0105
  488MPD2     H 7259   3.469   2.149  16.779 -0.7482  0.2632  0.8079
  488MPD2    H1 7260   3.341   1.729  16.826  0.7331 -0.2670 -1.0355
  488MPD2    H2 7261   3.442   1.879  16.455 -1.9750 -0.9579  0.2855
  488MPD2    H3 7262   3.369   1.709  16.597  0.7560 -0.5688  0.0858
  488MPD2     N 7263   3.375   1.964  16.977  0.8280 -0.2838  0.5569
  488MPD2    H5 7264   3.395   2.057  17.013  3.4800 -0.2914 -0.8890
  488MPD2    N1 7265   3.491   2.142  16.540  0.0979 -0.5097  0.2606
  488MPD2    H7 7266   3.489   2.227  16.595 -0.9916  0.3761 -1.1666
  489TMC3    C1 7267   3.371   1.923  17.201 -0.6661 -0.1031 -0.4647
  489TMC3    C2 7268   3.387   2.058  17.212  0.9067  0.3795 -0.2593
  489TMC3    C3 7269   3.415   2.099  17.338 -0.4814  0.7233  0.0408
  489TMC3    C4 7270   3.371   1.839  17.304  0.0093 -0.4201 -0.5050
  489TMC3    C5 7271   3.384   1.889  17.432 -0.4082 -0.0201 -0.4482
  489TMC3    C6 7272   3.420   2.019  17.453  1.0931 -0.3292  0.0616
  489TMC3     C 7273   3.361   1.865  17.068  0.1030  0.0698 -0.4241
  489TMC3     O 7274   3.320   1.749  17.059 -0.2550  0.0416  0.1040
  489TMC3     H 7275   3.381   2.134  17.135 -1.9760  0.6028  0.1800
  489TMC3    H1 7276   3.345   1.735  17.290  0.2571 -0.9597  2.9514
  489TMC3    H2 7277   3.450   2.065  17.547  2.9366 -0.0650 -0.6600
  489TMC3    C7 7278   3.369   1.811  17.550  0.1493  0.1957 -0.1607
  489TMC3    C8 7279   3.439   2.239  17.356 -0.5084  0.0414  0.1245
  489TMC3    O1 7280   3.414   1.863  17.652 -0.7208  0.0431 -0.6431
  489TMC3    O2 7281   3.499   2.293  17.263 -0.5057 -0.2987 -0.2335
  490MPD2     C 7282   4.188   1.881  17.451 -0.2063 -0.5992 -0.1739
  490MPD2    C1 7283   4.201   1.774  17.540 -0.3451 -0.0506  0.0096
  490MPD2    C2 7284   4.260   1.775  17.661  0.6409 -0.2768  1.0667
  490MPD2    C3 7285   4.307   1.903   0.004 -0.2410  0.2061  0.1290
  490MPD2    C4 7286   4.280   2.012  17.621 -0.0508  1.0237  0.4820
  490MPD2    C5 7287   4.225   1.998  17.498  0.4971 -0.1588  0.2150
  490MPD2     H 7288   4.285   1.680   0.012 -0.6260 -0.9042  0.4626
  490MPD2    H1 7289   4.303   2.114  17.649  1.3469  0.9631 -0.4633
  490MPD2    H2 7290   4.156   1.865  17.349 -0.7846  1.9220 -0.3813
  490MPD2    H3 7291   4.219   2.086  17.437 -0.0689 -0.9712 -0.9001
  490MPD2     N 7292   4.396   1.927   0.112 -0.3651  0.3213 -0.0834
  490MPD2    H5 7293   4.438   2.019   0.112  1.1016 -0.3499  0.4731
  490MPD2    N1 7294   4.153   1.648  17.502 -0.1182  0.1593 -0.4276
  490MPD2    H7 7295   4.144   1.574  17.572  0.2156 -0.8484 -1.4539
  491TMC3    C1 7296   4.051   1.473  17.390  0.5941 -0.2858 -0.0943
  491TMC3    C2 7297   4.099   1.387  17.487  0.3491  0.7333 -0.1958
  491TMC3    C3 7298   4.021   1.272  17.516 -0.4703  0.2487  0.7241
  491TMC3    C4 7299   3.935   1.437  17.316  0.4134 -0.0530 -0.0707
  491TMC3    C5 7300   3.848   1.338  17.368  0.7152 -0.0085 -0.5087
  491TMC3    C6 7301   3.899   1.246  17.461 -0.6660 -0.6945  0.0763
  491TMC3     C 7302   4.091   1.617  17.386  0.2546  0.0620  0.2725
  491TMC3     O 7303   4.064   1.681  17.288 -0.6418  0.4441 -0.4465
  491TMC3     H 7304   4.194   1.408  17.535  0.2797  0.5755  0.0073
  491TMC3    H1 7305   3.893   1.512  17.250 -1.2503  0.1946  1.2425
  491TMC3    H2 7306   3.846   1.157  17.495  0.1509  0.1114  3.5024
  491TMC3    C7 7307   3.745   1.276  17.287 -0.2755 -0.3569  0.2091
  491TMC3    C8 7308   4.034   1.218  17.649  0.3402  0.2254  0.8633
  491TMC3    O1 7309   3.716   1.157  17.297 -0.0690 -0.3611  0.0120
  491TMC3    O2 7310   3.939   1.182   0.020  0.0627  0.1181  0.0231
  492MPD2     C 7311   4.259   1.398  11.306  0.2307 -0.2636  0.0946
  492MPD2    C1 7312   4.182   1.327  11.220  0.4520  0.4206 -0.4425
  492MPD2    C2 7313   4.064   1.267  11.270 -0.8005 -1.2021 -0.0527
  492MPD2    C3 7314   4.036   1.261  11.409  0.2398  0.0800  0.3666
  492MPD2    C4 7315   4.115   1.336  11.489 -0.2266  0.6092  0.1620
  492MPD2    C5 7316   4.220   1.405  11.439 -0.0777  0.4111 -0.0996
  492MPD2     H 7317   3.996   1.221  11.200  0.0904 -1.9753 -0.4082
  492MPD2    H1 7318   4.101   1.344  11.596 -1.7513  0.7209 -0.0397
  492MPD2    H2 7319   4.343   1.456  11.268 -0.5294  0.5121 -0.3807
  492MPD2    H3 7320   4.284   1.463  11.504 -1.4941  1.4242  0.3873
  492MPD2     N 7321   3.933   1.190  11.467  0.4493 -0.1053 -0.2165
  492MPD2    H5 7322   3.918   1.197  11.567  0.3163 -0.3274 -0.2221
  492MPD2    N1 7323   4.216   1.324  11.075 -0.0127 -0.2842  0.3684
  492MPD2    H7 7324   4.296   1.382  11.051 -1.1659  1.7495  1.4189
  493TMC3    C1 7325   4.221   1.258  10.852  0.6194 -0.3691 -1.0091
  493TMC3    C2 7326   4.357   1.266  10.857  0.2765  0.2168  0.7596
  493TMC3    C3 7327   4.418   1.297  10.741  0.1455 -0.6440 -0.0337
  493TMC3    C4 7328   4.144   1.256  10.742  0.0100 -0.4131  0.7234
  493TMC3    C5 7329   4.214   1.286  10.621 -0.0574  0.3482 -0.4831
  493TMC3    C6 7330   4.350   1.303  10.620 -0.6918 -0.3000  0.4711
  493TMC3     C 7331   4.143   1.264  10.972 -0.1599 -0.0876  0.4473
  493TMC3     O 7332   4.031   1.215  10.971 -0.2171 -0.3413 -0.2047
  493TMC3     H 7333   4.412   1.261  10.950  1.1283 -0.9437  0.1951
  493TMC3    H1 7334   4.037   1.243  10.741 -0.1471  0.8494  1.3118
  493TMC3    H2 7335   4.409   1.317  10.530 -0.7782 -1.9501  0.1495
  493TMC3    C7 7336   4.153   1.273  10.496 -0.1180  0.1620 -0.0620
  493TMC3    C8 7337   4.567   1.310  10.747  0.2349  0.2824 -0.4771
  493TMC3    O1 7338   4.054   1.205  10.480  0.1537 -0.2618 -0.0574
  493TMC3    O2 7339   4.625   1.274  10.848 -0.4839 -0.6065 -0.3473
  494TMC3    C1 7340   0.110   3.435   0.388 -0.4206 -0.0759  0.0077
  494TMC3    C2 7341   0.230   3.437   0.450 -0.7084  0.4154 -0.2556
  494TMC3    C3 7342   0.324   3.515   0.387  0.3947 -0.3353 -1.0555
  494TMC3    C4 7343   0.078   3.509   0.277 -0.8976 -0.2019 -0.3996
  494TMC3    C5 7344   0.168   3.592   0.224 -0.1095  0.3809 -0.8674
  494TMC3    C6 7345   0.289   3.606   0.286 -0.2496 -0.0419 -0.0467
  494TMC3     C 7346   0.004   3.403   0.484 -0.1891 -0.7404 -0.1758
  494TMC3     O 7347   0.043   3.398   0.599  0.0327 -0.1766 -0.2532
  494TMC3     H 7348   0.256   3.353   0.513 -2.0995 -0.3710 -0.7046
  494TMC3    H1 7349   4.706   3.496   0.228 -0.1916 -0.4745 -1.6915
  494TMC3    H2 7350   0.364   3.667   0.236  2.8635 -0.1778  4.4569
  494TMC3    C7 7351   0.165   3.637   0.087 -0.0528 -0.4422  0.3450
  494TMC3    C8 7352   0.459   3.475   0.417 -0.9179  0.5843 -0.1525
  494TMC3    O1 7353   0.107   3.572   0.001  0.1069  0.0565  0.7788
  494TMC3    O2 7354   0.486   3.395   0.507 -0.2061  0.2946  0.5682
  495TMC3    C1 7355   3.788   0.567  14.649 -0.1186  0.2034  0.0687
  495TMC3    C2 7356   3.741   0.633  14.543 -0.1915 -0.2986 -0.3459
  495TMC3    C3 7357   3.621   0.689  14.555 -0.1159 -0.3131 -0.0287
  495TMC3    C4 7358   3.757   0.612  14.774 -0.5877  0.1995  0.2528
  495TMC3    C5 7359   3.655   0.702  14.783  0.1259  0.5373  0.4550
  495TMC3    C6 7360   3.577   0.728  14.676  0.4616  0.0384 -0.0109
  495TMC3     C 7361   3.768   0.423  14.626  0.4991  0.1343 -1.2298
  495TMC3     O 7362   3.774   0.392  14.509  0.2466  0.2607 -0.4276
  495TMC3     H 7363   3.772   0.602  14.443  2.1908  1.3383 -0.1229
  495TMC3    H1 7364   3.813   0.569  14.856 -0.7970  1.8604  1.2604
  495TMC3    H2 7365   3.474   0.759  14.690 -0.0967 -0.5386 -2.8026
  495TMC3    C7 7366   3.607   0.729  14.918  0.2301  0.0651  0.1541
  495TMC3    C8 7367   3.522   0.653  14.458  0.5830  0.4464 -0.1641
  495TMC3    O1 7368   3.685   0.690  15.002 -0.1968  0.5472 -0.1657
  495TMC3    O2 7369   3.420   0.715  14.446 -0.1797  0.1717  0.2541
  496MPD2     C 7370   0.979   0.540  15.288 -0.2763  0.0065 -0.4330
  496MPD2    C1 7371   0.896   0.438  15.266 -0.9318 -0.4066  0.7090
  496MPD2    C2 7372   0.776   0.426  15.339 -0.0272  0.1452 -0.6189
  496MPD2    C3 7373   0.757   0.509  15.451  0.5372 -0.2401  0.3855
  496MPD2    C4 7374   0.845   0.614  15.474 -0.4419  0.7383 -0.1967
  496MPD2    C5 7375   0.953   0.628  15.393 -1.2108 -0.0432 -0.6032
  496MPD2     H 7376   0.707   0.345  15.316 -0.2185  0.1050  0.1130
  496MPD2    H1 7377   0.830   0.683  15.556  0.9243  0.3102  0.4311
  496MPD2    H2 7378   1.069   0.556  15.228  0.9704 -1.9189  0.9596
  496MPD2    H3 7379   1.023   0.709  15.409  0.4799 -1.6422  0.2035
  496MPD2     N 7380   0.646   0.503  15.544 -0.8632 -0.1816 -0.1105
  496MPD2    H5 7381   0.636   0.558  15.629  0.6367 -1.6397  1.0242
  496MPD2    N1 7382   0.937   0.349  15.167  0.5806  0.2385 -0.8909
  496MPD2    H7 7383   1.024   0.361  15.116  1.4391 -0.8334  0.3182
  497TMC3    C1 7384   0.450   0.433  15.637  0.5000  0.0702 -0.4028
  497TMC3    C2 7385   0.336   0.364  15.594 -0.1346 -0.4842 -0.5246
  497TMC3    C3 7386   0.286   0.257  15.660 -0.8379  0.2272  0.0688
  497TMC3    C4 7387   0.510   0.381  15.752 -0.2133  0.3324  0.4241
  497TMC3    C5 7388   0.452   0.271  15.819 -0.3216 -0.2533 -0.2672
  497TMC3    C6 7389   0.347   0.208  15.770 -0.0887  0.6436  1.1870
  497TMC3     C 7390   0.536   0.425  15.521  0.3371 -1.1577 -0.6374
  497TMC3     O 7391   0.495   0.361  15.423  0.2005 -0.6829 -0.3619
  497TMC3     H 7392   0.281   0.396  15.506 -0.8050  2.2801  0.8893
  497TMC3    H1 7393   0.604   0.426  15.779  0.5879 -0.1130 -1.6593
  497TMC3    H2 7394   0.309   0.116  15.815  3.0808 -1.7781 -1.1105
  497TMC3    C7 7395   0.466   0.243  15.962  0.0891 -0.3679  0.7399
  497TMC3    C8 7396   0.223   0.162  15.570 -0.1323  0.3231  0.1579
  497TMC3    O1 7397   0.437   0.133  16.001 -0.0307 -1.2664 -0.5090
  497TMC3    O2 7398   0.113   0.126  15.608 -0.2707 -0.0930  0.2754
  498MPD2     C 7399   1.594   1.704   9.368  0.9548  0.4804 -0.1121
  498MPD2    C1 7400   1.633   1.584   9.426 -0.5052 -0.1725 -0.4267
  498MPD2    C2 7401   1.547   1.497   9.493  0.1674 -0.4730  0.0623
  498MPD2    C3 7402   1.412   1.536   9.504  0.0043  0.4424  0.3176
  498MPD2    C4 7403   1.372   1.656   9.445  0.0768 -0.2834 -0.3449
  498MPD2    C5 7404   1.464   1.742   9.386  0.2732  0.5382  0.7532
  498MPD2     H 7405   1.590   1.412   9.544  1.0396 -0.3918 -0.5222
  498MPD2    H1 7406   1.268   1.686   9.448  0.2536  0.2734  0.1802
  498MPD2    H2 7407   1.660   1.763   9.305  1.3035 -0.5314 -0.7080
  498MPD2    H3 7408   1.429   1.830   9.333  1.2420 -0.3761 -1.4067
  498MPD2     N 7409   1.328   1.445   9.562 -0.4294  0.3949  0.1101
  498MPD2    H5 7410   1.360   1.356   9.599  0.7223 -0.0674 -2.0475
  498MPD2    N1 7411   1.766   1.538   9.421 -0.8242 -0.6630 -0.5644
  498MPD2    H7 7412   1.785   1.445   9.456 -3.3758 -1.8306 -2.3607
  499TMC3    C1 7413   2.009   1.568   9.414  0.6575 -0.4324 -0.4187
  499TMC3    C2 7414   2.025   1.434   9.416 -0.5018  0.4900  0.2901
  499TMC3    C3 7415   2.152   1.382   9.442  0.4481 -0.3561 -0.7695
  499TMC3    C4 7416   2.119   1.658   9.423 -0.5282  0.6875 -0.0336
  499TMC3    C5 7417   2.239   1.602   9.447 -0.4409  0.0855 -0.2659
  499TMC3    C6 7418   2.264   1.460   9.458  0.6969 -0.0257 -0.3941
  499TMC3     C 7419   1.872   1.624   9.400  0.5865 -0.3896  0.2444
  499TMC3     O 7420   1.863   1.741   9.368 -0.1177 -0.1801  0.0510
  499TMC3     H 7421   1.949   1.360   9.393  0.4790 -0.1201 -0.9785
  499TMC3    H1 7422   2.100   1.763   9.401  2.3289  1.2209  0.0774
  499TMC3    H2 7423   2.364   1.421   9.475 -0.2683 -2.1647  0.4116
  499TMC3    C7 7424   2.352   1.699   9.434  0.3481 -0.7565  0.7741
  499TMC3    C8 7425   2.187   1.242   9.432  0.0016 -0.0557 -0.2466
  499TMC3    O1 7426   2.325   1.807   9.386 -0.1130  0.0316 -0.1184
  499TMC3    O2 7427   2.305   1.211   9.463  0.0674  0.3764  0.0912
  500MPD2     C 7428   3.583   2.257  10.897  0.3871  0.2528  0.7436
  500MPD2    C1 7429   3.660   2.323  10.804 -0.0671 -0.2637 -0.3207
  500MPD2    C2 7430   3.592   2.376  10.693  0.4917  0.8682  0.4909
  500MPD2    C3 7431   3.453   2.362  10.674  0.5274 -0.3587  0.4057
  500MPD2    C4 7432   3.389   2.270  10.754  0.3927  0.4345 -0.3916
  500MPD2    C5 7433   3.457   2.228  10.869 -0.0591  0.1262 -0.0192
  500MPD2     H 7434   3.644   2.427  10.612  0.5273  1.4268  0.8658
  500MPD2    H1 7435   3.288   2.234  10.740  0.8351 -1.5679  1.4924
  500MPD2    H2 7436   3.628   2.197  10.975  0.8968 -1.6898 -1.0306
  500MPD2    H3 7437   3.412   2.178  10.954 -0.2381  0.1398 -0.1058
  500MPD2     N 7438   3.378   2.414  10.563 -0.2005 -0.1469  0.2673
  500MPD2    H5 7439   3.282   2.381  10.564  0.5129 -2.2483 -0.2780
  500MPD2    N1 7440   3.801   2.337  10.807  0.3996 -0.6234 -0.1939
  500MPD2    H7 7441   3.843   2.380  10.725  1.2128 -0.5236  0.2772
  501TMC3    C1 7442   4.020   2.325  10.895 -0.4448  0.0530  0.7899
  501TMC3    C2 7443   4.056   2.426  10.806 -0.0807 -0.2733  0.1494
  501TMC3    C3 7444   4.183   2.460  10.798  0.4265 -0.0199 -0.3099
  501TMC3    C4 7445   4.111   2.262  10.974  0.0621  0.3735  0.2953
  501TMC3    C5 7446   4.241   2.308  10.964 -0.2915  0.3203  0.3064
  501TMC3    C6 7447   4.282   2.410  10.880 -0.4798 -0.3890  0.4510
  501TMC3     C 7448   3.875   2.298  10.914  0.3895  0.3381  0.9100
  501TMC3     O 7449   3.852   2.239  11.019  0.1703  0.2290 -0.5121
  501TMC3     H 7450   3.979   2.474  10.747  0.7846 -2.3075 -2.6301
  501TMC3    H1 7451   4.079   2.179  11.036  2.0604  1.0638  2.2459
  501TMC3    H2 7452   4.385   2.444  10.875 -1.5393  2.8336  0.4420
  501TMC3    C7 7453   4.330   2.258  11.067  0.5818 -0.3713  0.2222
  501TMC3    C8 7454   4.230   2.558  10.703 -0.4769  0.8052 -0.0613
  501TMC3    O1 7455   4.301   2.148  11.115  0.2331  0.7021  0.1494
  501TMC3    O2 7456   4.343   2.604  10.732 -0.0454  0.4669  0.2119
  502TMC3    C1 7457   3.097   1.586  14.970 -0.7625  0.0443 -0.0583
  502TMC3    C2 7458   3.040   1.709  14.976  0.3336  0.0181  0.0099
  502TMC3    C3 7459   2.902   1.723  14.959  0.4861  0.4867  0.1156
  502TMC3    C4 7460   3.016   1.480  14.945  0.3203 -0.0416  0.0363
  502TMC3    C5 7461   2.879   1.493  14.934  0.7267  0.3736 -0.3763
  502TMC3    C6 7462   2.815   1.613  14.941 -0.0630  0.0382 -0.1173
  502TMC3     C 7463   3.215   1.569  15.056 -0.3902  0.1791  0.5648
  502TMC3     O 7464   3.295   1.663  15.056 -0.6110 -0.0192  0.2046
  502TMC3     H 7465   3.104   1.794  14.996 -0.7152  0.2008  2.6458
  502TMC3    H1 7466   3.050   1.380  14.968  0.4059  0.4331  1.9282
  502TMC3    H2 7467   2.709   1.615  14.918 -0.4195  1.1868  1.6269
  502TMC3    C7 7468   2.794   1.368  14.930  0.2948  0.1200  0.5449
  502TMC3    C8 7469   2.864   1.857  14.921 -0.5689 -0.4473 -0.2985
  502TMC3    O1 7470   2.849   1.272  14.873  0.5562  0.3617  0.7407
  502TMC3    O2 7471   2.948   1.945  14.918 -0.5532 -0.3171  0.4707
  503MPD2     C 7472   0.278   2.329  16.648  0.2273  0.8773 -0.4387
  503MPD2    C1 7473   0.296   2.361  16.778 -0.2389  0.3378  0.2231
  503MPD2    C2 7474   0.334   2.256  16.862  0.2519  0.4063 -0.1293
  503MPD2    C3 7475   0.367   2.127  16.821  0.8678 -0.1421 -0.4762
  503MPD2    C4 7476   0.343   2.098  16.694 -0.1994 -0.3470  0.1624
  503MPD2    C5 7477   0.302   2.197  16.611 -0.1097 -0.1368 -0.0496
  503MPD2     H 7478   0.350   2.290  16.964  1.3743 -1.2196  0.2282
  503MPD2    H1 7479   0.369   2.000  16.657 -0.0964  0.1910 -1.2158
  503MPD2    H2 7480   0.239   2.398  16.574  0.3437 -0.7788 -2.0519
  503MPD2    H3 7481   0.285   2.168  16.508 -2.0633  1.4943 -0.1834
  503MPD2     N 7482   0.423   2.038  16.918  0.3788 -0.3088 -0.1975
  503MPD2    H5 7483   0.439   2.078  17.010  2.6387 -1.7179  0.0169
  503MPD2    N1 7484   0.263   2.485  16.828  0.5149 -0.3771 -0.0922
  503MPD2    H7 7485   0.260   2.493  16.929  2.5660 -2.0078  0.0906
  504TMC3    C1 7486   0.574   1.879  16.988  0.0911 -0.3563 -0.1428
  504TMC3    C2 7487   0.553   1.889  17.128 -0.1259 -0.4287  0.2842
  504TMC3    C3 7488   0.643   1.817  17.202  0.4277  0.1414 -0.6177
  504TMC3    C4 7489   0.686   1.823  16.929 -0.3945  0.6630  0.4900
  504TMC3    C5 7490   0.777   1.768  17.015  0.1850  0.4370 -0.4338
  504TMC3    C6 7491   0.758   1.751  17.150 -0.2545 -0.3057 -0.8272
  504TMC3     C 7492   0.469   1.910  16.892  0.2408  0.1573 -0.1215
  504TMC3     O 7493   0.464   1.835  16.798  0.4275  0.0055  0.1663
  504TMC3     H 7494   0.459   1.923  17.170 -0.2480 -0.7527  0.2759
  504TMC3    H1 7495   0.698   1.813  16.822 -1.8424  1.4608  0.2444
  504TMC3    H2 7496   0.825   1.705  17.222 -0.2933 -1.2806 -1.4222
  504TMC3    C7 7497   0.892   1.703  16.955  0.5809 -0.4133 -0.4705
  504TMC3    C8 7498   0.632   1.855  17.341  1.1854 -0.0857  0.0329
  504TMC3    O1 7499   0.914   1.735  16.841 -0.6180  0.5917  0.0367
  504TMC3    O2 7500   0.564   1.952  17.370 -0.4169 -0.3209 -0.1040
  505MPD2     C 7501   0.500   0.505  10.486 -0.3324  0.1759  0.3135
  505MPD2    C1 7502   0.576   0.461  10.379  0.7767  0.3813 -0.1056
  505MPD2    C2 7503   0.713   0.473  10.388 -0.6557  0.2183 -0.8925
  505MPD2    C3 7504   0.770   0.528  10.504  0.2182  0.1114  0.1217
  505MPD2    C4 7505   0.694   0.559  10.612  0.2576 -0.1054  0.0597
  505MPD2    C5 7506   0.557   0.550  10.603  0.6742 -0.5619  0.1870
  505MPD2     H 7507   0.770   0.449  10.299 -0.5327  2.0244 -1.3039
  505MPD2    H1 7508   0.734   0.595  10.706  2.2120 -1.4205 -0.2774
  505MPD2    H2 7509   0.393   0.488  10.489 -0.2908  0.0557  1.1226
  505MPD2    H3 7510   0.486   0.572  10.682 -0.6929 -1.3835 -0.8157
  505MPD2     N 7511   0.908   0.508  10.509  0.5593  0.3882 -0.2709
  505MPD2    H5 7512   0.949   0.456  10.433 -1.4580  0.1734 -1.2214
  505MPD2    N1 7513   0.511   0.415  10.263 -0.0464 -0.0512 -0.7998
  505MPD2    H7 7514   0.410   0.422  10.257 -0.2066  0.0438  1.7489
  506TMC3    C1 7515   0.515   0.327  10.037 -0.1915 -0.2737  0.2058
  506TMC3    C2 7516   0.494   0.435   9.956  0.2443  0.0043 -0.6756
  506TMC3    C3 7517   0.499   0.406   9.824 -0.4990  0.2377 -0.7237
  506TMC3    C4 7518   0.547   0.202   9.980  0.0273  0.4508  0.5467
  506TMC3    C5 7519   0.571   0.196   9.845 -0.1223  0.6261 -0.5683
  506TMC3    C6 7520   0.531   0.293   9.766 -0.3374  0.3387 -0.1657
  506TMC3     C 7521   0.581   0.343  10.163 -0.4247 -0.6075  1.1798
  506TMC3     O 7522   0.681   0.273  10.178  0.2083 -0.5677 -0.1900
  506TMC3     H 7523   0.473   0.535   9.992  1.3159 -0.1851  0.4788
  506TMC3    H1 7524   0.551   0.121  10.052  1.0278  2.4103  2.7024
  506TMC3    H2 7525   0.559   0.289   9.661  1.7608 -0.5220  0.4246
  506TMC3    C7 7526   0.718   0.181   9.830  0.0161  0.5530  0.2747
  506TMC3    C8 7527   0.493   0.511   9.728 -0.2723 -0.0401  0.1497
  506TMC3    O1 7528   0.769   0.241   9.736 -0.1407  0.6888  0.3518
  506TMC3    O2 7529   0.442   0.485   9.617 -0.2418  0.1167 -0.0985
  507TMC3    C1 7530   1.537   1.402  14.936 -0.5056  0.6957  0.0949
  507TMC3    C2 7531   1.478   1.304  14.860 -0.0832 -0.8516  0.0821
  507TMC3    C3 7532   1.530   1.281  14.738 -0.2034 -0.3096  0.2270
  507TMC3    C4 7533   1.643   1.478  14.899  0.2150 -0.0199  0.2010
  507TMC3    C5 7534   1.683   1.465  14.769  0.1621  0.0879  0.5321
  507TMC3    C6 7535   1.636   1.360  14.697  0.1541 -0.2445 -0.6320
  507TMC3     C 7536   1.477   1.437  15.067 -0.3204 -0.1130  0.6194
  507TMC3     O 7537   1.549   1.486  15.153  0.6582 -0.2398 -0.2087
  507TMC3     H 7538   1.389   1.247  14.885  0.2812 -0.7856  1.5271
  507TMC3    H1 7539   1.681   1.553  14.968  0.2280 -1.8384  2.1883
  507TMC3    H2 7540   1.695   1.327  14.612  2.0834  2.5107 -0.3491
  507TMC3    C7 7541   1.684   1.590  14.694 -0.1813  0.5528 -0.3631
  507TMC3    C8 7542   1.417   1.286  14.635 -0.3752 -0.0972 -0.3485
  507TMC3    O1 7543   1.661   1.570  14.572 -0.2694  0.3518  0.1241
  507TMC3    O2 7544   1.310   1.242  14.668  0.1295  0.2938  0.3368
  508MPD2     C 7545   2.512   3.509  16.086 -0.0607 -0.5654 -0.4444
  508MPD2    C1 7546   2.426   3.615  16.118 -0.2979  0.1164  0.2446
  508MPD2    C2 7547   2.377   3.690  16.004 -0.2977  0.1499  0.2732
  508MPD2    C3 7548   2.416   3.667  15.877 -0.5486  0.4707  0.4083
  508MPD2    C4 7549   2.490   3.557  15.853 -0.5154 -0.0429 -0.5566
  508MPD2    C5 7550   2.536   3.482  15.956 -0.0721 -0.0783  0.1235
  508MPD2     H 7551   2.323   3.782  16.023 -0.6279 -0.3804  1.8597
  508MPD2    H1 7552   2.528   3.524  15.757 -2.2881 -0.4784 -1.1044
  508MPD2    H2 7553   2.544   3.448  16.169  2.4001  0.7207 -0.4612
  508MPD2    H3 7554   2.598   3.398  15.927  0.1725  0.2424 -0.2954
  508MPD2     N 7555   2.377   3.763  15.781 -0.3138 -0.2893 -0.3664
  508MPD2    H5 7556   2.315   3.840  15.802 -0.1808 -0.0754 -0.7760
  508MPD2    N1 7557   2.410   3.655  16.255  0.4440 -0.6551  0.7513
  508MPD2    H7 7558   2.480   3.618  16.320  1.0602  1.7589  1.4562
  509TMC3    C1 7559   2.237   4.013  15.482 -1.1859  0.0210 -0.0007
  509TMC3    C2 7560   2.327   4.064  15.391  0.8090 -0.2607  0.6048
  509TMC3    C3 7561   2.455   4.018  15.393  0.1263 -0.3028  0.3146
  509TMC3    C4 7562   2.269   3.923  15.583  0.3276 -0.0490 -0.0887
  509TMC3    C5 7563   2.402   3.883  15.577  0.0838 -0.0794  0.0391
  509TMC3    C6 7564   2.495   3.927  15.482 -0.5958 -0.2445  0.1843
  509TMC3     C 7565   2.101   4.055  15.464 -0.2139  0.3615  0.2846
  509TMC3     O 7566   2.026   3.969  15.423  0.6113  0.2790  0.5302
  509TMC3     H 7567   2.289   4.127  15.312  1.6238  0.4467  0.7755
  509TMC3    H1 7568   2.188   3.884  15.644  0.3697 -0.3231 -0.2078
  509TMC3    H2 7569   2.600   3.901  15.486 -0.2674  1.1511  0.5499
  509TMC3    C7 7570   2.447   3.774  15.660  0.0471 -0.4237 -0.0090
  509TMC3    C8 7571   2.551   4.106  15.333 -0.0927  0.4650  0.5607
  509TMC3    O1 7572   2.554   3.724  15.637  0.1601  0.3358 -0.1565
  509TMC3    O2 7573   2.662   4.066  15.297 -0.6592  0.2097  0.2605
  510MPD2     C 7574   0.111   1.097  14.783  0.9492 -0.3198  0.3910
  510MPD2    C1 7575   0.163   0.969  14.786  0.0759  0.3632 -0.9768
  510MPD2    C2 7576   0.273   0.936  14.706 -0.1760  0.4199 -0.4737
  510MPD2    C3 7577   0.323   1.030  14.611  0.1535 -0.1970 -0.4628
  510MPD2    C4 7578   0.272   1.159  14.607  0.2847 -0.2180  0.1635
  510MPD2    C5 7579   0.163   1.184  14.691  0.4296  0.7323  0.4709
  510MPD2     H 7580   0.317   0.837  14.705 -1.3073 -0.0629 -2.3031
  510MPD2    H1 7581   0.310   1.244  14.552  1.1926 -0.0143  1.0966
  510MPD2    H2 7582   0.046   1.135  14.861  0.3288  0.3894 -0.4751
  510MPD2    H3 7583   0.129   1.286  14.700  1.0808  0.9246  0.7842
  510MPD2     N 7584   0.433   0.996  14.536 -0.5530  0.1096  0.1763
  510MPD2    H5 7585   0.474   0.904  14.545  0.9728  0.7287 -0.5346
  510MPD2    N1 7586   0.095   0.878  14.867  0.0704  0.0501 -0.1414
  510MPD2    H7 7587   0.002   0.911  14.890 -0.9419 -1.2332 -2.2812
  511TMC3    C1 7588   0.028   0.664  14.951 -0.0071 -0.0996 -0.2565
  511TMC3    C2 7589   4.651   0.721  15.026  0.7323 -0.1151  0.1687
  511TMC3    C3 7590   4.545   0.641  15.060 -0.4848  0.0411 -0.0201
  511TMC3    C4 7591   0.030   0.532  14.922 -0.5260  0.1292 -0.0698
  511TMC3    C5 7592   4.645   0.455  14.965  0.3632  0.5808  0.0837
  511TMC3    C6 7593   4.536   0.509  15.021  0.3633 -0.1405 -0.8392
  511TMC3     C 7594   0.128   0.748  14.888 -0.9096 -0.4944  0.3556
  511TMC3     O 7595   0.234   0.692  14.857 -0.3440 -0.2793  0.0013
  511TMC3     H 7596   4.651   0.825  15.058  0.9391 -0.6735  1.9326
  511TMC3    H1 7597   0.109   0.487  14.864 -1.0800 -2.0113  0.8563
  511TMC3    H2 7598   4.443   0.453  15.017 -1.0952  2.1251  1.0057
  511TMC3    C7 7599   4.628   0.333  14.881 -0.0670 -0.0960 -0.0379
  511TMC3    C8 7600   4.448   0.693  15.147  0.0120  0.8533 -1.0589
  511TMC3    O1 7601   4.704   0.304  14.791 -0.6369  0.7870  0.6354
  511TMC3    O2 7602   4.446   0.816  15.147 -0.0747  0.4443 -0.0909
  512TMC3    C1 7603   3.762   4.648  13.372 -0.0563  0.1627  0.1341
  512TMC3    C2 7604   3.871   4.635  13.455  0.4111  0.0479 -0.3808
  512TMC3    C3 7605   3.913   4.505  13.489  0.3950 -0.9417 -0.3726
  512TMC3    C4 7606   3.691   4.534  13.329 -0.0243  0.4892 -0.4587
  512TMC3    C5 7607   3.736   4.409  13.362  0.2734 -0.0987  1.1024
  512TMC3    C6 7608   3.847   4.393  13.443 -0.4530 -0.1359 -0.2334
  512TMC3     C 7609   3.745   0.057  13.308  0.1840 -0.1133 -0.4065
  512TMC3     O 7610   3.836   0.138  13.317 -0.3429 -0.0779 -0.0497
  512TMC3     H 7611   3.936   4.721  13.457  0.2445  0.1995 -1.9366
  512TMC3    H1 7612   3.603   4.552  13.268  0.6564  0.8320 -1.3418
  512TMC3    H2 7613   3.876   4.295  13.480  1.5343  0.6966  0.4221
  512TMC3    C7 7614   3.635   4.306  13.362  0.4462  0.5227 -0.4180
  512TMC3    C8 7615   4.046   4.477  13.552 -0.9252  0.5016 -0.9152
  512TMC3    O1 7616   3.521   4.339  13.389  0.0994  0.3505  0.3726
  512TMC3    O2 7617   4.063   4.361  13.582 -0.4404 -0.3263  0.6432
  513MPD2     C 7618   1.143   0.095  13.661 -0.0426  0.2561 -0.1466
  513MPD2    C1 7619   1.211   0.098  13.543  0.4084 -0.6341  0.7137
  513MPD2    C2 7620   1.345   0.132  13.537  0.0988 -0.3903 -0.1596
  513MPD2    C3 7621   1.412   0.157  13.651  0.5544 -0.1513  0.5241
  513MPD2    C4 7622   1.344   0.172  13.771 -0.1290  0.4293  0.3180
  513MPD2    C5 7623   1.210   0.133  13.774  0.3971 -0.5170 -0.2808
  513MPD2     H 7624   1.396   0.138  13.442  0.0646  0.5889 -0.1125
  513MPD2    H1 7625   1.395   0.198  13.862  1.7611 -2.6039  0.1197
  513MPD2    H2 7626   1.037   0.085  13.677  0.0243  2.4777  1.6365
  513MPD2    H3 7627   1.137   0.146  13.853  1.2768  0.5582  0.3544
  513MPD2     N 7628   1.549   0.185  13.644  0.2559 -0.2232  0.8042
  513MPD2    H5 7629   1.586   0.175  13.550  2.1096  1.0832  1.3892
  513MPD2    N1 7630   1.156   0.059  13.416 -0.2476 -1.0054 -0.1685
  513MPD2    H7 7631   1.229   0.035  13.350 -0.0881  1.3700 -0.8426
  514TMC3    C1 7632   1.014   4.665  13.278 -0.4470 -0.1108  0.1026
  514TMC3    C2 7633   0.949   0.007  13.178 -0.2954 -0.7679 -0.5138
  514TMC3    C3 7634   0.996   4.717  13.053 -0.1928  0.5684  0.0308
  514TMC3    C4 7635   1.115   4.583  13.253  0.2579  0.2120 -0.0471
  514TMC3    C5 7636   1.169   4.584  13.124  0.5908 -0.2372  0.0961
  514TMC3    C6 7637   1.108   4.639  13.019  0.1722  0.0069 -0.5840
  514TMC3     C 7638   1.026   0.022  13.395 -0.4517 -0.1577 -0.7735
  514TMC3     O 7639   0.922   0.064  13.448  0.1706  0.1855  0.3103
  514TMC3     H 7640   0.870   0.080  13.193 -0.2026 -1.0553  1.3762
  514TMC3    H1 7641   1.178   4.545  13.332  1.8539 -1.5666 -2.1441
  514TMC3    H2 7642   1.153   4.636  12.921 -0.1978  1.6562 -0.8064
  514TMC3    C7 7643   1.314   4.615  13.139 -0.4439  0.2208  0.5362
  514TMC3    C8 7644   0.911   0.046  12.951 -0.3577  0.3237  0.1548
  514TMC3    O1 7645   1.347   4.654  13.252 -0.3795 -0.3024 -0.1370
  514TMC3    O2 7646   0.834   0.131  12.979 -0.0410 -0.3734  0.0694
  515MPD2     C 7647   4.257   1.713  14.899 -0.2960 -0.4525  0.3555
  515MPD2    C1 7648   4.167   1.787  14.824 -0.1017 -0.0033 -0.1017
  515MPD2    C2 7649   4.145   1.919  14.846 -0.3618 -0.0561  0.2375
  515MPD2    C3 7650   4.203   1.973  14.962 -0.4431  0.0598 -0.7441
  515MPD2    C4 7651   4.284   1.899  15.042 -0.3121 -0.1729  0.6050
  515MPD2    C5 7652   4.311   1.765  15.013 -1.4059  0.7426 -0.0275
  515MPD2     H 7653   4.076   1.977  14.786  0.0894 -0.5938 -0.8033
  515MPD2    H1 7654   4.324   1.944  15.133 -0.7570  1.5025 -0.0257
  515MPD2    H2 7655   4.274   1.609  14.873  1.7045  0.0995 -0.5002
  515MPD2    H3 7656   4.370   1.697  15.074 -0.3148  0.6585 -1.1726
  515MPD2     N 7657   4.193   2.105  15.012 -0.1451  0.0108 -0.4435
  515MPD2    H5 7658   4.250   2.118  15.096 -0.0488 -1.2022 -0.3099
  515MPD2    N1 7659   4.093   1.727  14.717  0.3435  0.0546  0.0076
  515MPD2    H7 7660   4.044   1.786  14.650 -2.6960 -1.4013  0.9644
  516TMC3    C1 7661   4.010   1.576  14.568 -0.3368  0.7895 -0.4283
  516TMC3    C2 7662   3.996   1.676  14.479  1.1941 -0.0990 -0.0204
  516TMC3    C3 7663   3.865   1.682  14.435 -0.5296  1.0154  0.0020
  516TMC3    C4 7664   3.920   1.482  14.602 -0.0818 -0.6996 -0.1653
  516TMC3    C5 7665   3.793   1.508  14.568 -0.2281 -0.5274 -0.3025
  516TMC3    C6 7666   3.760   1.615  14.484  0.0905 -0.8731 -0.4266
  516TMC3     C 7667   4.098   1.598  14.678  0.2702  0.2982 -0.0678
  516TMC3     O 7668   4.130   1.501  14.752 -0.1577  0.2368  0.2292
  516TMC3     H 7669   4.087   1.713  14.432  0.5029  0.4210 -0.9537
  516TMC3    H1 7670   3.930   1.402  14.674  1.5155 -1.3571 -1.1197
  516TMC3    H2 7671   3.658   1.634  14.452 -1.1957 -1.6782  3.2309
  516TMC3    C7 7672   3.693   1.455  14.660  0.0229 -0.5877 -0.0650
  516TMC3    C8 7673   3.839   1.760  14.312 -0.0340 -0.3325 -0.8031
  516TMC3    O1 7674   3.723   1.427  14.777  0.0999 -0.0224  0.2830
  516TMC3    O2 7675   3.723   1.755  14.270  0.4558  0.2561  0.1860
  517MPD2     C 7676   3.289   3.800   0.041 -1.0784  0.2550  0.0782
  517MPD2    C1 7677   3.420   3.778   0.045  0.5552 -0.3247  0.7013
  517MPD2    C2 7678   3.503   3.885   0.050 -0.4735  0.7836  0.0657
  517MPD2    C3 7679   3.456   4.017   0.066  0.3077  0.2397 -0.0563
  517MPD2    C4 7680   3.322   4.045   0.064 -0.0188 -0.1658  0.8890
  517MPD2    C5 7681   3.239   3.936   0.042  0.2179 -0.0946  0.7360
  517MPD2     H 7682   3.610   3.868   0.050 -0.3258  1.6715 -1.4390
  517MPD2    H1 7683   3.280   4.142   0.088  0.5979 -0.1120  1.7137
  517MPD2    H2 7684   3.214   3.723   0.030 -0.7683 -0.1801  0.9770
  517MPD2    H3 7685   3.132   3.953   0.051 -0.0118 -2.1561  1.9310
  517MPD2     N 7686   3.554   4.110   0.098 -0.6734  0.6310 -0.3822
  517MPD2    H5 7687   3.651   4.080   0.086 -0.7229  0.8379 -1.3088
  517MPD2    N1 7688   3.482   3.649   0.043 -0.1334  0.5394  0.0996
  517MPD2    H7 7689   3.581   3.648   0.064 -0.1339 -1.0306  0.0184
  518TMC3    C1 7690   3.522   3.429   0.009 -0.6740  0.2867 -0.3644
  518TMC3    C2 7691   3.494   3.298   0.043  0.9803 -0.0463 -0.6003
  518TMC3    C3 7692   3.592   3.200   0.031  0.2495 -0.1542 -0.1188
  518TMC3    C4 7693   3.639   3.453  17.639 -0.3802  0.8283 -0.3755
  518TMC3    C5 7694   3.722   3.348  17.602  0.1549 -0.3138 -0.7967
  518TMC3    C6 7695   3.709   3.220  17.646 -0.1256  0.4354  0.2350
  518TMC3     C 7696   3.419   3.529   0.029  0.6874 -0.0182  0.1742
  518TMC3     O 7697   3.305   3.498   0.044  0.1488  0.0981  0.1624
  518TMC3     H 7698   3.402   3.275   0.096 -0.3744  1.3489 -2.3323
  518TMC3    H1 7699   3.654   3.551  17.594 -2.1863  0.2386 -2.2217
  518TMC3    H2 7700   3.792   3.152  17.636 -1.1509 -0.8734  0.7049
  518TMC3    C7 7701   3.855   3.379  17.563  0.4242  0.1077  0.3252
  518TMC3    C8 7702   3.588   3.073   0.101  0.0153 -0.4369 -0.4142
  518TMC3    O1 7703   3.886   3.492  17.584  0.7845 -0.0022  0.3721
  518TMC3    O2 7704   3.495   3.066   0.179 -0.0906  0.0404  0.1937
  519MPD2     C 7705   0.427   2.159  14.243  0.3785  0.8290 -0.5093
  519MPD2    C1 7706   0.316   2.075  14.227 -0.0410  0.1322 -0.2845
  519MPD2    C2 7707   0.337   1.942  14.246 -0.5186  0.3311 -0.3036
  519MPD2    C3 7708   0.462   1.889  14.277  0.4210 -0.9784  0.1707
  519MPD2    C4 7709   0.560   1.975  14.307  0.3062 -0.0815 -0.0237
  519MPD2    C5 7710   0.543   2.113  14.295 -0.2910 -0.3299 -0.9914
  519MPD2     H 7711   0.259   1.872  14.220  0.3167 -0.3334 -1.0309
  519MPD2    H1 7712   0.658   1.936  14.330 -1.1448 -1.9028  3.0688
  519MPD2    H2 7713   0.422   2.264  14.217  1.7316  0.8260 -0.7959
  519MPD2    H3 7714   0.624   2.184  14.303  0.1314 -0.7997 -1.0402
  519MPD2     N 7715   0.486   1.746  14.288 -0.2184 -0.5345  0.2196
  519MPD2    H5 7716   0.585   1.723  14.298 -0.4302 -1.5890 -0.1442
  519MPD2    N1 7717   0.187   2.126  14.199 -0.2365  0.2758  0.2254
  519MPD2    H7 7718   0.192   2.213  14.146 -0.0783 -0.3069 -0.7104
  520TMC3    C1 7719   0.444   1.517  14.261 -1.5449 -0.8289  0.2282
  520TMC3    C2 7720   0.360   1.445  14.174 -0.4071  0.4105  0.1850
  520TMC3    C3 7721   0.417   1.336  14.109 -0.0083 -0.4514 -0.6545
  520TMC3    C4 7722   0.569   1.474  14.291  0.2377 -0.6908  0.0506
  520TMC3    C5 7723   0.631   1.388  14.206 -0.1917  0.8059  0.8959
  520TMC3    C6 7724   0.554   1.311  14.115 -0.4010  0.1095  0.2547
  520TMC3     C 7725   0.385   1.650  14.283  0.6075 -0.1862 -0.3354
  520TMC3     O 7726   0.263   1.662  14.298 -0.1245  0.4661  0.1789
  520TMC3     H 7727   0.259   1.480  14.159  0.6827  3.1490 -0.7704
  520TMC3    H1 7728   0.629   1.521  14.368  0.2332 -2.0141  0.8577
  520TMC3    H2 7729   0.586   1.242  14.038  0.2006  0.7165 -0.0472
  520TMC3    C7 7730   0.761   1.328  14.229 -0.4709 -0.3904 -0.3192
  520TMC3    C8 7731   0.353   1.282  13.993 -0.2335 -0.2870  0.9870
  520TMC3    O1 7732   0.813   1.345  14.340  0.3947  0.1022 -0.3386
  520TMC3    O2 7733   0.416   1.259  13.893  0.6775 -0.1535 -0.2494
  521MPD2     C 7734   1.125   0.205  17.016 -0.2572  1.2251  0.2437
  521MPD2    C1 7735   1.117   0.088  16.940  0.2343  0.3907 -0.0594
  521MPD2    C2 7736   1.229   0.055  16.856 -0.3697  0.0240 -0.5185
  521MPD2    C3 7737   1.334   0.140  16.847  0.1613 -0.2100 -0.4528
  521MPD2    C4 7738   1.334   0.260  16.915  0.4750 -0.1564 -0.2826
  521MPD2    C5 7739   1.237   0.285  17.006 -0.8812  0.3904 -0.1339
  521MPD2     H 7740   1.236   4.686  16.800 -0.2580 -0.5651  0.4515
  521MPD2    H1 7741   1.418   0.329  16.921 -0.6524  1.1366  0.6196
  521MPD2    H2 7742   1.050   0.239  17.087  0.9689 -1.0206  2.6331
  521MPD2    H3 7743   1.247   0.374  17.067 -0.8476  0.2703  0.0334
  521MPD2     N 7744   1.443   0.110  16.758  0.4264  1.0065 -0.6563
  521MPD2    H5 7745   1.440   0.029  16.697  2.5204  0.4492  0.0071
  521MPD2    N1 7746   0.999   0.016  16.959 -0.2496  0.5549 -1.2455
  521MPD2    H7 7747   0.927   0.063  17.013 -0.6655  0.6358 -1.8714
  522TMC3    C1 7748   1.668   0.085  16.709  0.5273  0.4160 -0.3957
  522TMC3    C2 7749   1.782   0.077  16.780 -0.2251  0.1589  0.5302
  522TMC3    C3 7750   1.888   0.014  16.727 -0.1022  0.3793  0.5041
  522TMC3    C4 7751   1.653   0.033  16.591 -0.2034  0.2660 -0.3214
  522TMC3    C5 7752   1.767   4.699  16.536  0.1565  0.1148  0.6757
  522TMC3    C6 7753   1.880   4.686  16.604 -0.7744 -0.2818  0.1275
  522TMC3     C 7754   1.567   0.167  16.771  0.4917 -1.0076 -0.0704
  522TMC3     O 7755   1.609   0.268  16.828 -0.4329 -0.1288  0.2737
  522TMC3     H 7756   1.782   0.108  16.884  0.2667  3.3019 -0.4067
  522TMC3    H1 7757   1.562   0.055  16.536 -0.5512  1.3908  0.7160
  522TMC3    H2 7758   1.964   4.641  16.552  0.1262  2.2034 -0.5842
  522TMC3    C7 7759   1.760   4.640  16.410 -0.5608 -0.4209  0.0908
  522TMC3    C8 7760   1.976   4.678  16.828 -0.2490 -0.1735 -0.3107
  522TMC3    O1 7761   1.861   4.648  16.348 -0.1892  0.1124  0.1093
  522TMC3    O2 7762   1.985   0.003  16.943  0.1684 -0.4611 -0.9376
  523MPD2     C 7763   3.871   3.630   9.663 -0.2481  0.0864 -0.1889
  523MPD2    C1 7764   3.863   3.728   9.767 -0.5107 -0.2313 -0.0716
  523MPD2    C2 7765   3.815   3.853   9.736  0.1279  0.2402 -0.3748
  523MPD2    C3 7766   3.782   3.884   9.608 -0.0298 -0.7564  0.2622
  523MPD2    C4 7767   3.800   3.793   9.504 -0.5330  0.8517  0.1264
  523MPD2    C5 7768   3.849   3.670   9.531 -0.0013  0.0215  0.8545
  523MPD2     H 7769   3.810   3.929   9.814 -0.1182  0.3521 -0.5019
  523MPD2    H1 7770   3.776   3.829   9.405 -0.3193  1.9551  0.4664
  523MPD2    H2 7771   3.897   3.529   9.692 -3.7006 -0.8320 -0.2504
  523MPD2    H3 7772   3.858   3.606   9.444  1.3936  1.6866 -0.2368
  523MPD2     N 7773   3.747   4.017   9.571 -0.0961 -0.3039  0.2762
  523MPD2    H5 7774   3.758   4.028   9.471  0.9895 -0.4370  0.3844
  523MPD2    N1 7775   3.897   3.686   9.898 -0.4665  0.1401 -0.6640
  523MPD2    H7 7776   3.913   3.589   9.923  1.2681  0.3585 -0.9321
  524TMC3    C1 7777   3.670   4.238   9.587 -0.4163  0.2645  0.3817
  524TMC3    C2 7778   3.731   4.259   9.469  0.2159  0.1076  0.0170
  524TMC3    C3 7779   3.697   4.377   9.409  0.4307 -0.0192 -0.4126
  524TMC3    C4 7780   3.572   4.319   9.637  0.2401  0.0987 -0.5893
  524TMC3    C5 7781   3.538   4.434   9.573 -0.2304  0.0659  0.0157
  524TMC3    C6 7782   3.597   4.462   9.454 -0.4383  0.0984  1.0672
  524TMC3     C 7783   3.698   4.119   9.655  0.2781  0.1270  0.2323
  524TMC3     O 7784   3.673   4.109   9.774 -0.2668 -1.1830  0.2867
  524TMC3     H 7785   3.828   4.218   9.444  0.8976  1.2131  0.8527
  524TMC3    H1 7786   3.528   4.304   9.735  1.2261 -0.9721 -0.3174
  524TMC3    H2 7787   3.569   4.546   9.391 -1.8422 -1.0769  0.1265
  524TMC3    C7 7788   3.424   4.518   9.622  0.8942  0.5502  0.1450
  524TMC3    C8 7789   3.749   4.404   9.277  0.9239 -0.1981  0.0217
  524TMC3    O1 7790   3.367   4.463   9.716 -0.0789  0.2659 -0.0755
  524TMC3    O2 7791   3.738   4.514   9.233 -0.9722  0.3732 -0.1086
  525MPD2     C 7792   1.711   1.074  14.496  0.9446 -0.9051  0.0231
  525MPD2    C1 7793   1.837   1.091  14.549  0.1807 -0.8700 -0.1713
  525MPD2    C2 7794   1.917   1.192  14.504 -0.1411  0.1790  0.7983
  525MPD2    C3 7795   1.873   1.271  14.401  0.7985  0.3528 -0.8687
  525MPD2    C4 7796   1.747   1.254  14.351  0.4598  0.6707  0.1919
  525MPD2    C5 7797   1.667   1.153  14.399  0.7749  0.9472 -0.2937
  525MPD2     H 7798   2.017   1.190  14.546 -1.1207  1.9442  3.2203
  525MPD2    H1 7799   1.701   1.312  14.272  0.5564  1.0414  0.4109
  525MPD2    H2 7800   1.639   0.997  14.522  1.1553 -0.5014  1.8008
  525MPD2    H3 7801   1.567   1.140  14.360  0.1008  2.2624  0.9958
  525MPD2     N 7802   1.942   1.391  14.368 -0.5780 -0.4618  0.3244
  525MPD2    H5 7803   1.887   1.464  14.325  0.4088 -0.5865 -1.1493
  525MPD2    N1 7804   1.884   1.023  14.661  0.0837 -0.5542  0.1683
  525MPD2    H7 7805   1.980   1.038  14.688 -0.3377  0.6005  1.0494
  526TMC3    C1 7806   1.859   0.871  14.846  0.0658 -0.7074 -0.8109
  526TMC3    C2 7807   1.772   0.813  14.937 -0.2149 -0.3053 -0.2202
  526TMC3    C3 7808   1.828   0.739  15.041  0.3502 -0.1905 -0.0403
  526TMC3    C4 7809   1.996   0.846  14.850 -0.8531  0.1300  0.3411
  526TMC3    C5 7810   2.044   0.777  14.957 -0.1629  0.2325  0.1207
  526TMC3    C6 7811   1.958   0.706  15.046  0.3981  0.0285 -0.4885
  526TMC3     C 7812   1.800   0.944  14.743 -0.5902 -0.2522 -0.0502
  526TMC3     O 7813   1.680   0.943  14.746 -0.5007 -0.0117  0.3984
  526TMC3     H 7814   1.670   0.847  14.948 -0.1582  0.5684 -2.3249
  526TMC3    H1 7815   2.052   0.861  14.759  0.8708 -0.5151  1.3011
  526TMC3    H2 7816   1.999   0.648  15.127  0.4622  0.0226 -0.5256
  526TMC3    C7 7817   2.190   0.761  14.974  0.5546 -0.6175 -0.5406
  526TMC3    C8 7818   1.763   0.722  15.164 -0.2092  0.5007 -0.4592
  526TMC3    O1 7819   2.227   0.725  15.086 -0.1898  0.3130 -0.3492
  526TMC3    O2 7820   1.825   0.722  15.267 -0.6752  0.1260  0.2372
  527MPD2     C 7821   4.364   3.959   0.805  0.2808 -0.1579 -0.7515
  527MPD2    C1 7822   4.421   3.944   0.923  0.5071  0.1025  0.4930
  527MPD2    C2 7823   4.563   3.949   0.933 -0.4408  0.3610  0.7153
  527MPD2    C3 7824   4.636   3.967   0.821  0.1238 -0.6515  0.6301
  527MPD2    C4 7825   4.577   3.990   0.700 -1.1789  0.1607  1.0871
  527MPD2    C5 7826   4.438   3.989   0.689 -0.2811 -0.5576 -0.0365
  527MPD2     H 7827   4.607   3.937   1.032  0.4966  1.9893  0.4959
  527MPD2    H1 7828   4.634   4.018   0.612 -0.9711  1.8842  1.7729
  527MPD2    H2 7829   4.257   3.973   0.797  0.5006  0.8013 -2.1346
  527MPD2    H3 7830   4.390   4.009   0.594  0.7818 -1.2772 -0.7312
  527MPD2     N 7831   0.052   3.962   0.843 -0.2470 -0.1876  0.1428
  527MPD2    H5 7832   0.088   3.949   0.937 -1.2854  0.4727  0.6290
  527MPD2    N1 7833   4.349   3.936   1.041 -0.0617 -0.2776 -0.0613
  527MPD2    H7 7834   4.406   3.957   1.122  2.1032 -1.6572 -1.2185
  528TMC3    C1 7835   4.172   3.925   1.197  0.6882  0.0762  0.0001
  528TMC3    C2 7836   4.253   3.947   1.307  0.3781 -0.3401 -0.3646
  528TMC3    C3 7837   4.191   3.944   1.430  0.4994 -0.1261 -0.6516
  528TMC3    C4 7838   4.040   3.885   1.219 -0.5994  0.4975  0.1668
  528TMC3    C5 7839   3.986   3.875   1.345  0.2895 -0.6071 -0.3227
  528TMC3    C6 7840   4.060   3.906   1.458 -0.4230 -0.2361  0.1695
  528TMC3     C 7841   4.213   3.924   1.059  0.2516  0.5374  0.1992
  528TMC3     O 7842   4.130   3.918   0.972  0.0067  0.0930  0.5749
  528TMC3     H 7843   4.358   3.972   1.293 -0.5767  3.2809 -1.1601
  528TMC3    H1 7844   3.989   3.837   1.136 -2.2070  2.4369  0.0521
  528TMC3    H2 7845   4.017   3.907   1.557  0.9635  1.5351  0.7324
  528TMC3    C7 7846   3.841   3.863   1.365  0.4211 -0.5857  0.1988
  528TMC3    C8 7847   4.274   3.976   1.545  0.0216 -0.0753  0.3380
  528TMC3    O1 7848   3.810   3.841   1.482  0.7338 -0.1150 -0.9714
  528TMC3    O2 7849   4.373   4.048   1.525 -0.2493 -0.0221  0.1554
  529MPD2     C 7850   2.987   2.078   0.586 -0.3831 -0.0459 -0.8396
  529MPD2    C1 7851   2.856   2.084   0.545 -0.2415 -0.0056  0.0022
  529MPD2    C2 7852   2.832   2.124   0.413 -0.2835 -0.4362 -0.2493
  529MPD2    C3 7853   2.929   2.184   0.335 -0.1820 -0.5216  0.1729
  529MPD2    C4 7854   3.064   2.189   0.379 -0.8546  0.0256  0.2174
  529MPD2    C5 7855   3.088   2.133   0.508 -0.4407  0.1165 -0.0869
  529MPD2     H 7856   2.730   2.113   0.376 -1.1456  0.1391  1.9433
  529MPD2    H1 7857   3.147   2.223   0.318 -1.1724 -2.1542 -1.4578
  529MPD2    H2 7858   3.028   2.032   0.675  0.3907  0.3450 -0.9980
  529MPD2    H3 7859   3.192   2.128   0.538 -0.5446 -0.3807  0.1820
  529MPD2     N 7860   2.897   2.228   0.201 -0.3218  0.5369  0.0637
  529MPD2    H5 7861   2.963   2.289   0.154 -1.9311 -0.6055 -3.6855
  529MPD2    N1 7862   2.758   2.019   0.624  0.1847  0.1772  0.4394
  529MPD2    H7 7863   2.672   1.997   0.575  1.4232 -1.8618 -0.8283
  530TMC3    C1 7864   2.646   1.943   0.806 -0.2925  1.1320  0.2295
  530TMC3    C2 7865   2.690   1.858   0.903 -0.0961 -0.0830 -0.6902
  530TMC3    C3 7866   2.615   1.742   0.927  0.0906 -0.9009 -0.0343
  530TMC3    C4 7867   2.545   1.915   0.723 -0.0006  0.4178  0.1195
  530TMC3    C5 7868   2.468   1.802   0.754  0.3087  0.2226 -0.5295
  530TMC3    C6 7869   2.509   1.717   0.849 -0.1365 -0.1102 -0.0855
  530TMC3     C 7870   2.763   2.010   0.759  0.9710  0.0621  0.3847
  530TMC3     O 7871   2.854   2.036   0.834 -0.6085  0.0484 -0.0398
  530TMC3     H 7872   2.784   1.875   0.955 -1.9218 -0.9180  2.8669
  530TMC3    H1 7873   2.516   1.982   0.644 -0.5658 -0.1938 -0.1987
  530TMC3    H2 7874   2.483   1.612   0.841 -2.2539  0.3810  0.2122
  530TMC3    C7 7875   2.352   1.773   0.670  0.0949 -0.1502  0.0357
  530TMC3    C8 7876   2.682   1.627   0.991  0.0800  0.3320  0.1109
  530TMC3    O1 7877   2.332   1.843   0.569 -0.0375  0.4537 -0.8277
  530TMC3    O2 7878   2.629   1.518   0.992 -0.2787 -0.3700 -0.2670
  531MPD2     C 7879   1.795   0.014  13.027 -0.1596 -0.2272 -0.5255
  531MPD2    C1 7880   1.720   0.054  13.132  0.3606  0.0643  0.0832
  531MPD2    C2 7881   1.588   0.009  13.123 -0.1818  0.9498 -0.2491
  531MPD2    C3 7882   1.543   4.640  13.029 -0.5469 -0.5398  0.6873
  531MPD2    C4 7883   1.631   4.598  12.930  0.2433  0.3583 -0.3320
  531MPD2    C5 7884   1.758   4.650  12.930 -0.0662  0.0271 -0.1264
  531MPD2     H 7885   1.523   0.049  13.200  0.3543  1.6292 -0.1456
  531MPD2    H1 7886   1.593   4.529  12.856  0.6193  1.6468 -1.7324
  531MPD2    H2 7887   1.895   0.055  13.015  0.7249 -2.7731 -1.8586
  531MPD2    H3 7888   1.827   4.617  12.853  2.5130 -0.2553  2.3368
  531MPD2     N 7889   1.408   4.590  13.039 -0.4172  0.1319  0.4035
  531MPD2    H5 7890   1.382   4.538  12.956 -0.8279  0.0455  0.5868
  531MPD2    N1 7891   1.777   0.128  13.234  0.7028  0.3181 -0.2809
  531MPD2    H7 7892   1.878   0.139  13.229  0.7751 -0.0422  0.3782
  532TMC3    C1 7893   1.807   0.215  13.457 -0.0439 -0.4612  0.4533
  532TMC3    C2 7894   1.734   0.270  13.557 -0.1925  0.1973 -0.0515
  532TMC3    C3 7895   1.754   0.242  13.692 -0.8401  0.3970  0.5469
  532TMC3    C4 7896   1.898   0.118  13.484  0.1870  0.8905  1.0467
  532TMC3    C5 7897   1.919   0.086  13.619 -0.2225  0.1862  0.2560
  532TMC3    C6 7898   1.849   0.146  13.719 -0.6140  0.7819  1.0433
  532TMC3     C 7899   1.718   0.174  13.348 -0.0377 -0.6521 -0.5999
  532TMC3     O 7900   1.599   0.190  13.363  0.5972  0.1112  0.5770
  532TMC3     H 7901   1.662   0.347  13.530  1.2572  1.3887 -0.5313
  532TMC3    H1 7902   1.959   0.064  13.412 -0.5819 -0.7768  1.6433
  532TMC3    H2 7903   1.867   0.114  13.821  1.9111 -1.4184 -0.0997
  532TMC3    C7 7904   2.013   4.705  13.665 -0.4103  0.2416 -0.1981
  532TMC3    C8 7905   1.631   0.222  13.750  0.1358 -0.2803  0.3886
  532TMC3    O1 7906   2.067   4.714  13.774 -0.4721  0.3854 -0.3958
  532TMC3    O2 7907   1.621   0.201  13.871 -0.3323 -0.2539  0.0126
  533TMC3    C1 7908   2.108   1.556  14.417 -0.8970  0.9446  0.2730
  533TMC3    C2 7909   2.238   1.586  14.410 -0.4144 -0.2066 -0.0626
  533TMC3    C3 7910   2.276   1.699  14.480 -0.4874 -0.1579  0.2498
  533TMC3    C4 7911   2.012   1.640  14.473  0.4273 -0.2370 -0.8428
  533TMC3    C5 7912   2.056   1.749  14.546  0.3559 -0.2076 -0.1216
  533TMC3    C6 7913   2.192   1.781  14.548  0.1883 -0.4133 -0.2924
  533TMC3     C 7914   2.075   1.419  14.403  0.1652 -0.6965 -0.4502
  533TMC3     O 7915   2.171   1.346  14.426 -0.5051  0.1381  0.0485
  533TMC3     H 7916   2.306   1.528  14.348 -1.0310  0.2919 -1.2091
  533TMC3    H1 7917   1.908   1.608  14.481  0.1238  1.1106  0.5683
  533TMC3    H2 7918   2.234   1.851  14.618  3.4695  0.8691 -3.5353
  533TMC3    C7 7919   2.027   1.714  14.687  0.1645 -0.3300  0.9654
  533TMC3    C8 7920   2.415   1.739  14.475 -0.0915 -0.2132  0.0838
  533TMC3    O1 7921   2.007   1.591  14.699  0.3173 -0.2824  0.5621
  533TMC3    O2 7922   2.436   1.858  14.506 -0.6881 -0.0128 -0.2617
  534MPD2     C 7923   0.331   2.821   1.933  0.7441 -0.1111  0.1277
  534MPD2    C1 7924   0.233   2.915   1.910  0.5797 -0.4295  0.7526
  534MPD2    C2 7925   0.116   2.889   1.832 -0.0650 -0.2876  0.1112
  534MPD2    C3 7926   0.100   2.764   1.771 -0.1684  0.0575  0.0719
  534MPD2    C4 7927   0.209   2.676   1.787 -0.3376 -0.4877 -0.6049
  534MPD2    C5 7928   0.323   2.700   1.861  0.0222 -0.1669 -0.0643
  534MPD2     H 7929   0.032   2.957   1.819  1.4002  1.0063 -2.5282
  534MPD2    H1 7930   0.203   2.576   1.747 -1.4753 -0.9366  0.6885
  534MPD2    H2 7931   0.416   2.848   1.996  0.2022  1.9113  0.0005
  534MPD2    H3 7932   0.412   2.638   1.856  0.4370  0.4159  0.0896
  534MPD2     N 7933   4.704   2.724   1.703  0.1610  0.2630 -0.5640
  534MPD2    H5 7934   4.709   2.639   1.649  1.5479  1.3705 -2.1715
  534MPD2    N1 7935   0.257   3.041   1.978 -0.1240  0.0375  0.4071
  534MPD2    H7 7936   0.350   3.052   2.018  0.2639  1.5863 -0.9126
  535TMC3    C1 7937   4.516   2.788   1.585 -0.0488 -0.2465  0.1500
  535TMC3    C2 7938   4.379   2.801   1.585  0.1839  0.0970 -0.9730
  535TMC3    C3 7939   4.321   2.796   1.461  0.4835 -0.1618  0.6536
  535TMC3    C4 7940   4.592   2.790   1.471  0.2260 -0.8031  0.5952
  535TMC3    C5 7941   4.525   2.774   1.350 -0.2054 -0.3136  0.6697
  535TMC3    C6 7942   4.390   2.780   1.343  0.3011  0.5382  0.2186
  535TMC3     C 7943   4.577   2.782   1.718 -0.4711 -0.3391 -0.7143
  535TMC3     O 7944   4.540   2.853   1.808 -0.8409  0.0856  0.5313
  535TMC3     H 7945   4.318   2.810   1.674  1.4047 -0.2028 -0.1054
  535TMC3    H1 7946   4.701   2.792   1.469  0.2237  0.3682  1.3508
  535TMC3    H2 7947   4.346   2.779   1.244 -1.3333 -3.1378  0.9822
  535TMC3    C7 7948   4.594   2.834   1.239 -0.5918  0.0038  0.1189
  535TMC3    C8 7949   4.177   2.805   1.438 -0.4772  0.1421 -1.0127
  535TMC3    O1 7950   4.558   2.817   1.122  0.0053 -0.6044 -0.2074
  535TMC3    O2 7951   4.131   2.748   1.342  0.3348  0.0524  0.2832
  536MPD2     C 7952   3.604   1.115  16.338  0.1936 -1.0395 -1.5324
  536MPD2    C1 7953   3.503   1.019  16.352  0.4174 -0.3134 -0.1888
  536MPD2    C2 7954   3.408   1.007  16.255 -0.2991  0.8946 -0.1752
  536MPD2    C3 7955   3.420   1.082  16.138  0.0611  0.0050 -0.0462
  536MPD2    C4 7956   3.524   1.173  16.122  0.3669 -0.3703  0.4541
  536MPD2    C5 7957   3.611   1.190  16.224 -0.3120 -0.8860 -0.0809
  536MPD2     H 7958   3.346   0.919  16.250  2.7579 -1.2813 -0.1119
  536MPD2    H1 7959   3.546   1.213  16.024 -1.3337  0.3034  0.3511
  536MPD2    H2 7960   3.681   1.119  16.415  1.7435  1.7940 -3.2222
  536MPD2    H3 7961   3.698   1.254  16.208  0.7594 -2.3517 -0.1627
  536MPD2     N 7962   3.333   1.075  16.024 -0.1914 -0.3663  0.0379
  536MPD2    H5 7963   3.341   1.149  15.956 -1.4623  0.1617  0.4626
  536MPD2    N1 7964   3.511   0.935  16.466  0.1840  0.1065 -0.5635
  536MPD2    H7 7965   3.571   0.973  16.538  1.2569 -2.6159 -0.0245
  537TMC3    C1 7966   3.428   0.786  16.629  0.0190  0.1397  0.2932
  537TMC3    C2 7967   3.477   0.871  16.722 -0.4626 -0.0614  0.0657
  537TMC3    C3 7968   3.446   0.857  16.856 -0.3274  0.1767 -0.3230
  537TMC3    C4 7969   3.343   0.679  16.672  0.9625 -0.0016  0.0794
  537TMC3    C5 7970   3.320   0.663  16.805 -0.0999 -0.2523  0.6721
  537TMC3    C6 7971   3.367   0.753  16.902  0.5390 -0.2036 -0.0523
  537TMC3     C 7972   3.419   0.839  16.497  0.0892 -0.3325 -0.5516
  537TMC3     O 7973   3.342   0.776  16.423  0.2432 -0.2399 -0.3909
  537TMC3     H 7974   3.530   0.962  16.697  3.3662 -2.4689 -0.4530
  537TMC3    H1 7975   3.311   0.608  16.596 -0.2050 -1.0955  1.5893
  537TMC3    H2 7976   3.332   0.748  17.004  2.3167 -1.7615  0.4851
  537TMC3    C7 7977   3.173   0.629  16.816 -0.0668  0.4900 -0.3164
  537TMC3    C8 7978   3.485   0.958  16.949  0.7264 -0.2529 -0.4625
  537TMC3    O1 7979   3.103   0.651  16.718 -0.1731 -0.2946  0.4633
  537TMC3    O2 7980   3.506   0.924  17.066 -0.3042  0.4361  0.0701
  538TMC3    C1 7981   0.132   3.862  11.156 -0.1317 -0.3566 -0.2115
  538TMC3    C2 7982   0.158   3.749  11.088  0.2224 -0.2078 -0.3156
  538TMC3    C3 7983   0.067   3.720  10.987 -0.3335  0.7312  1.3327
  538TMC3    C4 7984   0.021   3.932  11.138 -0.3350 -0.1215 -0.2700
  538TMC3    C5 7985   4.654   3.895  11.041 -0.3455  0.0650 -0.0062
  538TMC3    C6 7986   4.674   3.790  10.960 -0.2964 -0.0596 -0.4266
  538TMC3     C 7987   0.199   3.887  11.286 -0.9023 -0.6258 -0.0358
  538TMC3     O 7988   0.137   3.956  11.366  0.0324  1.1281  0.2355
  538TMC3     H 7989   0.252   3.696  11.096 -0.2155 -0.9776 -0.2757
  538TMC3    H1 7990   0.023   4.029  11.185 -0.4570 -0.2023 -0.0962
  538TMC3    H2 7991   4.598   3.764  10.887 -1.3639  0.1755  0.6073
  538TMC3    C7 7992   4.515   3.916  11.083 -0.4496  0.0502  0.8014
  538TMC3    C8 7993   0.133   3.630  10.885 -0.2180 -0.4272 -0.1236
  538TMC3    O1 7994   4.426   3.908  10.998 -0.7780  0.0978  0.0831
  538TMC3    O2 7995   0.173   3.525  10.920 -0.0103  0.3234  0.0278
  539MPD2     C 7996   4.078   2.774  11.972 -0.1093 -0.2335 -0.7821
  539MPD2    C1 7997   4.154   2.791  11.855 -1.0555 -0.2702  0.3429
  539MPD2    C2 7998   4.203   2.913  11.818 -0.4675  0.4785  0.1032
  539MPD2    C3 7999   4.176   3.022  11.891  0.2312 -0.4180 -0.1637
  539MPD2    C4 8000   4.096   3.006  12.003 -1.5737 -0.0021  0.4851
  539MPD2    C5 8001   4.053   2.886  12.045 -0.7655  0.0198  0.3449
  539MPD2     H 8002   4.269   2.916  11.731  0.7617 -1.2589  0.9653
  539MPD2    H1 8003   4.075   3.100  12.053  0.0119  0.3279  0.5321
  539MPD2    H2 8004   4.022   2.686  12.001 -1.4734  0.7075 -0.5994
  539MPD2    H3 8005   3.982   2.886  12.127 -1.5446  2.2718 -0.3251
  539MPD2     N 8006   4.226   3.154  11.865 -0.0938 -0.6609  0.1739
  539MPD2    H5 8007   4.187   3.224  11.927 -1.0163 -0.3218 -0.7805
  539MPD2    N1 8008   4.183   2.682  11.768  0.0696 -0.3356  0.7688
  539MPD2    H7 8009   4.223   2.692  11.675 -2.5672 -0.8432 -0.4372
  540TMC3    C1 8010   4.314   3.325  11.720 -0.5264  0.1592  0.0380
  540TMC3    C2 8011   4.355   3.343  11.583 -0.2673 -0.8860 -0.1000
  540TMC3    C3 8012   4.379   3.475  11.545  0.1189  0.4976  1.0001
  540TMC3    C4 8013   4.309   3.428  11.809 -0.4392 -0.5164 -0.0005
  540TMC3    C5 8014   4.331   3.547  11.763  0.7542 -0.5892 -0.4729
  540TMC3    C6 8015   4.374   3.579  11.636  0.8261 -0.0868  0.2667
  540TMC3     C 8016   4.315   3.185  11.766  0.5691  0.2927 -0.1467
  540TMC3     O 8017   4.391   3.118  11.702  0.1418  0.0340  0.2770
  540TMC3     H 8018   4.351   3.257  11.517  2.0336  0.3244 -1.8208
  540TMC3    H1 8019   4.284   3.398  11.910 -2.1625 -0.3997 -0.3942
  540TMC3    H2 8020   4.365   3.673  11.583 -1.1700  0.3091  1.3091
  540TMC3    C7 8021   4.230   3.645  11.800  0.2869 -0.3675 -0.7570
  540TMC3    C8 8022   4.385   3.517  11.408  0.5374 -0.8835 -0.3932
  540TMC3    O1 8023   4.136   3.601  11.861  0.2885 -0.3982  0.2788
  540TMC3    O2 8024   4.467   3.603  11.386  0.2353  0.4374 -0.1539
  541MPD2     C 8025   2.873   0.050  13.101 -0.4171  0.6586  0.1906
  541MPD2    C1 8026   2.830   4.695  12.991  0.4946 -0.2897 -0.1241
  541MPD2    C2 8027   2.842   0.021  12.866 -0.5253 -0.1540 -0.3216
  541MPD2    C3 8028   2.905   0.138  12.844 -0.1201  0.4184  0.2516
  541MPD2    C4 8029   2.943   0.215  12.950  0.4368 -1.1117 -0.5013
  541MPD2    C5 8030   2.931   0.170  13.074  0.9775 -0.3067 -0.0938
  541MPD2     H 8031   2.824   4.679  12.781 -3.3170 -0.3983  0.4380
  541MPD2    H1 8032   2.987   0.313  12.935 -2.2851  0.0458 -0.9199
  541MPD2    H2 8033   2.872   0.014  13.203  0.4209  0.8025  0.2482
  541MPD2    H3 8034   2.968   0.238  13.149 -0.7349 -0.9341  1.3269
  541MPD2     N 8035   2.905   0.203  12.717  0.3272  0.3281 -0.3784
  541MPD2    H5 8036   2.943   0.294  12.695  0.2601  1.2784  3.3561
  541MPD2    N1 8037   2.794   4.558  12.990 -0.4764 -0.3163 -0.7421
  541MPD2    H7 8038   2.777   4.509  12.903  1.1251  0.3388 -1.4328
  542TMC3    C1 8039   2.850   0.216  12.488 -0.4406  0.1020 -0.1775
  542TMC3    C2 8040   2.861   0.164  12.364 -0.6521 -0.2682 -0.6317
  542TMC3    C3 8041   2.843   0.255  12.256 -0.8455 -0.3744  0.0840
  542TMC3    C4 8042   2.834   0.349  12.512  0.1551 -0.2921  0.3985
  542TMC3    C5 8043   2.831   0.438  12.406 -0.0476  0.4118 -0.4388
  542TMC3    C6 8044   2.816   0.390  12.274  0.5482 -0.0179 -0.0004
  542TMC3     C 8045   2.869   0.136  12.604  0.4725  0.8695  0.7993
  542TMC3     O 8046   2.854   0.017  12.576 -0.0780  0.0933 -0.3466
  542TMC3     H 8047   2.854   0.058  12.340 -2.1353 -0.3799  0.3008
  542TMC3    H1 8048   2.806   0.407  12.600  1.3905 -1.7987  1.7791
  542TMC3    H2 8049   2.815   0.458  12.190  0.1932 -0.2209 -0.1610
  542TMC3    C7 8050   2.769   0.565  12.440  0.1256 -0.4779 -0.1186
  542TMC3    C8 8051   2.877   0.210  12.118 -0.4954  0.0918  0.2060
  542TMC3    O1 8052   2.801   0.633  12.537  0.6978  0.1764 -0.0136
  542TMC3    O2 8053   2.833   0.277  12.025 -0.2300  0.3198  0.6006
  543TMC3    C1 8054   2.055   1.374  17.378 -0.2437  0.4546 -0.0796
  543TMC3    C2 8055   2.084   1.243  17.381 -0.4713 -0.4753  1.0873
  543TMC3    C3 8056   1.997   1.158  17.430 -0.0486  0.0313 -0.1056
  543TMC3    C4 8057   1.938   1.420  17.426  0.5544 -0.5481 -0.0200
  543TMC3    C5 8058   1.846   1.327  17.469  0.3085  0.9235 -1.0770
  543TMC3    C6 8059   1.869   1.193  17.467  0.3185  0.2800 -0.0472
  543TMC3     C 8060   2.105   1.441  17.258  0.2565 -0.0346  0.1246
  543TMC3     O 8061   2.192   1.377  17.204 -0.2231 -0.4459 -0.1234
  543TMC3     H 8062   2.181   1.207  17.349 -0.9045  0.4688 -1.3213
  543TMC3    H1 8063   1.915   1.525  17.441  0.5204 -0.4047 -1.0930
  543TMC3    H2 8064   1.799   1.113  17.488 -0.4471  1.0440  0.3471
  543TMC3    C7 8065   1.713   1.383  17.490  0.1161 -0.0669 -0.2218
  543TMC3    C8 8066   2.021   1.022  17.381 -0.3710 -0.2396  0.1124
  543TMC3    O1 8067   1.641   1.332  17.573  0.0524 -0.0632 -0.3198
  543TMC3    O2 8068   2.085   1.016  17.275 -0.0764 -0.3701 -0.2929
  544MPD2     C 8069   2.021   0.511  17.396  0.3748 -0.5455  0.3656
  544MPD2    C1 8070   2.048   0.599  17.292  0.2959  0.5187  0.3903
  544MPD2    C2 8071   2.017   0.729  17.309 -0.8171 -0.0256 -0.2419
  544MPD2    C3 8072   1.977   0.784  17.430 -0.1215  0.0220  0.8677
  544MPD2    C4 8073   1.954   0.690  17.531 -0.1480  0.0420  0.1107
  544MPD2    C5 8074   1.973   0.558  17.511 -0.0355  0.1486  0.0132
  544MPD2     H 8075   2.038   0.793  17.224  1.2209  1.0154  1.0503
  544MPD2    H1 8076   1.929   0.723  17.631 -2.8093 -3.2333  0.5462
  544MPD2    H2 8077   2.037   0.404  17.385 -0.1596 -0.5889  0.0228
  544MPD2    H3 8078   1.948   0.498  17.598  1.2877 -0.6003 -0.1298
  544MPD2     N 8079   1.966   0.921  17.462 -0.6784 -0.1243 -0.2699
  544MPD2    H5 8080   1.922   0.949  17.549 -1.8867  1.4385 -1.3893
  544MPD2    N1 8081   2.118   0.550  17.178  0.2511  0.4025  0.1669
  544MPD2    H7 8082   2.169   0.465  17.196  1.0111  0.9385  0.5568
  545TMC3    C1 8083   2.229   0.561  16.968 -0.2410 -0.4110 -0.0427
  545TMC3    C2 8084   2.271   0.638  16.861 -0.7654 -0.4075 -0.0627
  545TMC3    C3 8085   2.346   0.573  16.769 -0.1383  0.2509  0.3376
  545TMC3    C4 8086   2.274   0.439  16.992 -0.0435  0.0326 -0.5582
  545TMC3    C5 8087   2.361   0.386  16.909 -0.7122  0.4529 -0.1472
  545TMC3    C6 8088   2.401   0.452  16.795  0.0721  0.3122 -0.1453
  545TMC3     C 8089   2.130   0.620  17.057 -0.0138 -0.0213 -0.0549
  545TMC3     O 8090   2.054   0.708  17.013 -0.0049  0.3342  0.0083
  545TMC3     H 8091   2.225   0.735  16.853 -0.2326 -0.4298 -3.2117
  545TMC3    H1 8092   2.247   0.382  17.080 -0.7752 -1.3135 -1.6356
  545TMC3    H2 8093   2.460   0.408  16.716  0.5148  1.0127 -0.2092
  545TMC3    C7 8094   2.401   0.252  16.932 -0.2211 -0.6924  0.4918
  545TMC3    C8 8095   2.418   0.645  16.656  0.2263  0.1635 -0.1018
  545TMC3    O1 8096   2.422   0.178  16.838  0.0965  0.1067  0.2178
  545TMC3    O2 8097   2.533   0.608  16.635 -0.1953  0.0772 -0.1248
  546MPD2     C 8098   3.766   1.474   0.018  0.3464 -0.2299  0.3990
  546MPD2    C1 8099   3.694   1.520  17.598 -0.6397 -0.7323  0.5547
  546MPD2    C2 8100   3.716   1.652  17.570  0.2590  0.5319 -0.4225
  546MPD2    C3 8101   3.789   1.735  17.637  0.5774  0.3706  0.5086
  546MPD2    C4 8102   3.866   1.685   0.041  0.3972  1.1249  0.7291
  546MPD2    C5 8103   3.860   1.554   0.080 -0.2432 -0.1038 -0.1245
  546MPD2     H 8104   3.662   1.693  17.485 -0.6892  0.7875  0.3064
  546MPD2    H1 8105   3.933   1.752   0.095  0.6198  1.5036 -0.0119
  546MPD2    H2 8106   3.741   1.377   0.060 -1.6932  0.2638  0.3109
  546MPD2    H3 8107   3.913   1.517   0.167  1.3976  2.7201  0.0535
  546MPD2     N 8108   3.805   1.872  17.616 -0.2760  0.3131 -0.1325
  546MPD2    H5 8109   3.849   1.930  17.686 -2.1247  1.3914  0.1347
  546MPD2    N1 8110   3.596   1.433  17.541 -0.0695 -0.3995 -0.2650
  546MPD2    H7 8111   3.595   1.340  17.582  1.4895  0.3385  1.4276
  547TMC3    C1 8112   3.411   1.364  17.408 -0.2870 -0.1057 -0.1667
  547TMC3    C2 8113   3.318   1.390  17.316  0.0894 -0.2370 -0.1696
  547TMC3    C3 8114   3.205   1.311  17.307  0.0451  0.2316 -0.2245
  547TMC3    C4 8115   3.406   1.249  17.481 -0.0038  0.1520  0.7888
  547TMC3    C5 8116   3.289   1.173  17.474  0.9485 -0.0463 -0.7803
  547TMC3    C6 8117   3.188   1.196  17.381  0.3120 -0.2484 -0.6774
  547TMC3     C 8118   3.509   1.476  17.442 -0.2282 -0.5758 -0.2380
  547TMC3     O 8119   3.496   1.583  17.382  0.6164  0.4503  0.0270
  547TMC3     H 8120   3.328   1.483  17.260  2.5666  0.5868  1.6676
  547TMC3    H1 8121   3.486   1.221  17.549  0.1840  1.3032  1.0359
  547TMC3    H2 8122   3.098   1.137  17.385  0.2454 -0.0793  0.4635
  547TMC3    C7 8123   3.255   1.071  17.569  0.0036 -0.5908  1.1122
  547TMC3    C8 8124   3.139   1.314  17.183  0.1907 -0.0692 -0.3889
  547TMC3    O1 8125   3.139   1.063  17.604 -0.1572 -0.2349  0.2496
  547TMC3    O2 8126   3.098   1.424  17.147 -0.4413  0.1354  0.7158
  548MPD2     C 8127   3.273   1.960  12.464  0.3761  0.0542 -0.0931
  548MPD2    C1 8128   3.245   1.829  12.480  0.1643  0.2617 -0.1224
  548MPD2    C2 8129   3.326   1.736  12.413 -0.7197 -0.9363 -0.3440
  548MPD2    C3 8130   3.422   1.780  12.321  0.1450 -0.3660  0.1735
  548MPD2    C4 8131   3.434   1.911  12.297 -0.1018 -0.1371  0.2292
  548MPD2    C5 8132   3.366   2.001  12.371  0.3985 -0.2893  0.1462
  548MPD2     H 8133   3.321   1.630  12.432  0.4922 -0.7174  1.2384
  548MPD2    H1 8134   3.512   1.947  12.232 -0.6641  0.7269  0.0374
  548MPD2    H2 8135   3.241   2.038  12.532 -0.4293 -0.8063  0.5089
  548MPD2    H3 8136   3.396   2.105  12.367 -2.1703  0.4560  0.0705
  548MPD2     N 8137   3.501   1.686  12.243  0.1062  0.9492  0.4646
  548MPD2    H5 8138   3.497   1.592  12.282  1.3835  0.8191  0.2604
  548MPD2    N1 8139   3.154   1.796  12.582 -0.1121  0.2866  0.0036
  548MPD2    H7 8140   3.106   1.874  12.626  0.1803  1.1226 -1.1593
  549TMC3    C1 8141   3.002   1.676  12.703 -0.6333  0.9575  0.2838
  549TMC3    C2 8142   2.915   1.784  12.710  0.2562  0.1904 -0.0371
  549TMC3    C3 8143   2.816   1.778  12.804  0.4862 -0.4933 -0.5305
  549TMC3    C4 8144   2.984   1.556  12.777  0.4220  1.0828  0.9212
  549TMC3    C5 8145   2.862   1.549  12.840  0.1165 -0.2371 -0.5550
  549TMC3    C6 8146   2.781   1.661  12.862  0.5377 -0.1558  0.3072
  549TMC3     C 8147   3.116   1.674  12.614 -0.3364 -0.2902  0.0624
  549TMC3     O 8148   3.142   1.567  12.562  0.0003  0.5121  0.3825
  549TMC3     H 8149   2.926   1.874  12.650 -0.0979 -0.0331 -0.4422
  549TMC3    H1 8150   3.051   1.471  12.776 -0.0939  0.6930  0.2489
  549TMC3    H2 8151   2.684   1.649  12.908  0.2964  1.7423  0.3131
  549TMC3    C7 8152   2.792   1.421  12.848  0.4671 -0.3586  0.0485
  549TMC3    C8 8153   2.707   1.875  12.787 -0.3616  0.2265 -0.3852
  549TMC3    O1 8154   2.678   1.426  12.895  0.0668  0.1105 -0.2922
  549TMC3    O2 8155   2.644   1.895  12.893  0.0056 -0.1364 -0.0999
  550TMC3    C1 8156   2.130   4.055  12.225 -0.5716  0.3401  0.1649
  550TMC3    C2 8157   2.218   4.128  12.301  0.7140 -0.3540  0.6936
  550TMC3    C3 8158   2.158   4.192  12.412  0.0075  0.3902  0.3532
  550TMC3    C4 8159   2.003   4.012  12.261 -0.2897  0.4691  0.2145
  550TMC3    C5 8160   1.956   4.069  12.373 -0.2980 -0.4988  0.2725
  550TMC3    C6 8161   2.020   4.171  12.437  0.8808  0.2394 -0.4901
  550TMC3     C 8162   2.185   4.007  12.100  0.0134 -0.2876 -0.0241
  550TMC3     O 8163   2.301   3.997  12.079  0.1128  0.5442 -0.3703
  550TMC3     H 8164   2.318   4.156  12.267  0.2266 -0.7201 -1.0480
  550TMC3    H1 8165   1.948   3.947  12.194  1.7879 -2.3687  1.2847
  550TMC3    H2 8166   1.983   4.214  12.530 -0.3664 -1.3111 -0.2636
  550TMC3    C7 8167   1.819   4.113  12.368 -0.2519  0.3443  0.3237
  550TMC3    C8 8168   2.222   4.300  12.490  0.0915  0.1610  0.4317
  550TMC3    O1 8169   1.795   4.225  12.403  0.3283 -0.1839 -0.1724
  550TMC3    O2 8170   2.166   4.336  12.594  0.3891  0.0868 -0.1975
  551TMC3    C1 8171   4.130   2.223  13.271 -0.2479 -0.3305  0.1664
  551TMC3    C2 8172   4.251   2.195  13.213 -0.2386  0.3996  1.2366
  551TMC3    C3 8173   4.348   2.286  13.228 -0.4565  0.4399 -0.2065
  551TMC3    C4 8174   4.107   2.325  13.355  0.5225  0.1927  0.4962
  551TMC3    C5 8175   4.207   2.411  13.371 -0.2043 -0.2483  0.3414
  551TMC3    C6 8176   4.321   2.395  13.304 -0.5361 -0.0860 -0.1721
  551TMC3     C 8177   4.024   2.147  13.213  0.2463 -0.5416 -0.5066
  551TMC3     O 8178   4.056   2.087  13.113  0.0094  0.3868  0.2423
  551TMC3     H 8179   4.268   2.104  13.157 -0.1774  0.8864  0.4625
  551TMC3    H1 8180   4.010   2.343  13.400  0.3312  1.7989 -0.5525
  551TMC3    H2 8181   4.407   2.458  13.324  1.3478 -2.3260 -1.0847
  551TMC3    C7 8182   4.206   2.497  13.490 -0.1438 -0.4621  0.0325
  551TMC3    C8 8183   4.459   2.284  13.134  0.6774  0.3757 -0.1941
  551TMC3    O1 8184   4.304   2.565  13.513 -0.5899  0.5197  0.1464
  551TMC3    O2 8185   4.487   2.177  13.076  0.3641 -0.6890 -0.1235
  552MPD2     C 8186   1.427   4.532  13.952  0.2670  0.4690  0.0495
  552MPD2    C1 8187   1.427   4.401  13.994  0.0177 -0.5877 -0.6728
  552MPD2    C2 8188   1.537   4.349  14.060  0.2797  0.5927  0.1168
  552MPD2    C3 8189   1.658   4.419  14.076 -0.1460 -0.2296  0.8304
  552MPD2    C4 8190   1.648   4.552  14.040  0.4059 -0.0701  0.4273
  552MPD2    C5 8191   1.534   4.604  13.989 -0.4631  0.2691  0.1807
  552MPD2     H 8192   1.537   4.244  14.090  0.0499  1.3181  2.6745
  552MPD2    H1 8193   1.736   4.611  14.064 -0.1002  1.3464 -1.2424
  552MPD2    H2 8194   1.333   4.575  13.921  0.1481  0.4756  0.4194
  552MPD2    H3 8195   1.537   4.711  13.971  0.9398  0.2247  0.1579
  552MPD2     N 8196   1.781   4.364  14.129  0.3123 -0.2766 -0.0038
  552MPD2    H5 8197   1.868   4.416  14.120  0.3517 -0.5999 -1.4704
  552MPD2    N1 8198   1.323   4.314  13.965  0.0574 -0.5487  0.3936
  552MPD2    H7 8199   1.334   4.222  14.007 -1.7021 -0.0991  1.8525
  553TMC3    C1 8200   1.131   4.224  13.872 -0.3186 -0.2984 -0.4870
  553TMC3    C2 8201   1.033   4.235  13.772 -0.3954 -0.3415  0.1381
  553TMC3    C3 8202   1.018   4.126  13.691  0.1507  0.0661 -0.2153
  553TMC3    C4 8203   1.182   4.102  13.912 -0.8067 -0.8642 -0.6285
  553TMC3    C5 8204   1.143   3.988  13.839  0.3595 -0.2783  0.3267
  553TMC3    C6 8205   1.068   4.007  13.732 -0.5184 -0.4617 -0.1777
  553TMC3     C 8206   1.207   4.342  13.899 -0.2121 -0.0933 -0.5143
  553TMC3     O 8207   1.175   4.441  13.829  0.2052  0.5377  0.2158
  553TMC3     H 8208   0.997   4.329  13.732 -2.6285 -1.3689 -0.3196
  553TMC3    H1 8209   1.233   4.102  14.008 -0.8029 -1.3425 -0.6287
  553TMC3    H2 8210   1.052   3.920  13.670  0.7465 -1.2865  0.6416
  553TMC3    C7 8211   1.252   3.891  13.827  0.8039 -0.0804  0.1984
  553TMC3    C8 8212   1.059   4.144  13.555  0.3075  0.5102  0.2066
  553TMC3    O1 8213   1.309   3.888  13.718 -0.4217  0.0630 -0.3468
  553TMC3    O2 8214   0.976   4.181  13.474 -0.1544 -0.1406 -0.1784
  554TMC3    C1 8215   2.936   2.883  11.587 -0.0587  0.4550  0.3800
  554TMC3    C2 8216   2.882   2.836  11.476  0.2829 -0.1336  0.0225
  554TMC3    C3 8217   2.913   2.905  11.361 -0.5895 -0.9762 -1.0178
  554TMC3    C4 8218   3.008   3.002  11.597 -0.1680  0.8167  0.2886
  554TMC3    C5 8219   3.032   3.072  11.481  0.1789  0.2816 -0.1764
  554TMC3    C6 8220   2.981   3.026  11.364  0.2819 -0.1578  0.2784
  554TMC3     C 8221   2.913   2.811  11.711 -0.0798  0.6630 -0.0038
  554TMC3     O 8222   2.814   2.742  11.711 -0.4316 -0.1060  0.4968
  554TMC3     H 8223   2.821   2.746  11.475  2.3795 -1.5489  0.5447
  554TMC3    H1 8224   3.030   3.049  11.692  2.2954  0.5195 -0.1311
  554TMC3    H2 8225   3.000   3.086  11.275  0.5154 -0.1331  0.3446
  554TMC3    C7 8226   3.145   3.162  11.476 -0.7670  1.1943  0.4045
  554TMC3    C8 8227   2.834   2.876  11.243  0.2641  0.2533 -0.7939
  554TMC3    O1 8228   3.179   3.195  11.363 -0.1464 -0.7553 -0.1367
  554TMC3    O2 8229   2.731   2.816  11.262  0.2713  0.0442 -0.0896
  555TMC3    C1 8230   2.335   2.964  15.262 -0.2502  0.3301 -0.1371
  555TMC3    C2 8231   2.354   3.036  15.374 -0.0125 -0.5022 -0.1086
  555TMC3    C3 8232   2.390   2.963  15.486  0.0274  0.1220 -0.2762
  555TMC3    C4 8233   2.360   2.829  15.258  0.5789  0.1202 -1.1692
  555TMC3    C5 8234   2.402   2.765  15.373  0.3976  0.4510  0.2410
  555TMC3    C6 8235   2.431   2.834  15.491 -0.4928  0.3421  0.1237
  555TMC3     C 8236   2.262   3.017  15.144  0.1793  0.1318 -0.2441
  555TMC3     O 8237   2.208   2.933  15.070  0.2140  0.2952  0.3592
  555TMC3     H 8238   2.322   3.140  15.382 -0.9300 -0.9655  2.2706
  555TMC3    H1 8239   2.345   2.776  15.164  1.2839 -3.1882  0.5917
  555TMC3    H2 8240   2.443   2.788  15.588  1.7767 -1.4994 -1.0337
  555TMC3    C7 8241   2.414   2.623  15.373  0.6529  0.7401  0.0737
  555TMC3    C8 8242   2.367   3.026  15.614 -0.4688 -0.3454 -0.2382
  555TMC3    O1 8243   2.389   2.558  15.471  0.4493 -0.8925 -0.3374
  555TMC3    O2 8244   2.285   3.118  15.610 -0.0990  0.3455 -0.5375
  556MPD2     C 8245   0.295   4.661  10.067 -0.1670  0.0802 -0.0411
  556MPD2    C1 8246   0.295   4.581  10.178  0.9850  0.4434 -0.3897
  556MPD2    C2 8247   0.267   4.447  10.174 -0.3634 -0.1964 -0.1081
  556MPD2    C3 8248   0.218   4.396  10.055 -0.7558  0.8974 -1.1487
  556MPD2    C4 8249   0.190   4.481   9.953  0.5576  0.2939 -0.7358
  556MPD2    C5 8250   0.238   4.609   9.961 -0.1340  0.6451 -0.0273
  556MPD2     H 8251   0.285   4.386  10.262 -0.4687  0.3109  0.2699
  556MPD2    H1 8252   0.127   4.454   9.870 -1.2148 -0.2257  0.7719
  556MPD2    H2 8253   0.339   0.037  10.069  0.1946 -0.1091  1.4119
  556MPD2    H3 8254   0.214   4.682   9.884 -0.3243 -0.0395 -0.6207
  556MPD2     N 8255   0.187   4.263  10.055  0.6020  0.8841  0.1633
  556MPD2    H5 8256   0.167   4.222  10.146 -0.6656 -0.8263 -0.9055
  556MPD2    N1 8257   0.337   4.624  10.302  0.0350 -0.0182  0.7139
  556MPD2    H7 8258   0.329   4.556  10.377  0.6613 -0.6609  0.1877
  557TMC3    C1 8259   0.146   4.047   9.985 -0.5113  0.0261  0.3307
  557TMC3    C2 8260   0.057   3.984   9.901  0.1829  0.0620 -0.3032
  557TMC3    C3 8261   0.041   3.854   9.926 -0.7388  0.9052  0.5581
  557TMC3    C4 8262   0.191   3.998  10.101 -0.1947 -0.8049 -0.4965
  557TMC3    C5 8263   0.169   3.866  10.127 -0.2079 -0.8474 -0.1412
  557TMC3    C6 8264   0.089   3.793  10.043 -0.4278 -0.1664  0.8312
  557TMC3     C 8265   0.174   4.183   9.948  0.4330 -0.2409  0.2068
  557TMC3     O 8266   0.178   4.207   9.828  0.5752  0.2185 -0.3317
  557TMC3     H 8267   0.020   4.032   9.811 -0.2781 -0.3961 -0.3599
  557TMC3    H1 8268   0.271   4.041  10.160 -0.6824 -0.0312 -0.4142
  557TMC3    H2 8269   0.033   3.705  10.071  0.9427 -0.5588  2.3657
  557TMC3    C7 8270   0.177   3.836  10.268 -0.1937 -0.1576  0.2552
  557TMC3    C8 8271   4.644   3.790   9.867 -0.8051  0.1265 -0.3529
  557TMC3    O1 8272   0.159   3.933  10.341 -0.1663 -0.5835 -0.0384
  557TMC3    O2 8273   4.554   3.856   9.830 -0.1872 -0.1950  0.1626
  558TMC3    C1 8274   3.320   2.527  10.355  0.1957 -0.2305 -0.8868
  558TMC3    C2 8275   3.195   2.503  10.378 -0.2015 -0.4870  0.0896
  558TMC3    C3 8276   3.101   2.573  10.311  0.0023  0.2091 -0.0112
  558TMC3    C4 8277   3.357   2.601  10.243 -0.4648 -0.6892  0.3850
  558TMC3    C5 8278   3.258   2.669  10.176  0.6804 -0.4883  0.5801
  558TMC3    C6 8279   3.123   2.657  10.205 -0.8838  0.5650  0.4897
  558TMC3     C 8280   3.425   2.490  10.456 -0.3675  0.0823 -0.1068
  558TMC3     O 8281   3.537   2.535  10.440  0.4874 -0.2011  0.4793
  558TMC3     H 8282   3.176   2.449  10.470 -1.9885  0.3441  0.2155
  558TMC3    H1 8283   3.460   2.607  10.212 -0.6680  0.2022 -0.1372
  558TMC3    H2 8284   3.050   2.699  10.137 -0.9832  0.9959  0.8660
  558TMC3    C7 8285   3.307   2.711  10.044  0.0519  0.0598  0.9918
  558TMC3    C8 8286   2.956   2.541  10.311 -0.0970 -0.6799 -0.3907
  558TMC3    O1 8287   3.405   2.783  10.039 -0.4309  0.8213 -0.6431
  558TMC3    O2 8288   2.880   2.613  10.254  0.6845 -0.0907  0.4702
  559MPD2     C 8289   3.168   2.901  10.452 -0.7254 -0.2683  0.1524
  559MPD2    C1 8290   3.092   2.839  10.548  0.2679  0.3092 -0.2495
  559MPD2    C2 8291   3.152   2.791  10.663 -0.1807 -0.1509 -0.0699
  559MPD2    C3 8292   3.285   2.803  10.685  0.6728  0.1932 -0.2392
  559MPD2    C4 8293   3.362   2.866  10.596 -0.1037 -0.0216  0.7729
  559MPD2    C5 8294   3.304   2.912  10.479 -0.3860  0.2693  0.0993
  559MPD2     H 8295   3.101   2.738  10.742 -0.2691  0.2721  0.1600
  559MPD2    H1 8296   3.470   2.870  10.609  0.0388  1.2826 -0.8781
  559MPD2    H2 8297   3.119   2.945  10.366  3.2943  1.6006 -1.1593
  559MPD2    H3 8298   3.371   2.950  10.403 -0.0677  2.1150  1.3259
  559MPD2     N 8299   3.334   2.743  10.806  0.1065  0.1502 -0.7420
  559MPD2    H5 8300   3.272   2.692  10.868  1.2938 -1.6215 -1.0218
  559MPD2    N1 8301   2.956   2.824  10.522 -0.1377  0.2178 -0.3078
  559MPD2    H7 8302   2.921   2.851  10.431 -0.5337  1.5577  0.2393
  560TMC3    C1 8303   3.480   2.675  10.976  0.1551 -0.0577  0.0373
  560TMC3    C2 8304   3.400   2.563  10.995 -0.1867 -0.5879 -0.6355
  560TMC3    C3 8305   3.396   2.497  11.118  0.3216  0.0811  0.7534
  560TMC3    C4 8306   3.564   2.721  11.075  0.4863  0.1303 -0.3148
  560TMC3    C5 8307   3.555   2.653  11.199  0.8328 -0.4234  0.0235
  560TMC3    C6 8308   3.467   2.547  11.225 -0.1402  0.2819 -0.0811
  560TMC3     C 8309   3.467   2.754  10.856 -0.1922 -0.2171  0.5653
  560TMC3     O 8310   3.556   2.827  10.831  0.3105 -0.4347  0.4177
  560TMC3     H 8311   3.334   2.532  10.915 -0.7916  0.9217 -0.7199
  560TMC3    H1 8312   3.618   2.813  11.059 -2.0015  1.6753  0.1780
  560TMC3    H2 8313   3.475   2.498  11.321  0.2658 -0.5664 -0.5544
  560TMC3    C7 8314   3.643   2.703  11.307  0.0998 -0.2587  0.0914
  560TMC3    C8 8315   3.288   2.395  11.147 -0.1961 -0.0878 -0.8637
  560TMC3    O1 8316   3.629   2.658  11.419 -0.5216  0.1243  0.9118
  560TMC3    O2 8317   3.207   2.383  11.056  0.2477 -0.3813 -0.0273
  561TMC3    C1 8318   1.011   1.670  10.933  0.6294  0.7735 -0.0766
  561TMC3    C2 8319   1.021   1.604  11.049 -0.3806  0.5240  0.0917
  561TMC3    C3 8320   0.959   1.654  11.160  0.0687  0.4094 -0.6063
  561TMC3    C4 8321   0.966   1.794  10.922  0.4408 -0.4447 -0.2994
  561TMC3    C5 8322   0.906   1.845  11.035 -0.0251 -0.0504  0.2495
  561TMC3    C6 8323   0.890   1.771  11.149 -0.3793  0.9316 -0.1134
  561TMC3     C 8324   1.068   1.613  10.815 -0.1418 -0.0479  0.5483
  561TMC3     O 8325   1.021   1.660  10.712 -0.7012 -0.0312  0.2916
  561TMC3     H 8326   1.077   1.511  11.054 -1.9074 -0.4501 -1.0316
  561TMC3    H1 8327   0.975   1.846  10.828  0.6781  0.9866  0.5179
  561TMC3    H2 8328   0.838   1.826  11.226 -0.2608  1.3281 -0.3166
  561TMC3    C7 8329   0.896   1.993  11.048 -0.4108 -0.0840 -0.1150
  561TMC3    C8 8330   0.950   1.563  11.275  0.3825  0.0419 -0.7596
  561TMC3    O1 8331   0.817   2.036  11.131 -0.0160  0.0152 -0.0088
  561TMC3    O2 8332   0.997   1.448  11.274  0.1442 -0.2315  0.1197
  562TMC3    C1 8333   2.134   3.510  16.442  0.1575 -0.1222 -0.4289
  562TMC3    C2 8334   2.085   3.585  16.336  0.3399  0.5204 -0.7114
  562TMC3    C3 8335   2.079   3.514  16.219 -0.0526  0.7960  0.5360
  562TMC3    C4 8336   2.162   3.378  16.439  0.2455 -0.0856 -0.2906
  562TMC3    C5 8337   2.155   3.315  16.315 -0.6472 -0.4770  0.0535
  562TMC3    C6 8338   2.104   3.387  16.211  0.1969  0.5854 -0.3926
  562TMC3     C 8339   2.167   3.586  16.560 -0.4735 -0.0853 -0.4264
  562TMC3     O 8340   2.105   3.689  16.578  0.0182 -0.1057 -0.5453
  562TMC3     H 8341   2.071   3.692  16.347 -2.2814  0.3030 -1.9745
  562TMC3    H1 8342   2.176   3.317  16.527 -2.5422  0.8244  0.7655
  562TMC3    H2 8343   2.077   3.341  16.117  0.8530  0.4270 -0.5029
  562TMC3    C7 8344   2.114   3.177  16.319 -0.1574  0.3956  0.4351
  562TMC3    C8 8345   2.006   3.571  16.110 -0.6616  0.0683  0.2321
  562TMC3    O1 8346   2.017   3.155  16.245  0.7518 -0.4831 -0.2587
  562TMC3    O2 8347   1.909   3.635  16.148  0.5565  0.3170 -0.5007
  563MPD2     C 8348   4.095   0.023  15.411  0.1963  0.1030 -0.5359
  563MPD2    C1 8349   4.131   4.722  15.545  0.4001 -0.1213 -0.0592
  563MPD2    C2 8350   4.255   4.664  15.575 -0.4363 -0.5087  0.4891
  563MPD2    C3 8351   4.352   4.657  15.479 -0.4300  0.3834 -0.4194
  563MPD2    C4 8352   4.309   4.655  15.348  0.7848 -0.0274  0.6797
  563MPD2    C5 8353   4.189   4.707  15.318 -0.3512  0.2356 -0.0276
  563MPD2     H 8354   4.279   4.665  15.680  3.2810  3.0181 -0.4336
  563MPD2    H1 8355   4.370   4.650  15.259 -1.5751 -0.5040 -0.8961
  563MPD2    H2 8356   4.006   0.078  15.384 -0.0502 -0.4308 -0.8260
  563MPD2    H3 8357   4.171   0.014  15.216 -0.1635  2.7160  0.6821
  563MPD2     N 8358   4.478   4.619  15.522  0.2839 -0.1446 -0.6075
  563MPD2    H5 8359   4.491   4.618  15.623 -6.3848  1.8236  0.2083
  563MPD2    N1 8360   4.058   0.047  15.651 -0.0537  0.4538  0.1502
  563MPD2    H7 8361   4.101   0.026  15.740 -2.7140  0.7068  1.4993
  564TMC3    C1 8362   3.888   0.128  15.784  0.5207  0.0116 -0.4108
  564TMC3    C2 8363   3.763   0.073  15.811 -0.6526 -0.8291 -0.1319
  564TMC3    C3 8364   3.747   0.009  15.932  0.1439  0.5639  0.3729
  564TMC3    C4 8365   3.988   0.119  15.868 -0.2790 -0.2509 -0.6800
  564TMC3    C5 8366   3.976   0.045  15.981 -0.1055  0.1507 -0.2156
  564TMC3    C6 8367   3.854   4.719  16.016  0.2915  0.5473  0.3954
  564TMC3     C 8368   3.931   0.109  15.645 -0.5449  0.1523  0.5564
  564TMC3     O 8369   3.847   0.087  15.558 -0.4168 -0.5077  0.3913
  564TMC3     H 8370   3.676   0.088  15.748 -1.5828  0.0111  1.3422
  564TMC3    H1 8371   4.081   0.173  15.854 -1.3687  1.8451  0.0637
  564TMC3    H2 8372   3.839   4.660  16.106  0.4855  2.2354  1.5344
  564TMC3    C7 8373   4.088   4.672  15.986  0.1948 -0.2134 -0.2587
  564TMC3    C8 8374   3.651   4.620  15.952 -0.5156 -1.2218  0.2000
  564TMC3    O1 8375   4.184   4.700  15.914 -0.2434  0.5066  0.0515
  564TMC3    O2 8376   3.608   4.619  16.065  0.5039  0.5350  0.8397
  565TMC3    C1 8377   0.227   0.396   9.263 -0.3926 -0.1425  0.4113
  565TMC3    C2 8378   0.188   0.511   9.321  0.9082 -0.2960 -0.3258
  565TMC3    C3 8379   0.055   0.519   9.362 -0.2589 -0.2060  0.4219
  565TMC3    C4 8380   0.149   0.287   9.253 -0.6971  0.5729  0.4039
  565TMC3    C5 8381   0.024   0.296   9.301  0.1859  0.0057 -0.3304
  565TMC3    C6 8382   4.685   0.414   9.345  0.2295 -0.8710 -0.4653
  565TMC3     C 8383   0.362   0.407   9.218 -0.3100  0.1158  0.0150
  565TMC3     O 8384   0.419   0.505   9.252 -0.4898 -0.0277 -0.2536
  565TMC3     H 8385   0.255   0.593   9.345 -0.6480  0.7838  0.3690
  565TMC3    H1 8386   0.189   0.193   9.215  0.4176  1.1474  0.1560
  565TMC3    H2 8387   4.594   0.416   9.403  1.5408 -3.3347  1.7196
  565TMC3    C7 8388   4.650   0.195   9.276 -0.1688  0.5002 -0.4502
  565TMC3    C8 8389   0.022   0.632   9.448 -0.2962  0.3898 -0.3145
  565TMC3    O1 8390   4.690   0.088   9.236  0.4488  0.0429  0.6731
  565TMC3    O2 8391   4.670   0.615   9.543  0.5826 -0.2293 -0.4227
  566MPD2     C 8392   1.735   2.617  14.244 -0.1698 -0.3086  0.6968
  566MPD2    C1 8393   1.775   2.666  14.119 -0.7862 -0.3960 -0.0923
  566MPD2    C2 8394   1.695   2.648  14.010 -0.1170 -0.1387 -0.8030
  566MPD2    C3 8395   1.586   2.567  14.012 -0.1688 -1.0715  0.6873
  566MPD2    C4 8396   1.545   2.517  14.134 -0.0663 -0.4511  0.4056
  566MPD2    C5 8397   1.620   2.536  14.245 -0.0096 -0.0292 -0.4029
  566MPD2     H 8398   1.705   2.710  13.922  2.3390  0.8792  0.1881
  566MPD2    H1 8399   1.450   2.466  14.145 -1.3388  1.1682 -3.1639
  566MPD2    H2 8400   1.800   2.622  14.330  0.9159 -3.6774  0.0717
  566MPD2    H3 8401   1.590   2.484  14.336 -0.2887 -2.2089 -1.7561
  566MPD2     N 8402   1.509   2.563  13.893  0.9889  0.3105 -0.2405
  566MPD2    H5 8403   1.548   2.619  13.818  0.6833  0.1113 -0.5460
  566MPD2    N1 8404   1.897   2.736  14.115  0.2403  0.0603  0.7072
  566MPD2    H7 8405   1.954   2.735  14.199  0.4448 -0.2866  0.5646
  567TMC3    C1 8406   2.093   2.813  14.007 -0.0082 -0.4773 -0.4014
  567TMC3    C2 8407   2.174   2.799  13.897 -0.4624 -0.6029 -0.4701
  567TMC3    C3 8408   2.297   2.847  13.901  0.0858  0.0668  0.0596
  567TMC3    C4 8409   2.139   2.861  14.126 -0.3620 -0.0309  0.3531
  567TMC3    C5 8410   2.268   2.902  14.124 -0.2082 -0.6751  0.3858
  567TMC3    C6 8411   2.342   2.907  14.013 -0.3905 -0.1777 -0.7768
  567TMC3     C 8412   1.960   2.762  13.998  0.7125 -0.2746 -0.1205
  567TMC3     O 8413   1.916   2.752  13.887  0.3110 -0.1331 -0.1017
  567TMC3     H 8414   2.119   2.754  13.815  1.1271 -1.1914 -1.2139
  567TMC3    H1 8415   2.082   2.881  14.217 -0.0876 -0.8413  0.7023
  567TMC3    H2 8416   2.439   2.955  14.013  0.5391 -2.0562  0.7194
  567TMC3    C7 8417   2.340   2.911  14.248  0.0672 -0.5480 -0.3716
  567TMC3    C8 8418   2.338   2.898  13.771 -0.8902  0.5910  0.1546
  567TMC3    O1 8419   2.456   2.949  14.247 -0.2343  0.1041 -0.0300
  567TMC3    O2 8420   2.404   2.999  13.770  0.1152 -0.5562  0.3737
  568MPD2     C 8421   4.308   3.610  16.780  0.1046 -0.0883 -0.1904
  568MPD2    C1 8422   4.172   3.620  16.799  0.4943  0.1547 -0.2240
  568MPD2    C2 8423   4.105   3.725  16.741 -0.4149  0.5083  0.5032
  568MPD2    C3 8424   4.170   3.817  16.659 -0.0041  0.2058  0.0245
  568MPD2    C4 8425   4.305   3.808  16.644 -0.1435 -0.2678  0.1476
  568MPD2    C5 8426   4.374   3.706  16.707 -0.8033  0.0438  0.6017
  568MPD2     H 8427   3.999   3.741  16.762 -1.1935 -1.7973 -1.5820
  568MPD2    H1 8428   4.358   3.877  16.579 -0.4213 -1.5760 -1.4718
  568MPD2    H2 8429   4.368   3.536  16.831 -0.6630 -0.0674  0.7438
  568MPD2    H3 8430   4.479   3.700  16.683 -0.7122 -1.2634  1.3039
  568MPD2     N 8431   4.097   3.929  16.604  0.3137 -0.8592 -0.4720
  568MPD2    H5 8432   3.996   3.930  16.617  0.2395 -3.0923 -0.9260
  568MPD2    N1 8433   4.113   3.522  16.886  0.8459  0.6142  0.2574
  568MPD2    H7 8434   4.167   3.440  16.912  1.0579  0.3661 -0.9674
  569TMC3    C1 8435   4.055   4.133  16.502 -0.6223 -0.0519 -0.8487
  569TMC3    C2 8436   4.077   4.269  16.502  0.3131 -0.0493 -0.0721
  569TMC3    C3 8437   3.980   4.339  16.439 -0.2822 -0.2650  0.1559
  569TMC3    C4 8438   3.951   4.064  16.442  0.0358  0.5273 -0.4486
  569TMC3    C5 8439   3.846   4.148  16.390 -0.4598 -0.2664 -0.2125
  569TMC3    C6 8440   3.860   4.283  16.396  0.6090 -0.1495 -0.0262
  569TMC3     C 8441   4.161   4.045  16.551  0.3510  0.4775  0.5498
  569TMC3     O 8442   4.277   4.086  16.551 -0.3075 -0.6950  0.9996
  569TMC3     H 8443   4.175   4.310  16.522 -0.1133  0.9846 -0.0927
  569TMC3    H1 8444   3.952   3.961  16.410 -0.1015  0.6585 -0.8651
  569TMC3    H2 8445   3.800   4.348  16.333  0.9210  1.8989  1.7839
  569TMC3    C7 8446   3.763   4.090  16.284  0.4956 -0.4064  0.6871
  569TMC3    C8 8447   4.009   4.476  16.381 -0.0812 -0.5666 -0.0515
  569TMC3    O1 8448   3.781   3.973  16.254 -0.0168 -0.0525  0.5939
  569TMC3    O2 8449   3.945   4.524  16.287 -0.0117  0.3091  0.0935
  570TMC3    C1 8450   3.511   2.283  16.367  0.6657  0.2513  0.2410
  570TMC3    C2 8451   3.607   2.310  16.275  0.2002  0.1495  0.1075
  570TMC3    C3 8452   3.613   2.443  16.235  0.1114 -0.5917 -0.0987
  570TMC3    C4 8453   3.441   2.379  16.438 -0.0724  0.4177  1.0066
  570TMC3    C5 8454   3.441   2.508  16.393 -0.4691  0.1851  0.6034
  570TMC3    C6 8455   3.528   2.536  16.291  0.0967 -0.1951 -0.2319
  570TMC3     C 8456   3.503   2.147  16.402  0.3081  0.0386  0.1607
  570TMC3     O 8457   3.534   2.051  16.333 -0.3227  0.0186  0.3991
  570TMC3     H 8458   3.662   2.229  16.228  1.1652  1.5255 -1.1391
  570TMC3    H1 8459   3.376   2.353  16.520 -0.0866 -0.7422  0.6249
  570TMC3    H2 8460   3.535   2.641  16.262  1.5009  0.2075  1.5705
  570TMC3    C7 8461   3.424   2.609  16.494  0.3040 -0.5808 -0.1296
  570TMC3    C8 8462   3.710   2.500  16.143  0.6752 -0.2242  0.0838
  570TMC3    O1 8463   3.503   2.705  16.502 -0.4761 -0.0588 -0.0241
  570TMC3    O2 8464   3.727   2.626  16.143  0.0341 -0.4871 -0.2456
  571MPD2     C 8465   1.621   3.926  16.615  0.0069 -0.4929  0.4184
  571MPD2    C1 8466   1.562   3.891  16.738  0.3968 -0.4093 -0.3632
  571MPD2    C2 8467   1.488   3.986  16.795  0.0353  0.2780  0.0347
  571MPD2    C3 8468   1.458   4.106  16.734  0.2951  0.5658  0.6953
  571MPD2    C4 8469   1.513   4.137  16.616 -0.4669 -0.1144  0.1886
  571MPD2    C5 8470   1.605   4.050  16.556 -0.0015  0.1696 -0.4333
  571MPD2     H 8471   1.447   3.971  16.894 -1.6969 -1.4422 -0.9532
  571MPD2    H1 8472   1.492   4.230  16.565 -0.1575  0.7830  1.6892
  571MPD2    H2 8473   1.679   3.851  16.562 -0.6496 -0.2237 -0.6790
  571MPD2    H3 8474   1.652   4.071  16.460 -2.2541 -1.4126 -1.8908
  571MPD2     N 8475   1.376   4.199  16.791 -0.2955 -0.6172  0.3995
  571MPD2    H5 8476   1.387   4.295  16.760 -0.4831 -0.8994 -0.5264
  571MPD2    N1 8477   1.572   3.766  16.795 -0.0283  0.2819 -0.4890
  571MPD2    H7 8478   1.644   3.705  16.757  1.2368  1.9376 -0.7455
  572TMC3    C1 8479   1.201   4.263  16.941 -0.1553 -0.3294  1.0344
  572TMC3    C2 8480   1.097   4.215  17.018  0.2257 -0.0460 -0.0067
  572TMC3    C3 8481   1.042   4.297  17.114  0.4695 -0.2947  0.6345
  572TMC3    C4 8482   1.257   4.379  16.966 -0.9450 -0.4226 -0.4990
  572TMC3    C5 8483   1.206   4.454  17.067 -0.4770  0.5605 -0.5545
  572TMC3    C6 8484   1.102   4.412  17.144  0.1980 -0.1633  0.5108
  572TMC3     C 8485   1.284   4.159  16.876 -0.2008  0.4708 -0.2864
  572TMC3     O 8486   1.235   4.051  16.903 -0.2357 -0.1221 -0.5135
  572TMC3     H 8487   1.040   4.128  16.989 -0.1744 -0.3317  1.6576
  572TMC3    H1 8488   1.345   4.414  16.913 -0.2948 -1.2111  0.0655
  572TMC3    H2 8489   1.053   4.489  17.203  0.6649  1.4223 -1.2022
  572TMC3    C7 8490   1.282   4.567  17.117  0.3981  0.6253 -0.1144
  572TMC3    C8 8491   0.920   4.250  17.180 -0.2261  0.2655 -0.7386
  572TMC3    O1 8492   1.235   4.633  17.208  0.1651  0.1140 -0.7038
  572TMC3    O2 8493   0.857   4.163  17.126  0.3048  0.2423  0.4314
  573MPD2     C 8494   2.633   4.065   0.495  0.3066 -0.1529 -0.0916
  573MPD2    C1 8495   2.684   4.186   0.545  0.1161  0.9329  0.2440
  573MPD2    C2 8496   2.700   4.300   0.467 -0.8227 -0.5183  0.2510
  573MPD2    C3 8497   2.678   4.291   0.332 -0.2756 -0.2933 -0.6267
  573MPD2    C4 8498   2.619   4.176   0.280 -0.2522  0.2263 -0.0126
  573MPD2    C5 8499   2.595   4.072   0.365 -0.1592  0.5416  0.0774
  573MPD2     H 8500   2.741   4.390   0.511  1.7037 -1.0296 -1.0487
  573MPD2    H1 8501   2.606   4.163   0.173 -1.0605  2.0407 -0.1392
  573MPD2    H2 8502   2.603   3.981   0.557 -5.1213 -0.1520 -2.7477
  573MPD2    H3 8503   2.544   3.990   0.317 -0.5929  0.2196  1.0699
  573MPD2     N 8504   2.705   4.396   0.236 -0.6846  0.4575  0.2826
  573MPD2    H5 8505   2.677   4.374   0.141 -1.7568  1.1336  0.4410
  573MPD2    N1 8506   2.711   4.192   0.680 -0.1026 -0.1158  0.6492
  573MPD2    H7 8507   2.689   4.112   0.739 -1.9995 -1.4008 -1.8148
  574TMC3    C1 8508   2.822   4.576   0.126 -1.4231 -1.3479 -0.4102
  574TMC3    C2 8509   2.719   4.584   0.043  0.0628 -0.2423 -0.2172
  574TMC3    C3 8510   2.733   4.672  17.633  1.0055 -0.2376 -0.0580
  574TMC3    C4 8511   2.935   4.655   0.111 -0.5447 -0.3453  0.2899
  574TMC3    C5 8512   2.945   0.027   0.010  0.1106  0.1289 -0.3166
  574TMC3    C6 8513   2.838   0.036  17.616  0.2931  0.3742 -0.7692
  574TMC3     C 8514   2.805   4.489   0.244  0.4680  0.1425 -0.4652
  574TMC3     O 8515   2.891   4.513   0.329 -0.4986 -0.3795 -0.1954
  574TMC3     H 8516   2.625   4.537   0.068 -0.2948 -0.6917 -2.4876
  574TMC3    H1 8517   3.016   4.651   0.183  0.7487 -0.0214 -1.1378
  574TMC3    H2 8518   2.842   0.102  17.530 -0.2953 -0.8098 -1.7048
  574TMC3    C7 8519   3.038   0.139   0.010 -0.0692  0.3683 -0.3590
  574TMC3    C8 8520   2.645   4.631  17.525 -0.4810  0.1721 -0.0068
  574TMC3    O1 8521   2.995   0.235  17.644  0.5005 -0.3461  0.1846
  574TMC3    O2 8522   2.604   4.517  17.518 -0.2257  0.2443 -0.1948
  575TMC3    C1 8523   0.060   1.005  10.152 -0.0617 -0.5756  0.3173
  575TMC3    C2 8524   0.036   0.897  10.228  0.0829 -0.8919 -0.4535
  575TMC3    C3 8525   4.663   0.810  10.178 -0.4400  1.1147  0.3492
  575TMC3    C4 8526   4.715   1.041  10.036 -0.3299  1.0966 -0.4997
  575TMC3    C5 8527   4.617   0.956  10.002  0.6627  0.2292  0.1066
  575TMC3    C6 8528   4.587   0.840  10.068  0.2533 -0.3480 -0.1129
  575TMC3     C 8529   0.158   1.103  10.188 -0.6082 -0.0010 -0.4297
  575TMC3     O 8530   0.190   1.180  10.100 -0.2268  0.0694 -0.0720
  575TMC3     H 8531   0.104   0.869  10.308 -2.3295  0.5288  2.1325
  575TMC3    H1 8532   4.715   1.144  10.003 -1.2856  1.2622  0.0150
  575TMC3    H2 8533   4.505   0.775  10.039 -0.7495  0.1696  1.5245
  575TMC3    C7 8534   4.594   0.942   9.858  0.0076 -0.5006  0.3480
  575TMC3    C8 8535   4.628   0.688  10.242  0.0399 -1.4175 -0.5122
  575TMC3    O1 8536   4.532   0.842   9.825 -0.3494  0.3460 -0.2264
  575TMC3    O2 8537   4.548   0.617  10.185  0.5620 -0.8783 -0.0058
  576MPD2     C 8538   0.022   1.794  12.403 -0.6372 -0.4147  0.0196
  576MPD2    C1 8539   0.059   1.911  12.339 -0.2954 -0.5744 -0.5475
  576MPD2    C2 8540   0.011   2.027  12.385  0.2394  0.6077 -0.3652
  576MPD2    C3 8541   4.650   2.026  12.497 -0.2159 -0.8072  0.6589
  576MPD2    C4 8542   4.613   1.907  12.563 -0.1637  0.3003 -0.0048
  576MPD2    C5 8543   4.658   1.795  12.507  0.6655 -0.5226 -0.2500
  576MPD2     H 8544   0.046   2.122  12.347 -1.0592  0.6394 -1.4748
  576MPD2    H1 8545   4.548   1.888  12.648  0.2284  0.0700  0.2456
  576MPD2    H2 8546   0.056   1.699  12.365 -1.9359 -1.5865  1.8143
  576MPD2    H3 8547   4.627   1.702  12.555  0.0128  0.4635  1.2176
  576MPD2     N 8548   4.603   2.154  12.541  0.3582  0.3905  0.7261
  576MPD2    H5 8549   4.642   2.226  12.480 -2.1623  0.7750 -0.4608
  576MPD2    N1 8550   0.141   1.920  12.228  0.0516  0.3538 -0.5265
  576MPD2    H7 8551   0.167   2.012  12.196  1.0518  1.4230  3.3822
  577TMC3    C1 8552   0.308   1.858  12.068  0.3122  0.3576  0.3919
  577TMC3    C2 8553   0.376   1.758  12.013 -0.7693  0.6308  0.0391
  577TMC3    C3 8554   0.438   1.769  11.890 -0.0381 -0.0513 -0.4444
  577TMC3    C4 8555   0.281   1.969  11.994  0.2920  0.7691 -0.5274
  577TMC3    C5 8556   0.337   1.974  11.874  0.2362 -0.2461  0.4132
  577TMC3    C6 8557   0.425   1.881  11.823 -0.0215  0.0330  0.2193
  577TMC3     C 8558   0.219   1.821  12.177  0.5867  0.3477  0.4387
  577TMC3     O 8559   0.224   1.705  12.217 -0.3638 -0.2144 -0.0569
  577TMC3     H 8560   0.390   1.669  12.074 -1.1652  0.6726  0.1928
  577TMC3    H1 8561   0.219   2.055  12.013  0.6010  0.7946  0.3539
  577TMC3    H2 8562   0.470   1.910  11.729  0.3269 -2.3442 -0.3372
  577TMC3    C7 8563   0.324   2.092  11.797 -0.2868 -0.4772 -0.7190
  577TMC3    C8 8564   0.526   1.664  11.849  0.0249 -1.0665 -0.9801
  577TMC3    O1 8565   0.430   2.136  11.751  0.0958 -0.3507  0.1720
  577TMC3    O2 8566   0.539   1.573  11.933 -0.7992  0.2999  0.1106
  578MPD2     C 8567   2.671   2.609   1.095  0.7157 -0.0336 -0.2237
  578MPD2    C1 8568   2.764   2.562   1.006  0.2325  0.1433 -0.5392
  578MPD2    C2 8569   2.896   2.536   1.047 -0.3524 -0.1567 -0.2983
  578MPD2    C3 8570   2.927   2.552   1.178  0.2589  0.4952  0.1333
  578MPD2    C4 8571   2.832   2.594   1.263 -1.2025  0.5401 -0.0546
  578MPD2    C5 8572   2.708   2.622   1.224  0.5691  0.9723 -0.1462
  578MPD2     H 8573   2.968   2.490   0.980  0.2251  1.5105 -0.8232
  578MPD2    H1 8574   2.846   2.600   1.370  0.2351  0.0050 -0.2151
  578MPD2    H2 8575   2.571   2.640   1.070  0.7088 -0.3910 -0.6395
  578MPD2    H3 8576   2.641   2.660   1.300  1.3974 -0.1753  1.1529
  578MPD2     N 8577   3.055   2.517   1.229  0.0026  0.2113 -0.6314
  578MPD2    H5 8578   3.122   2.476   1.164 -0.3864 -0.4532 -0.6119
  578MPD2    N1 8579   2.733   2.554   0.870  0.7534 -0.0955  0.1306
  578MPD2    H7 8580   2.636   2.576   0.849  0.8288  0.7002  0.6051
  579TMC3    C1 8581   3.244   2.520   1.377 -0.0453 -0.4621  0.2572
  579TMC3    C2 8582   3.310   2.624   1.420 -0.4348  0.0017 -0.9008
  579TMC3    C3 8583   3.443   2.608   1.436  0.6531 -0.7443  0.2638
  579TMC3    C4 8584   3.300   2.400   1.337 -0.9976  0.1763 -0.0399
  579TMC3    C5 8585   3.438   2.386   1.350 -0.1613 -0.2997  0.0959
  579TMC3    C6 8586   3.507   2.495   1.405  0.0069 -0.9501 -0.3427
  579TMC3     C 8587   3.100   2.545   1.357  0.3345 -0.3044  0.0028
  579TMC3     O 8588   3.055   2.614   1.451  0.3659 -0.0742 -0.2798
  579TMC3     H 8589   3.259   2.712   1.457 -0.6739 -1.0369  1.1978
  579TMC3    H1 8590   3.228   2.323   1.313  1.6397 -1.8389 -1.5092
  579TMC3    H2 8591   3.615   2.486   1.417  0.1317 -2.0854 -2.2659
  579TMC3    C7 8592   3.509   2.269   1.293  0.1701 -0.4680  0.2267
  579TMC3    C8 8593   3.512   2.710   1.502 -0.2204  0.0805  0.2706
  579TMC3    O1 8594   3.630   2.265   1.315 -0.0605  0.1756  0.4647
  579TMC3    O2 8595   3.450   2.787   1.573  0.1031  0.0330  0.0833
  580TMC3    C1 8596   2.365   1.200  11.978 -0.2273  0.1721 -0.3495
  580TMC3    C2 8597   2.304   1.171  11.858 -0.2211 -0.3579  0.1253
  580TMC3    C3 8598   2.358   1.061  11.795  0.0295 -0.2069 -0.8509
  580TMC3    C4 8599   2.447   1.113  12.047  0.5884  0.9780  0.4157
  580TMC3    C5 8600   2.494   1.003  11.979  0.4211  0.4026 -0.5171
  580TMC3    C6 8601   2.451   0.974  11.852 -0.0276 -0.4244 -0.2132
  580TMC3     C 8602   2.435   1.332  11.962 -0.0002 -0.4767 -0.2869
  580TMC3     O 8603   2.383   1.416  11.890  0.0770  0.8595  0.2339
  580TMC3     H 8604   2.249   1.235  11.790 -0.4895 -0.5494  0.1639
  580TMC3    H1 8605   2.481   1.141  12.146  0.9884 -1.6558  1.0150
  580TMC3    H2 8606   2.491   0.894  11.791  0.7831 -0.7218  0.6939
  580TMC3    C7 8607   2.625   0.960  12.013  0.4226 -0.4665  0.5743
  580TMC3    C8 8608   2.388   1.097  11.652 -0.2643 -0.0698  0.8236
  580TMC3    O1 8609   2.705   1.034  12.068 -0.1301  0.1084 -0.4559
  580TMC3    O2 8610   2.289   1.115  11.579 -0.6125 -0.0462  0.0742
  581MPD2     C 8611   0.689   1.119  14.757  0.5362  0.1841  0.3571
  581MPD2    C1 8612   0.580   1.133  14.835  0.2156 -0.3444 -0.7665
  581MPD2    C2 8613   0.503   1.241  14.814  0.7031  0.1083  0.0741
  581MPD2    C3 8614   0.530   1.324  14.704 -0.4867 -0.6259 -0.6536
  581MPD2    C4 8615   0.647   1.318  14.631  0.3945  0.8226  0.2152
  581MPD2    C5 8616   0.731   1.217  14.668 -0.0800  0.5495  0.2861
  581MPD2     H 8617   0.412   1.257  14.869  0.7923 -0.1564  0.3005
  581MPD2    H1 8618   0.685   1.389  14.559  0.3365  1.7134  1.0724
  581MPD2    H2 8619   0.751   1.031  14.768  0.6566  0.3023  0.6470
  581MPD2    H3 8620   0.827   1.202  14.621 -0.1520  0.4418  0.1737
  581MPD2     N 8621   0.446   1.437  14.701  0.0654  0.4222 -0.3846
  581MPD2    H5 8622   0.365   1.445  14.763  0.2060 -1.1152  0.0028
  581MPD2    N1 8623   0.542   1.030  14.924 -0.4545 -0.5176 -0.6075
  581MPD2    H7 8624   0.457   1.047  14.977  0.9885 -1.4332  2.0174
  582TMC3    C1 8625   0.552   0.874  15.096 -0.0070  0.1333  0.1563
  582TMC3    C2 8626   0.624   0.856  15.211  0.0077 -0.4116 -0.1422
  582TMC3    C3 8627   0.560   0.833  15.331 -0.2650 -0.5501 -0.2557
  582TMC3    C4 8628   0.416   0.876  15.102 -0.0328 -0.4409 -1.3065
  582TMC3    C5 8629   0.350   0.841  15.216  0.2832 -0.0009 -0.1280
  582TMC3    C6 8630   0.423   0.820  15.331 -0.3086 -0.4790  0.2676
  582TMC3     C 8631   0.626   0.939  14.986  0.2549  0.5696 -0.5530
  582TMC3     O 8632   0.747   0.942  14.987 -0.2704 -0.0488 -0.4081
  582TMC3     H 8633   0.733   0.854  15.211  0.0029 -0.6596  0.1413
  582TMC3    H1 8634   0.363   0.898  15.010 -2.4991  0.9998  0.4740
  582TMC3    H2 8635   0.366   0.800  15.421 -1.5271 -2.2311 -0.8894
  582TMC3    C7 8636   0.216   0.881  15.233  0.0835 -0.0498  0.1860
  582TMC3    C8 8637   0.607   0.899  15.450  0.3183  0.4426  0.7953
  582TMC3    O1 8638   0.149   0.791  15.281  0.2161  0.1687  0.0212
  582TMC3    O2 8639   0.532   0.891  15.546  0.0399  0.1434 -0.2379
  583MPD2     C 8640   0.670   2.968  16.768 -0.4444  0.0206  0.1238
  583MPD2    C1 8641   0.646   3.054  16.661 -0.4687 -0.6084 -0.1595
  583MPD2    C2 8642   0.558   3.161  16.682 -1.1415  0.0788  0.2091
  583MPD2    C3 8643   0.493   3.174  16.800  0.2584 -0.5910  0.7561
  583MPD2    C4 8644   0.523   3.090  16.909 -0.0810 -0.5658 -0.4684
  583MPD2    C5 8645   0.609   2.982  16.887  0.1479  0.4138 -0.3345
  583MPD2     H 8646   0.537   3.231  16.602 -0.4091 -2.3627 -2.1215
  583MPD2    H1 8647   0.479   3.104  17.007 -0.8478 -0.9377 -0.7624
  583MPD2    H2 8648   0.751   2.897  16.763  0.4323  1.1219 -1.6010
  583MPD2    H3 8649   0.630   2.920  16.974 -0.8779  0.0876 -0.3179
  583MPD2     N 8650   0.408   3.281  16.830 -0.4904 -0.1550 -0.4979
  583MPD2    H5 8651   0.410   3.361  16.768  1.4389 -0.4514 -0.8192
  583MPD2    N1 8652   0.715   3.033  16.537 -0.3659  0.6344  0.3079
  583MPD2    H7 8653   0.689   3.093  16.460 -1.0812  1.0269  0.8647
  584TMC3    C1 8654   0.266   3.424  16.935  0.4001 -0.5465  0.7702
  584TMC3    C2 8655   0.279   3.512  16.833  0.6457 -0.6241  0.0888
  584TMC3    C3 8656   0.273   3.641  16.879  1.1525  0.2392  0.0475
  584TMC3    C4 8657   0.237   3.459  17.065  0.4102  0.0054 -0.0230
  584TMC3    C5 8658   0.230   3.591  17.104  0.0614  0.8861 -0.1674
  584TMC3    C6 8659   0.244   3.684  17.004  0.2836 -0.1047 -0.5804
  584TMC3     C 8660   0.312   3.286  16.924  1.1123 -0.8613  0.1650
  584TMC3     O 8661   0.267   3.199  16.995  0.5001  0.4063 -0.2478
  584TMC3     H 8662   0.283   3.482  16.729 -0.5467 -0.4653 -0.0022
  584TMC3    H1 8663   0.258   3.384  17.140  0.1798 -1.7678 -1.7369
  584TMC3    H2 8664   0.220   3.790  17.011  1.1433 -0.0146  0.9197
  584TMC3    C7 8665   0.270   3.628  17.238 -0.6333  0.3568 -0.0963
  584TMC3    C8 8666   0.261   3.725  16.757  0.0500 -0.2620  0.0178
  584TMC3    O1 8667   0.298   3.536  17.310  0.0918  0.3898  0.1631
  584TMC3    O2 8668   0.226   3.677  16.650 -0.3378  0.3275 -0.1559
  585MPD2     C 8669   4.541   2.595   0.630  0.7343 -0.7275 -0.0636
  585MPD2    C1 8670   4.663   2.575   0.571  0.8450  0.0386 -0.0449
  585MPD2    C2 8671   4.690   2.455   0.507  0.0367 -0.6982  0.0362
  585MPD2    C3 8672   4.599   2.354   0.502  0.8948  0.0028 -1.2082
  585MPD2    C4 8673   4.484   2.373   0.568 -0.3727 -0.8045  0.0340
  585MPD2    C5 8674   4.450   2.496   0.623  0.3954  0.5183 -0.4312
  585MPD2     H 8675   0.064   2.440   0.461  0.2654  0.0908  0.2538
  585MPD2    H1 8676   4.404   2.300   0.566 -0.0844 -1.1389  0.6986
  585MPD2    H2 8677   4.523   2.690   0.679 -0.6422 -0.6728 -0.6736
  585MPD2    H3 8678   4.350   2.509   0.664  0.0236  0.5574 -1.3620
  585MPD2     N 8679   4.612   2.237   0.426  0.2307 -0.1063 -0.3169
  585MPD2    H5 8680   4.534   2.173   0.415  0.3322 -0.0596 -1.3140
  585MPD2    N1 8681   0.031   2.688   0.584 -0.9264 -0.2287  0.0598
  585MPD2    H7 8682   4.719   2.767   0.637 -0.9132  0.7567 -1.4232
  586TMC3    C1 8683   4.693   2.080   0.264  0.4581 -0.1490 -0.5065
  586TMC3    C2 8684   0.081   2.008   0.251 -0.3953  0.7571 -0.1594
  586TMC3    C3 8685   0.066   1.871   0.259 -0.3820  0.0194 -0.1551
  586TMC3    C4 8686   4.571   2.023   0.273  0.0578  0.6475  0.0418
  586TMC3    C5 8687   4.561   1.892   0.272 -0.4528  0.9426 -0.5903
  586TMC3    C6 8688   4.671   1.810   0.282 -0.0908  0.5787 -0.2764
  586TMC3     C 8689   4.717   2.213   0.333 -0.2679 -0.3818  0.3673
  586TMC3     O 8690   0.084   2.287   0.294 -0.4171  0.1963  0.5230
  586TMC3     H 8691   0.176   2.056   0.227  0.6513 -0.6949  1.0880
  586TMC3    H1 8692   4.483   2.087   0.268  1.1178  1.8513 -3.3595
  586TMC3    H2 8693   4.671   1.702   0.286  1.1412  0.6636  1.9476
  586TMC3    C7 8694   4.456   1.833   0.191 -0.0633  0.4699  0.0960
  586TMC3    C8 8695   0.171   1.801   0.180 -0.2031 -0.4533 -0.2273
  586TMC3    O1 8696   4.459   1.711   0.179 -0.0114 -0.1326 -0.3114
  586TMC3    O2 8697   0.218   1.706   0.238 -0.3053  0.0051 -0.0277
  587TMC3    C1 8698   1.900   0.674  16.268  0.3944 -0.3001  0.0464
  587TMC3    C2 8699   1.949   0.798  16.242 -0.5886  0.3089 -0.1080
  587TMC3    C3 8700   2.084   0.801  16.211 -0.3212  0.2188  0.0689
  587TMC3    C4 8701   1.977   0.562  16.266  0.0333  0.0990 -1.0055
  587TMC3    C5 8702   2.108   0.567  16.220  0.8177 -0.3066 -0.0833
  587TMC3    C6 8703   2.163   0.691  16.199 -0.2910  0.3565 -0.1886
  587TMC3     C 8704   1.768   0.668  16.321 -0.8587 -0.1985 -0.6385
  587TMC3     O 8705   1.736   0.760  16.394  0.1701 -0.8152 -0.4234
  587TMC3     H 8706   1.889   0.888  16.248 -2.8304 -1.2298  0.6474
  587TMC3    H1 8707   1.924   0.468  16.276  1.3972 -0.5830 -0.2522
  587TMC3    H2 8708   2.270   0.708  16.191 -0.3206 -0.5032 -2.2571
  587TMC3    C7 8709   2.184   0.455  16.275 -0.3176  0.1414  0.2508
  587TMC3    C8 8710   2.134   0.923  16.142 -0.0134 -0.2277  0.7140
  587TMC3    O1 8711   2.122   0.393  16.359 -0.6098  0.0587 -0.1660
  587TMC3    O2 8712   2.202   0.928  16.042 -0.3258 -0.0333  0.4114
  588TMC3    C1 8713   4.251   2.682   9.894 -0.0697  0.3944 -0.2233
  588TMC3    C2 8714   4.217   2.548   9.868 -0.3818 -0.7280  0.4256
  588TMC3    C3 8715   4.309   2.457   9.896  0.0946 -0.4684  0.1755
  588TMC3    C4 8716   4.371   2.719   9.941 -0.3666  0.3479  0.3072
  588TMC3    C5 8717   4.462   2.615   9.966 -0.6126 -0.0391 -0.5054
  588TMC3    C6 8718   4.439   2.490   9.926 -0.1281  0.5748  0.3238
  588TMC3     C 8719   4.147   2.782   9.882 -0.2355 -0.3959 -0.0535
  588TMC3     O 8720   4.038   2.750   9.834  0.3094  0.0056 -0.3632
  588TMC3     H 8721   4.117   2.519   9.840  0.0256 -2.8903  1.1761
  588TMC3    H1 8722   4.407   2.821   9.940  0.6857  0.0131  2.6267
  588TMC3    H2 8723   4.505   2.412   9.963 -0.4956  0.2194  0.2218
  588TMC3    C7 8724   4.589   2.654  10.023  0.0980  0.2887 -0.2369
  588TMC3    C8 8725   4.265   2.319   9.900 -0.0416 -0.1903  0.3552
  588TMC3    O1 8726   4.689   2.596   9.985 -0.3241 -0.0143 -0.4286
  588TMC3    O2 8727   4.143   2.304   9.905 -0.1274 -0.0239  0.1669
  589TMC3    C1 8728   3.421   0.744   1.028  0.4174 -0.6689 -0.9033
  589TMC3    C2 8729   3.446   0.807   1.144  0.1911  0.2155  0.0053
  589TMC3    C3 8730   3.576   0.794   1.189 -0.0707 -0.1038 -0.5830
  589TMC3    C4 8731   3.512   0.667   0.965 -0.4291 -0.1093  0.1880
  589TMC3    C5 8732   3.633   0.652   1.015 -0.6635 -0.6669 -0.0645
  589TMC3    C6 8733   3.676   0.718   1.126  0.3477  0.8028 -1.0874
  589TMC3     C 8734   3.282   0.723   0.985 -0.8157 -1.0072 -0.4214
  589TMC3     O 8735   3.261   0.639   0.898  0.2111 -0.0021  0.0261
  589TMC3     H 8736   3.373   0.859   1.205  0.6361  0.7685  0.0727
  589TMC3    H1 8737   3.490   0.619   0.871  0.1494 -1.5574  0.7945
  589TMC3    H2 8738   3.776   0.704   1.165 -0.5184  0.0422  0.8263
  589TMC3    C7 8739   3.693   0.529   0.971  0.4598 -0.6990  0.4823
  589TMC3    C8 8740   3.598   0.880   1.303  0.2044  0.3868  0.2232
  589TMC3    O1 8741   3.611   0.441   0.931  0.1013  0.0766 -0.0966
  589TMC3    O2 8742   3.506   0.948   1.349 -0.0560 -0.3819 -0.3034
  590MPD2     C 8743   2.992   3.734  16.631 -0.6060 -0.1383  0.5254
  590MPD2    C1 8744   2.921   3.838  16.574  0.2227 -0.0013  0.2901
  590MPD2    C2 8745   2.981   3.921  16.485 -0.1856 -0.2529 -0.3688
  590MPD2    C3 8746   3.110   3.902  16.443 -0.0728 -0.7055 -0.4257
  590MPD2    C4 8747   3.184   3.796  16.499 -0.0869 -0.4989 -0.3719
  590MPD2    C5 8748   3.119   3.708  16.587  0.6990 -0.1046  0.3016
  590MPD2     H 8749   2.926   4.002  16.440 -2.0076  0.4084  3.0022
  590MPD2    H1 8750   3.288   3.783  16.470 -0.0797  0.4488 -0.7861
  590MPD2    H2 8751   2.948   3.654  16.690  1.3271  0.6472  3.0153
  590MPD2    H3 8752   3.168   3.622  16.632  0.4687 -0.7495 -0.6691
  590MPD2     N 8753   3.165   3.990  16.345  0.5710 -0.0248  0.1840
  590MPD2    H5 8754   3.096   4.048  16.299 -0.1947 -0.8357  0.3092
  590MPD2    N1 8755   2.781   3.842  16.605 -0.2592  0.1565  0.7758
  590MPD2    H7 8756   2.746   3.763  16.658 -2.5692  2.5111  2.8225
  591TMC3    C1 8757   3.301   4.065  16.161  0.3784 -0.1863  0.1687
  591TMC3    C2 8758   3.372   4.018  16.053 -0.5965  0.6518 -0.6111
  591TMC3    C3 8759   3.363   4.083  15.925  0.4360  0.4763  0.5562
  591TMC3    C4 8760   3.219   4.166  16.145  0.2789 -0.5068  0.3463
  591TMC3    C5 8761   3.210   4.230  16.024  0.1762  0.3312 -0.6151
  591TMC3    C6 8762   3.273   4.188  15.909 -0.8503  0.1411 -0.5299
  591TMC3     C 8763   3.287   3.979  16.276  0.3953  0.1727 -0.2323
  591TMC3     O 8764   3.367   3.886  16.286 -0.2452  0.5348 -0.1941
  591TMC3     H 8765   3.445   3.939  16.060 -1.0791  0.3199  0.7753
  591TMC3    H1 8766   3.153   4.200  16.224  1.7224  0.1889  1.2581
  591TMC3    H2 8767   3.252   4.219  15.807 -1.4908  0.9268 -0.1676
  591TMC3    C7 8768   3.120   4.338  16.004  0.1303  0.4854  0.3921
  591TMC3    C8 8769   3.442   4.029  15.814 -0.1303 -0.8793  0.0108
  591TMC3    O1 8770   3.027   4.349  16.082  0.2395 -0.9286 -0.3215
  591TMC3    O2 8771   3.510   3.926  15.829  0.6011 -0.4302  0.7856
  592MPD2     C 8772   3.348   1.326  11.020 -0.0726 -0.5939 -0.0056
  592MPD2    C1 8773   3.430   1.268  11.116 -0.0060  0.2198  0.2905
  592MPD2    C2 8774   3.389   1.156  11.179  0.5711  0.4719  0.0580
  592MPD2    C3 8775   3.273   1.089  11.151  0.2116  0.4162 -0.1759
  592MPD2    C4 8776   3.188   1.148  11.061 -0.1064 -0.4888  0.4391
  592MPD2    C5 8777   3.226   1.262  10.996 -0.5719 -0.7538 -0.6614
  592MPD2     H 8778   3.450   1.117  11.260  0.8591 -1.3305 -1.0307
  592MPD2    H1 8779   3.091   1.109  11.033 -0.9461  2.6272 -1.0693
  592MPD2    H2 8780   3.382   1.411  10.963 -3.2689 -0.6148 -1.9522
  592MPD2    H3 8781   3.166   1.316  10.923 -0.6156  0.0394 -0.0466
  592MPD2     N 8782   3.239   0.974  11.221  0.0519  0.6246 -0.9387
  592MPD2    H5 8783   3.309   0.932  11.281 -2.6208 -1.7841  0.4824
  592MPD2    N1 8784   3.541   1.337  11.160 -0.6315  0.0746 -0.1122
  592MPD2    H7 8785   3.567   1.408  11.093 -1.0022 -0.0227 -0.3619
  593TMC3    C1 8786   3.706   1.423  11.304  0.7257 -0.3713  1.0168
  593TMC3    C2 8787   3.707   1.479  11.427  0.1547  0.3297  0.2143
  593TMC3    C3 8788   3.801   1.577  11.459 -1.0168  0.3148 -0.2741
  593TMC3    C4 8789   3.788   1.461  11.205 -0.5260 -0.2072 -0.0881
  593TMC3    C5 8790   3.884   1.550  11.242  0.6473  0.6418  0.8692
  593TMC3    C6 8791   3.892   1.613  11.367  0.2576 -0.1604 -0.6991
  593TMC3     C 8792   3.607   1.314  11.282 -0.6599 -0.2765 -0.8208
  593TMC3     O 8793   3.556   1.271  11.384  0.0905  0.0997  0.0962
  593TMC3     H 8794   3.647   1.437  11.507 -1.0298 -1.1199 -1.4557
  593TMC3    H1 8795   3.799   1.396  11.118  0.1811 -1.3088  0.8253
  593TMC3    H2 8796   3.950   1.701  11.390  0.8255 -0.6590 -0.2064
  593TMC3    C7 8797   3.976   1.592  11.138 -0.5180 -0.1782 -0.5278
  593TMC3    C8 8798   3.814   1.607  11.599 -0.2826 -0.1843 -0.0907
  593TMC3    O1 8799   4.074   1.645  11.188 -0.3161  0.2330 -0.1017
  593TMC3    O2 8800   3.712   1.604  11.668  0.3278  0.7732  0.0784
  594MPD2     C 8801   2.292   4.657  13.996 -0.2862 -0.2261 -0.3606
  594MPD2    C1 8802   2.310   4.616  14.126  0.1814 -0.3401  0.5741
  594MPD2    C2 8803   2.396   4.691  14.203  0.8667  0.0953 -0.0262
  594MPD2    C3 8804   2.458   0.079  14.150 -0.3550  0.2992  0.2243
  594MPD2    C4 8805   2.415   0.126  14.028  0.2741 -0.5552 -0.2641
  594MPD2    C5 8806   2.330   0.055  13.953 -0.1825  0.6530  0.4440
  594MPD2     H 8807   2.416   4.658  14.304  3.9865  2.5325  0.1352
  594MPD2    H1 8808   2.450   0.225  14.000  2.2163 -0.7625  1.4459
  594MPD2    H2 8809   2.219   4.608  13.933 -0.9373 -0.7938  0.8373
  594MPD2    H3 8810   2.302   0.107  13.862  0.0941  1.0075  0.5605
  594MPD2     N 8811   2.551   0.152  14.228  0.1498 -0.0019 -0.3245
  594MPD2    H5 8812   2.548   0.133  14.327  0.4833  2.0295  0.0745
  594MPD2    N1 8813   2.220   4.511  14.167  0.4956  0.2195 -0.5714
  594MPD2    H7 8814   2.152   4.481  14.098 -2.7016  3.4710  1.1728
  595TMC3    C1 8815   2.879   0.486  14.268 -1.0001 -0.1571  0.7235
  595TMC3    C2 8816   2.835   0.362  14.230 -0.3745  0.1585 -0.1930
  595TMC3    C3 8817   2.708   0.325  14.258  0.2934 -0.0683 -0.4412
  595TMC3    C4 8818   2.801   0.570  14.345 -0.0187 -0.9779 -0.1299
  595TMC3    C5 8819   2.681   0.515  14.390  0.1445  0.8800  0.2284
  595TMC3    C6 8820   2.628   0.394  14.341 -0.4291 -0.5537 -0.1528
  595TMC3     C 8821   3.021   0.519  14.277  0.0062 -0.3072  0.6529
  595TMC3     O 8822   3.066   0.631  14.307  0.0866  0.1342 -0.1206
  595TMC3     H 8823   2.896   0.305  14.160  0.4154 -1.3173  1.7100
  595TMC3    H1 8824   2.844   0.666  14.371 -0.5705 -1.3466  2.1427
  595TMC3    H2 8825   2.526   0.364  14.361 -0.0618 -2.1180 -0.5739
  595TMC3    C7 8826   2.591   0.591  14.476  0.9953  0.3846  0.0308
  595TMC3    C8 8827   2.643   0.235  14.165  0.5007  0.4793  0.1764
  595TMC3    O1 8828   2.472   0.560  14.470 -0.5222  0.1211  0.4523
  595TMC3    O2 8829   2.677   0.238  14.050  0.0835 -0.2043 -0.9535
  596MPD2     C 8830   1.539   2.949  16.657 -0.2870  0.7012 -0.8634
  596MPD2    C1 8831   1.523   3.039  16.558  0.1341 -0.5613 -0.2290
  596MPD2    C2 8832   1.566   3.015  16.429  0.3016  0.9633 -0.4397
  596MPD2    C3 8833   1.598   2.882  16.394 -0.4972 -0.2859 -0.8710
  596MPD2    C4 8834   1.599   2.782  16.497  0.4152  0.3306 -0.4133
  596MPD2    C5 8835   1.563   2.818  16.630 -0.1615 -0.0465 -0.1234
  596MPD2     H 8836   1.550   3.100  16.364 -0.3242  0.6496 -0.6929
  596MPD2    H1 8837   1.630   2.680  16.482 -1.1647 -0.5331  2.1272
  596MPD2    H2 8838   1.524   2.981  16.759 -0.7419 -1.2532 -0.3028
  596MPD2    H3 8839   1.573   2.751  16.715 -1.5066 -1.5510 -1.1532
  596MPD2     N 8840   1.640   2.850  16.272  0.0534 -0.5118 -0.1099
  596MPD2    H5 8841   1.651   2.754  16.242 -0.6555 -0.7458  0.3791
  596MPD2    N1 8842   1.474   3.167  16.588  0.2591 -0.0609 -0.3661
  596MPD2    H7 8843   1.470   3.230  16.508  2.2555 -0.4987 -0.8024
  597TMC3    C1 8844   1.386   3.354  16.693 -0.3370  0.4251  0.0964
  597TMC3    C2 8845   1.440   3.447  16.611 -1.1343 -0.1763  0.4278
  597TMC3    C3 8846   1.370   3.558  16.585  0.7595  0.4042  0.1081
  597TMC3    C4 8847   1.267   3.375  16.764 -0.2955 -0.1275 -0.1778
  597TMC3    C5 8848   1.215   3.504  16.753 -0.1475 -0.2674 -0.6519
  597TMC3    C6 8849   1.264   3.595  16.667  1.6020  0.7515 -0.6075
  597TMC3     C 8850   1.426   3.216  16.705 -0.6647  0.4647 -0.0792
  597TMC3     O 8851   1.390   3.164  16.809 -0.4962 -0.1859  0.0971
  597TMC3     H 8852   1.520   3.414  16.545 -1.6749  0.6507 -0.6269
  597TMC3    H1 8853   1.210   3.308  16.827  0.0667 -0.1524  0.1250
  597TMC3    H2 8854   1.218   3.694  16.668 -1.6095 -0.7326 -1.3488
  597TMC3    C7 8855   1.104   3.536  16.843 -1.0633  0.1203  0.5978
  597TMC3    C8 8856   1.417   3.649  16.483  0.6395  0.3501  0.4150
  597TMC3    O1 8857   1.104   3.478  16.947  0.3681 -0.0702 -0.3319
  597TMC3    O2 8858   1.521   3.614  16.432  0.3716  0.1961 -0.1300
  598TMC3    C1 8859   3.968   4.395  15.166  0.4121  0.0009 -0.2488
  598TMC3    C2 8860   3.862   4.326  15.113  0.2923  1.0949 -0.5115
  598TMC3    C3 8861   3.848   4.327  14.975  0.0894  0.1136 -0.3642
  598TMC3    C4 8862   4.066   4.454  15.093  0.0193  0.1383  0.7806
  598TMC3    C5 8863   4.049   4.443  14.955 -0.4425  0.3401 -1.3382
  598TMC3    C6 8864   3.944   4.384  14.889 -0.7094 -0.0303  0.4895
  598TMC3     C 8865   3.995   4.365  15.307  0.2995 -0.0755  0.0185
  598TMC3     O 8866   3.901   4.352  15.385 -0.0508  0.3735 -0.2982
  598TMC3     H 8867   3.806   4.258  15.175 -0.7616  1.0612 -1.5113
  598TMC3    H1 8868   4.144   4.518  15.134 -0.4838  1.4602 -0.2902
  598TMC3    H2 8869   3.923   4.395  14.783  1.6786  0.0538  0.0349
  598TMC3    C7 8870   4.137   4.506  14.858 -0.0392 -0.3642  0.1202
  598TMC3    C8 8871   3.789   4.201  14.933 -0.3526 -0.5599  0.3459
  598TMC3    O1 8872   4.151   4.446  14.753 -0.3073  0.1653 -0.6109
  598TMC3    O2 8873   3.705   4.155  15.005 -0.4873 -0.4750  0.1212
  599MPD2     C 8874   4.410   2.245  15.899 -0.2809 -0.2763 -0.0507
  599MPD2    C1 8875   4.350   2.126  15.930  0.2391 -0.0629  0.0900
  599MPD2    C2 8876   4.244   2.123  16.025  0.5216 -0.0439  0.2381
  599MPD2    C3 8877   4.200   2.241  16.083 -0.0852  0.5492  0.2945
  599MPD2    C4 8878   4.268   2.358  16.057 -0.8289 -0.6000 -0.4133
  599MPD2    C5 8879   4.365   2.355  15.958  0.1788  0.8678  0.0801
  599MPD2     H 8880   4.199   2.031  16.059  1.2935  0.0489  1.5154
  599MPD2    H1 8881   4.224   2.448  16.099 -0.4350 -0.3383 -0.5685
  599MPD2    H2 8882   4.495   2.247  15.832  0.4029  2.9610  0.9496
  599MPD2    H3 8883   4.406   2.449  15.924  0.5781  0.1571 -1.4281
  599MPD2     N 8884   4.087   2.249  16.163  0.3172 -0.1836 -0.2502
  599MPD2    H5 8885   4.079   2.335  16.217 -1.0560 -1.7224  1.9606
  599MPD2    N1 8886   4.416   2.014  15.880 -0.2712 -0.0986  0.2726
  599MPD2    H7 8887   4.508   2.030  15.841  0.0770 -0.7183  0.8481
  600TMC3    C1 8888   3.915   2.166  16.301 -0.3497  0.7994  0.5357
  600TMC3    C2 8889   3.894   2.046  16.360 -0.0861 -0.8957 -0.6718
  600TMC3    C3 8890   3.853   2.047  16.492  0.1108  0.9014 -0.7451
  600TMC3    C4 8891   3.914   2.284  16.366  0.2145  0.4390 -0.5893
  600TMC3    C5 8892   3.872   2.276  16.504  0.2164 -1.3040 -0.1840
  600TMC3    C6 8893   3.844   2.158  16.569 -0.1004  0.0267 -0.4443
  600TMC3     C 8894   3.995   2.153  16.182 -0.0671 -0.2012  0.1192
  600TMC3     O 8895   3.980   2.054  16.110 -0.0917  0.5521  0.5384
  600TMC3     H 8896   3.911   1.952  16.307 -0.8937  0.4709 -3.3467
  600TMC3    H1 8897   3.919   2.379  16.313  0.4517  0.1432 -1.0962
  600TMC3    H2 8898   3.810   2.152  16.672 -2.0011  0.2093 -1.0505
  600TMC3    C7 8899   3.840   2.394  16.578  0.9269  0.8059  0.4903
  600TMC3    C8 8900   3.831   1.918  16.555  0.0793 -0.1975 -0.1045
  600TMC3    O1 8901   3.754   2.380  16.664 -0.6747 -0.2084 -0.0983
  600TMC3    O2 8902   3.860   1.923  16.671 -0.2836 -0.0408  0.4467
  601MPD2     C 8903   1.703   0.104  17.206 -0.0808  0.3424  0.3685
  601MPD2    C1 8904   1.575   0.138  17.225  0.1178 -1.0107 -0.0978
  601MPD2    C2 8905   1.483   0.058  17.178  0.0548  0.5212 -0.6722
  601MPD2    C3 8906   1.512   4.659  17.122  0.0863  0.3503 -0.1383
  601MPD2    C4 8907   1.639   4.620  17.116  0.2233 -0.7798 -0.2464
  601MPD2    C5 8908   1.741   4.710  17.153 -1.0447 -0.3434 -0.3891
  601MPD2     H 8909   1.379   0.084  17.194  0.0946 -0.6000  1.5569
  601MPD2    H1 8910   1.667   4.522  17.081  0.3921 -1.1993  1.0878
  601MPD2    H2 8911   1.790   0.163  17.232  1.3288 -2.2946  1.7216
  601MPD2    H3 8912   1.847   4.687  17.143 -0.2396  2.5472  1.6404
  601MPD2     N 8913   1.410   4.569  17.078 -0.5480 -0.0335 -0.2136
  601MPD2    H5 8914   1.454   4.489  17.034 -0.7536 -0.5399  0.4986
  601MPD2    N1 8915   1.537   0.266  17.268  0.3080  0.1594  0.2718
  601MPD2    H7 8916   1.437   0.264  17.280  0.3422 -2.8469 -0.1846
  602TMC3    C1 8917   1.544   0.496  17.283  0.3581  0.2164  0.1037
  602TMC3    C2 8918   1.596   0.588  17.195  0.6145  0.4868 -0.0375
  602TMC3    C3 8919   1.503   0.666  17.126  0.6344 -0.0095 -0.5676
  602TMC3    C4 8920   1.406   0.486  17.299 -0.2951 -0.3813 -0.1098
  602TMC3    C5 8921   1.320   0.558  17.223 -0.1947 -0.1906  1.1643
  602TMC3    C6 8922   1.366   0.644  17.129 -0.1887  0.8515  0.3962
  602TMC3     C 8923   1.613   0.377  17.284  0.6844  0.1777 -0.2212
  602TMC3     O 8924   1.735   0.382  17.267  0.4109 -0.7624 -0.5351
  602TMC3     H 8925   1.700   0.617  17.202  0.7328  0.4669 -1.5699
  602TMC3    H1 8926   1.368   0.418  17.375  2.0543 -0.4724  0.9817
  602TMC3    H2 8927   1.295   0.688  17.059 -1.7107  0.7569  1.8659
  602TMC3    C7 8928   1.180   0.566  17.241 -0.1566 -0.2443  0.6895
  602TMC3    C8 8929   1.566   0.768  17.047 -0.0364  0.9435 -0.3828
  602TMC3    O1 8930   1.124   0.472  17.295 -0.5257 -0.2035 -0.0809
  602TMC3    O2 8931   1.690   0.779  17.028  0.1738 -0.4689 -0.1288
  603TMC3    C1 8932   4.294   0.401  10.614 -0.0935  0.4402 -0.6692
  603TMC3    C2 8933   4.358   0.339  10.721 -0.0434  0.1535 -0.1494
  603TMC3    C3 8934   4.462   0.410  10.777  0.5294  0.5426  0.5064
  603TMC3    C4 8935   4.326   0.532  10.579 -1.0858 -0.3646 -1.0688
  603TMC3    C5 8936   4.416   0.604  10.656  1.0045 -0.6740 -0.2194
  603TMC3    C6 8937   4.491   0.540  10.756 -0.6909 -0.0119 -0.8983
  603TMC3     C 8938   4.209   0.325  10.519  0.2663 -0.1672  0.2123
  603TMC3     O 8939   4.174   0.388  10.415  0.3600 -0.7499  0.4759
  603TMC3     H 8940   4.364   0.233  10.745 -2.2846  0.3645  1.3632
  603TMC3    H1 8941   4.263   0.589  10.512 -1.1240  0.5986 -0.2300
  603TMC3    H2 8942   4.591   0.572  10.784 -0.9009 -0.1921  0.0332
  603TMC3    C7 8943   4.472   0.737  10.611 -0.5354 -0.5326  0.4901
  603TMC3    C8 8944   4.525   0.348  10.887  0.1317 -0.4984  0.7933
  603TMC3    O1 8945   4.571   0.786  10.669  0.1476 -0.6091  0.1006
  603TMC3    O2 8946   4.544   0.228  10.886 -0.0767  0.6103  0.5827
  604MPD2     C 8947   0.537   4.254  15.866 -0.2867 -0.1352  0.0454
  604MPD2    C1 8948   0.439   4.161  15.859  0.4047 -0.3211 -0.3120
  604MPD2    C2 8949   0.450   4.068  15.759 -0.6087 -0.0607  0.3655
  604MPD2    C3 8950   0.565   4.057  15.678 -0.8459  0.3332 -0.6321
  604MPD2    C4 8951   0.667   4.145  15.701 -0.3168 -0.3862  0.2689
  604MPD2    C5 8952   0.652   4.244  15.793  0.0462 -0.3628  0.4714
  604MPD2     H 8953   0.366   3.999  15.763 -2.6602  2.5471  2.5323
  604MPD2    H1 8954   0.761   4.146  15.648  0.1143 -0.4599  1.0305
  604MPD2    H2 8955   0.546   4.331  15.941  0.8145  0.4695 -0.7151
  604MPD2    H3 8956   0.734   4.314  15.807 -0.2693  0.2705 -0.8495
  604MPD2     N 8957   0.575   3.952  15.588 -0.6499 -0.0907 -0.3844
  604MPD2    H5 8958   0.492   3.896  15.572  0.8711 -1.8346 -2.0906
  604MPD2    N1 8959   0.331   4.168  15.944 -1.0263 -0.0385 -0.0040
  604MPD2    H7 8960   0.341   4.234  16.020  3.7974 -1.1339  0.2793
  605TMC3    C1 8961   0.119   4.131  16.048  0.5426  0.4888  0.1071
  605TMC3    C2 8962   0.188   4.154  16.164  0.1721 -0.1470  0.0736
  605TMC3    C3 8963   0.156   4.274  16.233 -0.0280  0.1340  0.8251
  605TMC3    C4 8964   4.721   4.192  16.033  0.2920  0.5924  1.0690
  605TMC3    C5 8965   4.681   4.296  16.117  0.2092  0.5091 -0.0756
  605TMC3    C6 8966   0.044   4.345  16.215 -0.0010  0.1686 -0.1961
  605TMC3     C 8967   0.207   4.114  15.926  0.3715  0.2098 -0.5338
  605TMC3     O 8968   0.153   4.083  15.819  0.5715  0.2881 -0.6885
  605TMC3     H 8969   0.284   4.107  16.183  0.4115 -0.4634 -1.8978
  605TMC3    H1 8970   4.658   4.160  15.951  1.6238  0.5514  0.0573
  605TMC3    H2 8971   0.015   4.437  16.265 -0.5030 -0.3408  0.4498
  605TMC3    C7 8972   4.552   4.366  16.096  0.1215  0.0139 -0.9021
  605TMC3    C8 8973   0.272   4.356  16.247  0.7876  0.1858 -0.2271
  605TMC3    O1 8974   4.557   4.487  16.110  0.0460  0.0858 -0.3244
  605TMC3    O2 8975   0.369   4.331  16.175  0.2861  0.1066 -0.8091
  606TMC3    C1 8976   1.760   2.083  17.051 -0.2874  0.3999 -0.1327
  606TMC3    C2 8977   1.894   2.109  17.075 -0.4041 -0.0297  0.1594
  606TMC3    C3 8978   1.929   2.124  17.207  0.2707 -0.1336 -0.7941
  606TMC3    C4 8979   1.671   2.077  17.160 -0.2484  0.3012  0.0974
  606TMC3    C5 8980   1.719   2.081  17.293  0.5778  0.5800  0.2428
  606TMC3    C6 8981   1.852   2.109  17.320 -0.0184  0.6274 -0.3488
  606TMC3     C 8982   1.709   2.111  16.916  0.0264  0.5600  0.0807
  606TMC3     O 8983   1.775   2.084  16.815 -0.1135  0.0548  0.1988
  606TMC3     H 8984   1.970   2.132  17.001 -0.9685  1.8573  0.1661
  606TMC3    H1 8985   1.566   2.055  17.147  0.9123 -2.6200 -4.4160
  606TMC3    H2 8986   1.885   2.144  17.417 -0.7275 -0.5813  0.3331
  606TMC3    C7 8987   1.637   2.087  17.410 -0.0120  0.2059 -0.9078
  606TMC3    C8 8988   2.067   2.148  17.245  0.8864 -0.0317 -0.0252
  606TMC3    O1 8989   1.691   2.082  17.522  0.3379  0.1778  0.8455
  606TMC3    O2 8990   2.105   2.201  17.351 -0.3622  0.1318  0.0912
  607MPD2     C 8991   3.384   0.502  11.268  0.2359  0.3143 -0.9068
  607MPD2    C1 8992   3.425   0.526  11.401  0.2791 -0.6978 -0.1347
  607MPD2    C2 8993   3.414   0.431  11.491 -0.7432  0.1629 -0.4160
  607MPD2    C3 8994   3.371   0.306  11.453 -0.1109 -0.5766  0.4532
  607MPD2    C4 8995   3.319   0.283  11.327 -0.2164  0.4363 -0.9091
  607MPD2    C5 8996   3.323   0.385  11.238 -0.3865  0.2624 -0.0251
  607MPD2     H 8997   3.452   0.452  11.590 -1.6538  0.5721 -0.1478
  607MPD2    H1 8998   3.278   0.186  11.303  1.1556 -0.6627  1.1658
  607MPD2    H2 8999   3.407   0.565  11.182 -1.3093  2.1977  0.0859
  607MPD2    H3 9000   3.297   0.362  11.135  0.3164  0.6544 -0.2934
  607MPD2     N 9001   3.387   0.206  11.553  0.3682 -0.3380  0.3496
  607MPD2    H5 9002   3.443   0.225  11.635  1.4474 -1.3660 -0.1452
  607MPD2    N1 9003   3.501   0.633  11.437 -0.3127  0.2132 -0.5771
  607MPD2    H7 9004   3.534   0.631  11.533 -2.7864  0.3092  0.2984
  608TMC3    C1 9005   3.651   0.809  11.431 -0.6143 -0.1178  0.0431
  608TMC3    C2 9006   3.737   0.732  11.507 -0.5965 -0.6147 -0.1804
  608TMC3    C3 9007   3.837   0.797  11.574 -0.0699  0.6386  0.0245
  608TMC3    C4 9008   3.686   0.938  11.403 -0.1870  0.2731 -0.1847
  608TMC3    C5 9009   3.791   1.000  11.466 -0.4504  0.4591 -0.8819
  608TMC3    C6 9010   3.868   0.931  11.555  0.5404  0.1937  0.4046
  608TMC3     C 9011   3.546   0.736  11.359 -0.5487 -0.3660 -0.3880
  608TMC3     O 9012   3.499   0.791  11.257  0.2570 -0.0335  0.3399
  608TMC3     H 9013   3.724   0.625  11.506  1.4707 -0.8388 -1.9882
  608TMC3    H1 9014   3.638   0.994  11.324  2.1561  1.9937 -0.3764
  608TMC3    H2 9015   3.945   0.976  11.617 -2.3690  2.6884  2.2366
  608TMC3    C7 9016   3.854   1.104  11.394  0.4537 -0.4205 -0.7625
  608TMC3    C8 9017   3.911   0.726  11.678  0.0097 -0.4668 -0.4118
  608TMC3    O1 9018   3.825   1.108  11.273 -0.2112  0.9974 -0.1414
  608TMC3    O2 9019   4.020   0.767  11.717  0.2373  0.4513 -0.0516
  609TMC3    C1 9020   2.948   0.403   8.775 -0.1611 -0.1998 -0.7669
  609TMC3    C2 9021   2.986   0.527   8.717 -0.2449  0.0708  0.8224
  609TMC3    C3 9022   3.107   0.557   8.671 -0.1995 -0.1862  0.0774
  609TMC3    C4 9023   3.045   0.315   8.791  0.0003 -0.3917  0.7555
  609TMC3    C5 9024   3.168   0.348   8.738  0.3253  0.1674  0.0713
  609TMC3    C6 9025   3.196   0.457   8.661  0.8042 -0.3560 -0.2012
  609TMC3     C 9026   2.814   0.375   8.835 -0.0606  0.7770  0.2141
  609TMC3     O 9027   2.786   0.259   8.857  0.8185  0.3564 -0.0134
  609TMC3     H 9028   2.903   0.596   8.707 -1.9412 -1.7257  2.1513
  609TMC3    H1 9029   3.022   0.218   8.833  1.4538 -1.7075 -1.4718
  609TMC3    H2 9030   3.296   0.480   8.626 -0.4892  3.6947 -1.0921
  609TMC3    C7 9031   3.256   0.232   8.733 -0.6282  0.8537  0.1525
  609TMC3    C8 9032   3.131   0.690   8.620 -0.3079  0.2765  0.2416
  609TMC3    O1 9033   3.247   0.157   8.831 -0.6552  0.0300  0.2089
  609TMC3    O2 9034   3.082   0.783   8.685 -0.5883  0.4593 -0.7248
  610TMC3    C1 9035   3.983   0.600  12.173  0.2531  0.0399  0.5058
  610TMC3    C2 9036   4.068   0.664  12.090  0.1449 -0.6897 -0.6267
  610TMC3    C3 9037   4.201   0.633  12.086 -0.0029 -0.4027  0.5397
  610TMC3    C4 9038   4.036   0.516  12.263  0.5286  0.8369  0.4748
  610TMC3    C5 9039   4.172   0.486  12.257 -0.2484  0.4978  1.0928
  610TMC3    C6 9040   4.261   0.543  12.170  0.5967  0.6563 -0.6107
  610TMC3     C 9041   3.844   0.625  12.151  0.7087  0.5082 -0.3011
  610TMC3     O 9042   3.801   0.731  12.106 -0.4424 -0.3553 -0.1118
  610TMC3     H 9043   4.018   0.727  12.017  1.0851  0.1149 -0.5910
  610TMC3    H1 9044   3.970   0.471  12.337  1.1237  0.2868  0.6791
  610TMC3    H2 9045   4.366   0.518  12.176  0.6995  1.2419  0.0295
  610TMC3    C7 9046   4.221   0.425  12.372 -0.8781  0.2174 -0.2877
  610TMC3    C8 9047   4.280   0.702  11.989  1.4955 -0.5664 -0.2497
  610TMC3    O1 9048   4.326   0.357  12.362 -0.4293  0.1172  0.4784
  610TMC3    O2 9049   4.241   0.811  11.957 -0.5837 -0.2223 -0.1016
  611MPD2     C 9050   3.457   1.083   9.650 -0.5146 -0.2729  0.1602
  611MPD2    C1 9051   3.508   0.973   9.707 -0.0571 -0.0390  0.8759
  611MPD2    C2 9052   3.645   0.965   9.741  0.0593  0.6124 -0.0089
  611MPD2    C3 9053   3.721   1.073   9.714  0.2672  0.8466 -0.4610
  611MPD2    C4 9054   3.670   1.176   9.639  0.3298 -0.7011 -0.3364
  611MPD2    C5 9055   3.537   1.183   9.608 -0.0623  0.2495 -0.0796
  611MPD2     H 9056   3.685   0.880   9.795  1.5176  1.4797  0.2821
  611MPD2    H1 9057   3.732   1.257   9.602 -1.0883 -0.4793 -2.1871
  611MPD2    H2 9058   3.352   1.086   9.624 -0.4977 -1.1640 -0.0102
  611MPD2    H3 9059   3.495   1.266   9.553 -1.3717  1.3789  2.6048
  611MPD2     N 9060   3.863   1.071   9.733 -0.5414  0.1111 -0.6291
  611MPD2    H5 9061   3.907   1.144   9.679 -3.0465  2.5261  0.6307
  611MPD2    N1 9062   3.413   0.869   9.740  0.3127  0.1968  0.8500
  611MPD2    H7 9063   3.313   0.886   9.729  0.1760 -1.1595  0.0674
  612TMC3    C1 9064   4.068   1.037   9.797  0.6413  0.3933  0.3229
  612TMC3    C2 9065   4.134   1.067   9.915 -0.4629  0.6499  0.1723
  612TMC3    C3 9066   4.238   1.153   9.918 -0.2577 -0.0134 -0.7115
  612TMC3    C4 9067   4.112   1.081   9.676  1.0601  0.4572 -0.1506
  612TMC3    C5 9068   4.224   1.160   9.677 -0.2116  0.2850 -0.1334
  612TMC3    C6 9069   4.283   1.198   9.796  0.4284 -0.1218 -0.4825
  612TMC3     C 9070   3.934   0.989   9.812 -0.0225 -0.0952 -0.2222
  612TMC3     O 9071   3.898   0.915   9.905  0.4631 -0.4127  0.0436
  612TMC3     H 9072   4.089   1.025  10.005 -0.0036 -0.7378 -0.2356
  612TMC3    H1 9073   4.078   1.046   9.580 -0.6511  1.2148  0.1818
  612TMC3    H2 9074   4.374   1.256   9.788 -0.4635  1.2931 -0.4928
  612TMC3    C7 9075   4.287   1.177   9.541  0.0586 -0.1851  0.1207
  612TMC3    C8 9076   4.333   1.152  10.030 -0.4050  0.6176  0.6386
  612TMC3    O1 9077   4.261   1.094   9.453  0.1269 -0.0974  0.0383
  612TMC3    O2 9078   4.433   1.223  10.016  0.3584  0.0407  0.1280
  613MPD2     C 9079   2.752   3.029  16.896 -0.2197  0.5847  0.7450
  613MPD2    C1 9080   2.765   2.926  16.805  0.0214 -0.3660 -0.4029
  613MPD2    C2 9081   2.723   2.803  16.835  0.7008  0.4670  0.2227
  613MPD2    C3 9082   2.675   2.774  16.963 -0.4993  0.2469  0.0135
  613MPD2    C4 9083   2.652   2.874  17.055  0.0088  0.1396 -0.1526
  613MPD2    C5 9084   2.691   3.005  17.013 -0.3241 -0.5957  0.2487
  613MPD2     H 9085   2.740   2.735  16.752 -1.7888 -2.2185  1.8794
  613MPD2    H1 9086   2.615   2.855  17.155  0.7612 -0.9539 -0.0883
  613MPD2    H2 9087   2.794   3.129  16.893  0.3954  0.3059  0.2794
  613MPD2    H3 9088   2.689   3.086  17.085 -0.0864  1.0094 -1.5503
  613MPD2     N 9089   2.658   2.652  17.019  0.5987 -0.3130 -0.8209
  613MPD2    H5 9090   2.653   2.650  17.120  0.3196 -2.0067 -0.8640
  613MPD2    N1 9091   2.841   2.944  16.688 -0.6548 -0.3727 -0.1869
  613MPD2    H7 9092   2.868   2.866  16.629 -1.3483  1.2560 -2.6696
  614TMC3    C1 9093   2.938   3.046  16.512 -0.1563 -0.0156 -0.5644
  614TMC3    C2 9094   2.973   2.919  16.486 -0.6843  0.6417  0.2472
  614TMC3    C3 9095   2.933   2.862  16.370 -0.8116 -0.8112  0.1214
  614TMC3    C4 9096   2.861   3.119  16.428  0.0086 -0.1323  0.0943
  614TMC3    C5 9097   2.822   3.066  16.314 -1.0699  0.2376  0.0283
  614TMC3    C6 9098   2.847   2.932  16.286  0.0212 -0.2611  0.2901
  614TMC3     C 9099   2.891   3.062  16.648  0.4803 -1.3254 -0.2657
  614TMC3     O 9100   2.869   3.178  16.683 -0.1407 -0.3428 -0.3635
  614TMC3     H 9101   3.046   2.863  16.543 -1.4480  0.7141  1.2993
  614TMC3    H1 9102   2.824   3.218  16.449  1.1105  0.2431  0.2793
  614TMC3    H2 9103   2.813   2.884  16.196  1.8045 -0.7578 -0.1160
  614TMC3    C7 9104   2.701   3.121  16.258  0.2127  0.3543  0.3446
  614TMC3    C8 9105   2.895   2.728  16.395  0.0816  0.0110  0.0638
  614TMC3    O1 9106   2.621   3.176  16.338  0.1514  0.6275  0.2484
  614TMC3    O2 9107   2.872   2.698  16.513 -0.0231 -0.2954  0.1469
  615MPD2     C 9108   2.028   4.230  15.819  0.1747 -0.3479  0.0470
  615MPD2    C1 9109   1.936   4.295  15.745  0.7805 -0.1943  0.3895
  615MPD2    C2 9110   1.832   4.226  15.685  0.6030 -0.4602  0.0151
  615MPD2    C3 9111   1.839   4.085  15.693  0.6187  0.1898  0.1534
  615MPD2    C4 9112   1.940   4.022  15.757 -0.3122  0.3566 -0.1480
  615MPD2    C5 9113   2.026   4.093  15.834  0.8873 -0.8594  0.1575
  615MPD2     H 9114   1.759   4.292  15.640  1.6382  1.0660  0.5805
  615MPD2    H1 9115   1.940   3.914  15.753  1.6520  0.3663 -0.6296
  615MPD2    H2 9116   2.106   4.281  15.875 -0.7532  0.4233  0.6258
  615MPD2    H3 9117   2.106   4.048  15.892  0.4685 -1.7536  0.0271
  615MPD2     N 9118   1.734   4.004  15.632 -0.0985  0.3734 -0.5521
  615MPD2    H5 9119   1.755   3.905  15.619 -1.0055  0.2028 -0.7360
  615MPD2    N1 9120   1.933   4.433  15.729 -0.0684 -0.9093 -1.0089
  615MPD2    H7 9121   1.853   4.475  15.684 -0.1554  0.9820  0.9198
  616TMC3    C1 9122   1.992   4.662  15.755 -0.2170 -0.2891  0.7542
  616TMC3    C2 9123   2.056   0.025  15.831  0.1330  0.4891 -0.1636
  616TMC3    C3 9124   1.994   0.146  15.862  1.1887  0.5637  0.4055
  616TMC3    C4 9125   1.873   4.696  15.692 -0.0909 -0.1336  0.2385
  616TMC3    C5 9126   1.823   0.098  15.710  0.1981  0.0852 -0.3211
  616TMC3    C6 9127   1.875   0.185  15.803  0.2056  0.1167 -0.5270
  616TMC3     C 9128   2.032   4.523  15.766  1.3019  0.0202  0.0067
  616TMC3     O 9129   2.134   4.510  15.826 -0.5170  0.1756 -0.3801
  616TMC3     H 9130   2.133   4.709  15.897 -1.2009 -2.3380 -0.2551
  616TMC3    H1 9131   1.828   4.638  15.613  3.3022 -1.9397 -0.3587
  616TMC3    H2 9132   1.833   0.283  15.823  0.5396  0.3079 -0.7465
  616TMC3    C7 9133   1.682   0.108  15.690  0.5597  0.1869  0.3686
  616TMC3    C8 9134   2.068   0.250  15.922 -0.0468 -0.2981  0.4729
  616TMC3    O1 9135   1.636   0.059  15.589 -0.0594  0.5927  0.5822
  616TMC3    O2 9136   2.017   0.362  15.934 -0.4790  0.1510 -0.2886
  617MPD2     C 9137   0.399   2.257  13.675 -0.6265 -0.6265 -0.3817
  617MPD2    C1 9138   0.432   2.293  13.805 -0.0373 -1.0134  0.8973
  617MPD2    C2 9139   0.335   2.357  13.882  0.0508 -0.1634  0.2601
  617MPD2    C3 9140   0.213   2.380  13.827 -0.2542  1.5796 -0.0964
  617MPD2    C4 9141   0.192   2.360  13.696 -0.2789  0.1236 -0.0921
  617MPD2    C5 9142   0.287   2.302  13.617  0.4241 -0.3315  0.2560
  617MPD2     H 9143   0.358   2.379  13.985  1.2047 -1.2585  0.2339
  617MPD2    H1 9144   0.099   2.389  13.649  0.3108 -0.5510 -1.6595
  617MPD2    H2 9145   0.468   2.197  13.616  0.2643  1.0463 -1.0594
  617MPD2    H3 9146   0.273   2.284  13.511  2.7248 -0.7811  0.0408
  617MPD2     N 9147   0.106   2.428  13.898 -0.5243  0.0064 -0.0738
  617MPD2    H5 9148   0.033   2.462  13.837  0.6116  1.1667 -0.7902
  617MPD2    N1 9149   0.552   2.249  13.858  0.1275 -0.2691 -0.3449
  617MPD2    H7 9150   0.603   2.188  13.795  3.2666  0.4735  1.4965
  618TMC3    C1 9151   0.743   2.255  13.999  0.0853 -0.1285  0.4308
  618TMC3    C2 9152   0.746   2.119  14.006  0.3912  0.1925  0.3941
  618TMC3    C3 9153   0.861   2.058  13.959  0.5426 -0.2816  0.1937
  618TMC3    C4 9154   0.831   2.321  13.922 -0.2072 -0.2511 -0.0213
  618TMC3    C5 9155   0.944   2.257  13.874 -0.3319  0.4380  0.3145
  618TMC3    C6 9156   0.959   2.127  13.895  0.4469  0.4335 -0.5374
  618TMC3     C 9157   0.609   2.299  13.975 -0.1150  0.6876 -0.6038
  618TMC3     O 9158   0.576   2.370  14.068 -0.0516  0.5041 -0.3343
  618TMC3     H 9159   0.662   2.062  14.043  0.6980  0.3102  1.2680
  618TMC3    H1 9160   0.804   2.425  13.911  2.3896  0.4321  0.0853
  618TMC3    H2 9161   1.041   2.085  13.837  0.4339 -0.5823  0.1795
  618TMC3    C7 9162   0.989   2.288  13.744  0.5746 -0.4453  0.2324
  618TMC3    C8 9163   0.867   1.916  13.975 -0.4857 -0.3877 -0.1243
  618TMC3    O1 9164   1.105   2.262  13.711  0.3309 -1.2209 -0.7970
  618TMC3    O2 9165   0.769   1.851  14.019  0.0562  0.2391  0.7602
  619MPD2     C 9166   1.795   3.447  13.712  0.4057 -0.8030  0.2607
  619MPD2    C1 9167   1.710   3.544  13.653  0.0221 -0.3272 -0.6436
  619MPD2    C2 9168   1.571   3.532  13.680  0.1608  1.1716 -0.5418
  619MPD2    C3 9169   1.525   3.443  13.776  0.0422 -0.2293  0.4781
  619MPD2    C4 9170   1.617   3.358  13.839 -0.6378 -0.4323  0.4322
  619MPD2    C5 9171   1.745   3.359  13.808  0.0350  0.4021  0.7520
  619MPD2     H 9172   1.501   3.602  13.637 -1.5778  0.2678  0.8286
  619MPD2    H1 9173   1.580   3.280  13.905  0.7305 -1.9620 -0.6044
  619MPD2    H2 9174   1.899   3.432  13.682  0.1130  0.4700 -1.3599
  619MPD2    H3 9175   1.811   3.288  13.857 -0.6961 -1.8725 -1.5679
  619MPD2     N 9176   1.389   3.429  13.802  0.0162  0.3263  0.6619
  619MPD2    H5 9177   1.374   3.384  13.892  0.0559  1.9088  1.4492
  619MPD2    N1 9178   1.753   3.650  13.567 -0.3180  0.3998 -0.4013
  619MPD2    H7 9179   1.683   3.714  13.531 -0.7188  0.5405  0.6621
  620TMC3    C1 9180   1.892   3.778  13.435 -0.7317  0.0259  0.3217
  620TMC3    C2 9181   1.784   3.818  13.361  0.3410 -0.1333  0.2060
  620TMC3    C3 9182   1.808   3.922  13.276  0.4379 -0.2089  0.2180
  620TMC3    C4 9183   2.021   3.826  13.430 -0.4029 -0.1575 -0.2485
  620TMC3    C5 9184   2.039   3.935  13.347 -0.0742  0.4771  1.4224
  620TMC3    C6 9185   1.934   3.985  13.274  0.7338  0.2327 -0.7312
  620TMC3     C 9186   1.881   3.667  13.525 -0.1536 -0.0385  0.4202
  620TMC3     O 9187   1.984   3.606  13.550  0.0198  0.1492 -0.8415
  620TMC3     H 9188   1.689   3.768  13.353  0.8486 -0.9468 -0.7215
  620TMC3    H1 9189   2.105   3.784  13.485  0.7248  2.5072  0.0494
  620TMC3    H2 9190   1.949   4.067  13.206 -1.2633  1.0901 -0.1575
  620TMC3    C7 9191   2.136   4.031  13.405 -0.4663 -0.7771  0.3957
  620TMC3    C8 9192   1.697   3.993  13.221 -0.6815 -1.4461  0.0393
  620TMC3    O1 9193   2.203   3.976  13.494  0.3501  0.2573 -0.3865
  620TMC3    O2 9194   1.714   4.048  13.111  0.0032 -0.7277 -0.3659
  621MPD2     C 9195   1.886   3.905   9.461 -0.5846 -1.1001  0.2717
  621MPD2    C1 9196   2.009   3.879   9.521 -0.1591 -0.3257 -0.2712
  621MPD2    C2 9197   2.093   3.988   9.540  0.0916 -0.2628 -0.4378
  621MPD2    C3 9198   2.065   4.117   9.515  0.1473  1.0785 -0.1125
  621MPD2    C4 9199   1.941   4.141   9.464 -0.4888 -0.4029 -0.1119
  621MPD2    C5 9200   1.855   4.036   9.429 -0.5795  0.9583  0.4277
  621MPD2     H 9201   2.191   3.975   9.584 -0.6143  2.3751  1.9215
  621MPD2    H1 9202   1.902   4.240   9.446 -0.0356  0.2385  2.3263
  621MPD2    H2 9203   1.816   3.823   9.444 -3.2946  1.1298  0.6793
  621MPD2    H3 9204   1.758   4.061   9.387 -0.0582  0.8569 -0.8405
  621MPD2     N 9205   2.156   4.222   9.556  0.6141  0.2209  0.0055
  621MPD2    H5 9206   2.246   4.198   9.597  2.0545  1.6801 -2.2857
  621MPD2    N1 9207   2.065   3.750   9.552 -0.6671 -0.2123 -0.7669
  621MPD2    H7 9208   2.163   3.751   9.577 -0.5261  0.4792 -1.3418
  622TMC3    C1 9209   2.081   3.512   9.558  0.4328  0.2837 -0.8729
  622TMC3    C2 9210   2.025   3.389   9.574  0.5706 -0.2150  0.7840
  622TMC3    C3 9211   2.106   3.278   9.592 -0.1707 -0.1351 -0.4947
  622TMC3    C4 9212   2.215   3.524   9.542 -0.2702  0.4034 -0.2433
  622TMC3    C5 9213   2.295   3.412   9.550 -0.7230  0.3976  0.1935
  622TMC3    C6 9214   2.241   3.294   9.593 -0.0880 -0.0307  0.3647
  622TMC3     C 9215   1.996   3.632   9.553 -0.5464 -0.3346  0.6161
  622TMC3     O 9216   1.880   3.614   9.556  0.0171 -1.0486 -0.3655
  622TMC3     H 9217   1.916   3.386   9.575  0.6288 -1.8864  1.2384
  622TMC3    H1 9218   2.261   3.619   9.517 -1.9127  0.9450 -1.1742
  622TMC3    H2 9219   2.310   3.216   9.624  1.6930  1.4574  0.1256
  622TMC3    C7 9220   2.438   3.429   9.548  0.1704  0.2084  0.3424
  622TMC3    C8 9221   2.055   3.149   9.648 -0.1604 -0.2844 -0.4115
  622TMC3    O1 9222   2.499   3.389   9.647 -0.1274  0.0278  0.4658
  622TMC3    O2 9223   2.127   3.128   9.742  0.0538 -0.0962 -0.0607
  623MPD2     C 9224   0.531   4.611  15.391  0.1898 -0.3284  0.5579
  623MPD2    C1 9225   0.513   4.531  15.504  0.6433 -0.1281 -0.9746
  623MPD2    C2 9226   0.612   4.538  15.602  0.0097  0.2773 -0.1397
  623MPD2    C3 9227   0.720   4.619  15.584 -0.0244 -0.4277 -0.7504
  623MPD2    C4 9228   0.747   4.676  15.460 -0.4763  0.0970  0.6162
  623MPD2    C5 9229   0.646   4.685  15.371 -0.1742  0.2414  0.0995
  623MPD2     H 9230   0.596   4.491  15.698 -0.4804  0.5128 -0.1061
  623MPD2    H1 9231   0.841   0.005  15.447 -1.4750  1.7705  0.1297
  623MPD2    H2 9232   0.454   4.621  15.316  2.2990  0.1144 -1.5499
  623MPD2    H3 9233   0.648   0.034  15.289 -0.8971  1.2277  0.9425
  623MPD2     N 9234   0.797   4.627  15.700  0.1901  0.6144 -0.4984
  623MPD2    H5 9235   0.767   4.567  15.776  2.1889 -2.1800 -1.9291
  623MPD2    N1 9236   0.391   4.470  15.544  0.4051  0.6350 -0.4533
  623MPD2    H7 9237   0.385   4.445  15.642 -1.1886 -1.3983 -1.0943
  624TMC3    C1 9238   1.060   0.020  16.063 -0.0427 -1.0635 -0.3722
  624TMC3    C2 9239   0.956   4.712  16.142  0.5545  0.2654 -0.4472
  624TMC3    C3 9240   0.833   4.693  16.080  0.1837  0.0756  0.5839
  624TMC3    C4 9241   1.051   0.014  15.922 -0.1828  0.0372  0.1343
  624TMC3    C5 9242   0.927   4.715  15.865 -0.0976 -0.5097  0.0484
  624TMC3    C6 9243   0.817   4.688  15.941  0.3815 -0.6325 -0.2187
  624TMC3     C 9244   1.194   0.034  16.115 -0.4189  0.4845 -0.4590
  624TMC3     O 9245   1.212   0.097  16.215 -0.3203  0.2649  0.2670
  624TMC3     H 9246   0.955   4.687  16.248  2.0200 -1.1107 -0.7528
  624TMC3    H1 9247   1.132   0.047  15.859 -2.6760  1.0063 -2.5887
  624TMC3    H2 9248   0.718   4.704  15.900  1.0205  2.2922 -0.6063
  624TMC3    C7 9249   0.908   4.704  15.721 -0.1943  0.0426  0.9263
  624TMC3    C8 9250   0.730   4.624  16.164 -0.2451  0.0490  0.6493
  624TMC3    O1 9251   0.973   0.058  15.647 -0.5153 -0.1767 -0.5974
  624TMC3    O2 9252   0.708   4.503  16.135 -0.3334  0.3358 -0.1063
  625MPD2     C 9253   0.964   0.656   0.190 -0.4668 -0.0088 -0.2348
  625MPD2    C1 9254   1.036   0.739   0.265 -0.2472 -0.4900  0.7298
  625MPD2    C2 9255   1.144   0.694   0.336 -0.4955 -0.1861  0.1316
  625MPD2    C3 9256   1.183   0.566   0.314 -0.0530  0.2152  0.3067
  625MPD2    C4 9257   1.096   0.480   0.257  0.1937 -0.2697 -0.2439
  625MPD2    C5 9258   0.980   0.521   0.192  0.1024 -0.4997  0.6573
  625MPD2     H 9259   1.205   0.764   0.392 -1.7078  1.6069 -0.8113
  625MPD2    H1 9260   1.115   0.373   0.256  2.2470  0.0954  0.3775
  625MPD2    H2 9261   0.885   0.688   0.123 -0.9709 -3.5597 -1.3182
  625MPD2    H3 9262   0.924   0.452   0.129  1.0394  0.5599 -1.3473
  625MPD2     N 9263   1.300   0.529   0.380 -0.0109  0.7843  0.0477
  625MPD2    H5 9264   1.361   0.597   0.424  0.9289  0.8113 -1.2882
  625MPD2    N1 9265   1.004   0.877   0.282 -0.2720  0.1659  0.3375
  625MPD2    H7 9266   1.062   0.938   0.339  0.2395  0.3735 -0.4031
  626TMC3    C1 9267   0.906   1.087   0.234 -0.0075 -0.2778 -0.7346
  626TMC3    C2 9268   0.878   1.181   0.145 -0.2604  0.0508 -0.3545
  626TMC3    C3 9269   0.885   1.309   0.179  0.0131  0.2563 -0.0898
  626TMC3    C4 9270   0.938   1.117   0.365 -0.3139 -0.1369 -0.1376
  626TMC3    C5 9271   0.951   1.254   0.395 -0.0584 -0.2242 -0.4932
  626TMC3    C6 9272   0.913   1.352   0.308  0.4537 -0.3664 -0.1050
  626TMC3     C 9273   0.915   0.942   0.195  0.6576  0.2066 -0.3333
  626TMC3     O 9274   0.878   0.911   0.086 -0.3137  0.2669 -0.6638
  626TMC3     H 9275   0.839   1.145   0.051 -1.5342  0.4854  0.0124
  626TMC3    H1 9276   0.919   1.041   0.440 -0.6416 -0.6340 -0.7178
  626TMC3    H2 9277   0.930   1.457   0.328  0.2983 -0.3332 -0.1437
  626TMC3    C7 9278   0.997   1.280   0.529 -0.8491 -1.0156 -0.0121
  626TMC3    C8 9279   0.812   1.393   0.080  0.0200 -0.4184 -0.3781
  626TMC3    O1 9280   1.062   1.184   0.576  0.0954 -0.3346 -0.0898
  626TMC3    O2 9281   0.767   1.345  17.671  0.4502 -0.5416 -0.0500
  627MPD2     C 9282   4.494   1.436  14.778  0.1098  0.1536  0.3010
  627MPD2    C1 9283   4.579   1.412  14.676 -0.2607  0.2208 -0.8289
  627MPD2    C2 9284   4.557   1.304  14.597 -0.6945 -0.2283  1.1754
  627MPD2    C3 9285   4.450   1.229  14.598  0.2359 -0.0240  0.3279
  627MPD2    C4 9286   4.365   1.242  14.706 -0.4399 -0.1794 -0.5215
  627MPD2    C5 9287   4.392   1.342  14.792  0.0991 -0.9904  0.5723
  627MPD2     H 9288   4.613   1.291  14.505 -0.5115 -0.2298  1.2864
  627MPD2    H1 9289   4.282   1.176  14.728 -0.0328 -0.1988  1.0148
  627MPD2    H2 9290   4.499   1.516  14.850  0.3366  0.2308  0.2023
  627MPD2    H3 9291   4.338   1.344  14.886 -0.8719 -0.3738 -0.0007
  627MPD2     N 9292   4.432   1.142  14.484 -0.0498  0.0831  0.9082
  627MPD2    H5 9293   4.504   1.153  14.414  0.3931  0.0978  1.3660
  627MPD2    N1 9294   4.692   1.492  14.641  0.0067  0.3456  0.0696
  627MPD2    H7 9295   0.032   1.461  14.567 -0.7857  0.0511 -0.4927
  628TMC3    C1 9296   0.126   1.673  14.656  0.0898  0.4667  0.4556
  628TMC3    C2 9297   0.234   1.588  14.656 -0.0577  0.8595 -0.3581
  628TMC3    C3 9298   0.364   1.642  14.647 -0.0401  0.0711  0.0563
  628TMC3    C4 9299   0.142   1.807  14.650  0.3450 -0.5980 -0.7927
  628TMC3    C5 9300   0.270   1.856  14.630  0.3636  0.9039 -0.0724
  628TMC3    C6 9301   0.379   1.773  14.612 -0.7042  0.8536  0.2049
  628TMC3     C 9302   0.002   1.610  14.703  0.0680  0.2244 -0.8330
  628TMC3     O 9303   4.665   1.678  14.786  0.3205 -0.4040 -0.2618
  628TMC3     H 9304   0.213   1.483  14.675 -0.3182  1.0511  0.4098
  628TMC3    H1 9305   0.057   1.875  14.655 -0.6151 -1.9632  1.2649
  628TMC3    H2 9306   0.480   1.812  14.616  0.2612 -1.6095 -0.3196
  628TMC3    C7 9307   0.294   2.000  14.627 -0.1662 -0.1260  0.0076
  628TMC3    C8 9308   0.481   1.551  14.633  0.5488 -0.5042  0.1283
  628TMC3    O1 9309   0.401   2.038  14.673  0.0517  0.0142  0.3458
  628TMC3    O2 9310   0.589   1.597  14.591  0.6506 -0.0162  0.3980
  629MPD2     C 9311   2.504   0.507  15.920  0.0139 -0.3352 -0.6128
  629MPD2    C1 9312   2.536   0.377  15.934  0.1366 -0.3412 -0.0290
  629MPD2    C2 9313   2.435   0.283  15.923  0.4464 -1.3631 -0.8228
  629MPD2    C3 9314   2.305   0.319  15.928  0.4292  0.1222  0.0309
  629MPD2    C4 9315   2.280   0.454  15.917  0.3540 -0.6150 -0.5684
  629MPD2    C5 9316   2.379   0.549  15.909  0.1792  0.0912  0.4083
  629MPD2     H 9317   2.454   0.176  15.926  0.0256 -1.5148 -4.0443
  629MPD2    H1 9318   2.183   0.502  15.918  1.1214  0.9178  1.3907
  629MPD2    H2 9319   2.589   0.574  15.926  1.4156 -2.1962  0.4498
  629MPD2    H3 9320   2.358   0.652  15.884  0.1387 -0.1742 -0.6472
  629MPD2     N 9321   2.207   0.217  15.940 -0.3006  0.9084 -0.0251
  629MPD2    H5 9322   2.239   0.122  15.949 -1.0646  0.6203 -0.3140
  629MPD2    N1 9323   2.669   0.343  15.943 -0.3530  0.4543  1.0780
  629MPD2    H7 9324   2.740   0.416  15.942  0.6967 -0.6026 -1.4250
  630TMC3    C1 9325   2.854   0.235  16.043  0.0963  0.0855  0.7114
  630TMC3    C2 9326   2.950   0.321  15.998  0.1046  0.0422 -0.1238
  630TMC3    C3 9327   3.074   0.309  16.060 -0.4057 -0.1095 -0.0886
  630TMC3    C4 9328   2.882   0.149  16.148  0.1326 -0.1234 -0.2916
  630TMC3    C5 9329   3.006   0.136  16.198  0.2435 -0.0185 -0.6815
  630TMC3    C6 9330   3.102   0.217  16.154 -0.7599 -0.2641 -0.6006
  630TMC3     C 9331   2.718   0.226  15.990 -0.2236  0.3185  0.0125
  630TMC3     O 9332   2.663   0.121  15.996 -0.2022  0.3157 -0.5621
  630TMC3     H 9333   2.934   0.382  15.909 -1.0147  0.2768  0.2419
  630TMC3    H1 9334   2.803   0.077  16.165 -0.5166  0.7424  0.3558
  630TMC3    H2 9335   3.201   0.205  16.196 -0.3615 -0.1642 -1.5208
  630TMC3    C7 9336   3.018   0.053  16.323 -0.3701 -0.8084  0.2457
  630TMC3    C8 9337   3.183   0.405  16.032  0.3473 -0.4904  0.1774
  630TMC3    O1 9338   2.918   0.007  16.372 -0.6092  0.3951 -0.1210
  630TMC3    O2 9339   3.288   0.402  16.095  0.0048  0.7049  0.0874
  631MPD2     C 9340   0.842   4.330  15.302  0.2581  0.7918 -0.0567
  631MPD2    C1 9341   0.950   4.342  15.219  0.9077 -0.2726 -0.6882
  631MPD2    C2 9342   1.049   4.245  15.226  0.8729  1.3312 -0.0647
  631MPD2    C3 9343   1.048   4.145  15.320 -0.3295 -0.4590 -0.1693
  631MPD2    C4 9344   0.935   4.134  15.402 -0.0407  0.8176 -0.0214
  631MPD2    C5 9345   0.829   4.219  15.382  0.6235 -0.2399 -0.2384
  631MPD2     H 9346   1.130   4.249  15.155  1.6894  2.5815  0.9333
  631MPD2    H1 9347   0.929   4.051  15.472  2.5270 -0.0692 -0.8380
  631MPD2    H2 9348   0.767   4.409  15.299  1.2834  1.7527 -0.5336
  631MPD2    H3 9349   0.741   4.210  15.444 -0.2869 -0.0750 -1.5164
  631MPD2     N 9350   1.164   4.063  15.325 -0.1406 -0.0280 -0.3827
  631MPD2    H5 9351   1.241   4.086  15.263  0.9230 -0.8198  0.6327
  631MPD2    N1 9352   0.960   4.467  15.147 -0.5544  0.7701  0.0168
  631MPD2    H7 9353   0.870   4.513  15.133 -0.5293 -0.0404 -2.8506
  632TMC3    C1 9354   1.055   4.654  15.037 -0.5614 -0.5794  0.1040
  632TMC3    C2 9355   0.958   0.013  15.088  0.2961 -0.7104  1.1410
  632TMC3    C3 9356   0.949   0.143  15.052 -0.0703 -0.2442 -0.2745
  632TMC3    C4 9357   1.160   4.703  14.971  0.2465  0.6126 -0.2046
  632TMC3    C5 9358   1.157   0.118  14.956  0.0440  0.0753  0.0511
  632TMC3    C6 9359   1.048   0.200  14.981 -0.6493 -0.3568 -0.3405
  632TMC3     C 9360   1.067   4.514  15.078  0.1659  0.2294  0.3020
  632TMC3     O 9361   1.172   4.458  15.060 -0.3345  0.3589  0.0530
  632TMC3     H 9362   0.881   4.705  15.159 -1.8795 -0.8051 -1.2462
  632TMC3    H1 9363   1.235   4.639  14.927 -2.1423 -0.5490 -2.5672
  632TMC3    H2 9364   1.055   0.306  14.960  0.1708 -0.3682 -0.1018
  632TMC3    C7 9365   1.267   0.178  14.877  0.0515  0.6217  0.6627
  632TMC3    C8 9366   0.873   0.231  15.138  0.0465 -0.5808  0.2952
  632TMC3    O1 9367   1.243   0.271  14.800 -0.1732 -0.4144 -0.0387
  632TMC3    O2 9368   0.770   0.182  15.179  0.0295 -0.1764  0.1928
  633MPD2     C 9369   0.807   3.053  17.292 -0.1314 -0.0530  0.7847
  633MPD2    C1 9370   0.860   2.957  17.208  0.3883  0.2512 -0.3128
  633MPD2    C2 9371   0.856   2.819  17.246 -0.3878  0.1791  0.1903
  633MPD2    C3 9372   0.794   2.784  17.362  0.3403 -0.0872  0.3528
  633MPD2    C4 9373   0.745   2.879  17.447 -0.2723 -0.2200 -0.3901
  633MPD2    C5 9374   0.757   3.013  17.413  0.1875  0.9542 -0.6192
  633MPD2     H 9375   0.888   2.743  17.176  0.6602 -0.2202  1.0876
  633MPD2    H1 9376   0.680   2.858  17.531 -0.8184  0.0191 -0.7513
  633MPD2    H2 9377   0.798   3.159  17.270  0.2572 -0.5403 -1.7611
  633MPD2    H3 9378   0.721   3.082  17.488  0.6010 -1.7227  2.0729
  633MPD2     N 9379   0.769   2.647  17.402 -0.8197 -0.4837  0.1700
  633MPD2    H5 9380   0.702   2.637  17.478  0.5896 -0.3388  1.4371
  633MPD2    N1 9381   0.914   2.985  17.080 -0.1132  0.6620 -0.0852
  633MPD2    H7 9382   0.932   2.906  17.018  0.5390 -2.0019  3.4769
  634TMC3    C1 9383   0.961   3.125  16.892 -0.2163  0.0768  0.3345
  634TMC3    C2 9384   1.036   3.019  16.842  0.4466 -0.0208  0.8611
  634TMC3    C3 9385   1.064   3.025  16.704 -0.1062  0.3829  0.2676
  634TMC3    C4 9386   0.909   3.231  16.817  0.3788 -0.7845 -0.1989
  634TMC3    C5 9387   0.944   3.226  16.685 -0.1338  0.4985  0.0834
  634TMC3    C6 9388   1.018   3.124  16.625  0.2353  0.2608  0.4473
  634TMC3     C 9389   0.915   3.113  17.029 -0.6364  0.1918 -0.0010
  634TMC3     O 9390   0.881   3.222  17.076 -0.8206  0.4205  1.0136
  634TMC3     H 9391   1.084   2.944  16.903  0.2192 -0.7803  0.0919
  634TMC3    H1 9392   0.880   3.319  16.872  0.9347 -1.2187  0.7817
  634TMC3    H2 9393   1.026   3.127  16.517  1.1061 -1.8682  0.4417
  634TMC3    C7 9394   0.885   3.316  16.582  0.1402 -0.2590 -0.0763
  634TMC3    C8 9395   1.127   2.913  16.647 -0.7327  0.7459 -0.3346
  634TMC3    O1 9396   0.938   3.317  16.474 -0.2211 -0.4581 -0.3051
  634TMC3    O2 9397   1.108   2.807  16.706  0.2418  0.8835  0.8083
  635TMC3    C1 9398   1.508   3.594  16.956  0.6185  0.5691  0.0410
  635TMC3    C2 9399   1.626   3.534  16.947 -0.5611 -0.1608  0.6327
  635TMC3    C3 9400   1.643   3.406  17.000  0.3179 -0.0188  0.5219
  635TMC3    C4 9401   1.408   3.542  17.030 -0.3054 -0.0933  0.1272
  635TMC3    C5 9402   1.422   3.413  17.080 -0.4234  0.1950  0.9384
  635TMC3    C6 9403   1.536   3.339  17.058  0.2308 -0.1495  0.1515
  635TMC3     C 9404   1.482   3.718  16.886 -0.2749  0.2270 -0.2052
  635TMC3     O 9405   1.371   3.762  16.917 -0.1558 -0.2963  0.0445
  635TMC3     H 9406   1.710   3.598  16.921 -1.2790 -0.0281 -1.4002
  635TMC3    H1 9407   1.315   3.594  17.050 -0.0300 -0.1975  1.7217
  635TMC3    H2 9408   1.552   3.242  17.105 -1.1263  0.3909  1.7256
  635TMC3    C7 9409   1.321   3.356  17.177 -0.3207  0.3473 -0.3429
  635TMC3    C8 9410   1.776   3.385  17.054 -0.1943  0.0793 -0.1959
  635TMC3    O1 9411   1.338   3.237  17.197 -0.1530  0.3070  1.4088
  635TMC3    O2 9412   1.828   3.490  17.088  0.3647 -0.1523  0.2901
  636MPD2     C 9413   2.046   2.904  16.403  0.1660 -0.2916 -0.4491
  636MPD2    C1 9414   2.172   2.962  16.426 -0.1255 -0.0318 -0.0840
  636MPD2    C2 9415   2.277   2.877  16.477 -0.2468  0.0086  0.5345
  636MPD2    C3 9416   2.250   2.745  16.509  0.0369 -0.3661 -0.2745
  636MPD2    C4 9417   2.119   2.699  16.491 -0.3879  0.3527 -0.0157
  636MPD2    C5 9418   2.021   2.774  16.440  0.5854  0.0965 -0.2271
  636MPD2     H 9419   2.379   2.910  16.466  0.1704 -1.8241 -1.0318
  636MPD2    H1 9420   2.084   2.602  16.524 -0.0604 -1.0741 -3.8791
  636MPD2    H2 9421   1.961   2.956  16.362  0.7781  0.7827 -0.3465
  636MPD2    H3 9422   1.930   2.722  16.411  0.6156  0.5892 -1.1688
  636MPD2     N 9423   2.354   2.665  16.569 -0.4020  0.2522  0.0240
  636MPD2    H5 9424   2.443   2.713  16.583 -0.4589  0.4259 -0.2085
  636MPD2    N1 9425   2.200   3.095  16.388  0.1532 -0.4283 -0.6084
  636MPD2    H7 9426   2.292   3.128  16.414 -0.6469  2.0127 -0.8123
  637TMC3    C1 9427   2.477   2.492  16.651  0.7641  0.1466  0.2228
  637TMC3    C2 9428   2.521   2.558  16.764  0.2143  0.0278  0.3814
  637TMC3    C3 9429   2.636   2.507  16.822 -1.1736 -0.6144 -0.0474
  637TMC3    C4 9430   2.558   2.408  16.575 -0.4273  0.6315 -0.3008
  637TMC3    C5 9431   2.659   2.352  16.646  0.5632 -0.2550  0.5048
  637TMC3    C6 9432   2.701   2.395  16.767 -0.5374  0.3155  0.7314
  637TMC3     C 9433   2.350   2.533  16.596  0.4815  0.3645 -0.1859
  637TMC3     O 9434   2.274   2.448  16.544  0.2628 -0.1475 -0.0608
  637TMC3     H 9435   2.452   2.628  16.810  1.0238 -0.1471  1.8682
  637TMC3    H1 9436   2.516   2.362  16.486 -0.5546  2.9913 -1.4566
  637TMC3    H2 9437   2.800   2.366  16.800 -0.5318 -0.3458  0.1166
  637TMC3    C7 9438   2.743   2.245  16.592  0.0536 -0.4041  0.3461
  637TMC3    C8 9439   2.677   2.527  16.962 -0.1615  0.6243  0.2743
  637TMC3    O1 9440   2.789   2.171  16.676 -1.0044  0.2935 -0.1441
  637TMC3    O2 9441   2.714   2.430  17.026 -0.1845 -0.2620 -0.4459
  638MPD2     C 9442   1.970   1.931  14.977 -0.0859 -0.3077  0.0305
  638MPD2    C1 9443   1.992   1.813  14.910 -0.7529 -0.6639  0.1740
  638MPD2    C2 9444   1.976   1.691  14.975  0.2174  0.1772 -0.0600
  638MPD2    C3 9445   1.917   1.687  15.092  0.4655 -0.7026 -0.1432
  638MPD2    C4 9446   1.899   1.800  15.165  0.1276  0.4220 -0.3124
  638MPD2    C5 9447   1.916   1.922  15.106  0.7586  0.0060 -0.0183
  638MPD2     H 9448   2.007   1.598  14.928  1.7729 -0.1356  1.5953
  638MPD2    H1 9449   1.849   1.802  15.261 -0.7533 -3.1641 -0.6939
  638MPD2    H2 9450   1.981   2.028  14.930  1.8822  0.0419  1.2282
  638MPD2    H3 9451   1.886   2.013  15.156 -1.3946 -0.9086  0.3819
  638MPD2     N 9452   1.900   1.560  15.151 -0.3459 -0.1525  0.0209
  638MPD2    H5 9453   1.904   1.483  15.085 -1.2820 -0.1744 -0.0022
  638MPD2    N1 9454   2.026   1.819  14.773 -0.2655  0.7839 -0.8118
  638MPD2    H7 9455   2.024   1.910  14.727 -0.4800  0.2839 -1.7919
  639TMC3    C1 9456   1.895   1.391  15.292  0.3053 -0.3879 -0.1552
  639TMC3    C2 9457   1.782   1.312  15.303  0.5978  0.0267  0.1299
  639TMC3    C3 9458   1.805   1.180  15.266 -0.0406  0.2084 -0.0251
  639TMC3    C4 9459   2.020   1.347  15.259  0.8950  0.0550 -0.4811
  639TMC3    C5 9460   2.030   1.214  15.223 -1.1796 -0.0864 -0.1597
  639TMC3    C6 9461   1.926   1.131  15.231 -0.5600  0.0992  0.0783
  639TMC3     C 9462   1.872   1.530  15.282 -0.0944 -0.6305 -0.1528
  639TMC3     O 9463   1.814   1.601  15.365 -0.3483  0.0102  0.6408
  639TMC3     H 9464   1.683   1.350  15.327  0.7492  0.6217 -0.1718
  639TMC3    H1 9465   2.102   1.417  15.251  0.4294  0.9464  2.5702
  639TMC3    H2 9466   1.914   1.039  15.175 -1.2585  0.0251  0.3418
  639TMC3    C7 9467   2.148   1.157  15.177 -0.1819  0.1933  0.2212
  639TMC3    C8 9468   1.700   1.119  15.181 -0.4608  0.1601 -0.1748
  639TMC3    O1 9469   2.152   1.034  15.176  0.5692 -0.0665  0.3112
  639TMC3    O2 9470   1.735   1.105  15.066  0.0619 -0.1627 -0.2333
  640MPD2     C 9471   2.305   0.101   9.414 -0.2931 -0.0632  0.3312
  640MPD2    C1 9472   2.363   0.220   9.418  0.9736  0.3076 -0.1267
  640MPD2    C2 9473   2.294   0.325   9.472  0.1607 -0.0586  0.3807
  640MPD2    C3 9474   2.166   0.313   9.524 -0.7898 -0.1506  0.4008
  640MPD2    C4 9475   2.103   0.194   9.504 -0.0424 -0.1532 -0.3409
  640MPD2    C5 9476   2.174   0.088   9.447 -0.7771 -0.2273  0.4770
  640MPD2     H 9477   2.338   0.424   9.474 -1.2772  0.6301 -1.3575
  640MPD2    H1 9478   1.999   0.185   9.533 -0.3495  0.2356 -1.2961
  640MPD2    H2 9479   2.350   0.012   9.372 -1.3032  1.0229 -3.0863
  640MPD2    H3 9480   2.133   4.711   9.436  0.9173 -0.8868  0.1296
  640MPD2     N 9481   2.094   0.423   9.576 -0.0290  0.3726 -0.3295
  640MPD2    H5 9482   1.995   0.407   9.592  0.6085  0.0586  3.4750
  640MPD2    N1 9483   2.496   0.221   9.374  0.3008 -0.0716  0.3308
  640MPD2    H7 9484   2.540   0.134   9.343 -0.7814 -0.9987  1.4098
  641TMC3    C1 9485   2.699   0.323   9.311 -0.4346  0.3700  0.5581
  641TMC3    C2 9486   2.769   0.202   9.300 -0.2188 -0.1668 -0.0064
  641TMC3    C3 9487   2.887   0.205   9.237 -0.0257  0.0914  0.1895
  641TMC3    C4 9488   2.748   0.435   9.245  0.2076  0.3490 -0.8027
  641TMC3    C5 9489   2.873   0.429   9.191 -0.4281 -0.1555  0.3077
  641TMC3    C6 9490   2.936   0.313   9.171 -0.1255 -0.4892  0.1244
  641TMC3     C 9491   2.575   0.335   9.377  0.0012  0.1591  0.3594
  641TMC3     O 9492   2.546   0.454   9.384 -0.1344  0.2792  0.1722
  641TMC3     H 9493   2.723   0.112   9.338  1.8597 -1.1069  0.3293
  641TMC3    H1 9494   2.681   0.519   9.230 -0.0950  0.2158 -0.1900
  641TMC3    H2 9495   3.026   0.315   9.111  1.7644 -1.0565  2.9449
  641TMC3    C7 9496   2.930   0.546   9.138  0.2729  0.0871 -0.9390
  641TMC3    C8 9497   2.984   0.096   9.239  0.0473 -0.7574 -0.0904
  641TMC3    O1 9498   3.020   0.543   9.056  0.0777  0.2707 -0.2425
  641TMC3    O2 9499   3.067   0.093   9.148 -0.5190  0.2693  0.2471
  642TMC3    C1 9500   3.639   1.608  12.076 -0.3092  0.8380  0.1810
  642TMC3    C2 9501   3.717   1.554  12.175 -0.5968 -0.5675  0.3503
  642TMC3    C3 9502   3.766   1.425  12.155 -0.5190 -0.5732  0.3925
  642TMC3    C4 9503   3.576   1.531  11.984 -0.4451  0.2206  0.2919
  642TMC3    C5 9504   3.618   1.400  11.981 -0.4235 -0.2297  0.1009
  642TMC3    C6 9505   3.711   1.344  12.063  0.5176  0.2417  0.5590
  642TMC3     C 9506   3.550   1.715  12.119 -0.4601 -0.7825  0.4127
  642TMC3     O 9507   3.520   1.804  12.046  0.0913  0.4064 -0.5225
  642TMC3     H 9508   3.745   1.615  12.260  0.8521 -1.5657  0.5980
  642TMC3    H1 9509   3.487   1.566  11.934  0.5894 -0.4374 -2.0037
  642TMC3    H2 9510   3.755   1.251  12.029  0.9349  0.7042 -0.1600
  642TMC3    C7 9511   3.529   1.307  11.909  0.3034  0.7169  1.5128
  642TMC3    C8 9512   3.881   1.377  12.224 -0.4140 -1.0067  0.7254
  642TMC3    O1 9513   3.497   1.337  11.797  0.4434 -0.4587  0.1342
  642TMC3    O2 9514   3.919   1.268  12.185  0.0068  0.6133  0.2717
  643TMC3    C1 9515   2.987   1.036   0.658  0.3887 -0.2454  1.2173
  643TMC3    C2 9516   2.857   1.046   0.617  0.0035  0.3409 -0.4414
  643TMC3    C3 9517   2.809   0.968   0.507  0.3272  0.5541 -0.2615
  643TMC3    C4 9518   3.072   0.961   0.579 -0.3833  0.5545  0.0488
  643TMC3    C5 9519   3.021   0.874   0.480  0.3930  0.5100 -0.3561
  643TMC3    C6 9520   2.885   0.871   0.454  0.4797 -0.4607 -0.1263
  643TMC3     C 9521   3.029   1.136   0.754 -0.1384 -0.6646  0.3588
  643TMC3     O 9522   2.953   1.236   0.753 -0.3122  0.3329  0.5564
  643TMC3     H 9523   2.793   1.121   0.661 -2.3871 -2.0531  0.1899
  643TMC3    H1 9524   3.175   0.954   0.612  0.2204  2.2822 -1.4159
  643TMC3    H2 9525   2.849   0.827   0.362 -1.2251 -1.7928  1.1812
  643TMC3    C7 9526   3.094   0.884   0.359  0.2822 -0.2759  0.6029
  643TMC3    C8 9527   2.716   1.037   0.421 -0.2663  0.3080  0.4832
  643TMC3    O1 9528   3.033   0.911   0.257 -0.0156  0.2533  0.1796
  643TMC3    O2 9529   2.613   0.978   0.384  0.5892 -0.8592 -0.0795
  644MPD2     C 9530   3.119   1.196   9.618  0.7775 -0.5889 -0.5355
  644MPD2    C1 9531   3.092   1.154   9.494  0.2600 -0.6672  0.7300
  644MPD2    C2 9532   3.060   1.250   9.401  0.1825 -0.2559  0.2538
  644MPD2    C3 9533   3.029   1.379   9.436 -0.4228  0.4768  0.9069
  644MPD2    C4 9534   3.049   1.423   9.565  0.3132 -0.4238  0.2332
  644MPD2    C5 9535   3.092   1.328   9.652 -0.6102  0.3503  0.5179
  644MPD2     H 9536   3.059   1.220   9.297 -0.6227  1.8210 -0.3428
  644MPD2    H1 9537   3.030   1.522   9.604 -0.7614 -0.1834 -0.8946
  644MPD2    H2 9538   3.135   1.129   9.702 -1.6229  1.7311  1.7559
  644MPD2    H3 9539   3.111   1.350   9.756 -2.7102  1.1143  0.7312
  644MPD2     N 9540   2.981   1.470   9.337 -0.0470 -0.7204  0.1827
  644MPD2    H5 9541   2.971   1.445   9.239 -0.1888 -2.3219  0.6015
  644MPD2    N1 9542   3.103   1.022   9.439  1.0250  0.2462  0.4938
  644MPD2    H7 9543   3.099   1.015   9.338  3.0768 -1.7204  0.5560
  645TMC3    C1 9544   2.922   1.684   9.257  0.1330 -0.2315 -0.1982
  645TMC3    C2 9545   2.971   1.812   9.226  1.0281  0.7241 -1.0084
  645TMC3    C3 9546   2.909   1.876   9.119  0.2411 -0.4266  0.9187
  645TMC3    C4 9547   2.810   1.639   9.201 -0.1900  0.1725  0.1034
  645TMC3    C5 9548   2.748   1.716   9.108  0.0757 -0.0403 -0.1944
  645TMC3    C6 9549   2.792   1.840   9.071  1.1463  0.2170 -0.1124
  645TMC3     C 9550   2.994   1.606   9.356  0.2559  0.3323  0.0939
  645TMC3     O 9551   3.080   1.670   9.420 -0.1751 -0.0561 -0.1119
  645TMC3     H 9552   3.054   1.840   9.289  0.6996  1.2101 -0.7954
  645TMC3    H1 9553   2.774   1.541   9.230  2.4192 -0.8635 -0.1576
  645TMC3    H2 9554   2.738   1.908   9.007  1.2443 -1.2072 -1.7263
  645TMC3    C7 9555   2.603   1.716   9.102 -0.3336  0.6626  0.6527
  645TMC3    C8 9556   2.977   1.983   9.055 -0.1842 -0.8967  0.2240
  645TMC3    O1 9557   2.548   1.823   9.075  0.0348  0.2528  0.1414
  645TMC3    O2 9558   2.922   2.033   8.957 -0.1661  0.0555 -0.3447
  646MPD2     C 9559   2.061   0.525  14.661  0.0014  0.3195  0.7697
  646MPD2    C1 9560   1.963   0.491  14.748 -0.4887 -0.3151 -0.0402
  646MPD2    C2 9561   1.831   0.538  14.732  0.0888  0.3927 -0.0068
  646MPD2    C3 9562   1.805   0.623  14.626 -0.3015 -0.0872 -0.5578
  646MPD2    C4 9563   1.905   0.670  14.546 -0.3544 -0.1290  0.7881
  646MPD2    C5 9564   2.036   0.626  14.564  0.3238  0.3432 -0.5477
  646MPD2     H 9565   1.752   0.506  14.798 -0.3483 -1.0997 -1.2579
  646MPD2    H1 9566   1.883   0.741  14.466  0.5103 -2.1002 -1.2142
  646MPD2    H2 9567   2.163   0.494  14.683  0.6427  0.7318 -1.6366
  646MPD2    H3 9568   2.121   0.647  14.500 -0.2564  1.7716 -0.8249
  646MPD2     N 9569   1.674   0.657  14.610  0.3114 -0.2820 -0.2380
  646MPD2    H5 9570   1.618   0.635  14.692  0.8514  0.1799  0.2560
  646MPD2    N1 9571   2.004   0.410  14.863 -0.8821 -0.0072 -0.3944
  646MPD2    H7 9572   2.099   0.377  14.875  0.0570  3.2384  0.9241
  647TMC3    C1 9573   1.997   0.329  15.095 -0.5325  0.3081 -0.0013
  647TMC3    C2 9574   1.930   0.220  15.154 -0.5742 -0.5140  0.6538
  647TMC3    C3 9575   2.001   0.114  15.201 -0.1979 -0.5313  0.5530
  647TMC3    C4 9576   2.136   0.335  15.102 -0.2427  0.7969  0.0312
  647TMC3    C5 9577   2.199   0.223  15.156 -0.0937  0.4938  0.4657
  647TMC3    C6 9578   2.138   0.114  15.205 -0.1332  0.1966 -0.0478
  647TMC3     C 9579   1.926   0.380  14.976 -0.2763 -0.3452 -0.1148
  647TMC3     O 9580   1.814   0.419  15.001 -0.8929 -0.7591 -0.6478
  647TMC3     H 9581   1.822   0.215  15.156 -0.5146 -0.8530  2.3984
  647TMC3    H1 9582   2.185   0.414  15.046 -4.0661  2.5520 -0.8545
  647TMC3    H2 9583   2.189   0.022  15.230 -1.7630 -1.2812 -2.2169
  647TMC3    C7 9584   2.344   0.223  15.173  0.0369  0.6590  1.3835
  647TMC3    C8 9585   1.919   4.722  15.229  0.2294  0.7103  1.1827
  647TMC3    O1 9586   2.391   0.113  15.197  0.0845  0.4737  0.0699
  647TMC3    O2 9587   1.802   4.715  15.198 -0.1998  0.0333 -0.2845
  648TMC3    C1 9588   1.627   2.869  16.042 -0.2590 -0.0822  0.3059
  648TMC3    C2 9589   1.715   2.760  16.019  0.4799  0.1145  0.5216
  648TMC3    C3 9590   1.720   2.721  15.895  0.4449  0.6426 -0.1685
  648TMC3    C4 9591   1.565   2.941  15.948  0.0178 -0.1682 -0.5486
  648TMC3    C5 9592   1.578   2.904  15.816  0.0213 -0.1522 -0.2231
  648TMC3    C6 9593   1.658   2.794  15.791  0.1864 -0.0398  0.7756
  648TMC3     C 9594   1.651   2.938  16.167 -0.1007 -0.5148  0.6197
  648TMC3     O 9595   1.637   3.059  16.151  0.2588 -0.5185  0.3867
  648TMC3     H 9596   1.787   2.730  16.095 -0.2683 -1.2930  0.6755
  648TMC3    H1 9597   1.500   3.022  15.978  1.6183  0.5758  0.8841
  648TMC3    H2 9598   1.674   2.764  15.688 -2.4715  0.0217  0.3414
  648TMC3    C7 9599   1.511   2.975  15.713  0.5481 -0.6958 -0.0159
  648TMC3    C8 9600   1.770   2.600  15.844  0.5355 -0.5356 -0.5341
  648TMC3    O1 9601   1.525   2.918  15.605  0.4494 -0.7858 -0.4758
  648TMC3    O2 9602   1.798   2.580  15.727 -0.2666  0.6852  0.9366
  649TMC3    C1 9603   0.697   3.547  12.827 -0.6725  0.3475  0.5543
  649TMC3    C2 9604   0.803   3.464  12.819  0.3756  0.4474  0.2256
  649TMC3    C3 9605   0.775   3.332  12.800 -0.4170 -0.1001  0.0826
  649TMC3    C4 9606   0.564   3.505  12.822  0.3853 -0.0259  0.5543
  649TMC3    C5 9607   0.539   3.372  12.810 -0.4140 -0.5757  0.7691
  649TMC3    C6 9608   0.644   3.285  12.802 -0.1066  0.6248  0.3944
  649TMC3     C 9609   0.713   3.692  12.801 -0.1341 -0.4536  0.7380
  649TMC3     O 9610   0.618   3.745  12.741  0.0781 -0.4329 -0.0664
  649TMC3     H 9611   0.903   3.505  12.814  1.5187 -2.2934  0.4464
  649TMC3    H1 9612   0.480   3.573  12.822  2.2271  2.2756  0.5880
  649TMC3    H2 9613   0.633   3.177  12.810  0.5040  0.7220  2.5305
  649TMC3    C7 9614   0.412   3.316  12.855  0.2588  0.6489 -0.4549
  649TMC3    C8 9615   0.875   3.236  12.830  0.3008 -0.0611  0.1959
  649TMC3    O1 9616   0.336   3.391  12.912  0.5236  0.4193  0.1024
  649TMC3    O2 9617   0.842   3.128  12.879  0.4530 -0.5845  0.0495
  650TMC3    C1 9618   3.345   0.632  12.553 -0.2235 -0.4664  0.9077
  650TMC3    C2 9619   3.301   0.744  12.618  0.1919  0.3843  0.2068
  650TMC3    C3 9620   3.178   0.783  12.583  0.5591 -0.6939  0.2761
  650TMC3    C4 9621   3.281   0.570  12.448 -0.5068  0.7368 -0.7808
  650TMC3    C5 9622   3.162   0.626  12.407  0.0538  0.0897  0.7344
  650TMC3    C6 9623   3.109   0.725  12.481 -0.0562  0.3362 -0.4206
  650TMC3     C 9624   3.469   0.580  12.598 -0.3809  0.4998 -0.3452
  650TMC3     O 9625   3.521   0.645  12.685 -0.6738  0.0277 -0.6559
  650TMC3     H 9626   3.353   0.793  12.700 -0.4915  2.3184 -0.5244
  650TMC3    H1 9627   3.324   0.494  12.383 -2.1806 -0.0279 -0.9921
  650TMC3    H2 9628   3.011   0.769  12.464 -0.0036  0.0888 -1.3654
  650TMC3    C7 9629   3.114   0.600  12.274  0.0989  0.3695  0.4984
  650TMC3    C8 9630   3.104   0.880  12.670  0.5140 -0.4075  0.3461
  650TMC3    O1 9631   3.139   0.484  12.236  0.3897 -0.3190 -0.2739
  650TMC3    O2 9632   3.172   0.946  12.754 -0.0365  0.1860 -0.2102
  651MPD2     C 9633   2.015   2.323  10.776 -0.3398  0.3495  0.3996
  651MPD2    C1 9634   1.987   2.406  10.669 -0.1829  0.0492 -0.6430
  651MPD2    C2 9635   2.096   2.464  10.606  0.6630 -0.2712 -0.1055
  651MPD2    C3 9636   2.224   2.440  10.653  0.4094 -0.1765  0.1127
  651MPD2    C4 9637   2.247   2.357  10.759  0.7604 -0.8625  0.3103
  651MPD2    C5 9638   2.141   2.293  10.818 -0.4274  0.1157 -0.8379
  651MPD2     H 9639   2.073   2.530  10.522  1.2618 -1.7352 -1.4139
  651MPD2    H1 9640   2.347   2.335  10.794  0.5976  0.0794  1.3506
  651MPD2    H2 9641   1.943   2.289  10.850 -1.1861  0.6472 -0.2858
  651MPD2    H3 9642   2.163   2.239  10.909 -2.4495  0.3616 -0.1974
  651MPD2     N 9643   2.330   2.506  10.576 -0.4397  0.0699  0.0672
  651MPD2    H5 9644   2.296   2.549  10.491 -0.4807  0.4748  0.2849
  651MPD2    N1 9645   1.855   2.433  10.616 -0.2609 -0.6386 -0.1687
  651MPD2    H7 9646   1.848   2.474  10.524  2.6101 -0.2332 -0.2100
  652TMC3    C1 9647   2.728   2.756  10.549  0.1092  0.0628 -0.8501
  652TMC3    C2 9648   2.649   2.669  10.615 -0.3183 -0.1728 -0.2058
  652TMC3    C3 9649   2.522   2.644  10.569  0.1917  0.4743  0.1666
  652TMC3    C4 9650   2.675   2.851  10.477 -0.0647  0.0752 -0.5823
  652TMC3    C5 9651   2.540   2.834  10.441 -0.2392 -0.1424  0.2532
  652TMC3    C6 9652   2.462   2.729  10.480 -0.0933  0.1445  0.5484
  652TMC3     C 9653   2.860   2.766  10.610  0.0136  0.1799  0.0240
  652TMC3     O 9654   2.874   2.710  10.716 -0.6642 -0.1948 -0.1287
  652TMC3     H 9655   2.693   2.591  10.676 -0.9813 -0.3962 -0.0152
  652TMC3    H1 9656   2.731   2.926  10.423  1.6808 -2.0937 -1.7864
  652TMC3    H2 9657   2.360   2.716  10.447  0.1669  1.5278 -0.8163
  652TMC3    C7 9658   2.480   2.920  10.341  0.9328  0.7931 -0.2816
  652TMC3    C8 9659   2.452   2.541  10.637  0.2676  0.4239  0.2613
  652TMC3    O1 9660   2.380   2.878  10.285  0.8749 -0.3119  0.1691
  652TMC3    O2 9661   2.509   2.498  10.739  0.1412 -0.2871  0.1519
  653MPD2     C 9662   0.453   3.115  17.566 -0.5194  0.0009  0.3120
  653MPD2    C1 9663   0.449   3.206  17.460 -0.0695 -0.5007 -0.1884
  653MPD2    C2 9664   0.398   3.160  17.337 -0.3601 -0.3628 -0.2223
  653MPD2    C3 9665   0.358   3.031  17.311 -0.5434  0.1952 -0.2965
  653MPD2    C4 9666   0.377   2.945  17.418  0.1286  0.1559  0.0504
  653MPD2    C5 9667   0.426   2.985  17.536  0.3315 -0.8743  0.4632
  653MPD2     H 9668   0.384   3.224  17.252 -2.4209  0.3180  0.6268
  653MPD2    H1 9669   0.348   2.841  17.422  1.4574 -0.1526  1.9310
  653MPD2    H2 9670   0.500   3.140  17.660  2.5236 -0.6884 -1.0171
  653MPD2    H3 9671   0.430   2.916  17.619  2.0770  0.2513  1.3221
  653MPD2     N 9672   0.298   2.997  17.190 -0.3683 -0.3280 -0.0270
  653MPD2    H5 9673   0.269   3.062  17.118  0.3231  0.7359  0.6581
  653MPD2    N1 9674   0.493   3.340  17.460 -0.2109 -0.7117 -0.0716
  653MPD2    H7 9675   0.475   3.395  17.377  3.7745  2.2582  1.0414
  654TMC3    C1 9676   0.257   2.860  17.015  0.0541  0.0680 -0.5762
  654TMC3    C2 9677   0.129   2.910  17.015 -0.6244 -0.5300  0.2087
  654TMC3    C3 9678   0.044   2.874  16.910  0.2900  0.0727 -0.5321
  654TMC3    C4 9679   0.289   2.754  16.932  0.2138 -0.8900  0.1736
  654TMC3    C5 9680   0.196   2.713  16.835 -0.6670  0.1821  0.0987
  654TMC3    C6 9681   0.083   2.786  16.805 -0.2448  0.9596 -0.2764
  654TMC3     C 9682   0.321   2.873  17.141  0.1251 -0.6893 -0.0400
  654TMC3     O 9683   0.392   2.781  17.179 -0.1067  0.3776 -0.8532
  654TMC3     H 9684   0.091   2.977  17.091  1.3869 -0.8345  1.5030
  654TMC3    H1 9685   0.389   2.713  16.927  1.1652  1.3895  0.7426
  654TMC3    H2 9686   0.028   2.760  16.715  1.1343  0.3501 -0.9416
  654TMC3    C7 9687   0.227   2.599  16.751  0.3502 -0.3109 -0.0604
  654TMC3    C8 9688   4.625   2.912  16.916  0.9489  0.3256 -0.0702
  654TMC3    O1 9689   0.210   2.597  16.628 -0.0220 -0.2275 -0.6970
  654TMC3    O2 9690   4.591   3.005  16.992  0.4578  0.3265 -0.0202
  655MPD2     C 9691   2.021   2.927  15.684 -0.0468  0.1355  0.0076
  655MPD2    C1 9692   1.933   2.988  15.599  0.0805 -0.0033 -0.0304
  655MPD2    C2 9693   1.918   2.933  15.473 -0.0210 -0.0105  0.0080
  655MPD2    C3 9694   1.983   2.825  15.419 -0.1090 -0.3127 -0.2167
  655MPD2    C4 9695   2.062   2.757  15.513  1.0822  0.3707 -0.0562
  655MPD2    C5 9696   2.075   2.805  15.642 -0.7333  0.6002  1.0178
  655MPD2     H 9697   1.840   2.976  15.411  1.6948  2.3164 -0.5094
  655MPD2    H1 9698   2.112   2.666  15.483 -1.1124 -1.3342  1.5298
  655MPD2    H2 9699   2.045   2.962  15.783 -1.3813 -1.1844  0.7868
  655MPD2    H3 9700   2.129   2.742  15.712  0.3593  0.1604 -0.2298
  655MPD2     N 9701   1.970   2.765  15.293 -1.0786 -0.1592  0.4270
  655MPD2    H5 9702   2.029   2.685  15.272  0.7799  1.3457 -0.1174
  655MPD2    N1 9703   1.856   3.101  15.631  0.8506  0.0803 -0.4565
  655MPD2    H7 9704   1.792   3.131  15.559 -1.9142 -1.6273  1.2823
  656TMC3    C1 9705   1.743   3.259  15.747 -0.3519 -1.1958 -0.5021
  656TMC3    C2 9706   1.681   3.283  15.862 -0.1194  0.2465 -0.7941
  656TMC3    C3 9707   1.584   3.378  15.855 -0.2678 -0.1933 -0.4106
  656TMC3    C4 9708   1.730   3.332  15.628  0.6539  0.2322  0.0654
  656TMC3    C5 9709   1.627   3.423  15.626  0.2021 -0.5011 -0.4629
  656TMC3    C6 9710   1.545   3.446  15.737 -0.1115 -0.5969 -0.0999
  656TMC3     C 9711   1.841   3.154  15.761 -0.1391  0.2075  0.0794
  656TMC3     O 9712   1.881   3.110  15.867 -0.3372 -0.1747 -0.2456
  656TMC3     H 9713   1.695   3.214  15.945  0.0516 -0.5777 -1.5072
  656TMC3    H1 9714   1.797   3.314  15.545 -0.2909 -1.9582 -0.2078
  656TMC3    H2 9715   1.467   3.522  15.744 -0.1042 -0.4405 -1.7947
  656TMC3    C7 9716   1.583   3.475  15.502 -0.4880  0.7257  0.7630
  656TMC3    C8 9717   1.490   3.370  15.968 -0.0600 -0.8800  0.5713
  656TMC3    O1 9718   1.669   3.470  15.415 -0.0703 -0.2894  0.0128
  656TMC3    O2 9719   1.481   3.267  16.029 -0.0045 -0.2254 -0.1047
  657TMC3    C1 9720   0.743   2.619  15.661 -0.2339 -0.5629  0.2936
  657TMC3    C2 9721   0.707   2.661  15.787  0.4242 -0.5695 -0.9208
  657TMC3    C3 9722   0.604   2.750  15.801  0.1511  0.1246 -1.2106
  657TMC3    C4 9723   0.681   2.671  15.554 -0.3509 -0.1523  0.3900
  657TMC3    C5 9724   0.579   2.762  15.564 -0.4912 -0.3984  0.5303
  657TMC3    C6 9725   0.549   2.810  15.690  0.4592  0.2831  0.0211
  657TMC3     C 9726   0.741   2.473  15.652 -0.4380  0.5710  0.0166
  657TMC3     O 9727   0.677   2.420  15.745  0.2806 -0.3455 -1.0546
  657TMC3     H 9728   0.760   2.616  15.870  1.5373  0.6582 -0.9663
  657TMC3    H1 9729   0.708   2.637  15.455 -0.9087  0.7332 -0.0629
  657TMC3    H2 9730   0.465   2.878  15.702 -0.6518 -1.2837  1.1663
  657TMC3    C7 9731   0.545   2.829  15.444  0.1830 -0.4167 -0.2979
  657TMC3    C8 9732   0.579   2.812  15.930 -0.0814  0.8045 -0.1588
  657TMC3    O1 9733   0.569   2.771  15.339 -0.5717 -0.6080 -0.2257
  657TMC3    O2 9734   0.552   2.932  15.935 -0.0121  0.2247 -0.2825
  658MPD2     C 9735   2.341   2.915  14.769  0.1464 -0.3882 -0.2975
  658MPD2    C1 9736   2.235   2.846  14.724 -0.2305  0.2904 -0.8064
  658MPD2    C2 9737   2.217   2.817  14.584 -0.9994 -0.2605 -0.1262
  658MPD2    C3 9738   2.306   2.865  14.489 -0.7279  0.4930 -1.0229
  658MPD2    C4 9739   2.421   2.930  14.539 -0.7699 -0.7266 -0.3094
  658MPD2    C5 9740   2.438   2.953  14.678 -0.1495  0.4023 -0.4727
  658MPD2     H 9741   2.140   2.748  14.551 -1.2777  0.0878 -0.2113
  658MPD2    H1 9742   2.506   2.949  14.474  0.6449 -2.3224  1.0945
  658MPD2    H2 9743   2.369   2.921  14.874 -0.2609 -0.3568 -0.1901
  658MPD2    H3 9744   2.536   2.972  14.720 -0.2500 -0.6201  0.2263
  658MPD2     N 9745   2.273   2.857  14.355  0.3192  0.0118  0.3753
  658MPD2    H5 9746   2.193   2.803  14.326 -1.2249  2.5163 -0.0936
  658MPD2    N1 9747   2.129   2.805  14.813 -0.5141 -0.9002  0.3118
  658MPD2    H7 9748   2.152   2.813  14.911 -3.6507  1.1002  0.8920
  659TMC3    C1 9749   1.902   2.757  14.887 -0.1320  0.4209  0.0360
  659TMC3    C2 9750   1.937   2.755  15.019  0.0258 -0.0861  0.3294
  659TMC3    C3 9751   1.839   2.730  15.101  0.1878  0.2104 -0.5891
  659TMC3    C4 9752   1.767   2.756  14.842  0.2400  0.2602 -0.0320
  659TMC3    C5 9753   1.665   2.732  14.933 -0.4497 -0.1612  0.1142
  659TMC3    C6 9754   1.712   2.705  15.059 -0.7426  0.3396 -0.3730
  659TMC3     C 9755   1.996   2.776  14.780 -0.1191  0.9128  0.0497
  659TMC3     O 9756   1.948   2.728  14.680 -0.3530  0.2249 -0.3034
  659TMC3     H 9757   2.037   2.767  15.060  0.2388  0.9403 -0.4952
  659TMC3    H1 9758   1.740   2.797  14.745  0.7034 -0.8978 -0.6516
  659TMC3    H2 9759   1.632   2.702  15.132  0.4899  2.1771  1.0552
  659TMC3    C7 9760   1.524   2.743  14.912 -0.4233 -0.4840  0.4385
  659TMC3    C8 9761   1.846   2.789  15.228  0.0683  0.6868 -0.3961
  659TMC3    O1 9762   1.456   2.704  15.006 -0.2656  0.1155 -0.1517
  659TMC3    O2 9763   1.746   2.855  15.261 -0.1004  0.7829  0.4717
  660MPD2     C 9764   0.277   1.230  12.370 -0.1757  0.4299  0.4700
  660MPD2    C1 9765   0.146   1.250  12.353  1.6340  0.2054  0.4431
  660MPD2    C2 9766   0.058   1.161  12.424  1.0386  0.1406  0.2830
  660MPD2    C3 9767   0.109   1.058  12.500 -0.1207 -0.1937  0.0533
  660MPD2    C4 9768   0.243   1.033  12.509 -0.1663 -0.4964 -0.6421
  660MPD2    C5 9769   0.322   1.120  12.442  0.2872  0.5155  0.2629
  660MPD2     H 9770   4.675   1.158  12.402  0.9028  0.1950  0.9493
  660MPD2    H1 9771   0.275   0.943  12.560 -1.9672 -0.1629  1.1090
  660MPD2    H2 9772   0.353   1.287  12.317  0.7271 -0.2118  1.0816
  660MPD2    H3 9773   0.430   1.109  12.447  0.5465  2.3120 -1.3248
  660MPD2     N 9774   0.016   0.978  12.576  0.0224  0.4152 -0.2939
  660MPD2    H5 9775   0.058   0.897  12.620 -0.7705  0.6326  0.8646
  660MPD2    N1 9776   0.103   1.360  12.268  0.6483  0.2019  0.7164
  660MPD2    H7 9777   0.174   1.427  12.240 -0.0349  0.7593  0.3152
  661TMC3    C1 9778   4.675   1.496  12.139  0.2991 -0.0402  0.6743
  661TMC3    C2 9779   0.037   1.520  12.040  0.2130 -0.1437 -0.6167
  661TMC3    C3 9780   4.706   1.606  11.947 -0.3102  0.2578  0.0028
  661TMC3    C4 9781   4.553   1.550  12.149  0.1853 -0.2929  0.4481
  661TMC3    C5 9782   4.506   1.644  12.061  0.3334 -0.4286 -0.4203
  661TMC3    C6 9783   4.579   1.663  11.942 -0.1667  0.0592  0.5818
  661TMC3     C 9784   4.695   1.380  12.223  0.2343 -0.0051  0.5737
  661TMC3     O 9785   4.593   1.314  12.245  0.2571 -0.3992  0.3798
  661TMC3     H 9786   0.141   1.490  12.038 -0.1427 -1.3343 -1.0794
  661TMC3    H1 9787   4.480   1.518  12.223  1.8051 -3.1348  0.7823
  661TMC3    H2 9788   4.545   1.728  11.863  1.9289 -0.2514 -0.5834
  661TMC3    C7 9789   4.368   1.680  12.069  0.0269 -0.2339 -0.0161
  661TMC3    C8 9790   0.072   1.637  11.839  0.0603 -0.4550 -0.2355
  661TMC3    O1 9791   4.326   1.709  12.182 -0.1181 -0.2886  0.3200
  661TMC3    O2 9792   0.151   1.545  11.815  0.1543 -0.0550  0.6011
  662MPD2     C 9793   0.353   1.633  17.434 -0.7901 -0.1873  0.4331
  662MPD2    C1 9794   0.378   1.584  17.566  0.0870 -0.6470 -0.3516
  662MPD2    C2 9795   0.331   1.667  17.665 -0.1572  0.2823 -0.9654
  662MPD2    C3 9796   0.260   1.783  17.643 -0.1509 -0.4232 -0.4180
  662MPD2    C4 9797   0.243   1.823  17.516  0.6366  0.7935 -0.0843
  662MPD2    C5 9798   0.284   1.749  17.413 -1.2781 -0.1255 -0.5978
  662MPD2     H 9799   0.355   1.634   0.071 -1.1819  0.1545 -0.7598
  662MPD2    H1 9800   0.182   1.910  17.493 -2.4981 -1.3353  0.1995
  662MPD2    H2 9801   0.385   1.574  17.348 -2.6585 -0.5526 -0.0127
  662MPD2    H3 9802   0.270   1.788  17.313  0.8057 -1.6725 -1.4972
  662MPD2     N 9803   0.188   1.848   0.058 -0.2735 -0.4052 -0.5008
  662MPD2    H5 9804   0.142   1.933   0.028 -1.3300 -1.4960 -1.9250
  662MPD2    N1 9805   0.420   1.465  17.605  0.9189 -0.3409 -0.6870
  662MPD2    H7 9806   0.411   1.441   0.010 -0.8082 -1.1107 -1.0272
  663TMC3    C1 9807   0.475   1.243  17.584 -0.9252 -0.5730 -0.4123
  663TMC3    C2 9808   0.468   1.254   0.028  0.3682 -0.2257 -0.4836
  663TMC3    C3 9809   0.414   1.148   0.098  0.3153 -0.7245 -0.1853
  663TMC3    C4 9810   0.425   1.143  17.508  0.0772  0.1240 -0.1129
  663TMC3    C5 9811   0.372   1.043  17.577 -0.1820  0.5115  0.6263
  663TMC3    C6 9812   0.376   1.036   0.025  0.4072  0.3348  0.2814
  663TMC3     C 9813   0.469   1.374  17.517 -0.0888  0.1821 -0.0935
  663TMC3     O 9814   0.471   1.371  17.392 -0.0398  0.2008  0.0699
  663TMC3     H 9815   0.546   1.313   0.074  0.1146  0.1225 -0.4994
  663TMC3    H1 9816   0.406   1.154  17.402 -0.9609 -2.6827 -0.2281
  663TMC3    H2 9817   0.312   0.959   0.066  1.8296 -0.0280  1.8359
  663TMC3    C7 9818   0.289   0.941  17.513 -0.3287 -0.0867 -0.4347
  663TMC3    C8 9819   0.489   1.104   0.227 -0.0382 -0.7440  0.2688
  663TMC3    O1 9820   0.199   0.884  17.573  0.3808  0.6049  0.7677
  663TMC3    O2 9821   0.502   0.987   0.250  0.2448  0.0613  0.8376
  664MPD2     C 9822   2.855   4.258  17.477  0.4810 -0.0908  0.3780
  664MPD2    C1 9823   2.939   4.369  17.501 -0.2115  0.1854 -0.2299
  664MPD2    C2 9824   2.999   4.379  17.620  0.2879  0.4662  0.1571
  664MPD2    C3 9825   2.989   4.284   0.023 -0.2037 -0.1196 -0.2976
  664MPD2    C4 9826   2.904   4.178  17.693  0.4097 -0.0917 -0.0025
  664MPD2    C5 9827   2.843   4.162  17.574  0.2785  0.0026  0.1063
  664MPD2     H 9828   3.055   4.470  17.638  0.7377  0.3309 -0.5637
  664MPD2    H1 9829   2.882   4.103   0.075  0.4818  0.2870  0.3938
  664MPD2    H2 9830   2.806   4.235  17.383  1.2218 -2.1890  0.5183
  664MPD2    H3 9831   2.763   4.091  17.563 -0.9632  1.0696  2.1136
  664MPD2     N 9832   3.049   4.298   0.146  0.1953  0.1371 -0.4577
  664MPD2    H5 9833   3.110   4.379   0.154  0.7516 -0.5327  1.9814
  664MPD2    N1 9834   2.958   4.470  17.406 -0.1985  0.0067 -0.5577
  664MPD2    H7 9835   3.021   4.546  17.430  1.0007 -1.0150 -0.4485
  665TMC3    C1 9836   3.110   4.263   0.365  0.1756  0.8076  0.0787
  665TMC3    C2 9837   3.115   4.179   0.473  0.7323  0.7641 -0.0621
  665TMC3    C3 9838   3.181   4.229   0.585 -0.0377  0.5822 -0.2225
  665TMC3    C4 9839   3.154   4.395   0.363  0.4553  0.5110  0.0365
  665TMC3    C5 9840   3.228   4.436   0.472  0.5431  0.6350 -0.4617
  665TMC3    C6 9841   3.246   4.354   0.585  0.0042  0.3016 -0.3031
  665TMC3     C 9842   3.040   4.210   0.250 -0.2776 -0.3257  0.0728
  665TMC3     O 9843   2.985   4.104   0.268 -0.4872  0.2675  0.0706
  665TMC3     H 9844   3.077   4.077   0.469 -0.1535  1.1566 -1.7021
  665TMC3    H1 9845   3.158   4.469   0.284  1.7685  0.4616  0.0631
  665TMC3    H2 9846   3.282   4.394   0.679 -1.7380  0.6230  0.2280
  665TMC3    C7 9847   3.302   4.566   0.470  0.0531  0.7257 -0.2227
  665TMC3    C8 9848   3.180   4.156   0.710  0.2369 -0.0684 -0.4041
  665TMC3    O1 9849   3.345   4.602   0.358  0.0858  0.1313  0.4643
  665TMC3    O2 9850   3.231   4.206   0.808  0.3746  0.0581 -0.0265
  666TMC3    C1 9851   2.263   4.435   9.582  0.5434  0.4656 -0.8715
  666TMC3    C2 9852   2.379   4.390   9.528  0.1399  0.1316 -0.4317
  666TMC3    C3 9853   2.496   4.454   9.566  0.0312 -0.4896 -0.8319
  666TMC3    C4 9854   2.244   4.545   9.660  0.0893 -0.6597  0.4285
  666TMC3    C5 9855   2.359   4.611   9.696 -0.1041 -0.1179  0.8399
  666TMC3    C6 9856   2.481   4.571   9.638 -0.7909  0.1441 -0.2701
  666TMC3     C 9857   2.140   4.363   9.545  0.2637 -0.6005  0.1074
  666TMC3     O 9858   2.036   4.430   9.531  0.6096  0.2649  0.2106
  666TMC3     H 9859   2.385   4.297   9.471 -1.7156 -1.6650  2.2802
  666TMC3    H1 9860   2.149   4.571   9.705 -2.0335  0.2201 -4.5955
  666TMC3    H2 9861   2.567   4.634   9.656 -0.4459 -0.1175 -0.9841
  666TMC3    C7 9862   2.354   0.015   9.767  0.4574  0.7371 -0.4056
  666TMC3    C8 9863   2.604   4.369   9.604  0.2691 -0.5471 -0.2680
  666TMC3    O1 9864   2.439   0.099   9.744 -0.4604  0.0362 -0.2605
  666TMC3    O2 9865   2.590   4.247   9.594  0.1335 -0.7650 -0.2518
  667MPD2     C 9866   4.125   4.402  14.377  0.6133 -0.3347  0.5937
  667MPD2    C1 9867   4.010   4.463  14.430  0.8348 -0.7637 -0.0033
  667MPD2    C2 9868   3.891   4.391  14.428  0.1028  0.1912  0.9198
  667MPD2    C3 9869   3.899   4.253  14.393 -0.2902 -0.7155  0.3193
  667MPD2    C4 9870   4.017   4.195  14.358 -0.1667 -0.1732  0.4559
  667MPD2    C5 9871   4.127   4.277  14.335  0.6273 -0.8052 -0.1815
  667MPD2     H 9872   3.796   4.436  14.454  0.7430  0.7835  2.1961
  667MPD2    H1 9873   4.026   4.091  14.330  1.7088 -0.8080  3.3965
  667MPD2    H2 9874   4.219   4.457  14.374 -0.7088  1.9704  1.0565
  667MPD2    H3 9875   4.219   4.236  14.297  0.5113 -0.4076 -0.8900
  667MPD2     N 9876   3.786   4.169  14.406  0.1700  0.2464  0.2338
  667MPD2    H5 9877   3.796   4.074  14.370  1.0122  0.1275  0.7859
  667MPD2    N1 9878   3.997   4.598  14.472  0.6657 -0.2181 -0.5187
  667MPD2    H7 9879   3.904   4.635  14.490  0.3082 -1.4900  0.2617
  668TMC3    C1 9880   4.064   0.073  14.576  0.6536 -0.0036  0.0106
  668TMC3    C2 9881   4.126   0.198  14.568 -0.6778 -0.6102  0.6972
  668TMC3    C3 9882   4.101   0.283  14.670  0.3400  0.0303  0.5380
  668TMC3    C4 9883   3.982   0.042  14.683 -0.3892 -0.7308  0.2500
  668TMC3    C5 9884   3.959   0.128  14.783 -0.5990 -0.4075  0.8381
  668TMC3    C6 9885   4.016   0.254  14.777  0.0415  0.0605 -0.4078
  668TMC3     C 9886   4.099   4.689  14.480  0.0695  1.2197  0.1004
  668TMC3     O 9887   4.209   4.687  14.420 -0.3265 -0.3573  0.3155
  668TMC3     H 9888   4.184   0.221  14.480 -1.0209 -2.5704 -0.0240
  668TMC3    H1 9889   3.955   4.661  14.691 -0.3613 -0.9103 -2.0272
  668TMC3    H2 9890   3.998   0.330  14.852  1.2695 -0.4179  0.3698
  668TMC3    C7 9891   3.899   0.094  14.915 -0.0709  0.3947 -0.6943
  668TMC3    C8 9892   4.161   0.415  14.678  0.3659 -0.1996 -0.4432
  668TMC3    O1 9893   3.940   0.164  15.010  0.0269  0.4937 -0.3869
  668TMC3    O2 9894   4.097   0.501  14.733 -0.2059 -0.2564  0.4200
  669TMC3    C1 9895   2.018   4.222  14.493  0.6253 -0.1168  0.4625
  669TMC3    C2 9896   1.914   4.195  14.412 -0.3354 -0.7921  0.1646
  669TMC3    C3 9897   1.915   4.255  14.284  0.5079 -0.3764 -0.1316
  669TMC3    C4 9898   2.133   4.282  14.442 -0.1673 -0.1699 -0.1314
  669TMC3    C5 9899   2.131   4.347  14.320  0.3174  0.4777 -0.0980
  669TMC3    C6 9900   2.024   4.322  14.238  0.2140  0.9154 -0.0840
  669TMC3     C 9901   2.033   4.153  14.621  0.2577 -0.2730  0.5606
  669TMC3     O 9902   2.134   4.093  14.635 -0.2867 -0.1193  0.1053
  669TMC3     H 9903   1.826   4.140  14.443 -0.9921  0.3040  0.2452
  669TMC3    H1 9904   2.221   4.297  14.504  0.6869  2.8318 -2.0726
  669TMC3    H2 9905   2.029   4.348  14.133  0.3643  1.2901  0.0130
  669TMC3    C7 9906   2.239   4.446  14.287  0.0951  0.5899  0.0995
  669TMC3    C8 9907   1.783   4.266  14.220 -0.8602 -1.0607 -0.2109
  669TMC3    O1 9908   2.322   4.477  14.375 -0.2340 -0.1555 -0.1470
  669TMC3    O2 9909   1.693   4.199  14.269  0.4549 -0.1082  0.0403
  670MPD2     C 9910   4.700   1.916  13.256  0.1003 -0.3848  0.0221
  670MPD2    C1 9911   0.021   2.036  13.314 -0.5155  0.5951  0.0353
  670MPD2    C2 9912   4.706   2.054  13.445  0.3731  0.4857  0.1844
  670MPD2    C3 9913   4.645   1.949  13.521 -0.7927  0.2062 -0.1330
  670MPD2    C4 9914   4.597   1.838  13.454  0.9521  0.1873 -0.3765
  670MPD2    C5 9915   4.625   1.824  13.323 -0.0998 -0.2371  0.3347
  670MPD2     H 9916   0.035   2.136  13.493  2.2683  0.0426 -1.1238
  670MPD2    H1 9917   4.544   1.764  13.514 -0.4476  0.4962 -1.2283
  670MPD2    H2 9918   4.705   1.881  13.153 -1.2265 -0.8766  0.1249
  670MPD2    H3 9919   4.587   1.734  13.275  0.5598  0.3803 -1.3525
  670MPD2     N 9920   4.625   1.956  13.662 -0.2579  0.7529 -0.6911
  670MPD2    H5 9921   4.586   1.875  13.708  2.5255  0.0405  0.3892
  670MPD2    N1 9922   0.099   2.128  13.250 -0.5198 -0.4465 -0.0246
  670MPD2    H7 9923   0.110   2.219  13.294  0.0186 -0.4484 -0.1540
  671TMC3    C1 9924   4.644   2.031  13.895 -0.8084 -0.6335  0.2707
  671TMC3    C2 9925   0.001   2.091  13.993 -0.1998 -0.9191  0.3934
  671TMC3    C3 9926   4.688   2.096  14.124  0.0732  0.6154 -1.0446
  671TMC3    C4 9927   4.523   1.972  13.926  0.1968  0.2711  0.0143
  671TMC3    C5 9928   4.485   1.978  14.056 -0.5143 -0.9980 -0.0371
  671TMC3    C6 9929   4.565   2.038  14.156 -0.3672 -0.6926 -0.3880
  671TMC3     C 9930   4.681   2.045  13.753 -0.0129  0.0006 -0.0923
  671TMC3     O 9931   0.051   2.117  13.728 -0.0280  0.0319 -0.1006
  671TMC3     H 9932   0.106   2.094  13.966 -0.0584 -2.1085  0.8413
  671TMC3    H1 9933   4.463   1.923  13.850 -1.2829 -0.2026  1.4955
  671TMC3    H2 9934   4.529   2.039  14.259 -1.8195  0.3703 -0.8993
  671TMC3    C7 9935   4.385   1.881  14.086 -0.2038  0.0150  0.8363
  671TMC3    C8 9936   0.067   2.057  14.222  0.2386  0.4956 -0.0888
  671TMC3    O1 9937   4.293   1.856  14.008  0.3850 -0.5346 -0.0054
  671TMC3    O2 9938   0.039   1.985  14.319  0.2550  0.4190  0.2836
  672MPD2     C 9939   0.547   2.642   0.664 -0.2157 -0.0221 -0.0154
  672MPD2    C1 9940   0.622   2.759   0.683  0.1011  0.3103 -0.2391
  672MPD2    C2 9941   0.587   2.839   0.787 -0.2462 -0.4908 -0.3952
  672MPD2    C3 9942   0.488   2.811   0.872  0.1783  0.4365  0.0549
  672MPD2    C4 9943   0.413   2.700   0.852  0.3675  0.6161  0.4436
  672MPD2    C5 9944   0.433   2.620   0.743 -0.2448  0.4617 -0.2302
  672MPD2     H 9945   0.637   2.934   0.798 -1.0396  0.2400 -3.0183
  672MPD2    H1 9946   0.340   2.666   0.925 -2.1307  2.3827 -1.2308
  672MPD2    H2 9947   0.559   2.572   0.582 -2.4060  0.2570 -0.5836
  672MPD2    H3 9948   0.381   2.527   0.721  0.8793 -0.3415  0.5115
  672MPD2     N 9949   0.488   2.875   0.996  0.2721 -0.7436 -0.8450
  672MPD2    H5 9950   0.426   2.844   1.071 -2.5388  0.7201 -2.5704
  672MPD2    N1 9951   0.732   2.798   0.596 -0.3313 -0.0672 -0.2626
  672MPD2    H7 9952   0.770   2.891   0.610 -0.9923  0.0660  0.6542
  673TMC3    C1 9953   0.919   2.779   0.474  1.1632  0.0747  0.5550
  673TMC3    C2 9954   1.032   2.724   0.522 -0.6513  0.6730 -0.5273
  673TMC3    C3 9955   1.138   2.805   0.541 -0.1423  0.4792  0.4786
  673TMC3    C4 9956   0.917   2.908   0.432  0.0207 -0.1587  0.2497
  673TMC3    C5 9957   1.028   2.984   0.430  0.3935 -0.2851  0.0749
  673TMC3    C6 9958   1.148   2.927   0.479  0.7366 -0.0316  0.9687
  673TMC3     C 9959   0.801   2.712   0.522 -0.0926 -0.5919  0.2459
  673TMC3     O 9960   0.793   2.592   0.515  0.2951  0.0156  0.2617
  673TMC3     H 9961   1.028   2.625   0.564 -1.5954  0.6065 -0.7770
  673TMC3    H1 9962   0.826   2.956   0.399 -0.2091  1.1763  2.8356
  673TMC3    H2 9963   1.242   2.980   0.467  1.2664 -0.9852  0.9354
  673TMC3    C7 9964   1.028   3.121   0.387 -0.6236  0.0236  0.5376
  673TMC3    C8 9965   1.255   2.763   0.610  0.3167 -0.1211 -0.9764
  673TMC3    O1 9966   1.136   3.176   0.373  0.5449 -0.6582  0.0594
  673TMC3    O2 9967   1.358   2.826   0.604  0.2343  0.0510 -0.6962
  674MPD2     C 9968   0.864   2.982   0.032  0.2364  0.0307  0.1025
  674MPD2    C1 9969   0.836   2.856   0.080 -0.5850 -0.6259 -0.2895
  674MPD2    C2 9970   0.728   2.840   0.168 -0.2937  1.2705  0.5050
  674MPD2    C3 9971   0.648   2.946   0.203 -0.2784 -0.6976  0.1446
  674MPD2    C4 9972   0.680   3.078   0.155 -0.2208 -0.3256 -0.6996
  674MPD2    C5 9973   0.790   3.088   0.071  0.5053  0.0055  0.2094
  674MPD2     H 9974   0.704   2.744   0.213  1.7924  1.1549  1.4030
  674MPD2    H1 9975   0.627   3.165   0.191 -0.3440 -0.5480 -0.3346
  674MPD2    H2 9976   0.935   3.003  17.648 -0.8487 -1.9753 -1.4418
  674MPD2    H3 9977   0.819   3.188   0.040  0.5594 -0.4973 -1.3701
  674MPD2     N 9978   0.534   2.919   0.288 -1.1781  0.8111  0.1237
  674MPD2    H5 9979   0.516   2.822   0.313  0.9962  0.2466 -0.5229
  674MPD2    N1 9980   0.923   2.748   0.038 -0.0955  0.4173 -0.4309
  674MPD2    H7 9981   0.999   2.774  17.670 -0.2688  1.1861 -0.3179
  675TMC3    C1 9982   1.023   2.533   0.042  0.3700 -0.7935 -0.5186
  675TMC3    C2 9983   1.058   2.447   0.142 -0.4086  0.2330 -0.5893
  675TMC3    C3 9984   1.180   2.387   0.134 -0.3618 -0.5718 -0.6619
  675TMC3    C4 9985   1.098   2.559  17.625 -0.7249 -0.4205 -0.2909
  675TMC3    C5 9986   1.219   2.498  17.625  0.3152 -0.0364  0.0277
  675TMC3    C6 9987   1.261   2.407   0.027 -0.4852 -1.0479 -0.0877
  675TMC3     C 9988   0.910   2.621   0.081  0.1170 -0.4727  0.1191
  675TMC3     O 9989   0.826   2.570   0.154  0.2487  0.5224  0.8679
  675TMC3     H 9990   1.013   2.450   0.240  0.3597 -1.7236 -0.1787
  675TMC3    H1 9991   1.071   2.634  17.552  0.5934 -0.1090 -0.4643
  675TMC3    H2 9992   1.354   2.351   0.028  1.1040  1.5646  1.9976
  675TMC3    C7 9993   1.291   2.482  17.501  0.6949  0.0264  0.2163
  675TMC3    C8 9994   1.241   2.330   0.257  0.0453 -0.1842  0.1254
  675TMC3    O1 9995   1.229   2.499  17.398 -0.5706 -0.5410  0.2868
  675TMC3    O2 9996   1.365   2.331   0.261  0.1418 -0.1492  0.0792
  676MPD2     C 9997   2.814   0.621  10.767 -0.2689  0.3042  0.7304
  676MPD2    C1 9998   2.778   0.534  10.864  0.8400  0.1692 -0.5298
  676MPD2    C2 9999   2.787   0.395  10.831  0.4123 -0.5202  0.4469
  676MPD2    C310000   2.833   0.346  10.708  0.3622 -0.1839 -0.1012
  676MPD2    C410001   2.867   0.440  10.617  0.1991  0.4530  1.0904
  676MPD2    C510002   2.856   0.574  10.647 -0.1367 -0.0590  0.7500
  676MPD2     H10003   2.748   0.326  10.904  0.6044 -0.4253  0.6382
  676MPD2    H110004   2.908   0.418  10.519  1.6594  1.0281  1.5809
  676MPD2    H210005   2.810   0.727  10.792 -1.3098  0.2500  0.7831
  676MPD2    H310006   2.866   0.647  10.567 -0.7419 -1.5766 -0.6859
  676MPD2     N10007   2.848   0.209  10.678  0.0884  0.0361 -0.0358
  676MPD2    H510008   2.870   0.196  10.580  0.5289  0.4108  0.0125
  676MPD2    N110009   2.703   0.579  10.977  0.7177 -0.1311  0.5081
  676MPD2    H710010   2.666   0.515  11.046 -1.4122 -1.3423 -1.7785
  677TMC3    C110011   2.638   0.717  11.149  0.1958  0.4085 -0.0841
  677TMC3    C210012   2.523   0.644  11.162 -0.2883  0.0648 -0.1315
  677TMC3    C310013   2.452   0.655  11.276  0.3331 -0.5249  0.3285
  677TMC3    C410014   2.685   0.802  11.244 -0.1447  0.2379 -0.1410
  677TMC3    C510015   2.617   0.809  11.354 -1.0878  0.3361 -0.4330
  677TMC3    C610016   2.496   0.746  11.372 -0.7091  0.1543 -0.1501
  677TMC3     C10017   2.702   0.704  11.022 -0.3618 -0.5238 -0.0006
  677TMC3     O10018   2.768   0.804  10.994  0.5504 -0.1841  0.8199
  677TMC3     H10019   2.470   0.587  11.086 -1.8539  0.7887  0.4112
  677TMC3    H110020   2.782   0.851  11.231 -0.1640  0.7709  1.6924
  677TMC3    H210021   2.441   0.763  11.464 -1.2396 -1.1301 -0.2359
  677TMC3    C710022   2.675   0.866  11.478  0.1249  0.0903  0.3614
  677TMC3    C810023   2.363   0.550  11.304 -0.8446  0.1950  0.0490
  677TMC3    O110024   2.618   0.843  11.582  0.2288  0.5777  0.1169
  677TMC3    O210025   2.255   0.556  11.247 -0.0395  0.0327  0.1100
  678MPD2     C10026   3.955   1.142   1.579 -0.3932  0.0982  0.6867
  678MPD2    C110027   4.019   1.051   1.501  0.3294 -0.2808 -0.4176
  678MPD2    C210028   3.946   0.959   1.424 -0.0364 -0.2429  0.1040
  678MPD2    C310029   3.805   0.969   1.417  0.3179  0.2383  0.3793
  678MPD2    C410030   3.741   1.063   1.496  0.1360 -0.8095  0.0618
  678MPD2    C510031   3.815   1.152   1.572 -0.0532 -0.3437 -0.3119
  678MPD2     H10032   3.991   0.894   1.349  0.2003  0.3107 -0.2340
  678MPD2    H110033   3.633   1.075   1.494  0.3474  0.8959 -1.4306
  678MPD2    H210034   4.004   1.205   1.652 -0.5936  1.4621 -0.3659
  678MPD2    H310035   3.757   1.226   1.625  0.8124 -1.2251  1.8534
  678MPD2     N10036   3.736   0.885   1.325 -0.5679 -0.0683  0.1023
  678MPD2    H510037   3.793   0.831   1.260  2.3508  2.7318  0.3370
  678MPD2    N110038   4.159   1.052   1.493 -0.3523  0.2388 -0.0413
  678MPD2    H710039   4.200   0.976   1.439 -0.6316 -0.9428  1.4241
  679TMC3    C110040   4.570   1.020   1.565  0.3963 -1.2549  0.7264
  679TMC3    C210041   4.435   1.021   1.556 -0.2358  0.3536  0.2075
  679TMC3    C310042   4.379   1.136   1.508 -0.2536 -0.0110 -0.0418
  679TMC3    C410043   4.654   1.125   1.528 -0.2303  0.8985  0.6122
  679TMC3    C510044   4.588   1.240   1.487  0.2058 -0.4086  0.3674
  679TMC3    C610045   4.452   1.250   1.476 -0.0216  0.0284 -0.6160
  679TMC3     C10046   4.639   0.893   1.610 -0.0670  0.3882  0.2484
  679TMC3     O10047   0.039   0.893   1.610 -0.3337  0.1014  0.6590
  679TMC3     H10048   4.368   0.942   1.586  1.2644 -1.4775 -1.2900
  679TMC3    H110049   0.039   1.115   1.529 -0.3384 -0.2299  1.0804
  679TMC3    H210050   4.394   1.329   1.430  0.5500  0.7924 -0.0370
  679TMC3    C710051   4.664   1.329   1.407  1.1683  0.0959  0.8269
  679TMC3    C810052   4.236   1.157   1.537 -0.0273  0.5633  0.6915
  679TMC3    O110053   0.061   1.298   1.373  0.2269  0.1466  0.5991
  679TMC3    O210054   4.207   1.264   1.581  0.3739  0.2640  0.2821
  680MPD2     C10055   0.391   3.364  13.783 -0.0193  0.8175 -0.4337
  680MPD2    C110056   0.268   3.402  13.739  0.2458  0.3033 -0.2403
  680MPD2    C210057   0.227   3.536  13.750  0.3423  0.7521 -0.2102
  680MPD2    C310058   0.310   3.634  13.801 -0.4793 -0.6550 -0.4608
  680MPD2    C410059   0.439   3.595  13.835 -0.3115  0.0552 -0.4043
  680MPD2    C510060   0.474   3.466  13.835  0.0581  0.7770  0.7196
  680MPD2     H10061   0.125   3.564  13.723 -0.9437 -2.1603  1.6619
  680MPD2    H110062   0.511   3.671  13.862  0.6238 -0.1212 -2.3436
  680MPD2    H210063   0.431   3.263  13.773 -2.3664 -0.3033  1.4530
  680MPD2    H310064   0.578   3.443  13.858 -0.6139 -0.8789  2.1596
  680MPD2     N10065   0.283   3.776  13.808  0.5790  0.2454  0.1795
  680MPD2    H510066   0.366   3.833  13.820  1.0309 -0.3087 -0.3203
  680MPD2    N110067   0.174   3.309  13.691  0.7632 -0.4647 -0.5518
  680MPD2    H710068   0.085   3.354  13.671  0.7530 -1.1968 -2.2183
  681TMC3    C110069   0.084   3.125  13.589  0.1443 -0.3764  0.1141
  681TMC3    C210070   4.690   3.185  13.637 -0.0702  0.4448  0.1454
  681TMC3    C310071   4.580   3.176  13.554  0.5165  0.2338  0.2160
  681TMC3    C410072   0.097   3.077  13.459  0.4038  0.3449 -0.9764
  681TMC3    C510073   4.708   3.070  13.386  0.5127 -1.1336  0.0787
  681TMC3    C610074   4.584   3.109  13.428  0.3225  0.2024  0.2860
  681TMC3     C10075   0.203   3.181  13.644  0.8742  0.6354  0.4357
  681TMC3     O10076   0.312   3.137  13.616 -0.1341  0.0084 -0.3465
  681TMC3     H10077   4.673   3.209  13.741 -0.4755 -0.7271  0.3535
  681TMC3    H110078   0.188   3.033  13.419  1.6863 -0.6981  3.0470
  681TMC3    H210079   4.493   3.092  13.372  0.8110 -1.6456  0.0642
  681TMC3    C710080   4.719   3.020  13.249  0.2226 -0.5792 -0.5805
  681TMC3    C810081   4.462   3.260  13.578  0.2295  0.1569  0.5300
  681TMC3    O110082   4.635   2.931  13.223 -0.3067 -0.0233 -0.0296
  681TMC3    O210083   4.346   3.224  13.546 -0.4656 -0.4776 -0.1420
  682MPD2     C10084   1.427   0.517  10.754 -0.0167 -0.9598 -0.0045
  682MPD2    C110085   1.502   0.424  10.822  0.5272  0.5234  0.3253
  682MPD2    C210086   1.466   0.384  10.951  0.2001 -0.1433  0.5893
  682MPD2    C310087   1.358   0.447  11.016  0.0108 -0.1575  0.3079
  682MPD2    C410088   1.296   0.549  10.955  0.6291  0.4960  0.1156
  682MPD2    C510089   1.324   0.581  10.823  0.3331  0.2204 -0.0806
  682MPD2     H10090   1.526   0.305  10.996 -1.7020 -2.1510 -0.3812
  682MPD2    H110091   1.211   0.599  11.000 -0.2247  1.3213 -2.3953
  682MPD2    H210092   1.442   0.546  10.651 -2.4141 -0.2976 -0.1557
  682MPD2    H310093   1.271   0.662  10.774 -1.8419 -1.0690  0.1835
  682MPD2     N10094   1.311   0.416  11.143  0.4711  0.4337 -0.0487
  682MPD2    H510095   1.225   0.459  11.176  0.8427  1.6139 -0.6618
  682MPD2    N110096   1.609   0.344  10.760 -0.7192 -0.7872 -0.6734
  682MPD2    H710097   1.667   0.292  10.825 -0.9591 -0.6498 -0.3449
  683TMC3    C110098   1.313   0.209  11.551 -1.3374  0.7230 -0.1505
  683TMC3    C210099   1.241   0.101  11.514  0.3853  0.2023 -0.5401
  683TMC3    C310100   1.174   0.104  11.395 -0.3991  0.0512 -0.1001
  683TMC3    C410101   1.340   0.307  11.457  0.1736  0.2905 -0.0580
  683TMC3    C510102   1.275   0.308  11.344 -0.0391  0.5602 -0.3914
  683TMC3    C610103   1.188   0.208  11.310  0.1004 -0.2934 -0.1898
  683TMC3     C10104   1.394   0.206  11.672  0.1727  0.6871  0.0682
  683TMC3     O10105   1.509   0.238  11.655  0.9771  0.1618  0.0583
  683TMC3     H10106   1.240   0.010  11.574 -1.2826  1.5806  1.5212
  683TMC3    H110107   1.410   0.384  11.488 -3.0853  2.1946  2.5631
  683TMC3    H210108   1.157   0.197  11.207 -0.3656 -0.1193 -0.0696
  683TMC3    C710109   1.365   0.333  11.237 -0.4685  0.2233  0.3573
  683TMC3    C810110   1.114   4.704  11.347 -0.3136  0.4946 -0.1707
  683TMC3    O110111   1.470   0.264  11.232 -0.1792  0.2623  0.3599
  683TMC3    O210112   1.032   4.716  11.255  0.5466  0.2953 -0.9428
  684MPD2     C10113   0.102   4.712  16.106  0.4129  0.1124  0.1414
  684MPD2    C110114   0.073   0.042  15.984 -0.7565 -0.1692 -0.1852
  684MPD2    C210115   0.060   0.177  15.971 -0.3506 -0.0940  0.0567
  684MPD2    C310116   0.079   0.259  16.078  0.0309 -0.1508  0.1922
  684MPD2    C410117   0.114   0.201  16.200  0.3186  0.2255  0.2436
  684MPD2    C510118   0.120   0.066  16.216 -0.1832  0.1202 -0.2202
  684MPD2     H10119   0.048   0.215  15.871  0.5630  0.3725  0.1289
  684MPD2    H110120   0.131   0.268  16.284 -0.9063 -0.3675  0.9711
  684MPD2    H210121   0.110   4.605  16.124  2.4800  0.2387 -0.0023
  684MPD2    H310122   0.151   0.025  16.311 -2.3148 -0.6175  0.1419
  684MPD2     N10123   0.077   0.402  16.077 -0.2450  0.1201 -1.0196
  684MPD2    H510124   0.113   0.451  16.158 -2.1812  0.7042 -0.5070
  684MPD2    N110125   0.048   4.691  15.868  0.7126 -0.5553 -0.1103
  684MPD2    H710126   0.015   0.008  15.780  0.3974 -0.0595  0.2364
  685TMC3    C110127   0.078   4.520  15.712  0.1578 -0.0439  0.1655
  685TMC3    C210128   4.712   4.583  15.629 -0.1289  0.3421 -0.9249
  685TMC3    C310129   4.703   4.540  15.502 -1.1110  0.4194  0.1060
  685TMC3    C410130   0.168   4.426  15.667 -0.2862  0.4647  0.8364
  685TMC3    C510131   0.159   4.408  15.535 -0.2367 -0.2702  0.0996
  685TMC3    C610132   0.051   4.441  15.456  0.7580 -0.0804 -0.1357
  685TMC3     C10133   0.092   4.565  15.852 -0.3627  0.4966  0.1811
  685TMC3     O10134   0.177   4.507  15.919  0.6232 -0.4015  0.2728
  685TMC3     H10135   4.665   4.678  15.650  2.5482  1.4816 -0.0659
  685TMC3    H110136   0.248   4.380  15.724 -1.6996 -1.8045  0.9821
  685TMC3    H210137   0.045   4.421  15.350 -0.8372 -1.4856  0.2234
  685TMC3    C710138   0.281   4.450  15.464 -0.3374  0.1281 -0.1876
  685TMC3    C810139   4.573   4.570  15.439  0.7950 -0.5206  1.0647
  685TMC3    O110140   0.271   4.469  15.345  0.4462 -0.2913 -0.0465
  685TMC3    O210141   4.572   4.549  15.319 -0.3490  0.3237 -0.4367
  686MPD2     C10142   1.284   4.146  14.962  0.2610  0.0711 -0.1677
  686MPD2    C110143   1.379   4.165  15.064  0.4998 -0.3335 -0.3668
  686MPD2    C210144   1.464   4.061  15.083 -0.1050 -0.0302 -0.2185
  686MPD2    C310145   1.443   3.936  15.024  0.3227  0.1032  0.4353
  686MPD2    C410146   1.357   3.924  14.914  0.4394 -0.5335  0.1718
  686MPD2    C510147   1.275   4.031  14.893  1.1938  0.3920 -0.1650
  686MPD2     H10148   1.543   4.073  15.157  1.4110 -1.4424 -1.6194
  686MPD2    H110149   1.344   3.836  14.853  1.7593 -1.9271  1.8999
  686MPD2    H210150   1.213   4.224  14.940  0.6197  0.5938  0.5338
  686MPD2    H310151   1.197   4.019  14.817 -0.4753  0.3670  1.5481
  686MPD2     N10152   1.518   3.825  15.055 -0.4282 -0.5216  0.4151
  686MPD2    H510153   1.516   3.752  14.984 -0.8298  0.5421 -0.6681
  686MPD2    N110154   1.378   4.289  15.140 -0.5636 -0.3723  0.1368
  686MPD2    H710155   1.334   4.373  15.102 -1.8559 -0.9505  0.3689
  687TMC3    C110156   1.516   3.857  15.294  0.1909 -0.0748 -0.5292
  687TMC3    C210157   1.379   3.862  15.303  0.2923  0.9485  0.9835
  687TMC3    C310158   1.329   3.918  15.414 -0.8897 -0.5585  0.0536
  687TMC3    C410159   1.600   3.904  15.389 -0.0631  0.2452 -0.0468
  687TMC3    C510160   1.543   3.951  15.507 -0.2792  0.1217 -0.4422
  687TMC3    C610161   1.410   3.966  15.515 -0.3519 -0.1174  0.4539
  687TMC3     C10162   1.584   3.817  15.174  0.1871  0.3059 -0.7867
  687TMC3     O10163   1.696   3.775  15.200  0.3647  0.0720  0.0479
  687TMC3     H10164   1.314   3.823  15.225  0.7869  0.6074  0.7427
  687TMC3    H110165   1.705   3.917  15.366 -0.8883  2.9697 -2.2695
  687TMC3    H210166   1.352   4.010  15.595 -0.2683  2.4832 -0.8997
  687TMC3    C710167   1.612   4.046  15.587  0.2107 -0.1287  0.1885
  687TMC3    C810168   1.193   3.961  15.416  0.1440  0.0291 -0.6334
  687TMC3    O110169   1.565   4.158  15.607 -0.3596 -0.6167 -0.1715
  687TMC3    O210170   1.135   3.946  15.527 -0.4895  0.0142  0.3848
  688MPD2     C10171   0.686   3.823  16.967  0.0674 -0.1188  0.5547
  688MPD2    C110172   0.767   3.747  17.051  0.2065 -0.3603  0.7107
  688MPD2    C210173   0.882   3.688  16.994  0.4317  0.3475  0.6536
  688MPD2    C310174   0.909   3.698  16.858  0.3215  0.0444 -0.1258
  688MPD2    C410175   0.835   3.783  16.785 -0.6657 -0.4296 -0.1684
  688MPD2    C510176   0.724   3.841  16.841  0.3086 -0.5994 -0.3493
  688MPD2     H10177   0.955   3.638  17.057 -0.3077 -2.5348 -0.7363
  688MPD2    H110178   0.858   3.803  16.681  1.3915 -0.8024  0.2127
  688MPD2    H210179   0.608   3.887  17.007 -0.2337 -0.2276  0.1388
  688MPD2    H310180   0.663   3.907  16.780  2.5484  0.2450 -1.6754
  688MPD2     N10181   1.021   3.632  16.793  0.2078  0.2838 -0.0504
  688MPD2    H510182   1.035   3.655  16.695  0.4861 -2.4629 -0.6484
  688MPD2    N110183   0.736   3.713  17.190  0.0370  0.2098 -0.1078
  688MPD2    H710184   0.784   3.630  17.222  0.6487  0.6383  0.0863
  689TMC3    C110185   0.641   3.731  17.402 -0.1392  0.1083  0.2735
  689TMC3    C210186   0.624   3.819  17.510  0.2654 -0.2845 -1.1643
  689TMC3    C310187   0.606   3.760  17.637  0.4176 -0.6119 -1.1340
  689TMC3    C410188   0.605   3.601  17.414 -0.0165  0.3582 -0.1045
  689TMC3    C510189   0.575   3.551  17.540 -0.2758  0.3392 -0.1098
  689TMC3    C610190   0.581   3.627  17.657 -0.8206  0.2155  0.6239
  689TMC3     C10191   0.646   3.788  17.265 -0.2400  0.7890 -0.0958
  689TMC3     O10192   0.590   3.896  17.245 -0.5642  0.1152 -0.4100
  689TMC3     H10193   0.653   3.924  17.505  1.8071 -0.7648 -1.9297
  689TMC3    H110194   0.591   3.542  17.324  0.3674  1.1111 -0.6680
  689TMC3    H210195   0.577   3.577   0.059  1.1032 -0.1149  0.5470
  689TMC3    C710196   0.556   3.405  17.563  0.6482  0.0585 -0.3676
  689TMC3    C810197   0.593   3.838   0.067  0.1182 -0.3551  0.6536
  689TMC3    O110198   0.588   3.358  17.672  0.3802  0.1916 -0.1465
  689TMC3    O210199   0.531   3.789   0.161  0.5689 -0.2347  0.3927
  690MPD2     C10200   2.489   0.839  15.334 -0.2216  0.0955 -0.1913
  690MPD2    C110201   2.592   0.778  15.396  0.4009  0.0598  0.0470
  690MPD2    C210202   2.719   0.832  15.399  0.2420  0.5826  0.3877
  690MPD2    C310203   2.747   0.951  15.339  0.2613  0.1190 -0.7177
  690MPD2    C410204   2.638   1.018  15.291 -0.4148 -0.1531 -0.1300
  690MPD2    C510205   2.513   0.964  15.292 -0.6667  0.3468  0.4168
  690MPD2     H10206   2.799   0.775  15.446  0.8568  1.8452  0.8827
  690MPD2    H110207   2.649   1.118  15.250  2.0083  0.4139  1.9287
  690MPD2    H210208   2.388   0.801  15.339  0.5656 -1.5961  2.7668
  690MPD2    H310209   2.434   1.021  15.244 -0.3848 -0.1924 -0.6864
  690MPD2     N10210   2.874   1.001  15.311 -0.7394 -0.1843 -0.0154
  690MPD2    H510211   2.881   1.076  15.242  0.7554 -0.6726 -0.3975
  690MPD2    N110212   2.558   0.656  15.445 -0.1973 -0.2992  0.1400
  690MPD2    H710213   2.463   0.627  15.423  1.0450 -3.6661 -0.8088
  691TMC3    C110214   2.572   0.436  15.532 -0.5616 -0.4529  0.1908
  691TMC3    C210215   2.433   0.436  15.537  0.7642  0.2410  0.1551
  691TMC3    C310216   2.367   0.312  15.553 -0.6179 -0.6172  0.0481
  691TMC3    C410217   2.641   0.319  15.529  0.1143 -0.8669 -0.0718
  691TMC3    C510218   2.573   0.197  15.539 -0.0118 -0.1767  1.0668
  691TMC3    C610219   2.436   0.192  15.555  0.1333  0.2539  0.0515
  691TMC3     C10220   2.641   0.557  15.497 -0.2598  0.1529  0.0921
  691TMC3     O10221   2.752   0.570  15.541 -0.5979  0.1455  0.2457
  691TMC3     H10222   2.378   0.530  15.540 -0.3124 -0.3833 -0.1937
  691TMC3    H110223   2.749   0.320  15.521  0.2094 -1.2556  1.0890
  691TMC3    H210224   2.379   0.101  15.569  1.1502  0.1643  3.7832
  691TMC3    C710225   2.651   0.079  15.503  0.1391 -0.3035 -0.0567
  691TMC3    C810226   2.221   0.303  15.545  0.2440 -0.7618  0.6143
  691TMC3    O110227   2.772   0.090  15.487 -0.1040  0.6155 -0.3148
  691TMC3    O210228   2.168   0.199  15.510 -0.6955 -0.0053  0.0627
  692TMC3    C110229   4.455   1.798  15.832  0.2263  0.1164  0.0267
  692TMC3    C210230   4.575   1.819  15.894 -0.1041  0.2094  0.0110
  692TMC3    C310231   4.673   1.727  15.864  0.3828 -0.0717 -0.0350
  692TMC3    C410232   4.432   1.708  15.730 -0.4507 -0.8219  0.2377
  692TMC3    C510233   4.531   1.616  15.709  0.1599  0.4200 -0.1151
  692TMC3    C610234   4.645   1.617  15.782 -0.1119  0.0908 -0.0727
  692TMC3     C10235   4.357   1.894  15.876  0.1387 -0.0539  0.2077
  692TMC3     O10236   4.240   1.868  15.861  0.2173 -0.3751 -0.2224
  692TMC3     H10237   4.573   1.874  15.987 -2.5529  0.6808 -0.3245
  692TMC3    H110238   4.336   1.674  15.692 -0.3023 -0.4492 -0.4746
  692TMC3    H210239   4.723   1.561  15.731 -2.6599 -2.4806 -1.1303
  692TMC3    C710240   4.490   1.488  15.657  0.5248 -0.7121 -0.0980
  692TMC3    C810241   0.047   1.698  15.967  0.4607 -0.2528  0.2469
  692TMC3    O110242   4.410   1.497  15.568  0.5062 -0.3500 -0.1975
  692TMC3    O210243   0.087   1.582  15.970  0.1366 -0.5469  0.5747
  693MPD2     C10244   4.177   3.948  11.463 -0.9608 -0.3868  0.3244
  693MPD2    C110245   4.161   3.889  11.337 -0.3449  0.4837 -0.1341
  693MPD2    C210246   4.265   3.901  11.246  0.4828 -0.8446  0.0838
  693MPD2    C310247   4.390   3.957  11.297 -0.4056 -0.8647 -0.5720
  693MPD2    C410248   4.400   4.016  11.420  0.3885  0.7229 -0.1605
  693MPD2    C510249   4.287   4.021  11.500 -0.7005 -0.3144 -0.1964
  693MPD2     H10250   4.257   3.856  11.148 -2.9328 -0.4117  0.1605
  693MPD2    H110251   4.488   4.068  11.456  1.7675 -0.0128 -2.5189
  693MPD2    H210252   4.086   3.960  11.521 -1.8503  0.9972 -1.3623
  693MPD2    H310253   4.284   4.072  11.596 -0.4018 -0.1105 -0.2950
  693MPD2     N10254   4.509   3.946  11.220  0.0431 -0.6811 -0.3399
  693MPD2    H510255   4.595   3.955  11.273 -1.5452  0.7537  1.9826
  693MPD2    N110256   4.034   3.831  11.317  0.6095 -0.1211 -0.4183
  693MPD2    H710257   3.966   3.826  11.391  0.1674 -0.5444 -0.8527
  694TMC3    C110258   3.859   3.740  11.188 -0.3214  0.1904 -0.1222
  694TMC3    C210259   3.771   3.767  11.086  0.1925 -0.6728  0.2162
  694TMC3    C310260   3.642   3.718  11.106  0.7954  0.6972 -0.4376
  694TMC3    C410261   3.827   3.672  11.297 -0.4074 -0.4483 -0.5036
  694TMC3    C510262   3.707   3.606  11.302 -0.4352  0.4549 -0.6797
  694TMC3    C610263   3.610   3.631  11.210 -0.2168  0.3056  0.2053
  694TMC3     C10264   3.986   3.814  11.189  0.1578 -0.2477  0.4043
  694TMC3     O10265   4.037   3.837  11.081 -0.1820  0.1867 -0.2925
  694TMC3     H10266   3.805   3.817  10.996 -1.2606 -0.9410 -0.4837
  694TMC3    H110267   3.899   3.647  11.374  2.4542  2.2516 -2.3015
  694TMC3    H210268   3.508   3.594  11.211  0.0425 -0.4016  0.4796
  694TMC3    C710269   3.664   3.559  11.438  0.0486  0.2403  0.5128
  694TMC3    C810270   3.556   3.701  10.990 -0.5045  0.4762 -0.6362
  694TMC3    O110271   3.725   3.604  11.537  0.0085 -0.5091 -0.1769
  694TMC3    O210272   3.461   3.624  11.008  0.0859 -0.8743 -0.1637
  695MPD2     C10273   0.150   1.249  13.774  0.1106 -0.0692  0.6184
  695MPD2    C110274   0.111   1.273  13.910  1.3069  0.3075  0.1120
  695MPD2    C210275   4.701   1.310  13.939  0.0576 -0.2883 -0.2850
  695MPD2    C310276   4.604   1.316  13.841  0.3684  0.0784  0.5539
  695MPD2    C410277   4.640   1.276  13.716  1.0928  0.2300 -0.0214
  695MPD2    C510278   0.046   1.245  13.688  0.1913 -0.7861 -0.1097
  695MPD2     H10279   4.677   1.335  14.041 -0.0660  1.3378 -0.7192
  695MPD2    H110280   4.578   1.278  13.628  1.5603 -0.0212 -0.3558
  695MPD2    H210281   0.250   1.223  13.743  0.6030  3.4832 -0.7887
  695MPD2    H310282   0.069   1.215  13.586 -2.5304 -2.1803 -0.3110
  695MPD2     N10283   4.474   1.370  13.861 -0.1467  0.3257 -0.3290
  695MPD2    H510284   4.437   1.371  13.956  0.4338  2.8762 -0.1256
  695MPD2    N110285   0.216   1.281  14.010  0.4290 -0.0284 -0.6509
  695MPD2    H710286   0.179   1.310  14.101  1.2658  0.5574 -0.4976
  696TMC3    C110287   4.277   1.496  13.798  0.5507 -0.0207 -0.3311
  696TMC3    C210288   4.221   1.469  13.924  0.4857 -0.4015 -0.1381
  696TMC3    C310289   4.109   1.548  13.951 -0.0065  0.8838 -0.0396
  696TMC3    C410290   4.235   1.585  13.701 -0.2834 -0.1655  0.0235
  696TMC3    C510291   4.121   1.653  13.736  0.3664 -0.0327  0.3555
  696TMC3    C610292   4.056   1.631  13.858 -0.1781 -0.1981  0.1265
  696TMC3     C10293   4.403   1.431  13.759  0.2234 -0.1175  0.0252
  696TMC3     O10294   4.448   1.461  13.649  0.0245  0.0631 -0.6665
  696TMC3     H10295   4.239   1.385  13.991  0.8278  0.9502  1.4562
  696TMC3    H110296   4.281   1.598  13.604 -2.3108 -1.1199 -1.0683
  696TMC3    H210297   3.959   1.677  13.874  0.3824  0.5179  1.4033
  696TMC3    C710298   4.113   1.779  13.674 -0.8596 -0.3921 -0.0133
  696TMC3    C810299   4.014   1.506  14.060 -0.1108 -0.0379 -0.3141
  696TMC3    O110300   4.096   1.783  13.550  0.1761  0.3499  0.2568
  696TMC3    O210301   3.895   1.493  14.031  0.4069  0.1185  0.9459
  697MPD2     C10302   4.015   3.530  15.606 -0.3427  0.2433 -0.0018
  697MPD2    C110303   4.106   3.450  15.542  1.2118  0.0853  0.1256
  697MPD2    C210304   4.181   3.505  15.439 -0.5080 -0.4695  0.5842
  697MPD2    C310305   4.169   3.640  15.418  0.1090  0.3386 -0.0323
  697MPD2    C410306   4.082   3.716  15.484  0.0914 -0.2782  0.2087
  697MPD2    C510307   4.003   3.660  15.576 -0.0622 -0.5906  0.0816
  697MPD2     H10308   4.254   3.440  15.391  1.0554  2.0595 -0.4680
  697MPD2    H110309   4.057   3.820  15.463  0.5426 -0.8115 -2.9761
  697MPD2    H210310   3.945   3.491  15.679 -1.5076 -0.8625 -1.7204
  697MPD2    H310311   3.922   3.718  15.617  0.1716 -1.1517  1.3185
  697MPD2     N10312   4.262   3.691  15.322 -0.3823 -0.1146  0.1082
  697MPD2    H510313   4.311   3.630  15.257 -0.6232 -1.3860  1.1141
  697MPD2    N110314   4.133   3.312  15.567  0.3869 -0.0641 -0.0953
  697MPD2    H710315   4.203   3.265  15.511 -0.6138 -1.4267 -0.2033
  698TMC3    C110316   4.431   3.839  15.249 -0.1689  0.2863 -0.3808
  698TMC3    C210317   4.511   3.950  15.285  0.7059  0.4109 -0.0633
  698TMC3    C310318   4.610   3.987  15.196 -0.6461  0.1738 -0.6086
  698TMC3    C410319   4.433   3.780  15.128 -0.6912  0.1815 -0.5313
  698TMC3    C510320   4.540   3.824  15.047  0.9688  0.3436 -0.2974
  698TMC3    C610321   4.628   3.922  15.081  0.0683 -0.1572 -0.2580
  698TMC3     C10322   4.316   3.817  15.336  0.4245  0.0800  0.2160
  698TMC3     O10323   4.291   3.898  15.424 -0.1672 -0.7416  0.7561
  698TMC3     H10324   4.491   4.003  15.377 -1.5476 -0.5089 -0.0401
  698TMC3    H110325   4.360   3.702  15.110 -1.5460  1.1851 -1.3728
  698TMC3    H210326   4.706   3.952  15.012  0.9729  0.5131  1.0499
  698TMC3    C710327   4.546   3.768  14.912 -0.0066 -0.0793  0.2222
  698TMC3    C810328   0.009   4.039  15.258 -0.1165 -0.1152 -0.2613
  698TMC3    O110329   4.441   3.712  14.881  0.4483  0.0609 -0.7541
  698TMC3    O210330   0.014   4.046  15.379 -0.2622 -0.4449  0.6862
  699TMC3    C110331   4.519   0.884  12.643  0.0158 -0.4850 -0.2707
  699TMC3    C210332   4.590   0.795  12.727 -0.8726  0.3372 -0.4261
  699TMC3    C310333   4.506   0.721  12.798 -0.4272  0.1109 -0.3480
  699TMC3    C410334   4.380   0.890  12.635 -0.1344  0.1932  0.0899
  699TMC3    C510335   4.303   0.817  12.716  0.6896  0.3244  0.1096
  699TMC3    C610336   4.366   0.729  12.801 -0.0260 -0.0868 -0.6085
  699TMC3     C10337   4.598   0.995  12.592 -0.5619  0.0558 -0.8002
  699TMC3     O10338   4.535   1.094  12.559 -0.2012  0.0153  0.9110
  699TMC3     H10339   4.697   0.788  12.735 -0.9400  0.6038  0.7980
  699TMC3    H110340   4.337   0.977  12.588 -1.2544 -1.3339 -1.7209
  699TMC3    H210341   4.315   0.672  12.878  1.0426 -1.8206 -1.1984
  699TMC3    C710342   4.189   0.880  12.764 -0.5403  0.9023  0.7854
  699TMC3    C810343   4.560   0.651  12.915  0.4303 -0.5387  0.2353
  699TMC3    O110344   4.184   0.882  12.888  0.1443  0.0160  0.3091
  699TMC3    O210345   4.487   0.639  13.015  0.0133 -0.5215 -0.0417
  700TMC3    C110346   3.162   4.082  17.220  0.1743  0.2211  0.5530
  700TMC3    C210347   3.183   3.966  17.293  0.5537  0.0519  0.2228
  700TMC3    C310348   3.267   3.967  17.403  0.5583 -0.0793 -0.5721
  700TMC3    C410349   3.213   4.204  17.258  0.3192  0.5033 -0.5176
  700TMC3    C510350   3.292   4.201  17.368 -0.5690  0.1067  0.3585
  700TMC3    C610351   3.324   4.085  17.432  0.0875  0.4871  0.0601
  700TMC3     C10352   3.173   4.062  17.075  0.7018  0.3013 -0.2125
  700TMC3     O10353   3.093   3.995  17.014 -0.0177 -0.1525  0.3927
  700TMC3     H10354   3.154   3.878  17.237  0.9650  0.7766 -1.1333
  700TMC3    H110355   3.196   4.298  17.206  0.5651  0.6963 -0.2464
  700TMC3    H210356   3.375   4.095  17.528  0.7363 -1.9401 -0.0254
  700TMC3    C710357   3.330   4.325  17.432 -0.2475 -0.2433  1.3849
  700TMC3    C810358   3.349   3.849  17.405  0.0597  0.3057 -0.1415
  700TMC3    O110359   3.261   4.424  17.414  0.2732  0.0407 -0.7013
  700TMC3    O210360   3.467   3.859  17.418 -0.0525  0.2653 -0.0023
  701TMC3    C110361   3.602   2.376  15.614  0.3054  0.2412  0.7184
  701TMC3    C210362   3.643   2.302  15.508  0.1615  0.4343  0.6404
  701TMC3    C310363   3.753   2.349  15.446 -0.6120 -0.2984 -0.3336
  701TMC3    C410364   3.670   2.488  15.658  0.3219  0.3563  0.3184
  701TMC3    C510365   3.772   2.538  15.583 -0.0362 -0.0979 -0.1531
  701TMC3    C610366   3.819   2.466  15.477  0.0948  0.6752 -0.5374
  701TMC3     C10367   3.486   2.345  15.693 -0.0444 -0.0731  0.8132
  701TMC3     O10368   3.486   2.371  15.814  0.3480  0.2474  0.0056
  701TMC3     H10369   3.608   2.203  15.484  1.9901 -0.7086  2.6734
  701TMC3    H110370   3.628   2.538  15.745 -0.3565 -2.0684  1.3913
  701TMC3    H210371   3.885   2.517  15.407  1.9383  0.2505  0.8862
  701TMC3    C710372   3.781   2.683  15.582  0.0008 -0.1762 -0.6212
  701TMC3    C810373   3.782   2.289  15.318 -0.0950 -0.0254  0.0333
  701TMC3    O110374   3.834   2.739  15.488  0.2084 -0.8955 -0.8658
  701TMC3    O210375   3.896   2.300  15.282 -0.9962 -0.0008 -0.1334
  702MPD2     C10376   3.237   4.585  10.175  0.2048  0.4716 -0.1593
  702MPD2    C110377   3.160   4.685  10.229 -0.3999  0.0607  0.1545
  702MPD2    C210378   3.160   0.083  10.171  0.5512  0.2534 -0.7135
  702MPD2    C310379   3.244   0.114  10.071 -0.4516 -0.3203  0.5204
  702MPD2    C410380   3.315   0.014  10.008  0.2145 -1.0202 -0.0329
  702MPD2    C510381   3.321   4.610  10.063  0.1955 -0.5342  0.5248
  702MPD2     H10382   3.103   0.168  10.209 -0.1822 -0.3088 -0.5548
  702MPD2    H110383   3.372   0.020   9.917 -0.3473 -0.3600 -0.3357
  702MPD2    H210384   3.240   4.486  10.219 -0.5282  0.7015  0.4233
  702MPD2    H310385   3.380   4.533  10.013 -1.7463 -2.3953  1.1020
  702MPD2     N10386   3.234   0.245  10.032 -0.6448  0.7855 -0.2821
  702MPD2    H510387   3.174   0.305  10.088 -3.0010 -0.5023 -1.4302
  702MPD2    N110388   3.072   4.674  10.341  0.2429 -0.0959 -0.0024
  702MPD2    H710389   3.027   0.037  10.372 -0.7708  0.2614 -2.4307
  703TMC3    C110390   3.286   0.450   9.925 -0.6270 -0.5509  0.2429
  703TMC3    C210391   3.176   0.504   9.986  0.1751  0.2065  0.0269
  703TMC3    C310392   3.161   0.637   9.969  0.3460 -0.4305  0.2361
  703TMC3    C410393   3.367   0.528   9.841  0.8076  0.5434 -0.5855
  703TMC3    C510394   3.339   0.664   9.822 -0.0926 -0.1473 -0.0682
  703TMC3    C610395   3.231   0.720   9.888  0.0096  0.1211 -0.2318
  703TMC3     C10396   3.317   0.309   9.937  0.4209 -1.2317 -1.0313
  703TMC3     O10397   3.397   0.258   9.860 -0.2891 -0.7902  0.0426
  703TMC3     H10398   3.105   0.443  10.041 -0.2527  2.1786  1.6810
  703TMC3    H110399   3.453   0.484   9.794  2.2020  2.6571 -0.0187
  703TMC3    H210400   3.209   0.826   9.888  0.3159  0.1754  3.3211
  703TMC3    C710401   3.445   0.740   9.768 -1.0092  0.2902  0.3918
  703TMC3    C810402   3.077   0.707  10.065  0.2500 -0.2602 -0.2338
  703TMC3    O110403   3.543   0.680   9.735  0.7606 -0.1421  0.2931
  703TMC3    O210404   3.085   0.827  10.072 -0.8184 -0.1622 -0.0679
  704TMC3    C110405   0.581   2.609  11.841  0.2849 -0.4139 -0.2443
  704TMC3    C210406   0.679   2.701  11.873 -0.5601 -0.2027 -0.2438
  704TMC3    C310407   0.784   2.661  11.950 -0.3441  0.2748 -0.7659
  704TMC3    C410408   0.589   2.481  11.890 -1.0571  0.1986  0.2984
  704TMC3    C510409   0.694   2.455  11.971 -0.2570 -0.3524  0.1588
  704TMC3    C610410   0.796   2.536  12.001 -0.0087 -0.1679 -0.4432
  704TMC3     C10411   0.546   2.599  11.702 -0.0453  0.2030  0.0181
  704TMC3     O10412   0.445   2.536  11.669  0.2154 -0.4860  0.0606
  704TMC3     H10413   0.680   2.801  11.832  0.0357 -0.0084  0.2496
  704TMC3    H110414   0.510   2.408  11.873  0.7564 -2.0331  1.4652
  704TMC3    H210415   0.882   2.504  12.059  0.4024  1.9558  0.1037
  704TMC3    C710416   0.741   2.317  11.967 -0.5988  0.2633  0.4051
  704TMC3    C810417   0.912   2.723  11.899 -1.1764  0.0575  0.2663
  704TMC3    O110418   0.864   2.305  11.952  0.0030 -1.0398 -0.1669
  704TMC3    O210419   0.912   2.778  11.792  0.3505 -0.0691 -0.0226
  705MPD2     C10420   0.089   1.124  16.466  0.0961  0.1503  0.0777
  705MPD2    C110421   0.137   1.249  16.436 -0.1914 -0.0686  0.3571
  705MPD2    C210422   0.058   1.361  16.475 -0.0415 -0.3690 -0.4000
  705MPD2    C310423   4.675   1.342  16.560  0.8632  0.8435 -0.0451
  705MPD2    C410424   4.637   1.212  16.591 -0.2656 -0.2765  0.1005
  705MPD2    C510425   4.701   1.107  16.542  0.3322 -0.5463  0.0766
  705MPD2     H10426   0.090   1.463  16.453 -0.9183  0.3301  1.5497
  705MPD2    H110427   4.552   1.196  16.656 -1.4840  0.4552 -1.2892
  705MPD2    H210428   0.146   1.034  16.446  0.4865  0.4422 -0.1266
  705MPD2    H310429   4.683   1.006  16.577 -0.9897 -0.9573 -1.8136
  705MPD2     N10430   4.597   1.448  16.618 -0.4421 -0.5194  0.4234
  705MPD2    H510431   4.511   1.430  16.669 -0.5165  1.5868  1.0403
  705MPD2    N110432   0.248   1.280  16.354  0.0823  0.0414 -0.2303
  705MPD2    H710433   0.258   1.376  16.322 -0.1806  0.1102 -0.1077
  706TMC3    C110434   0.553   1.231  16.018 -0.5394 -0.2481 -0.2264
  706TMC3    C210435   0.601   1.352  16.035 -0.0536  0.3755  0.3721
  706TMC3    C310436   0.563   1.415  16.145  0.5845  0.1157 -0.1253
  706TMC3    C410437   0.457   1.176  16.096  0.4370  0.0230 -0.2218
  706TMC3    C510438   0.414   1.249  16.204 -0.5115  0.2936 -0.2221
  706TMC3    C610439   0.473   1.370  16.231  0.2405  0.6189 -0.7789
  706TMC3     C10440   0.604   1.154  15.906  0.5642 -0.2484 -0.6495
  706TMC3     O10441   0.543   1.054  15.883  0.3495  0.6076  0.1774
  706TMC3     H10442   0.665   1.405  15.966 -1.7566  0.0479 -1.4669
  706TMC3    H110443   0.415   1.082  16.064  0.8373 -0.4755  0.7199
  706TMC3    H210444   0.450   1.437  16.313 -0.1567  1.3120 -1.4629
  706TMC3    C710445   0.325   1.186  16.296  0.4525 -0.0392  0.4368
  706TMC3    C810446   0.593   1.556  16.143  0.3460 -0.5447 -0.4280
  706TMC3    O110447   0.329   1.064  16.308  0.3707 -0.3735 -0.0906
  706TMC3    O210448   0.612   1.620  16.043 -0.2003 -0.1356  0.3133
  707TMC3    C110449   2.410   3.524   1.563  0.0555 -0.0025 -0.2636
  707TMC3    C210450   2.504   3.520   1.663 -0.8966  0.0966  0.1130
  707TMC3    C310451   2.520   3.408   1.737  1.0493  0.1031 -0.9843
  707TMC3    C410452   2.330   3.420   1.540  0.2385 -0.5461 -0.4771
  707TMC3    C510453   2.351   3.310   1.621  0.3683 -0.4064  0.0199
  707TMC3    C610454   2.448   3.300   1.715  0.0513  0.1887  0.1658
  707TMC3     C10455   2.434   3.625   1.459 -0.3145  0.7796 -0.4408
  707TMC3     O10456   2.500   3.722   1.492 -0.1820 -0.6362  0.0410
  707TMC3     H10457   2.554   3.614   1.685  2.0285 -1.7453  1.3035
  707TMC3    H110458   2.246   3.427   1.472 -1.2159 -0.7758  1.3002
  707TMC3    H210459   2.461   3.214   1.780  0.1761 -1.2090 -1.7340
  707TMC3    C710460   2.275   3.189   1.586  0.3835 -1.2590  0.0292
  707TMC3    C810461   2.641   3.399   1.813 -0.1393  0.0241 -0.2598
  707TMC3    O110462   2.204   3.197   1.487  0.3012  0.0621 -0.2909
  707TMC3    O210463   2.632   3.340   1.916  0.6950 -0.4175  0.1734
  708MPD2     C10464   2.980   4.283  13.879  0.2486 -0.4018 -0.0877
  708MPD2    C110465   3.097   4.301  13.809  0.0148  0.5553 -0.2385
  708MPD2    C210466   3.211   4.309  13.892 -0.5045  0.0090 -0.4133
  708MPD2    C310467   3.217   4.303  14.027  0.1650 -0.7548  0.1361
  708MPD2    C410468   3.096   4.286  14.097  0.4113  0.1165  0.0645
  708MPD2    C510469   2.980   4.281  14.015 -0.3569  0.6919 -0.0831
  708MPD2     H10470   3.309   4.325  13.850 -1.5251  0.3647 -2.6800
  708MPD2    H110471   3.091   4.270  14.204 -0.3338  1.0336  0.1596
  708MPD2    H210472   2.885   4.302  13.831  0.0836  0.3706  0.5458
  708MPD2    H310473   2.889   4.287  14.074 -0.7226  0.1389 -0.5891
  708MPD2     N10474   3.342   4.327  14.090 -0.6732  0.1256  0.3352
  708MPD2    H510475   3.424   4.352  14.037  0.5776  1.1152  2.7322
  708MPD2    N110476   3.116   4.326  13.669 -0.2526  0.7100 -0.3485
  708MPD2    H710477   3.213   4.341  13.642 -0.1109  0.5430  0.0761
  709TMC3    C110478   3.071   4.391  13.460 -0.9687  0.4547  0.0603
  709TMC3    C210479   3.061   4.336  13.337  0.4558 -0.6643  0.7583
  709TMC3    C310480   3.157   4.372  13.252  0.1255 -0.0392 -0.7327
  709TMC3    C410481   3.165   4.487  13.489 -0.5351  0.1653  0.1588
  709TMC3    C510482   3.247   4.528  13.392 -0.0388 -0.5543 -0.2060
  709TMC3    C610483   3.253   4.468  13.270 -0.2679  0.4967  1.1411
  709TMC3     C10484   3.013   4.334  13.573  0.1258  0.2310  0.2254
  709TMC3     O10485   2.903   4.281  13.581  0.3968  0.4367 -0.4981
  709TMC3     H10486   2.981   4.273  13.300 -0.4562  0.1785  1.2835
  709TMC3    H110487   3.164   4.547  13.579 -1.3418 -2.3207  1.8018
  709TMC3    H210488   3.319   4.511  13.195 -2.3064  1.4278 -0.1334
  709TMC3    C710489   3.354   4.615  13.421 -0.7388 -0.0325  0.8891
  709TMC3    C810490   3.190   4.261  13.161 -0.0645 -0.5175  0.9276
  709TMC3    O110491   3.379   4.706  13.342 -0.3106 -0.3614 -0.2916
  709TMC3    O210492   3.122   4.162  13.167  0.1912  0.2399  0.3449
  710TMC3    C110493   0.453   1.858   0.874  0.1153 -0.5161 -0.4261
  710TMC3    C210494   0.523   1.765   0.799  1.2775  0.2833 -0.2287
  710TMC3    C310495   0.522   1.633   0.830  0.5773 -0.0706  0.3315
  710TMC3    C410496   0.373   1.817   0.978 -0.4614 -0.3948 -0.0070
  710TMC3    C510497   0.374   1.681   1.005 -0.1252  0.0359  0.2965
  710TMC3    C610498   0.448   1.583   0.942  0.2692  0.0652 -0.5833
  710TMC3     C10499   0.409   1.989   0.809 -0.3068 -0.8997  0.1941
  710TMC3     O10500   0.480   2.041   0.723  0.0951  0.1522 -0.5715
  710TMC3     H10501   0.575   1.809   0.714  0.4801  1.1711 -0.2545
  710TMC3    H110502   0.337   1.891   1.049 -0.0834 -2.1751  2.0341
  710TMC3    H210503   0.432   1.475   0.943  1.2050 -0.0718 -0.3726
  710TMC3    C710504   0.272   1.623   1.097 -0.1679 -0.6136  0.1894
  710TMC3    C810505   0.553   1.549   0.716  0.2069 -0.0024  0.1836
  710TMC3    O110506   0.288   1.510   1.137  0.2765  0.3035 -0.3595
  710TMC3    O210507   0.536   1.595   0.608  0.0286  0.4133  0.4221
  711TMC3    C110508   4.163   2.333  15.020 -0.9105 -0.4883  0.1271
  711TMC3    C210509   4.188   2.304  15.150 -0.4161  0.2833 -0.5862
  711TMC3    C310510   4.302   2.357  15.203  0.4859 -0.0553 -0.0718
  711TMC3    C410511   4.243   2.417  14.943 -0.2671 -0.1285 -0.1433
  711TMC3    C510512   4.360   2.459  14.997 -0.0414  0.3474  0.6392
  711TMC3    C610513   4.386   2.430  15.123 -0.4320  0.4235  0.5476
  711TMC3     C10514   4.136   2.212  14.947  0.2058  0.5409 -0.7455
  711TMC3     O10515   4.076   2.216  14.843  0.6883  0.3622  0.1238
  711TMC3     H10516   4.124   2.240  15.211  1.1680 -0.4876  0.2622
  711TMC3    H110517   4.206   2.450  14.846 -0.3939 -1.0228 -0.4096
  711TMC3    H210518   4.485   2.449  15.161 -1.0184 -0.3773  2.4481
  711TMC3    C710519   4.473   2.424  14.914 -0.6598 -0.1459  0.0159
  711TMC3    C810520   4.377   2.250  15.267 -0.0343  0.2266  0.6947
  711TMC3    O110521   4.585   2.416  14.963  0.8312 -0.5127 -0.0086
  711TMC3    O210522   4.354   2.143  15.216 -0.3788 -0.1497  0.5209
  712MPD2     C10523   0.912   2.685  13.771 -0.6262 -0.3704  0.5746
  712MPD2    C110524   0.814   2.770  13.732 -0.8857 -0.0671 -0.0951
  712MPD2    C210525   0.839   2.907  13.739 -0.0708 -0.3449 -0.3488
  712MPD2    C310526   0.957   2.954  13.788  0.2555 -0.0845  0.5096
  712MPD2    C410527   1.052   2.867  13.824 -0.1386  0.0184  0.0587
  712MPD2    C510528   1.031   2.734  13.818 -0.5044 -0.4253  0.4131
  712MPD2     H10529   0.761   2.970  13.698 -1.2639 -0.8374  1.1208
  712MPD2    H110530   1.148   2.903  13.860 -1.2120  1.3325  1.6116
  712MPD2    H210531   0.897   2.578  13.758 -1.7633 -0.0620 -0.7676
  712MPD2    H310532   1.109   2.661  13.832 -1.0013 -0.9667  0.3967
  712MPD2     N10533   0.988   3.093  13.812  0.4200  0.1269  0.2413
  712MPD2    H510534   1.082   3.114  13.844  0.6635 -0.9939  0.2849
  712MPD2    N110535   0.687   2.728  13.665 -0.3471  0.2173  0.9695
  712MPD2    H710536   0.626   2.807  13.649  0.2903  0.0893 -2.0257
  713TMC3    C110537   0.977   3.326  13.778  0.0135  0.0996 -0.2394
  713TMC3    C210538   1.112   3.335  13.790  0.0809 -0.2649  0.8559
  713TMC3    C310539   1.159   3.461  13.786  0.0879 -0.3590 -0.1595
  713TMC3    C410540   0.892   3.432  13.768 -0.3135 -0.2467 -0.2908
  713TMC3    C510541   0.948   3.557  13.779  0.1022 -0.4381  0.7002
  713TMC3    C610542   1.082   3.573  13.793  0.3870  0.7017  0.0056
  713TMC3     C10543   0.905   3.199  13.782 -0.0701 -0.0994  0.1309
  713TMC3     O10544   0.787   3.191  13.753  0.2264  0.0550 -0.1912
  713TMC3     H10545   1.185   3.255  13.781  1.6777  1.3408 -0.5270
  713TMC3    H110546   0.786   3.413  13.756 -0.6467  0.1570  1.9277
  713TMC3    H210547   1.110   3.677  13.779 -1.1740  1.2218  0.7467
  713TMC3    C710548   0.874   3.684  13.785 -0.2705 -0.7112 -0.4487
  713TMC3    C810549   1.287   3.486  13.725  0.5439  0.3970  0.1409
  713TMC3    O110550   0.931   3.767  13.851  0.1324  0.3184  0.0441
  713TMC3    O210551   1.289   3.544  13.617 -0.3909  0.5917 -0.2451
  714MPD2     C10552   3.093   1.459   1.264  0.5554  0.7812  0.1393
  714MPD2    C110553   3.080   1.596   1.278 -0.2301  0.2414  0.6748
  714MPD2    C210554   2.967   1.664   1.220  0.6616  0.2403  0.2147
  714MPD2    C310555   2.875   1.598   1.134 -0.3248  0.8504 -0.3561
  714MPD2    C410556   2.897   1.467   1.117 -0.6151 -0.3991  0.6593
  714MPD2    C510557   2.999   1.401   1.191 -0.5833 -0.9254 -0.0155
  714MPD2     H10558   2.947   1.770   1.226  0.2021  0.1542  0.1822
  714MPD2    H110559   2.842   1.402   1.051  0.0380  0.9550 -1.2085
  714MPD2    H210560   3.178   1.401   1.299  0.6899  0.8743 -0.0278
  714MPD2    H310561   3.024   1.298   1.170  1.9102 -0.6586  1.6124
  714MPD2     N10562   2.779   1.677   1.072 -0.3967 -0.1130 -0.1577
  714MPD2    H510563   2.769   1.776   1.090 -0.0763  0.0083 -0.6506
  714MPD2    N110564   3.185   1.663   1.349 -0.0717  0.0072 -0.0474
  714MPD2    H710565   3.272   1.617   1.375 -0.1843 -0.0808  0.1671
  715TMC3    C110566   3.315   1.844   1.431  0.0425  0.0975 -0.7019
  715TMC3    C210567   3.426   1.784   1.376  0.2039  0.1664  0.0335
  715TMC3    C310568   3.550   1.820   1.427 -0.6418  0.4420  0.4788
  715TMC3    C410569   3.317   1.947   1.524  0.3453 -0.2020  0.2013
  715TMC3    C510570   3.442   1.978   1.571 -0.0277 -0.2612 -0.3801
  715TMC3    C610571   3.545   1.903   1.535 -0.4699  1.1386  0.4972
  715TMC3     C10572   3.188   1.797   1.377  0.0524 -0.0853  0.1964
  715TMC3     O10573   3.095   1.880   1.375  0.1472 -0.2484  0.2050
  715TMC3     H10574   3.430   1.717   1.290 -0.1911 -1.1895  1.0669
  715TMC3    H110575   3.226   1.987   1.566 -0.1392 -1.7049  0.5745
  715TMC3    H210576   3.643   1.927   1.576 -0.1926  0.8878 -0.0109
  715TMC3    C710577   3.463   2.106   1.639 -0.5431 -0.7673 -0.4355
  715TMC3    C810578   3.662   1.746   1.377 -0.0564 -0.9834 -0.4763
  715TMC3    O110579   3.569   2.135   1.686  0.0673 -0.1204 -0.0146
  715TMC3    O210580   3.636   1.671   1.281  0.4599  0.2258  0.2678
  716MPD2     C10581   3.016   4.553   9.482  0.4006  0.3462  0.0089
  716MPD2    C110582   3.014   4.604   9.355  0.1181 -0.4996  0.6072
  716MPD2    C210583   3.098   4.549   9.255 -0.1059 -0.0160 -1.0107
  716MPD2    C310584   3.198   4.458   9.285 -0.9840  0.2754  0.7818
  716MPD2    C410585   3.196   4.403   9.413 -0.0947 -0.4737 -0.0137
  716MPD2    C510586   3.099   4.444   9.506  0.0257 -0.5851 -0.4866
  716MPD2     H10587   3.104   4.589   9.155  2.3065  1.2444 -0.3570
  716MPD2    H110588   3.268   4.327   9.442 -0.0335 -0.6762 -0.7020
  716MPD2    H210589   2.952   4.596   9.558 -1.5855 -0.1057 -1.4199
  716MPD2    H310590   3.097   4.397   9.604  2.9315 -1.3265 -0.7860
  716MPD2     N10591   3.278   4.412   9.181 -0.0650 -0.2224 -0.3937
  716MPD2    H510592   3.263   4.461   9.093 -2.5565  0.1879  0.2666
  716MPD2    N110593   2.948   0.007   9.339 -0.2004  0.6521  0.1374
  716MPD2    H710594   2.892   0.040   9.417  0.3569  0.9093  0.4304
  717TMC3    C110595   3.461   4.302   9.071 -0.1562  0.2605 -0.2360
  717TMC3    C210596   3.513   4.413   9.013  0.1201 -0.4710  0.1371
  717TMC3    C310597   3.568   4.406   8.891  0.0623  0.1801  0.2555
  717TMC3    C410598   3.471   4.179   9.011  0.0592 -0.1226 -0.8650
  717TMC3    C510599   3.521   4.174   8.878 -0.1952 -0.1942 -0.0546
  717TMC3    C610600   3.576   4.288   8.816  1.2103 -0.3236  0.1404
  717TMC3     C10601   3.382   4.317   9.188 -0.4979  0.1214  0.0051
  717TMC3     O10602   3.417   4.247   9.284  0.1221 -0.9910  0.1329
  717TMC3     H10603   3.509   4.509   9.063  0.1804 -1.1556  1.4690
  717TMC3    H110604   3.423   4.094   9.059 -1.1063  0.5699 -0.8250
  717TMC3    H210605   3.623   4.282   8.719  0.3610 -1.3877 -0.1995
  717TMC3    C710606   3.549   4.049   8.812 -0.1934 -0.1354 -0.1505
  717TMC3    C810607   3.557   4.532   8.815 -0.4153  0.3638  0.7618
  717TMC3    O110608   3.619   4.052   8.710 -0.0973  0.8026  0.1771
  717TMC3    O210609   3.557   4.636   8.878  0.2156  0.3344  0.5668
  718MPD2     C10610   2.615   2.870  12.214  0.0464  0.3545 -0.4818
  718MPD2    C110611   2.600   2.994  12.261  0.3094  0.3514  0.0458
  718MPD2    C210612   2.491   3.028  12.342  0.5947  0.2306 -0.2180
  718MPD2    C310613   2.397   2.930  12.365  0.2873  0.6229 -0.1218
  718MPD2    C410614   2.416   2.802  12.323  0.0524  0.8557 -0.2705
  718MPD2    C510615   2.526   2.771  12.248  0.4709  0.6928 -0.2234
  718MPD2     H10616   2.461   3.129  12.371 -1.8857 -0.1904 -1.3650
  718MPD2    H110617   2.345   2.721  12.338  2.3935 -0.9404  1.0850
  718MPD2    H210618   2.700   2.841  12.153 -0.5107 -1.4587 -0.4085
  718MPD2    H310619   2.548   2.668  12.225  1.6984  0.6159  1.2144
  718MPD2     N10620   2.274   2.978  12.415  0.2057  0.2683 -0.6384
  718MPD2    H510621   2.277   3.072  12.452 -1.5976 -0.1301  0.5327
  718MPD2    N110622   2.673   3.092  12.198  0.0258  0.1134  0.1202
  718MPD2    H710623   2.709   3.077  12.104  2.1043 -3.5690  1.4960
  719TMC3    C110624   2.722   3.313  12.167 -0.2605 -0.6606 -0.3227
  719TMC3    C210625   2.630   3.326  12.069  0.1062  0.2769  0.4801
  719TMC3    C310626   2.619   3.455  12.019  0.1555  0.5747 -0.1749
  719TMC3    C410627   2.792   3.412  12.228 -0.2399 -0.3283 -0.3350
  719TMC3    C510628   2.784   3.540  12.169  0.1833 -0.7507  0.5206
  719TMC3    C610629   2.702   3.554  12.064  0.4715 -0.5027 -0.2647
  719TMC3     C10630   2.682   3.215  12.258 -0.2322 -0.2782 -0.7446
  719TMC3     O10631   2.678   3.239  12.377 -0.0343 -0.1158  0.5357
  719TMC3     H10632   2.570   3.247  12.026 -2.5657  2.1659  0.7520
  719TMC3    H110633   2.859   3.385  12.309 -0.0867 -1.3064 -0.7894
  719TMC3    H210634   2.703   3.647  12.008 -0.5885 -0.1362  0.3195
  719TMC3    C710635   2.894   3.627  12.157 -0.2887 -0.5306  0.2704
  719TMC3    C810636   2.482   3.490  12.018 -0.4022  0.3923  0.1371
  719TMC3    O110637   2.919   3.680  12.050 -0.1379 -0.0223  0.2214
  719TMC3    O210638   2.405   3.412  11.973 -0.2008  0.6084  0.0358
  720MPD2     C10639   0.988   0.374  13.889  0.0022  0.2643  0.2444
  720MPD2    C110640   1.088   0.421  13.807  0.1074  0.3435  0.5136
  720MPD2    C210641   1.211   0.453  13.865 -0.8049 -0.4092  0.3387
  720MPD2    C310642   1.250   0.413  13.989 -0.0422 -0.1328  0.3231
  720MPD2    C410643   1.150   0.360  14.069 -0.1315 -0.3055  0.3123
  720MPD2    C510644   1.021   0.340  14.024  0.1028  0.2352  0.6932
  720MPD2     H10645   1.284   0.497  13.798  0.8210  3.7884  4.8424
  720MPD2    H110646   1.176   0.325  14.168  1.7131  1.0619  0.3026
  720MPD2    H210647   0.886   0.354  13.860  0.3073 -0.6179 -0.2479
  720MPD2    H310648   0.936   0.312  14.085  0.6194  0.9620  1.7439
  720MPD2     N10649   1.382   0.429  14.032  0.1944 -0.2322  0.0151
  720MPD2    H510650   1.454   0.459  13.966 -1.8182  3.1871 -0.6450
  720MPD2    N110651   1.056   0.451  13.668 -0.5128 -0.0153 -0.1611
  720MPD2    H710652   1.136   0.477  13.610  0.2194  2.4599  1.9833
  721TMC3    C110653   1.564   0.405  14.170  0.1116  0.3223 -0.0474
  721TMC3    C210654   1.607   0.343  14.284  0.1882 -0.0081  0.3621
  721TMC3    C310655   1.726   0.380  14.340 -0.2134  0.2682 -0.1788
  721TMC3    C410656   1.642   0.498  14.101 -0.3917 -0.4640  0.4935
  721TMC3    C510657   1.764   0.522  14.162 -0.1492 -0.2942  0.2961
  721TMC3    C610658   1.809   0.470  14.281  0.0730 -0.7461 -0.0686
  721TMC3     C10659   1.426   0.409  14.162 -0.0448  0.2090  0.2289
  721TMC3     O10660   1.362   0.388  14.262  0.3057 -0.8808  0.0148
  721TMC3     H10661   1.547   0.265  14.329  1.5155 -1.2701 -0.0609
  721TMC3    H110662   1.606   0.548  14.011  2.8376 -4.2618 -2.9292
  721TMC3    H210663   1.902   0.504  14.325 -0.0872  3.1272 -2.7000
  721TMC3    C710664   1.862   0.604  14.098 -0.4559 -0.8312 -0.7645
  721TMC3    C810665   1.766   0.310  14.463  0.4629 -0.5131 -0.5749
  721TMC3    O110666   1.918   0.569  13.993 -0.9000 -0.1337  0.7410
  721TMC3    O210667   1.881   0.272  14.478  0.0262 -0.9094 -0.3062
  722MPD2     C10668   4.619   3.394  13.154  0.2081  0.5841  0.4727
  722MPD2    C110669   4.559   3.518  13.177  0.5928  0.3362  0.2325
  722MPD2    C210670   4.422   3.528  13.155  1.0851  0.2574 -0.3791
  722MPD2    C310671   4.341   3.426  13.122  0.6884  0.2398  1.2625
  722MPD2    C410672   4.400   3.302  13.109  0.0173 -0.2635  0.5268
  722MPD2    C510673   4.538   3.291  13.114 -0.6726 -0.0056  0.1597
  722MPD2     H10674   4.377   3.626  13.167  0.2322 -0.1579 -0.2104
  722MPD2    H110675   4.339   3.213  13.112 -2.4033  1.3311 -1.3207
  722MPD2    H210676   0.004   3.396  13.162  0.0556 -0.2687  2.8085
  722MPD2    H310677   4.577   3.191  13.104  0.9957  0.3728  2.9758
  722MPD2     N10678   4.205   3.448  13.112  0.1676 -0.0711  0.6636
  722MPD2    H510679   4.161   3.537  13.132 -0.2253 -0.4865  1.6355
  722MPD2    N110680   4.626   3.637  13.202  0.1384 -0.5257 -0.0858
  722MPD2    H710681   4.565   3.714  13.226  3.9140  3.0535 -2.0389
  723TMC3    C110682   3.989   3.418  13.020  0.2926  0.4412 -0.1437
  723TMC3    C210683   3.902   3.339  12.948 -0.2208  0.0841 -0.4956
  723TMC3    C310684   3.788   3.402  12.899 -0.0025 -0.0695  0.0434
  723TMC3    C410685   3.967   3.555  13.048 -0.2580  0.0373 -0.0654
  723TMC3    C510686   3.852   3.604  13.001 -0.1076 -0.3180 -0.5875
  723TMC3    C610687   3.762   3.533  12.933  0.1538 -0.3380 -0.6965
  723TMC3     C10688   4.122   3.363  13.037 -0.2748 -0.1445  0.2648
  723TMC3     O10689   4.140   3.257  12.982 -0.3292 -0.3435  0.6074
  723TMC3     H10690   3.926   3.234  12.938 -0.7283 -0.2405  1.7201
  723TMC3    H110691   4.034   3.618  13.105 -1.1777 -0.5485  1.6696
  723TMC3    H210692   3.672   3.576  12.889 -1.7361 -2.9575  0.5825
  723TMC3    C710693   3.812   3.731  13.067  0.2952 -0.3175 -0.1969
  723TMC3    C810694   3.684   3.319  12.841 -0.0593  0.2210  0.1376
  723TMC3    O110695   3.898   3.812  13.086  0.5432 -0.3251 -0.6050
  723TMC3    O210696   3.568   3.366  12.831 -0.3362  0.7160  0.4124
  724TMC3    C110697   0.776   1.987   9.619 -0.0250 -0.5550 -1.2336
  724TMC3    C210698   0.783   2.114   9.669 -0.9272  0.5111 -0.6872
  724TMC3    C310699   0.876   2.203   9.624 -0.4433  0.1133 -0.4345
  724TMC3    C410700   0.868   1.946   9.529 -0.0225  0.5794  1.1383
  724TMC3    C510701   0.966   2.033   9.493 -0.1600  0.4752 -0.0734
  724TMC3    C610702   0.974   2.162   9.536  0.2711 -0.2192  0.5639
  724TMC3     C10703   0.649   1.916   9.633 -0.5306 -0.3372 -0.0837
  724TMC3     O10704   0.544   1.975   9.637 -0.3036  0.2141  0.3523
  724TMC3     H10705   0.696   2.158   9.717 -1.5989 -2.3284  0.6955
  724TMC3    H110706   0.867   1.846   9.485 -1.6055  0.7708  0.7300
  724TMC3    H210707   1.067   2.215   9.524  0.1252 -0.1662 -0.3178
  724TMC3    C710708   1.051   1.978   9.388 -0.1900  0.2227  0.3949
  724TMC3    C810709   0.870   2.336   9.678 -0.6354 -0.2256  0.1573
  724TMC3    O110710   1.065   1.855   9.386  0.3690 -0.2215 -0.0788
  724TMC3    O210711   0.790   2.354   9.771 -1.3472 -0.2585 -0.5577
  725TMC3    C110712   2.234   0.363  12.930 -0.3225 -0.0971 -0.0434
  725TMC3    C210713   2.105   0.384  12.964 -1.1282 -0.4218  0.2422
  725TMC3    C310714   2.007   0.308  12.901  0.8278  0.0129  0.2348
  725TMC3    C410715   2.276   0.274  12.836 -0.0266 -2.1492 -0.5009
  725TMC3    C510716   2.179   0.192  12.785  0.0032  0.0058 -0.9184
  725TMC3    C610717   2.046   0.210  12.815  0.4344 -0.3957  0.1589
  725TMC3     C10718   2.327   0.475  12.967  0.2538 -0.4229  0.1348
  725TMC3     O10719   2.269   0.580  12.986  0.1494  0.1994 -1.0620
  725TMC3     H10720   2.087   0.456  13.044  0.8164 -0.3086  0.5643
  725TMC3    H110721   2.380   0.277  12.807 -0.3344  0.2867 -1.3838
  725TMC3    H210722   1.972   0.144  12.771 -1.3085  1.0647  0.9234
  725TMC3    C710723   2.217   0.066  12.713  0.3035  0.0916 -0.1730
  725TMC3    C810724   1.878   0.370  12.889 -0.1138  0.6176  0.2125
  725TMC3    O110725   2.139   4.694  12.727  0.2932  0.0203  0.3754
  725TMC3    O210726   1.831   0.433  12.981 -0.4168  0.5794  0.4922
  726MPD2     C10727   4.532   2.114  10.731  0.1646 -0.1464  0.5927
  726MPD2    C110728   4.453   2.177  10.636 -0.2549 -0.0740 -0.0936
  726MPD2    C210729   4.324   2.150  10.635 -0.0844 -0.4189 -0.2300
  726MPD2    C310730   4.267   2.054  10.720 -0.5401 -0.0919  0.2926
  726MPD2    C410731   4.345   1.997  10.819  0.4442 -0.1999 -0.4249
  726MPD2    C510732   4.481   2.024  10.819 -0.0682  0.2875  0.2096
  726MPD2     H10733   4.259   2.205  10.568  1.5861  0.4231 -1.1452
  726MPD2    H110734   4.306   1.927  10.892 -1.5624  2.2597  0.8532
  726MPD2    H210735   4.637   2.137  10.748  0.3285  0.0447 -0.6961
  726MPD2    H310736   4.559   1.998  10.889  1.0281  0.6204 -0.8851
  726MPD2     N10737   4.127   2.027  10.727  0.4404  0.2822 -0.2873
  726MPD2    H510738   4.087   1.981  10.808  0.7209  2.2085  0.9368
  726MPD2    N110739   4.505   2.275  10.554  0.0921 -0.0650  0.4466
  726MPD2    H710740   4.446   2.320  10.484  0.3747 -3.2944 -1.8482
  727TMC3    C110741   4.668   2.409  10.450 -0.0342 -0.0412  0.5296
  727TMC3    C210742   0.067   2.415  10.395 -0.3674 -0.7117  0.2582
  727TMC3    C310743   0.118   2.532  10.349 -0.1149  0.2311  0.2789
  727TMC3    C410744   4.589   2.521  10.463  0.5934  0.0773  0.5663
  727TMC3    C510745   4.648   2.640  10.424  0.0122 -0.0136 -0.1143
  727TMC3    C610746   0.055   2.647  10.370  0.2914 -0.2640  0.0153
  727TMC3     C10747   4.635   2.289  10.519 -0.1884  0.3754  0.0646
  727TMC3     O10748   0.006   2.217  10.544 -0.5273  0.3947  0.8627
  727TMC3     H10749   0.137   2.332  10.389  1.5964  1.1386 -2.7739
  727TMC3    H110750   4.485   2.514  10.493  1.0351 -0.8819  1.8409
  727TMC3    H210751   0.092   2.737  10.322  1.4841  0.5220  2.3780
  727TMC3    C710752   4.574   2.758  10.435  0.2915  0.4152 -0.1180
  727TMC3    C810753   0.258   2.531  10.322 -0.2247  0.0774 -0.3418
  727TMC3    O110754   4.455   2.749  10.404  0.6814  0.6909 -0.5135
  727TMC3    O210755   0.310   2.439  10.262 -0.2542 -0.5901 -0.6517
  728TMC3    C110756   3.107   1.009  15.304 -0.4948  0.7191 -0.2801
  728TMC3    C210757   3.222   0.999  15.370  0.1754  0.4857  0.2646
  728TMC3    C310758   3.336   1.035  15.301 -0.5483 -0.4527 -0.1641
  728TMC3    C410759   3.097   1.063  15.176 -0.8997  0.3835 -0.3279
  728TMC3    C510760   3.219   1.101  15.117  0.1289  0.0023 -0.2088
  728TMC3    C610761   3.340   1.086  15.176 -0.1735 -0.2140  0.2097
  728TMC3     C10762   2.991   0.953  15.369 -0.0672  0.2303  0.3076
  728TMC3     O10763   3.005   0.883  15.472  0.1988 -0.2379  0.1372
  728TMC3     H10764   3.224   0.950  15.466 -0.6949 -0.6481 -0.2910
  728TMC3    H110765   3.009   1.049  15.115 -0.5086 -2.2246 -0.3216
  728TMC3    H210766   3.433   1.085  15.121 -1.0316  1.1327 -1.3009
  728TMC3    C710767   3.208   1.140  14.985  0.4445  0.2334  0.0979
  728TMC3    C810768   3.459   1.046  15.378 -0.0272 -0.0614  0.1715
  728TMC3    O110769   3.112   1.096  14.922  0.7585 -0.1759 -0.0192
  728TMC3    O210770   3.481   0.961  15.466  0.2242  0.1575 -0.1562
  729MPD2     C10771   0.791   2.190  16.585  0.6513  0.0052  0.4728
  729MPD2    C110772   0.903   2.162  16.662  0.4134  0.3782  0.4996
  729MPD2    C210773   0.895   2.158  16.798  0.4268 -0.2161  0.3591
  729MPD2    C310774   0.773   2.203  16.852  0.6593  0.2195  0.4061
  729MPD2    C410775   0.666   2.250  16.769 -0.8782 -0.3572 -0.0907
  729MPD2    C510776   0.671   2.238  16.631  0.0591 -0.3864 -0.2730
  729MPD2     H10777   0.977   2.119  16.856  0.2442  0.8087  1.3241
  729MPD2    H110778   0.576   2.297  16.807  0.4615  2.4396 -0.4198
  729MPD2    H210779   0.799   2.185  16.477 -2.5645 -2.3095  0.3290
  729MPD2    H310780   0.588   2.265  16.567  0.5372  0.6748 -0.4555
  729MPD2     N10781   0.752   2.214  16.991  0.6876 -0.1545  0.4088
  729MPD2    H510782   0.662   2.250  17.020  0.3863 -1.8851  1.6264
  729MPD2    N110783   1.023   2.131  16.590 -0.8270 -0.4854 -0.5378
  729MPD2    H710784   1.010   2.137  16.489  1.2116  0.6997 -0.7419
  730TMC3    C110785   0.803   2.213  17.222  0.1809 -0.9339  0.0890
  730TMC3    C210786   0.838   2.145  17.334  0.3261  0.5792  0.0995
  730TMC3    C310787   0.831   2.218  17.456 -0.3731 -0.2342 -0.0332
  730TMC3    C410788   0.762   2.342  17.233 -0.1466  0.2824 -0.7317
  730TMC3    C510789   0.762   2.406  17.351  0.3763 -0.5731  0.5134
  730TMC3    C610790   0.795   2.351  17.464 -0.2567  0.0690 -0.2462
  730TMC3     C10791   0.835   2.162  17.087  0.4673  0.3179  0.4519
  730TMC3     O10792   0.906   2.067  17.083  0.0533 -0.1912  0.5522
  730TMC3     H10793   0.873   2.043  17.318  0.9521  0.3824  2.7426
  730TMC3    H110794   0.744   2.409  17.150 -1.5535  0.4550 -0.2934
  730TMC3    H210795   0.789   2.404  17.559  1.0741  2.6067 -1.5786
  730TMC3    C710796   0.826   2.542  17.331 -0.2326  0.5164 -0.3844
  730TMC3    C810797   0.928   2.175  17.552 -0.0459 -0.2807  0.2612
  730TMC3    O110798   0.924   2.543  17.253 -0.2979  0.1505 -0.2619
  730TMC3    O210799   0.899   2.176  17.671  0.2431  0.3640  0.1380
  731MPD2     C10800   0.798   0.118  12.463  0.8501  0.3953  0.0227
  731MPD2    C110801   0.911   0.043  12.469  0.5224 -0.0581  0.3241
  731MPD2    C210802   0.963   0.007  12.589  0.9418 -0.0773 -0.4069
  731MPD2    C310803   0.896   0.040  12.702  0.4648 -0.2385 -0.2117
  731MPD2    C410804   0.782   0.115  12.699  0.1786  0.4362  0.2900
  731MPD2    C510805   0.739   0.155  12.574 -0.5473  0.2741 -0.3641
  731MPD2     H10806   1.050   4.665  12.595  0.5578 -0.4535  1.3029
  731MPD2    H110807   0.729   0.149  12.787  0.3679 -1.6727  1.2089
  731MPD2    H210808   0.750   0.149  12.370  2.3882  1.0117 -0.5694
  731MPD2    H310809   0.645   0.209  12.566 -0.3323  0.7231  0.0942
  731MPD2     N10810   0.955   0.006  12.826  0.3171  0.3979 -0.1581
  731MPD2    H510811   1.018   4.650  12.817 -0.3395 -0.3121  1.4821
  731MPD2    N110812   0.969   0.009  12.343 -0.6893 -0.1908 -0.3096
  731MPD2    H710813   0.909   0.020  12.262  0.6237  2.2699 -0.9206
  732TMC3    C110814   1.122   4.645  12.186 -0.5715  0.2513 -0.4630
  732TMC3    C210815   1.029   4.688  12.091  0.0426 -0.1085 -0.0891
  732TMC3    C310816   1.046   4.622  11.975  0.6549 -0.6992  0.1712
  732TMC3    C410817   1.213   4.538  12.179  0.5134  0.8434 -0.6612
  732TMC3    C510818   1.228   4.487  12.050 -0.2311 -0.5228 -0.2627
  732TMC3    C610819   1.147   4.527  11.949  0.2632  0.0655 -0.0024
  732TMC3     C10820   1.098   4.684  12.324  0.3001 -0.3941  0.1712
  732TMC3     O10821   1.183   4.666  12.408 -0.2652 -0.5651 -0.4927
  732TMC3     H10822   0.976   0.059  12.089  1.7212  0.8111 -0.6963
  732TMC3    H110823   1.270   4.516  12.269 -0.6501 -2.6212 -0.7711
  732TMC3    H210824   1.163   4.487  11.850  1.1085  2.6702 -0.9288
  732TMC3    C710825   1.285   4.358  12.033 -0.1170  0.0962  0.7353
  732TMC3    C810826   0.970   4.657  11.852  0.5447 -0.1808 -0.3676
  732TMC3    O110827   1.239   4.288  11.944 -0.2570  0.3048 -0.0254
  732TMC3    O210828   1.035   4.642  11.747  0.5786  0.0912  0.3380
  733TMC3    C110829   1.863   3.057  12.574 -0.3629 -0.4550  0.7060
  733TMC3    C210830   1.953   2.966  12.536 -0.0422 -0.4868 -1.2741
  733TMC3    C310831   2.047   3.009  12.451  0.0104 -0.2244  0.2373
  733TMC3    C410832   1.859   3.186  12.530  0.2971  0.7413  0.2730
  733TMC3    C510833   1.955   3.224  12.439  0.4049  0.6005  0.6324
  733TMC3    C610834   2.044   3.137  12.391 -0.5428 -0.8333  0.2672
  733TMC3     C10835   1.776   3.030  12.689  0.0138  0.0847 -0.3458
  733TMC3     O10836   1.744   3.128  12.751 -0.3913  0.7573 -0.2021
  733TMC3     H10837   1.953   2.867  12.581  0.7012 -0.5239 -1.3620
  733TMC3    H110838   1.787   3.259  12.566  0.8913  2.4363 -2.0167
  733TMC3    H210839   2.127   3.161  12.326  0.0734 -0.2151  1.2756
  733TMC3    C710840   1.999   3.368  12.425 -0.6131  0.1923  0.0145
  733TMC3    C810841   2.154   2.913  12.422  0.1862 -0.8126  0.4402
  733TMC3    O110842   1.987   3.433  12.522 -0.2297 -0.0232 -0.5632
  733TMC3    O210843   2.126   2.796  12.397  0.9200 -0.1358 -0.1100
  734MPD2     C10844   3.945   0.297  11.937 -0.0122  0.3550 -0.6009
  734MPD2    C110845   3.818   0.311  11.896 -0.1300  0.4417 -0.3216
  734MPD2    C210846   3.780   0.431  11.830  0.4229  0.5320  0.4233
  734MPD2    C310847   3.880   0.520  11.800  0.0773 -0.1796 -0.5595
  734MPD2    C410848   4.013   0.493  11.831 -0.5647 -0.0902 -0.2967
  734MPD2    C510849   4.039   0.383  11.905  0.2131 -0.2217  0.2681
  734MPD2     H10850   3.683   0.459  11.791  0.5293  1.8432  1.1042
  734MPD2    H110851   4.098   0.553  11.800  2.1538 -2.4803  2.6204
  734MPD2    H210852   3.969   0.202  11.985  0.4193  0.4932 -0.5453
  734MPD2    H310853   4.144   0.361  11.921  0.7140  2.0502  0.0646
  734MPD2     N10854   3.840   0.619  11.720 -0.3275 -0.0742 -0.1398
  734MPD2    H510855   3.740   0.632  11.712 -0.3022 -1.2998 -2.2980
  734MPD2    N110856   3.729   0.202  11.904  0.0396  0.0350  0.1702
  734MPD2    H710857   3.754   0.124  11.964 -1.1143 -1.4248 -1.2616
  735TMC3    C110858   3.546   0.070  11.840  0.1509  0.1268  0.7433
  735TMC3    C210859   3.431   0.065  11.765 -0.1083 -0.3512  0.1286
  735TMC3    C310860   3.415   4.722  11.646 -0.3823  0.3519  0.8070
  735TMC3    C410861   3.642   4.702  11.801 -0.3779 -0.2177 -0.0227
  735TMC3    C510862   3.620   4.613  11.701 -0.1887 -0.6194 -0.0710
  735TMC3    C610863   3.512   4.631  11.619  0.1746  0.3010 -0.7814
  735TMC3     C10864   3.602   0.200  11.854  0.2250 -0.1205 -0.0137
  735TMC3     O10865   3.550   0.279  11.778 -0.6015  0.4991  0.4958
  735TMC3     H10866   3.353   0.135  11.793  1.6904  2.3145 -1.5315
  735TMC3    H110867   3.722   4.686  11.872 -1.9515  2.1533  2.2726
  735TMC3    H210868   3.490   4.580  11.526  0.6201 -0.6622 -0.3572
  735TMC3    C710869   3.746   4.556  11.655  0.1523  0.1645 -0.8209
  735TMC3    C810870   3.356   0.069  11.536  0.5946  0.3049  0.1474
  735TMC3    O110871   3.842   4.586  11.726  0.2091  0.0387  0.0186
  735TMC3    O210872   3.316   0.006  11.438 -0.1212  0.3267 -0.4882
  736MPD2     C10873   3.797   4.280  11.424 -0.3732  0.7196  0.1788
  736MPD2    C110874   3.836   4.384  11.506  0.2512  0.3894 -0.3201
  736MPD2    C210875   3.973   4.415  11.518  0.2253 -0.2779  0.1419
  736MPD2    C310876   4.065   4.340  11.454  0.3160 -0.6680  0.1857
  736MPD2    C410877   4.020   4.238  11.366  0.5392  0.3012 -0.0289
  736MPD2    C510878   3.891   4.206  11.349 -0.7391 -0.0256 -0.0356
  736MPD2     H10879   4.011   4.495  11.581  1.7566 -1.4738  0.7541
  736MPD2    H110880   4.093   4.185  11.306  1.0916  1.8885 -0.7728
  736MPD2    H210881   3.693   4.250  11.415 -0.0974 -0.3853  0.7419
  736MPD2    H310882   3.864   4.117  11.294 -0.3690 -1.7006  2.5079
  736MPD2     N10883   4.202   4.363  11.461  0.3642  0.1668  0.6431
  736MPD2    H510884   4.271   4.305  11.414 -0.6950 -2.0062  1.7500
  736MPD2    N110885   3.733   4.465  11.556  0.4593  0.2076 -0.4440
  736MPD2    H710886   3.641   4.432  11.531 -0.7115  2.9966  0.1956
  737TMC3    C110887   4.397   4.473  11.490 -0.3088 -0.1515 -0.6653
  737TMC3    C210888   4.456   4.588  11.532 -0.4183 -0.5984 -0.8363
  737TMC3    C310889   4.559   4.639  11.461 -0.0404  0.4491 -0.3204
  737TMC3    C410890   4.446   4.392  11.388  0.6764 -0.1973  0.4565
  737TMC3    C510891   4.550   4.440  11.324 -0.2833 -0.1966 -0.0331
  737TMC3    C610892   4.599   4.572  11.351 -0.3690  0.4700 -0.2931
  737TMC3     C10893   4.256   4.462  11.529  0.6887  0.2091 -0.6833
  737TMC3     O10894   4.204   4.541  11.613  0.5911 -0.2418  0.2079
  737TMC3     H10895   4.423   4.630  11.626 -0.3688 -1.2303 -0.5379
  737TMC3    H110896   4.407   4.298  11.352  0.7938 -0.5571  1.2729
  737TMC3    H210897   4.687   4.613  11.303 -1.0447  0.9502 -1.1414
  737TMC3    C710898   4.612   4.341  11.235  0.3911  0.5158 -0.1678
  737TMC3    C810899   4.587   0.058  11.462 -0.1624 -0.4017 -0.5346
  737TMC3    O110900   4.594   4.221  11.242  0.2407 -1.0460 -0.1935
  737TMC3    O210901   4.540   0.123  11.558 -0.3831 -0.1054  0.3622
  738MPD2     C10902   0.296   4.104  15.306 -0.1583 -0.0383  0.6024
  738MPD2    C110903   0.225   4.135  15.183  0.9436  0.5474  0.4119
  738MPD2    C210904   0.296   4.191  15.077 -0.1340  0.8927  0.5054
  738MPD2    C310905   0.426   4.228  15.093 -0.7649 -0.4588 -0.3421
  738MPD2    C410906   0.494   4.200  15.207  0.5515  0.1538  0.5102
  738MPD2    C510907   0.429   4.138  15.313  0.2247  0.2661 -0.5330
  738MPD2     H10908   0.238   4.215  14.989 -3.1009 -0.6344  2.0282
  738MPD2    H110909   0.597   4.232  15.207  0.5065  0.2668  2.1667
  738MPD2    H210910   0.244   4.064  15.392  0.3760 -2.0804 -0.0301
  738MPD2    H310911   0.477   4.133  15.410 -2.9546 -2.7559  0.9080
  738MPD2     N10912   0.502   4.275  14.980 -0.1702 -0.7854 -0.0585
  738MPD2    H510913   0.594   4.315  14.994 -0.7851  0.4997  0.3004
  738MPD2    N110914   0.094   4.095  15.165 -0.1817  0.4495 -0.6019
  738MPD2    H710915   0.050   4.117  15.076  0.6094 -0.2653 -1.1669
  739TMC3    C110916   0.578   4.283  14.756 -0.1762  0.3726  0.1744
  739TMC3    C210917   0.543   4.287  14.623  0.4924 -0.0971 -0.3912
  739TMC3    C310918   0.644   4.295  14.529 -0.5771 -0.3187 -0.1320
  739TMC3    C410919   0.714   4.289  14.793  0.2858  0.0564 -0.1766
  739TMC3    C510920   0.811   4.304  14.696  0.1362 -0.1419  0.3094
  739TMC3    C610921   0.779   4.309  14.561 -0.0226 -0.4696 -0.0801
  739TMC3     C10922   0.467   4.274  14.847  0.0806 -0.5277 -0.6459
  739TMC3     O10923   0.356   4.259  14.801 -0.3555  0.0614  0.1908
  739TMC3     H10924   0.443   4.298  14.584  0.5247 -1.8538 -0.9992
  739TMC3    H110925   0.747   4.296  14.896 -0.4149 -0.2460  0.0707
  739TMC3    H210926   0.857   4.313  14.486 -1.2270 -0.2894 -1.3296
  739TMC3    C710927   0.945   4.331  14.732 -0.0702  0.5699  0.1348
  739TMC3    C810928   0.602   4.297  14.390 -0.6060  0.2169 -0.0831
  739TMC3    O110929   0.982   4.279  14.837  0.2706  0.6661 -0.7580
  739TMC3    O210930   0.486   4.267  14.374  0.0314  0.3025  0.1355
  740TMC3    C110931   0.574   1.001  14.339 -0.5424 -0.1267  0.6848
  740TMC3    C210932   0.677   0.950  14.409  0.1286 -0.7548 -0.1583
  740TMC3    C310933   0.767   0.883  14.330 -0.1397 -0.1336  0.4867
  740TMC3    C410934   0.566   1.012  14.201 -0.7685  0.6238 -0.0014
  740TMC3    C510935   0.665   0.945  14.130 -0.1235 -0.8740 -0.3418
  740TMC3    C610936   0.762   0.877  14.196 -0.3213 -0.0267 -0.5202
  740TMC3     C10937   0.463   1.061  14.416  0.2428 -0.3747 -0.4138
  740TMC3     O10938   0.404   1.149  14.359 -0.1088 -0.3182  0.0634
  740TMC3     H10939   0.689   0.958  14.516 -0.6210 -0.8914 -0.0673
  740TMC3    H110940   0.488   1.071  14.155  0.2397  0.4343 -1.9631
  740TMC3    H210941   0.842   0.830  14.139  0.1234 -0.2633  0.2993
  740TMC3    C710942   0.661   0.962  13.983  0.1109 -0.3932  0.7769
  740TMC3    C810943   0.870   0.820  14.409 -0.6691  0.4400 -0.3757
  740TMC3    O110944   0.565   1.024  13.940  0.4270 -0.5145 -0.4623
  740TMC3    O210945   0.915   0.886  14.499 -0.0928 -0.1178  0.2561
  741TMC3    C110946   0.315   4.645  13.668 -0.1422 -0.3427  0.4993
  741TMC3    C210947   0.228   4.585  13.753 -0.4382  0.3436 -0.5830
  741TMC3    C310948   0.257   4.574  13.884 -0.1033 -0.1510 -0.1292
  741TMC3    C410949   0.439   4.699  13.709 -0.6282  0.1260 -0.2210
  741TMC3    C510950   0.472   4.676  13.839  1.0702  0.1042 -0.4884
  741TMC3    C610951   0.383   4.619  13.924  0.2717 -0.3009 -0.4788
  741TMC3     C10952   0.277   4.689  13.536 -0.2927 -0.0032 -0.1978
  741TMC3     O10953   0.367   0.016  13.473  0.0549  0.6210 -0.2763
  741TMC3     H10954   0.126   4.555  13.729 -0.3834 -0.0124 -0.3749
  741TMC3    H110955   0.518   4.702  13.635  0.8479 -0.6549  1.3214
  741TMC3    H210956   0.416   4.600  14.025 -0.0373  0.4832 -0.2288
  741TMC3    C710957   0.608   4.714  13.883  0.3683  0.3100  0.3686
  741TMC3    C810958   0.167   4.514  13.979  0.4742  0.1736  0.2413
  741TMC3    O110959   0.689   0.005  13.794  0.1735 -0.0733  0.4853
  741TMC3    O210960   0.091   4.429  13.934 -0.6745  0.2052 -0.0935
  742TMC3    C110961   4.709   3.492  15.167 -0.3800  0.1342 -0.2796
  742TMC3    C210962   4.661   3.477  15.044  0.1867 -0.3251 -0.1640
  742TMC3    C310963   0.017   3.475  14.928 -0.2544 -0.1981  0.5535
  742TMC3    C410964   0.117   3.510  15.186  0.1368  0.0930 -0.0654
  742TMC3    C510965   0.196   3.516  15.078  0.3460 -0.6433 -0.3517
  742TMC3    C610966   0.153   3.501  14.947 -0.5767 -0.2226 -0.0345
  742TMC3     C10967   4.619   3.513  15.279 -0.0711  0.6651 -0.1422
  742TMC3     O10968   4.509   3.460  15.268  0.6615 -0.6431 -0.3459
  742TMC3     H10969   4.553   3.470  15.044  0.3989 -3.5706 -0.3209
  742TMC3    H110970   0.157   3.505  15.286 -2.8122  0.3983  1.1258
  742TMC3    H210971   0.222   3.512  14.864 -1.8412 -0.0138 -1.0536
  742TMC3    C710972   0.332   3.491  15.100  0.7872  0.2698 -0.3153
  742TMC3    C810973   4.693   3.432  14.796  0.4571  0.3059  0.0562
  742TMC3    O110974   0.389   3.426  15.018  0.1350  0.6583 -0.7650
  742TMC3    O210975   0.043   3.387  14.707  0.2175 -0.0549 -0.1558
  743MPD2     C10976   3.654   3.923   1.958  0.0806 -0.0219  0.2440
  743MPD2    C110977   3.651   3.983   1.838  0.0826 -0.0463  0.5771
  743MPD2    C210978   3.763   4.060   1.804  0.5197 -0.9020  0.2401
  743MPD2    C310979   3.870   4.081   1.895  0.2067  0.0231  0.2153
  743MPD2    C410980   3.865   4.016   2.020  0.0904 -0.2649  0.2793
  743MPD2    C510981   3.757   3.934   2.045 -0.3726 -0.0417 -0.3901
  743MPD2     H10982   3.761   4.116   1.711 -0.7658  0.8017  1.2904
  743MPD2    H110983   3.942   4.020   2.095  0.3721 -0.5574  0.0046
  743MPD2    H210984   3.573   3.860   1.994  0.8742  0.9202  3.6695
  743MPD2    H310985   3.755   3.882   2.140 -1.5907 -0.3000 -0.5662
  743MPD2     N10986   3.976   4.159   1.853  0.1757 -0.0525 -0.0451
  743MPD2    H510987   3.964   4.197   1.760 -1.9659 -0.9304 -0.1068
  743MPD2    N110988   3.541   3.966   1.754 -0.5015  0.5852  0.1492
  743MPD2    H710989   3.485   3.887   1.783  1.0606  0.6764  3.3836
  744TMC3    C110990   3.407   3.968   1.559 -0.3184  0.2935 -0.7137
  744TMC3    C210991   3.303   3.918   1.636  0.5057  0.0428  0.0372
  744TMC3    C310992   3.185   3.885   1.566  0.4999  0.4026 -0.0216
  744TMC3    C410993   3.402   3.989   1.424  0.1068 -1.2659  0.2923
  744TMC3    C510994   3.285   3.947   1.354 -0.1507 -0.5005 -0.3452
  744TMC3    C610995   3.172   3.907   1.431  0.2427 -0.4109 -0.7330
  744TMC3     C10996   3.517   4.026   1.632  0.0658  0.7713 -1.0353
  744TMC3     O10997   3.579   4.115   1.577 -0.3872 -0.3572  0.2164
  744TMC3     H10998   3.301   3.924   1.744  1.6382 -0.5162  0.0841
  744TMC3    H110999   3.488   4.037   1.377 -0.5799 -1.3312 -1.0298
  744TMC3    H211000   3.084   3.860   1.389  1.0752 -1.2078 -1.5802
  744TMC3    C711001   3.284   3.945   1.207  0.3439  0.2020  0.5249
  744TMC3    C811002   3.088   3.821   1.641 -0.0194 -0.1415  0.0242
  744TMC3    O111003   3.345   4.026   1.144  0.7168  0.0491  0.9430
  744TMC3    O211004   2.977   3.846   1.602  0.0102  0.2850  0.0593
  745TMC3    C111005   0.504   2.601  13.603 -0.6638  0.0619  0.4341
  745TMC3    C211006   0.408   2.624  13.693 -1.0895  0.4835  0.0953
  745TMC3    C311007   0.287   2.657  13.642 -0.4622 -0.3921 -1.1976
  745TMC3    C411008   0.497   2.623  13.473  0.2176 -0.7739 -0.1210
  745TMC3    C511009   0.381   2.684  13.437  0.4422 -0.5540  0.1260
  745TMC3    C611010   0.273   2.703  13.513  0.4409  0.3385 -0.0380
  745TMC3     C11011   0.638   2.601  13.666 -0.1430 -0.1051 -0.2369
  745TMC3     O11012   0.660   2.514  13.750 -0.0946 -0.3343  0.1618
  745TMC3     H11013   0.425   2.594  13.796 -0.5053 -0.6028 -0.3089
  745TMC3    H111014   0.579   2.606  13.404  0.8997  1.6191  0.0949
  745TMC3    H211015   0.191   2.762  13.473  0.0086 -0.7652 -0.8155
  745TMC3    C711016   0.399   2.775  13.324  0.2081  0.5753 -0.0368
  745TMC3    C811017   0.212   2.741  13.732 -0.5864 -0.0153 -0.4467
  745TMC3    O111018   0.298   2.806  13.261 -0.0285 -0.5419  0.0034
  745TMC3    O211019   0.087   2.746  13.732 -0.0952 -0.2435 -0.1650
  746TMC3    C111020   2.892   4.705  10.707  0.0509 -0.6068  0.0449
  746TMC3    C211021   2.949   4.701  10.588 -0.9432 -0.5276 -0.1945
  746TMC3    C311022   2.986   4.577  10.547  0.3944 -0.8352 -0.0043
  746TMC3    C411023   2.875   4.597  10.788  0.1256  0.7552  0.0743
  746TMC3    C511024   2.905   4.473  10.740  0.3899 -0.5790  0.3850
  746TMC3    C611025   2.953   4.466  10.617 -0.1302 -0.0908 -0.0920
  746TMC3     C11026   2.862   0.111  10.772  0.1462 -0.2369 -0.4675
  746TMC3     O11027   2.857   0.125  10.893 -0.4112  0.0158  0.5609
  746TMC3     H11028   2.998   0.065  10.547  1.2964 -0.5381  2.4970
  746TMC3    H111029   2.826   4.613  10.883  1.5998  1.2232  0.7587
  746TMC3    H211030   2.968   4.372  10.565  1.0083 -0.4547  0.8936
  746TMC3    C711031   2.816   4.370  10.777  0.1722  0.0150 -0.2664
  746TMC3    C811032   3.053   4.558  10.418 -0.1388  0.5784  0.5572
  746TMC3    O111033   2.781   4.308  10.679  0.6017  0.1051 -0.4208
  746TMC3    O211034   3.086   4.442  10.385 -0.6711 -0.6630  0.3256
  747TMC3    C111035   0.393   0.045  10.488 -0.2156 -0.3876 -0.0034
  747TMC3    C211036   0.308   4.684  10.559 -0.4301  0.4037  0.3090
  747TMC3    C311037   0.295   4.717  10.692 -0.0247 -1.0884  0.1325
  747TMC3    C411038   0.462   0.153  10.538  0.2578 -0.2926  1.3408
  747TMC3    C511039   0.438   0.181  10.674 -0.1653  0.2688 -0.1123
  747TMC3    C611040   0.358   0.102  10.749 -0.0370 -0.2717  0.3597
  747TMC3     C11041   0.383   0.030  10.337  0.1103  0.9139 -0.4522
  747TMC3     O11042   0.403   0.129  10.270 -0.1851 -0.0321  1.1915
  747TMC3     H11043   0.236   4.615  10.517  0.6866 -0.3742 -0.3349
  747TMC3    H111044   0.532   0.204  10.473 -0.3911 -1.2497 -0.1088
  747TMC3    H211045   0.351   0.113  10.857  0.2733 -0.0869  0.3607
  747TMC3    C711046   0.526   0.260  10.752  0.5386 -0.2356  0.3196
  747TMC3    C811047   0.217   4.639  10.784 -0.0750 -0.0193  0.3602
  747TMC3    O111048   0.474   0.324  10.843 -0.3809  0.6536  0.3914
  747TMC3    O211049   0.181   4.698  10.888  0.0059 -0.7110 -0.5534
  748MPD2     C11050   1.730   1.485   1.251 -0.0355 -0.2377  0.0726
  748MPD2    C111051   1.718   1.359   1.308  0.3079 -0.8598  0.2503
  748MPD2    C211052   1.815   1.262   1.292  0.5833 -0.0778 -0.1320
  748MPD2    C311053   1.916   1.288   1.203 -0.3450  0.8193  0.4438
  748MPD2    C411054   1.925   1.409   1.137  0.8988  0.3545 -0.2360
  748MPD2    C511055   1.840   1.508   1.167 -0.0776 -0.3850  0.0833
  748MPD2     H11056   1.808   1.168   1.346 -1.6525 -1.1752 -2.3417
  748MPD2    H111057   2.008   1.429   1.071  2.2132  0.3627  1.4156
  748MPD2    H211058   1.663   1.567   1.273 -1.3118 -0.6082 -2.4554
  748MPD2    H311059   1.844   1.603   1.115 -0.4741 -2.0169 -2.8730
  748MPD2     N11060   1.998   1.183   1.178  0.3251  0.1045  0.3170
  748MPD2    H511061   1.991   1.104   1.241  0.0500 -0.9537 -1.0578
  748MPD2    N111062   1.595   1.344   1.378  0.2564 -0.3810  0.1885
  748MPD2    H711063   1.524   1.416   1.370 -0.5655 -1.2751 -0.4961
  749TMC3    C111064   2.177   1.069   1.048  0.7548 -0.0163  0.0278
  749TMC3    C211065   2.235   1.015   1.160 -0.7206 -0.2371 -0.1588
  749TMC3    C311066   2.360   0.958   1.147 -0.2344  0.3327 -0.3593
  749TMC3    C411067   2.244   1.084   0.927 -0.0603 -0.2912 -0.3263
  749TMC3    C511068   2.374   1.027   0.926  0.0625 -0.4733  0.5253
  749TMC3    C611069   2.435   0.972   1.035 -0.2592 -0.1359  0.0928
  749TMC3     C11070   2.070   1.164   1.058 -0.0892  0.2341 -0.6356
  749TMC3     O11071   2.051   1.227   0.956 -0.2046  0.3416  0.4515
  749TMC3     H11072   2.177   0.984   1.246 -1.4970 -1.9096 -1.2665
  749TMC3    H111073   2.199   1.137   0.844 -0.8555 -1.2178 -0.4810
  749TMC3    H211074   2.535   0.932   1.043 -1.3100 -2.8963 -0.6120
  749TMC3    C711075   2.470   1.106   0.850 -0.0328 -0.4185  0.3483
  749TMC3    C811076   2.416   0.910   1.276 -0.1613  0.2767  0.4767
  749TMC3    O111077   2.585   1.111   0.894 -0.2200  0.6679  0.0539
  749TMC3    O211078   2.378   0.963   1.377  0.4566 -0.1737  0.4124
  750MPD2     C11079   2.456   1.802  11.052  0.2368 -0.0231 -0.2179
  750MPD2    C111080   2.573   1.760  11.115  0.4823 -0.0629 -0.7439
  750MPD2    C211081   2.647   1.656  11.069  0.6444  0.1536 -0.2800
  750MPD2    C311082   2.603   1.587  10.952 -0.3734  0.0522 -0.1627
  750MPD2    C411083   2.492   1.635  10.890 -0.2068 -0.2033 -0.0698
  750MPD2    C511084   2.413   1.740  10.936  0.9969 -0.2158  0.8091
  750MPD2     H11085   2.736   1.618  11.117 -0.1350 -1.3763 -0.0635
  750MPD2    H111086   2.459   1.602  10.792 -0.0547  1.1319 -0.5624
  750MPD2    H211087   2.399   1.881  11.099 -0.1923  0.7831 -2.0926
  750MPD2    H311088   2.330   1.779  10.878  1.1829 -0.6517  0.2385
  750MPD2     N11089   2.666   1.474  10.894 -0.0301  0.6615 -0.4733
  750MPD2    H511090   2.621   1.424  10.819 -1.7109 -0.2869  1.1955
  750MPD2    N111091   2.628   1.813  11.231 -0.5373 -0.8706  0.6292
  750MPD2    H711092   2.700   1.757  11.274  2.3976  0.7756 -2.1618
  751TMC3    C111093   2.800   1.288  10.868  0.2145  0.2894  0.2473
  751TMC3    C211094   2.695   1.207  10.865  0.9174  0.4177  0.2877
  751TMC3    C311095   2.709   1.101  10.776 -0.3748 -0.6268 -0.2175
  751TMC3    C411096   2.913   1.283  10.798  0.4413 -0.3321 -0.3206
  751TMC3    C511097   2.923   1.172  10.719 -0.4523  0.3353  0.6296
  751TMC3    C611098   2.821   1.078  10.697  0.2148  0.5639 -0.8493
  751TMC3     C11099   2.777   1.409  10.947 -0.0966  0.5661  0.2425
  751TMC3     O11100   2.861   1.439  11.032  0.0346  0.0612  0.4544
  751TMC3     H11101   2.599   1.224  10.913  0.0968 -1.7307 -0.5843
  751TMC3    H111102   2.993   1.356  10.797 -1.8980  2.2193  0.5152
  751TMC3    H211103   2.824   0.986  10.641  0.9652 -0.1983  0.4408
  751TMC3    C711104   3.046   1.145  10.646  0.6061  0.2498 -0.0645
  751TMC3    C811105   2.600   1.011  10.753 -0.4438 -0.7438  0.5367
  751TMC3    O111106   3.108   1.241  10.595 -0.1327  0.1366 -0.5330
  751TMC3    O211107   2.608   0.948  10.645  0.1913  0.1217 -0.0735
  752TMC3    C111108   1.976   1.368  16.779 -0.3693  0.8066 -1.0316
  752TMC3    C211109   2.087   1.299  16.792  0.6343 -0.3509 -0.7762
  752TMC3    C311110   2.113   1.228  16.907 -0.3042 -1.1803 -0.0867
  752TMC3    C411111   1.880   1.369  16.881  0.0417  0.6874 -0.0419
  752TMC3    C511112   1.900   1.291  16.986  0.9922  0.3149  0.6771
  752TMC3    C611113   2.016   1.225  17.005  0.0330  0.5642 -0.4084
  752TMC3     C11114   1.970   1.454  16.664  0.8776 -0.2525  0.3557
  752TMC3     O11115   2.038   1.426  16.569 -0.3888 -0.1422 -0.1062
  752TMC3     H11116   2.163   1.301  16.715  2.5495  0.5263  1.1316
  752TMC3    H111117   1.782   1.416  16.878 -1.7994 -3.0927  1.9970
  752TMC3    H211118   2.031   1.168  17.096 -0.6915  0.0655 -0.6030
  752TMC3    C711119   1.790   1.286  17.083  0.4667  0.6836  1.0318
  752TMC3    C811120   2.231   1.152  16.916 -1.1026  0.1988  0.9538
  752TMC3    O111121   1.722   1.386  17.099  0.0798  0.3218  0.1679
  752TMC3    O211122   2.303   1.156  16.815  0.6369 -0.0082  0.4582
  753TMC3    C111123   4.087   2.996  13.387  0.1729 -0.2417 -0.3157
  753TMC3    C211124   4.044   2.980  13.514  0.1547 -0.3375 -0.0326
  753TMC3    C311125   3.982   2.863  13.546 -0.5566  0.4866  0.2281
  753TMC3    C411126   4.074   2.894  13.294 -0.3688 -0.6608 -0.5824
  753TMC3    C511127   4.014   2.779  13.331 -0.2167 -0.3548  0.3697
  753TMC3    C611128   3.965   2.763  13.456 -0.8937 -0.1760 -0.0905
  753TMC3     C11129   4.045   3.120  13.332  0.6913 -0.7815  0.5645
  753TMC3     O11130   3.942   3.111  13.266  0.3726 -0.4580  0.0301
  753TMC3     H11131   4.027   3.067  13.577  0.7789 -1.2222  1.3547
  753TMC3    H111132   4.114   2.920  13.196 -3.1201 -2.7310 -2.2634
  753TMC3    H211133   3.918   2.674  13.495  2.8837 -2.1027  0.0237
  753TMC3    C711134   3.987   2.688  13.229 -0.6717  0.1597  0.2606
  753TMC3    C811135   3.925   2.842  13.682 -0.2392  0.4727 -0.4388
  753TMC3    O111136   4.042   2.702  13.123 -0.2230  0.3704 -0.1025
  753TMC3    O211137   3.833   2.764  13.695  0.1859  0.5263  0.0767
  754MPD2     C11138   3.135   1.708  13.147 -0.5576 -0.3176  0.7265
  754MPD2    C111139   3.147   1.573  13.135  0.4645  0.0514 -0.4629
  754MPD2    C211140   3.035   1.493  13.128  0.7810 -0.9243 -0.3028
  754MPD2    C311141   2.915   1.550  13.156  0.2756  0.3360  0.3125
  754MPD2    C411142   2.899   1.684  13.166  0.2040  0.2467 -0.0195
  754MPD2    C511143   3.014   1.768  13.159  0.2979 -0.4751  0.2122
  754MPD2     H11144   3.027   1.394  13.085 -1.5229 -1.1017  0.5475
  754MPD2    H111145   2.802   1.730  13.183 -0.3482 -0.4604 -1.2481
  754MPD2    H211146   3.220   1.776  13.151 -1.5611  0.7661  3.3723
  754MPD2    H311147   3.007   1.874  13.137  1.5191 -0.4326  0.0053
  754MPD2     N11148   2.797   1.479  13.175 -0.4807 -0.3772  0.0033
  754MPD2    H511149   2.711   1.529  13.192  0.2419  0.4679  1.2464
  754MPD2    N111150   3.278   1.524  13.128  0.3080  0.2540 -0.2715
  754MPD2    H711151   3.348   1.595  13.110  0.5959  0.1487  0.4123
  755MPD2     C11152   2.168   1.674  13.696 -0.8344 -0.1458 -1.1134
  755MPD2    C111153   2.114   1.607  13.588 -0.3614 -0.1447 -0.2571
  755MPD2    C211154   2.193   1.524  13.509 -0.2705  0.6503 -0.5264
  755MPD2    C311155   2.318   1.503  13.547  0.7873 -0.8140 -0.2062
  755MPD2    C411156   2.375   1.567  13.661 -0.5594  0.0848  0.3614
  755MPD2    C511157   2.299   1.655  13.734 -0.0545  0.4986 -1.0749
  755MPD2     H11158   2.149   1.481  13.420 -0.6792  2.3858 -1.1776
  755MPD2    H111159   2.473   1.547  13.703 -0.8626 -1.6423  0.2404
  755MPD2    H211160   2.106   1.743  13.752  1.2079 -0.1922  1.2025
  755MPD2    H311161   2.348   1.700  13.819  0.6257  0.5706 -1.5124
  755MPD2     N11162   2.396   1.401  13.482  0.3175  0.0927  1.1931
  755MPD2    H511163   2.488   1.390  13.523 -0.8413  0.8786  4.0208
  755MPD2    N111164   1.978   1.624  13.547  0.0744 -0.9153 -0.2364
  755MPD2    H711165   1.963   1.587  13.454 -0.2290 -0.3493 -0.4087
  756MPD2     C11166   3.338   2.750   9.746 -0.4727  0.5394 -0.2311
  756MPD2    C111167   3.239   2.675   9.808 -0.1155  0.1030  0.3254
  756MPD2    C211168   3.149   2.617   9.727 -0.6228  0.1192 -0.3371
  756MPD2    C311169   3.158   2.623   9.590 -0.2754 -0.1984 -0.6842
  756MPD2    C411170   3.263   2.699   9.531  0.1500 -0.0876  0.1473
  756MPD2    C511171   3.345   2.767   9.610 -0.3985 -0.0604  0.0311
  756MPD2     H11172   3.076   2.553   9.775 -2.0882  0.8162 -1.6319
  756MPD2    H111173   3.279   2.701   9.424 -0.2943  2.8856  0.1529
  756MPD2    H211174   3.411   2.806   9.804 -0.3048 -1.1973  1.2313
  756MPD2    H311175   3.419   2.840   9.577  1.2481 -2.4753 -1.6846
  756MPD2     N11176   3.056   2.548   9.518  0.5980  0.4516 -0.3008
  756MPD2    H511177   2.995   2.493   9.577  2.0343 -0.8264 -0.0052
  756MPD2    N111178   3.223   2.665   9.947  0.2729  0.2748 -0.3604
  756MPD2    H711179   3.143   2.614   9.983  1.4420 -1.2155  0.1090
  757MPD2     C11180   2.677   1.662   9.613 -0.2443  0.4475 -0.1482
  757MPD2    C111181   2.584   1.727   9.525  0.1547 -0.0147 -0.2802
  757MPD2    C211182   2.609   1.853   9.467  0.3146 -0.0964 -0.5794
  757MPD2    C311183   2.735   1.912   9.488  0.1054  0.6196 -0.4244
  757MPD2    C411184   2.825   1.841   9.573 -0.7801  0.0371  0.6274
  757MPD2    C511185   2.797   1.717   9.632 -0.0554 -0.1722  0.3505
  757MPD2     H11186   2.539   1.900   9.399  1.0987 -0.2491 -1.4778
  757MPD2    H111187   2.927   1.872   9.592 -0.3072 -1.3321  0.3657
  757MPD2    H211188   2.663   1.565   9.659  0.1533  1.7309  2.6820
  757MPD2    H311189   2.872   1.665   9.689  0.2443  0.0379  0.1435
  757MPD2     N11190   2.752   2.034   9.426  0.1349 -0.5748  0.1289
  757MPD2    H511191   2.669   2.070   9.379  0.1242  0.4786  0.9688
  757MPD2    N111192   2.461   1.660   9.505  0.7296 -0.1250 -0.8655
  757MPD2    H711193   2.459   1.562   9.531  0.1384  0.1664  0.1786
  758MPD2     C11194   2.493   1.283  15.831  1.0360  0.0864 -0.1808
  758MPD2    C111195   2.600   1.258  15.915 -0.3058 -0.3441  0.6620
  758MPD2    C211196   2.595   1.305  16.044 -0.6155  0.4632 -0.1578
  758MPD2    C311197   2.481   1.362  16.105 -0.4946  0.3839 -0.0134
  758MPD2    C411198   2.372   1.386  16.021 -0.2573 -0.2801  0.0255
  758MPD2    C511199   2.384   1.345  15.886 -0.3366  0.4916 -0.4926
  758MPD2     H11200   2.689   1.301  16.098 -0.2808  0.9451 -0.7059
  758MPD2    H111201   2.282   1.436  16.055 -0.6303 -2.3361  2.0973
  758MPD2    H211202   2.498   1.256  15.726 -0.2512  0.7603 -0.4202
  758MPD2    H311203   2.301   1.366  15.819 -1.1398  0.4498  0.4770
  758MPD2     N11204   2.486   1.395  16.241  0.9314  0.2868 -0.1619
  758MPD2    H511205   2.409   1.448  16.281  0.2730 -0.3758 -0.5535
  758MPD2    N111206   2.705   1.180  15.866 -0.9953  1.0716  0.0170
  758MPD2    H711207   2.710   1.173  15.765 -0.5989  1.1077  0.0344
  759MPD2     C11208   2.328   4.040   9.233 -0.0128 -0.9043  0.5109
  759MPD2    C111209   2.212   4.057   9.156  0.8519  0.5013  0.6779
  759MPD2    C211210   2.177   4.182   9.114 -0.1393  0.3978 -0.5791
  759MPD2    C311211   2.268   4.287   9.134 -0.1038 -0.4910 -0.1870
  759MPD2    C411212   2.381   4.274   9.205 -0.1120 -0.1061 -0.9201
  759MPD2    C511213   2.407   4.146   9.256 -0.1636 -0.4092  0.3430
  759MPD2     H11214   2.082   4.203   9.065 -0.0515 -1.2636 -1.4645
  759MPD2    H111215   2.454   4.353   9.219  0.1594 -1.2669  4.1090
  759MPD2    H211216   2.354   3.946   9.279  3.6485 -1.6820 -3.1692
  759MPD2    H311217   2.500   4.136   9.309 -0.7127 -0.4247  1.2922
  759MPD2     N11218   2.210   4.411   9.101  0.3002 -0.0940  0.2859
  759MPD2    H511219   2.123   4.416   9.051  0.4771  2.6071  0.2735
  759MPD2    N111220   2.121   3.949   9.131  0.0975  0.4888  0.2807
  759MPD2    H711221   2.032   3.980   9.094 -1.1957  1.2507  4.0205
  760MPD2     C11222   1.199   1.127  11.668  0.2064 -0.1648  0.7458
  760MPD2    C111223   1.340   1.149  11.662  0.7153 -0.2350  0.8647
  760MPD2    C211224   1.421   1.084  11.754 -0.7462  0.1066  0.7763
  760MPD2    C311225   1.368   0.993  11.847  0.3332 -0.2564 -0.0756
  760MPD2    C411226   1.228   0.977  11.858 -0.0649 -0.4361 -0.0702
  760MPD2    C511227   1.147   1.041  11.764 -0.5664 -0.1528  0.1296
  760MPD2     H11228   1.527   1.104  11.752 -0.8856  0.3334 -3.7532
  760MPD2    H111229   1.188   0.925  11.944 -1.0537  2.9408  1.5198
  760MPD2    H211230   1.131   1.184  11.606  1.1931 -1.0879 -1.1684
  760MPD2    H311231   1.039   1.041  11.772 -0.6895 -0.1314 -1.5649
  760MPD2     N11232   1.443   0.929  11.944 -0.0635  0.2200 -0.0319
  760MPD2    H511233   1.381   0.882  12.008 -0.6482 -1.6704 -1.9898
  760MPD2    N111234   1.407   1.246  11.583  0.5410 -0.5002  0.5893
  760MPD2    H711235   1.505   1.261  11.606  0.4016  1.4810 -0.0973
  761MPD2     C11236   2.196   0.723  10.896 -0.4927 -0.3097  0.6910
  761MPD2    C111237   2.273   0.717  10.779  0.3150 -0.5543 -0.1601
  761MPD2    C211238   2.374   0.808  10.765 -0.0631 -0.2551 -0.0969
  761MPD2    C311239   2.399   0.905  10.859 -0.1584 -0.1114  0.0672
  761MPD2    C411240   2.329   0.900  10.975 -0.4101 -0.1145 -0.5152
  761MPD2    C511241   2.217   0.820  10.991  1.1941 -0.3193 -0.1906
  761MPD2     H11242   2.428   0.812  10.671 -0.7851 -0.6210 -0.5287
  761MPD2    H111243   2.347   0.977  11.050  1.5995 -1.7950  0.7415
  761MPD2    H211244   2.109   0.660  10.907 -1.3586  0.5483 -1.1983
  761MPD2    H311245   2.154   0.834  11.078 -1.3458 -2.3833 -1.7130
  761MPD2     N11246   2.513   0.995  10.855  0.2370 -0.2410  0.1814
  761MPD2    H511247   2.521   1.047  10.941  0.2392  0.8066 -0.4518
  761MPD2    N111248   2.246   0.618  10.687 -0.5420  0.0160 -0.0360
  761MPD2    H711249   2.194   0.535  10.715 -2.9548  2.4872  2.6555
  762MPD2     C11250   2.649   0.758  10.357 -0.4738  0.0882 -0.3153
  762MPD2    C111251   2.640   0.645  10.283  0.0615 -0.0810 -0.2534
  762MPD2    C211252   2.745   0.608  10.203 -0.4468 -0.8009 -0.6521
  762MPD2    C311253   2.855   0.685  10.197 -0.4953  0.1467 -1.1672
  762MPD2    C411254   2.866   0.800  10.271 -0.1318 -0.8939  0.0028
  762MPD2    C511255   2.764   0.834  10.357 -0.0602 -0.2328 -0.3929
  762MPD2     H11256   2.729   0.518  10.145  0.7705 -1.3174 -0.1924
  762MPD2    H111257   2.957   0.859  10.273 -0.3074 -0.6362  0.2933
  762MPD2    H211258   2.573   0.783  10.430  0.1227  0.3456  0.2132
  762MPD2    H311259   2.766   0.923  10.420  0.5366 -0.0107 -0.7168
  762MPD2     N11260   2.958   0.639  10.103  0.7137  0.4327  0.1968
  762MPD2    H511261   2.936   0.549  10.059 -1.3407  0.8244  0.4341
  762MPD2    N111262   2.524   0.565  10.311  0.2499  0.1586  0.1274
  762MPD2    H711263   2.461   0.605  10.379 -0.5088 -0.2691 -0.3324
  763MPD2     C11264   4.507   1.360  16.100  0.1610 -0.1059  0.4078
  763MPD2    C111265   4.404   1.448  16.061  0.1759  0.7409  0.4677
  763MPD2    C211266   4.405   1.575  16.118  0.8713  0.0291 -1.0613
  763MPD2    C311267   4.511   1.611  16.202  0.4187  0.0689 -0.5609
  763MPD2    C411268   4.604   1.519  16.233 -0.2042 -0.0316  0.0088
  763MPD2    C511269   4.596   1.385  16.196 -0.1848 -0.2452  0.3667
  763MPD2     H11270   4.316   1.632  16.097  0.2775  0.2440  2.0582
  763MPD2    H111271   4.681   1.550  16.302 -0.0350 -0.3743 -0.0252
  763MPD2    H211272   4.512   1.256  16.071 -1.6162 -0.5458  1.6811
  763MPD2    H311273   4.675   1.313  16.214  1.0908  1.1544  0.3794
  763MPD2     N11274   4.530   1.740  16.256 -0.6720  0.3111  0.2524
  763MPD2    H511275   4.599   1.753  16.329 -2.2033  0.1486  1.7334
  763MPD2    N111276   4.302   1.410  15.961 -0.3375 -0.4768 -0.5884
  763MPD2    H711277   4.236   1.480  15.930  0.0234  0.4120  0.6304
  764MPD2     C11278   2.665   3.073  17.395  0.2118  0.3972  0.4018
  764MPD2    C111279   2.561   2.992  17.382 -0.5668  0.6379  0.1562
  764MPD2    C211280   2.557   2.866  17.452  0.1544 -0.0934 -0.4886
  764MPD2    C311281   2.660   2.828  17.534  0.3596 -0.2758 -0.0566
  764MPD2    C411282   2.768   2.912  17.542  0.2946 -0.0806  0.3703
  764MPD2    C511283   2.772   3.035  17.480 -0.3364  0.4766 -0.2893
  764MPD2     H11284   2.471   2.804  17.428 -0.9296 -0.0330  3.0831
  764MPD2    H111285   2.849   2.881  17.608  1.5509  0.0642 -1.0902
  764MPD2    H211286   2.665   3.160  17.330  0.1924  1.0322  1.2468
  764MPD2    H311287   2.868   3.084  17.487 -0.3791  0.3937  0.8827
  764MPD2     N11288   2.651   2.697  17.580  0.6294 -0.2699  0.4176
  764MPD2    H511289   2.567   2.644  17.559  0.6443 -0.2788  0.3806
  764MPD2    N111290   2.463   3.009  17.285 -0.4775  0.3311 -0.3546
  764MPD2    H711291   2.399   2.931  17.278 -0.9576  0.3781  3.2867
  765MPD2     C11292   1.760   0.494  15.585 -0.5169  0.7592 -0.0272
  765MPD2    C111293   1.836   0.558  15.683 -0.6696 -0.1427  0.0579
  765MPD2    C211294   1.973   0.526  15.692  0.3128 -0.0958 -0.4635
  765MPD2    C311295   2.029   0.436  15.603  0.1560 -0.0844 -0.8313
  765MPD2    C411296   1.954   0.384  15.502 -0.1433 -0.4951 -1.1004
  765MPD2    C511297   1.820   0.418  15.490 -0.0498 -0.2486  0.1320
  765MPD2     H11298   2.027   0.573  15.773 -0.4393 -0.7963  0.4448
  765MPD2    H111299   1.997   0.325  15.422 -1.0527 -0.9821 -1.2277
  765MPD2    H211300   1.656   0.519  15.569 -0.2018  1.0425 -1.5619
  765MPD2    H311301   1.759   0.385  15.407  0.4553  0.7299 -0.6295
  765MPD2     N11302   2.167   0.411  15.615 -0.0633 -0.2778  1.0466
  765MPD2    H511303   2.225   0.468  15.676 -0.1101  1.4500 -0.5008
  765MPD2    N111304   1.777   0.665  15.752  0.1526 -1.1325  0.5363
  765MPD2    H711305   1.679   0.671  15.726  0.1221  0.8542  1.1467
  766MPD2     C11306   1.343   0.831  15.440  0.5192 -0.3247 -0.3856
  766MPD2    C111307   1.479   0.840  15.466 -0.4719 -0.0408 -0.1697
  766MPD2    C211308   1.569   0.803  15.365  0.2320  0.7815  0.2431
  766MPD2    C311309   1.530   0.742  15.252  0.3972 -0.2783 -0.1201
  766MPD2    C411310   1.401   0.721  15.235  0.2599  0.4622 -0.4472
  766MPD2    C511311   1.309   0.764  15.323  0.2445  0.2660 -0.3530
  766MPD2     H11312   1.674   0.822  15.385 -0.0093  0.4209  1.8639
  766MPD2    H111313   1.365   0.672  15.146  0.3839  0.5474 -0.5450
  766MPD2    H211314   1.261   0.876  15.495  1.0077 -0.4779  0.4612
  766MPD2    H311315   1.210   0.722  15.305  0.0497  1.0914 -1.1496
  766MPD2     N11316   1.624   0.713  15.150  0.0196  0.8345 -0.5440
  766MPD2    H511317   1.592   0.704  15.054 -0.0775  2.2330 -0.6495
  766MPD2    N111318   1.537   0.896  15.587  0.0192 -0.5321  0.4099
  766MPD2    H711319   1.639   0.895  15.591  0.0831 -0.9958 -1.4263
  767MPD2     C11320   1.335   1.086  15.240 -0.0862  0.9065  0.0705
  767MPD2    C111321   1.461   1.072  15.184  0.5430  0.3854 -0.5891
  767MPD2    C211322   1.468   1.015  15.056  0.8639  1.5709 -0.0832
  767MPD2    C311323   1.352   0.975  14.990  0.1488 -0.5060  0.6697
  767MPD2    C411324   1.228   0.983  15.056 -0.4123  0.5018  0.7469
  767MPD2    C511325   1.225   1.048  15.175  0.3144 -0.1361  0.4975
  767MPD2     H11326   1.562   0.997  15.006  0.9848 -0.4429  0.8567
  767MPD2    H111327   1.138   0.938  15.016  0.0493  0.3446 -0.1073
  767MPD2    H211328   1.314   1.142  15.330 -0.8036 -0.6454  0.8714
  767MPD2    H311329   1.130   1.083  15.214  0.2769  1.0183 -0.6225
  767MPD2     N11330   1.360   0.927  14.858 -0.8938  0.3523  0.2527
  767MPD2    H511331   1.450   0.905  14.817  0.2209  3.4167  1.0656
  767MPD2    N111332   1.579   1.117  15.246  0.5300 -0.3866  0.2661
  767MPD2    H711333   1.573   1.162  15.336  0.3027  0.7507 -0.3275
  768MPD2     C11334   2.697   4.066  10.381  0.4720  0.6601  0.0918
  768MPD2    C111335   2.691   4.006  10.507 -0.0603 -0.2414  1.0892
  768MPD2    C211336   2.812   3.991  10.575 -0.0428  0.2054  0.6827
  768MPD2    C311337   2.928   4.047  10.526 -0.4412 -0.1105 -0.1035
  768MPD2    C411338   2.925   4.108  10.399 -0.3509  0.6927 -0.5562
  768MPD2    C511339   2.807   4.120  10.330  0.3565  0.3023 -0.6503
  768MPD2     H11340   2.803   3.953  10.676 -0.6072 -0.8153  0.2446
  768MPD2    H111341   3.017   4.146  10.358 -0.6090  0.4108 -1.3917
  768MPD2    H211342   2.609   4.079  10.319  2.5275 -1.3372 -3.2408
  768MPD2    H311343   2.812   4.166  10.232  1.2803  1.9057  0.1436
  768MPD2     N11344   3.057   4.032  10.596 -0.3689  0.1124 -0.6902
  768MPD2    H511345   3.132   4.087  10.554  1.1029 -0.7625  0.7929
  768MPD2    N111346   2.565   3.956  10.565 -0.3992  0.1226  0.7052
  768MPD2    H711347   2.570   3.900  10.649  1.4722  0.4035  0.7909
  769MPD2     C11348   3.660   2.114  14.861  0.4604  0.1613 -0.4636
  769MPD2    C111349   3.541   2.147  14.927 -0.0609 -0.8054 -0.0058
  769MPD2    C211350   3.545   2.177  15.061  0.5067  0.5571  0.8435
  769MPD2    C311351   3.669   2.196  15.119 -0.7239  0.3793  0.3832
  769MPD2    C411352   3.785   2.173  15.048 -0.2189 -0.1365 -0.1783
  769MPD2    C511353   3.784   2.128  14.921  0.0961 -0.4477  0.4412
  769MPD2     H11354   3.459   2.227  15.104 -1.1809 -0.3964 -1.4167
  769MPD2    H111355   3.882   2.167  15.096 -1.3192  0.4607  2.1271
  769MPD2    H211356   3.664   2.086  14.756 -0.6134 -2.2651  0.1396
  769MPD2    H311357   3.873   2.100  14.865 -0.2804 -1.0885  0.1671
  769MPD2     N11358   3.674   2.250  15.254 -0.1529  0.4199 -0.3617
  769MPD2    H511359   3.587   2.270  15.303 -0.5465 -2.3825  0.0857
  769MPD2    N111360   3.424   2.150  14.844  0.2902 -0.7387 -0.5150
  769MPD2    H711361   3.430   2.103  14.754 -0.1846  0.4891 -1.1780
  770MPD2     C11362   2.538   1.978  14.809 -0.1779 -0.8223 -0.6389
  770MPD2    C111363   2.666   1.988  14.845  0.6081 -0.3063  0.1748
  770MPD2    C211364   2.737   2.103  14.818 -0.2059 -1.0210  0.0884
  770MPD2    C311365   2.680   2.195  14.735  0.1485 -0.5356 -0.0496
  770MPD2    C411366   2.547   2.184  14.700  0.7207 -0.4917 -0.2235
  770MPD2    C511367   2.470   2.074  14.734  0.2294 -0.1267 -0.8095
  770MPD2     H11368   2.836   2.117  14.862 -1.3916  1.2043  2.0440
  770MPD2    H111369   2.499   2.266  14.648  1.5257  0.3138  0.3112
  770MPD2    H211370   2.479   1.889  14.830  0.6949 -0.8406  1.7574
  770MPD2    H311371   2.367   2.054  14.707  0.5943  0.7410 -2.8452
  770MPD2     N11372   2.747   2.309  14.682 -0.3177  0.2435 -0.0996
  770MPD2    H511373   2.693   2.385  14.642 -1.5102 -2.0546 -2.8318
  770MPD2    N111374   2.732   1.872  14.898 -0.3755  0.1454  0.7609
  770MPD2    H711375   2.673   1.793  14.919  0.4840 -0.5712  0.4827
  771MPD2     C11376   4.511   4.619  13.727 -0.6849 -0.0212  0.2105
  771MPD2    C111377   4.444   0.005  13.685 -0.0056 -0.3318  0.4535
  771MPD2    C211378   4.315   4.719  13.631  0.2669  0.1955 -0.2022
  771MPD2    C311379   4.252   4.592  13.617  0.8924 -0.2876  0.4084
  771MPD2    C411380   4.331   4.484  13.651  0.3323  0.1186  0.2705
  771MPD2    C511381   4.452   4.496  13.711 -0.0725 -0.9359 -0.3983
  771MPD2     H11382   4.259   0.084  13.599 -1.3683 -0.5009  0.7345
  771MPD2    H111383   4.289   4.384  13.646 -0.2112  0.4576 -1.9227
  771MPD2    H211384   4.605   4.629  13.781  0.4091  1.2742 -1.9401
  771MPD2    H311385   4.505   4.403  13.730  1.7983  0.2133  0.1077
  771MPD2     N11386   4.117   4.590  13.572  0.6077  0.2586 -0.3603
  771MPD2    H511387   4.068   4.678  13.560  1.7017  0.8191 -0.7314
  771MPD2    N111388   4.502   0.136  13.688  0.6125 -0.5521  0.1303
  771MPD2    H711389   4.449   0.219  13.664  0.6838 -1.0666 -1.8106
  772MPD2     C11390   4.432   0.873  13.836  0.1368 -0.5236 -0.6545
  772MPD2    C111391   4.377   0.752  13.821 -0.3013  0.1296  0.2012
  772MPD2    C211392   4.260   0.721  13.878  0.0222  0.6054 -0.2917
  772MPD2    C311393   4.189   0.826  13.942 -0.8177  0.2384 -0.2888
  772MPD2    C411394   4.248   0.953  13.966  0.0730 -0.0650  0.8640
  772MPD2    C511395   4.372   0.972  13.913  0.3154 -0.1159  0.1829
  772MPD2     H11396   4.220   0.620  13.880  1.0265  0.2554  2.3549
  772MPD2    H111397   4.201   1.023  14.035  0.6564  0.6976  0.4872
  772MPD2    H211398   4.530   0.895  13.795 -0.1185 -1.2283 -1.6165
  772MPD2    H311399   4.425   1.064  13.931  0.6614 -0.5315  1.2877
  772MPD2     N11400   4.059   0.813  13.992 -0.3041 -0.7122  0.7495
  772MPD2    H511401   4.012   0.899  14.020  1.1959 -0.1105  1.4236
  772MPD2    N111402   4.440   0.644  13.757  0.8005 -0.2262  0.2754
  772MPD2    H711403   4.403   0.549  13.753  0.4865  0.0430 -3.7226
  773MPD2     C11404   3.491   2.011   0.515 -0.1089 -0.0224  0.2699
  773MPD2    C111405   3.428   1.900   0.477  0.5781 -0.3839 -0.2745
  773MPD2    C211406   3.476   1.777   0.517 -0.1783 -0.9823 -0.6291
  773MPD2    C311407   3.591   1.762   0.591  0.0209  0.0583  0.3188
  773MPD2    C411408   3.656   1.881   0.625 -0.3654  0.6944 -0.8581
  773MPD2    C511409   3.602   2.002   0.594  0.1701 -0.2938 -0.1600
  773MPD2     H11410   3.430   1.681   0.495 -0.2481 -1.6125  2.2055
  773MPD2    H111411   3.746   1.874   0.685 -0.3227  0.2191 -0.9722
  773MPD2    H211412   3.463   2.110   0.482  1.4249 -0.0994 -1.2671
  773MPD2    H311413   3.659   2.089   0.624 -0.8312 -0.3244  1.8615
  773MPD2     N11414   3.628   1.631   0.623 -0.2516  0.1195 -0.1891
  773MPD2    H511415   3.566   1.557   0.590  0.2377 -0.7520  0.8582
  773MPD2    N111416   3.320   1.910   0.382  0.2802 -0.1094 -0.4467
  773MPD2    H711417   3.305   2.000   0.337  1.8519  1.0992  1.4534
  774MPD2     C11418   2.864   0.568  13.383  0.6959 -0.6652 -0.3060
  774MPD2    C111419   2.794   0.677  13.432 -0.2436 -0.3211 -0.7513
  774MPD2    C211420   2.847   0.808  13.433  0.0132  0.3379  0.2185
  774MPD2    C311421   2.975   0.824  13.386  0.3553  0.7820 -0.2017
  774MPD2    C411422   3.038   0.717  13.324 -0.1474  0.5090  0.2693
  774MPD2    C511423   2.983   0.592  13.324  0.0402  0.2862  0.6162
  774MPD2     H11424   2.796   0.893  13.477 -1.4213 -0.8310  0.8311
  774MPD2    H111425   3.141   0.724  13.291 -0.4956  1.8069 -0.4962
  774MPD2    H211426   2.827   0.466  13.393 -1.5834 -0.0715 -2.5809
  774MPD2    H311427   3.051   0.513  13.292 -1.6043 -0.5595 -0.7880
  774MPD2     N11428   3.046   0.942  13.411  0.5679  0.2118  0.5897
  774MPD2    H511429   2.991   1.005  13.469 -0.9513 -2.2725  1.8613
  774MPD2    N111430   2.675   0.640  13.497 -0.8190  0.2903 -0.2088
  774MPD2    H711431   2.673   0.541  13.521  0.9705  0.3151  0.0215
  775MPD2     C11432   3.898   2.321  15.894 -0.2583 -0.2464  0.8608
  775MPD2    C111433   3.862   2.430  15.966 -0.2686 -0.6530  0.3325
  775MPD2    C211434   3.924   2.548  15.939 -0.3281  0.6917 -0.1431
  775MPD2    C311435   4.028   2.554  15.849 -0.3955 -0.4822 -1.4896
  775MPD2    C411436   4.060   2.442  15.776 -0.3540 -0.5920 -0.2714
  775MPD2    C511437   4.004   2.320  15.809 -0.7316  0.2304 -0.5190
  775MPD2     H11438   3.902   2.636  15.998  1.4595  0.7900  0.3708
  775MPD2    H111439   4.149   2.451  15.715 -0.8127 -3.6383 -1.3711
  775MPD2    H211440   3.857   2.222  15.913 -2.4247  0.3083 -1.1375
  775MPD2    H311441   4.047   2.233  15.760 -1.2054  1.4612 -3.1341
  775MPD2     N11442   4.086   2.674  15.812 -0.0868 -0.3313  0.0363
  775MPD2    H511443   4.138   2.663  15.725  0.8236  0.6807  0.4429
  775MPD2    N111444   3.759   2.405  16.058  0.3159 -0.0972 -0.2609
  775MPD2    H711445   3.716   2.313  16.060 -2.3353  1.1587  0.7773
  776MPD2     C11446   3.025   2.339  11.833  0.3026 -0.5040  0.0191
  776MPD2    C111447   2.986   2.348  11.701 -0.4758  0.4775  0.6408
  776MPD2    C211448   3.035   2.454  11.628 -0.0386 -0.8250  0.2855
  776MPD2    C311449   3.147   2.526  11.661  0.6059  0.0475  0.0825
  776MPD2    C411450   3.208   2.503  11.784  0.3374  0.5217 -0.0326
  776MPD2    C511451   3.135   2.418  11.864  0.4675  0.0159 -0.2207
  776MPD2     H11452   2.995   2.473  11.529 -0.3114  3.6397  1.2328
  776MPD2    H111453   3.283   2.562  11.836  0.5038 -1.2745  1.7560
  776MPD2    H211454   2.972   2.279  11.907 -0.7292 -0.0206 -0.3146
  776MPD2    H311455   3.162   2.414  11.969  1.1101 -2.7949 -0.4880
  776MPD2     N11456   3.211   2.629  11.586 -0.4197 -0.0288 -0.5558
  776MPD2    H511457   3.292   2.673  11.628 -2.1378  4.1294 -1.5804
  776MPD2    N111458   2.897   2.240  11.659  0.0826 -0.5854 -0.0633
  776MPD2    H711459   2.880   2.166  11.727  0.1276  0.2976  0.9032
  777MPD2     C11460   3.503   0.258   0.693 -0.8271 -0.2318 -0.5506
  777MPD2    C111461   3.396   0.214   0.765  0.3898  0.5301  0.3282
  777MPD2    C211462   3.329   0.100   0.729  1.1139 -0.4061  0.1619
  777MPD2    C311463   3.367   0.028   0.613  1.0609  0.0830  0.4604
  777MPD2    C411464   3.483   0.068   0.548 -0.1145 -0.4267 -0.9578
  777MPD2    C511465   3.548   0.184   0.584 -0.9295 -0.6130 -0.2955
  777MPD2     H11466   3.245   0.055   0.782  1.8661 -0.1977  1.5263
  777MPD2    H111467   3.525   0.008   0.467 -2.9233 -0.7155 -2.1920
  777MPD2    H211468   3.550   0.353   0.716 -2.0365  0.6824 -1.7841
  777MPD2    H311469   3.640   0.205   0.531 -0.2425  0.8285  1.4679
  777MPD2     N11470   3.306   4.625   0.591 -0.0836 -0.2736  0.2362
  777MPD2    H511471   3.231   4.592   0.651 -0.2586 -0.9655 -0.3512
  777MPD2    N111472   3.369   0.287   0.878 -0.2201  0.0398 -0.4846
  777MPD2    H711473   3.435   0.354   0.915  0.4123 -0.7402 -0.1944
  778MPD2     C11474   4.354   0.639  14.697 -0.1712  0.6246  0.2451
  778MPD2    C111475   4.384   0.511  14.645  0.5045  0.2548 -0.3794
  778MPD2    C211476   4.509   0.491  14.606 -0.5402  0.5962  0.6293
  778MPD2    C311477   4.598   0.598  14.602 -0.9086  0.5534  0.8176
  778MPD2    C411478   4.567   0.718  14.660  0.2795  0.6963 -0.4222
  778MPD2    C511479   4.443   0.737  14.712 -0.5547  0.0888 -0.3203
  778MPD2     H11480   4.538   0.406  14.546 -2.4297  1.4029 -1.4291
  778MPD2    H111481   4.642   0.796  14.668  1.2974 -0.0195 -2.9362
  778MPD2    H211482   4.257   0.664  14.739 -0.1404 -0.2628  0.8347
  778MPD2    H311483   4.407   0.834  14.744 -0.4992  0.3990 -1.1896
  778MPD2     N11484   0.003   0.571  14.552 -0.2058  0.1133  0.5705
  778MPD2    H511485   0.035   0.475  14.551  0.5843  0.4076 -3.2525
  778MPD2    N111486   4.289   0.408  14.629  0.7921  0.2479  0.1393
  778MPD2    H711487   4.321   0.315  14.602 -1.8091 -0.1861 -1.4070
  779MPD2     C11488   3.854   3.891  14.089 -0.2806  0.0238  0.1987
  779MPD2    C111489   3.989   3.897  14.101  0.1582  0.2442 -0.0566
  779MPD2    C211490   4.054   4.005  14.045  0.0785 -0.6431 -0.0829
  779MPD2    C311491   3.975   4.104  13.987  0.3577  0.5854  0.3172
  779MPD2    C411492   3.840   4.089  13.957  0.8363  0.8499 -0.2724
  779MPD2    C511493   3.777   3.979  14.009  0.4061  0.2006 -0.0186
  779MPD2     H11494   4.162   4.008  14.038  0.1352  2.1771  2.1784
  779MPD2    H111495   3.787   4.168  13.904  0.4432 -0.3950 -1.7358
  779MPD2    H211496   3.800   3.810  14.137  0.4269 -0.2527  0.5287
  779MPD2    H311497   3.672   3.964  13.988  0.2737 -0.4219  1.0430
  779MPD2     N11498   4.052   4.222  13.958  0.1126  0.5301  0.2560
  779MPD2    H511499   4.153   4.227  13.972  0.0966 -0.9613  0.9981
  779MPD2    N111500   4.068   3.799  14.169  0.1953  0.7436 -0.2305
  779MPD2    H711501   4.167   3.810  14.148  0.0294 -0.8783 -1.8311
  780MPD2     C11502   3.981   3.703   0.586  0.2815  0.4063  0.1787
  780MPD2    C111503   3.857   3.716   0.533  0.4035 -0.0924  0.2493
  780MPD2    C211504   3.820   3.840   0.493 -0.2739  0.7042 -0.4985
  780MPD2    C311505   3.900   3.950   0.511 -0.4123  0.0797 -0.2087
  780MPD2    C411506   4.030   3.938   0.565  0.4897 -0.2200  0.0458
  780MPD2    C511507   4.065   3.811   0.597  0.1337  0.7960  0.6066
  780MPD2     H11508   3.723   3.858   0.449 -1.3270 -0.0225  1.5505
  780MPD2    H111509   4.098   4.021   0.577  2.4585 -2.1239  2.1221
  780MPD2    H211510   4.019   3.607   0.619  3.2537  1.4201 -0.2573
  780MPD2    H311511   4.166   3.783   0.623 -0.6010 -0.6783  1.9228
  780MPD2     N11512   3.851   4.069   0.460  0.0231  0.0097 -0.5234
  780MPD2    H511513   3.752   4.060   0.439  0.0115 -1.4689  0.1902
  780MPD2    N111514   3.762   3.609   0.542 -0.1788  0.5343 -0.8359
  780MPD2    H711515   3.791   3.520   0.582  0.2301  0.7503 -0.6498
  781MPD2     C11516   1.308   0.542  11.997  0.9237 -0.5861  0.0805
  781MPD2    C111517   1.193   0.601  12.010 -0.9258 -0.6127  0.1617
  781MPD2    C211518   1.118   0.643  11.898 -0.0776  0.9514  0.2146
  781MPD2    C311519   1.160   0.609  11.771 -0.4089 -0.2057  0.2017
  781MPD2    C411520   1.291   0.551  11.759  0.3905 -1.1394  0.3835
  781MPD2    C511521   1.362   0.518  11.869 -0.6724  0.4427  0.1033
  781MPD2     H11522   1.021   0.690  11.910 -0.6860 -0.6207  1.3298
  781MPD2    H111523   1.335   0.531  11.662  1.7976 -0.4217  0.8662
  781MPD2    H211524   1.359   0.488  12.077  0.4119  0.4740  1.1267
  781MPD2    H311525   1.461   0.473  11.863  0.1806  2.4065 -0.4369
  781MPD2     N11526   1.092   0.647  11.655  0.2764 -0.2907  0.1298
  781MPD2    H511527   1.138   0.634  11.565 -0.6106 -0.0564 -0.3543
  781MPD2    N111528   1.138   0.602  12.138 -0.3644  0.3591 -0.2055
  781MPD2    H711529   1.193   0.564  12.215  0.0187 -2.0905 -1.7068
  782MPD2     C11530   3.411   1.682  10.032  0.4002 -0.7529 -0.1349
  782MPD2    C111531   3.439   1.586  10.126  0.0480  0.1466  0.4061
  782MPD2    C211532   3.493   1.637  10.248  0.1768 -0.4376  0.6105
  782MPD2    C311533   3.519   1.774  10.266 -0.1490  0.3507 -1.1654
  782MPD2    C411534   3.497   1.860  10.159  0.9526  0.2585  0.0542
  782MPD2    C511535   3.444   1.812  10.045 -0.4692  0.4374 -0.3308
  782MPD2     H11536   3.511   1.578  10.337  2.6614  2.0502  1.7675
  782MPD2    H111537   3.516   1.966  10.160 -0.2070  0.4745 -1.5657
  782MPD2    H211538   3.369   1.649   9.938  0.9424  3.0180 -1.6970
  782MPD2    H311539   3.435   1.884   9.965 -0.2196  0.1223 -0.6387
  782MPD2     N11540   3.586   1.811  10.387  0.5064  1.4042 -0.2748
  782MPD2    H511541   3.607   1.735  10.451  0.0994  1.0538 -0.5607
  782MPD2    N111542   3.428   1.446  10.112 -0.2827 -0.1347  0.3597
  782MPD2    H711543   3.469   1.395  10.189  0.8294  0.6570  0.2999
  783MPD2     C11544   3.155   0.807  10.571  0.6431  0.1254  1.0356
  783MPD2    C111545   3.135   0.940  10.546 -0.7970 -0.4868  0.6919
  783MPD2    C211546   3.182   0.990  10.430  0.7952  0.5376  0.1987
  783MPD2    C311547   3.245   0.914  10.336  0.0352  0.1972  0.4636
  783MPD2    C411548   3.265   0.774  10.361  0.4946  0.0098 -0.8853
  783MPD2    C511549   3.222   0.723  10.481  0.2698  0.0834 -0.1886
  783MPD2     H11550   3.170   1.097  10.415  0.0396  0.2708 -1.0458
  783MPD2    H111551   3.306   0.702  10.291 -0.1043 -1.4651  0.2926
  783MPD2    H211552   3.116   0.754  10.658 -1.8592 -0.2858 -0.3214
  783MPD2    H311553   3.223   0.617  10.506  1.1905 -0.0975 -1.0268
  783MPD2     N11554   3.296   0.979  10.222 -0.0564 -0.3058 -0.5675
  783MPD2    H511555   3.269   1.077  10.217 -0.9907 -0.3755  3.3267
  783MPD2    N111556   3.063   1.013  10.646 -0.0395  0.4833 -0.5545
  783MPD2    H711557   3.012   0.958  10.714  0.2461  0.1400 -0.6155
  784MPD2     C11558   1.459   2.511   0.989 -1.0146 -0.0098  0.3272
  784MPD2    C111559   1.325   2.476   0.989  0.1175 -0.0913  0.7122
  784MPD2    C211560   1.247   2.530   0.891  0.6925  0.3786  0.5187
  784MPD2    C311561   1.302   2.617   0.808 -0.3930  0.0215  0.4995
  784MPD2    C411562   1.437   2.638   0.799  0.3832 -0.6899  0.4792
  784MPD2    C511563   1.515   2.590   0.892 -0.0779  0.0663  0.3204
  784MPD2     H11564   1.139   2.519   0.892  0.2639  4.1829 -2.1230
  784MPD2    H111565   1.487   2.690   0.718 -0.7320 -4.4977 -2.6291
  784MPD2    H211566   1.527   2.472   1.064 -1.9450 -2.0859  0.0805
  784MPD2    H311567   1.618   2.624   0.888  0.4642 -1.6171  0.0344
  784MPD2     N11568   1.215   2.665   0.701  0.9634  0.3395  0.5678
  784MPD2    H511569   1.118   2.636   0.716  1.4037 -0.9510  0.9728
  784MPD2    N111570   1.268   2.384   1.079 -0.6853  0.1538 -0.0482
  784MPD2    H711571   1.169   2.363   1.075 -0.4510 -1.0899  0.8316
  785MPD2     C11572   1.201   0.204   9.958 -0.6079 -0.0150 -0.4295
  785MPD2    C111573   1.127   0.244  10.061 -0.2172  0.0352 -0.4880
  785MPD2    C211574   0.989   0.224  10.062  0.5736  0.6239 -0.2082
  785MPD2    C311575   0.924   0.171   9.953  0.1567  0.6387 -0.3538
  785MPD2    C411576   1.002   0.131   9.846 -0.1263 -0.1126 -0.3582
  785MPD2    C511577   1.140   0.146   9.850 -0.0192 -0.1856  0.0156
  785MPD2     H11578   0.915   0.260  10.133 -0.3340 -1.5437 -0.0578
  785MPD2    H111579   0.955   0.084   9.761 -0.9127  1.9406 -1.0557
  785MPD2    H211580   1.309   0.215   9.961 -0.5731  0.3853 -3.3639
  785MPD2    H311581   1.190   0.129   9.755 -2.0470 -1.1712 -0.8872
  785MPD2     N11582   0.783   0.161   9.943 -0.0142  0.4759  0.0585
  785MPD2    H511583   0.732   0.167  10.030  0.9480 -0.6482  0.6935
  785MPD2    N111584   1.201   0.315  10.153 -1.0523  0.5222 -0.2235
  785MPD2    H711585   1.293   0.351  10.133 -0.7896  0.2083  0.4212
  786MPD2     C11586   4.276   3.238  14.548  0.0661  0.6025  0.6173
  786MPD2    C111587   4.413   3.214  14.529  0.2105 -0.3809 -0.3538
  786MPD2    C211588   4.510   3.285  14.597 -0.1469 -0.0893  0.2316
  786MPD2    C311589   4.469   3.374  14.696  0.0818  0.1752  1.2333
  786MPD2    C411590   4.338   3.395  14.725 -0.1594 -0.0246  1.2273
  786MPD2    C511591   4.246   3.323  14.652  0.1322  0.0180  0.4648
  786MPD2     H11592   4.613   3.252  14.594 -1.1955 -3.2334 -0.9171
  786MPD2    H111593   4.322   3.463  14.808  0.2290  1.2097  0.3036
  786MPD2    H211594   4.196   3.187  14.498  1.3615 -0.1968 -0.6300
  786MPD2    H311595   4.141   3.340  14.673  0.4524  1.8739  0.6354
  786MPD2     N11596   4.558   3.441  14.786  0.2125 -0.0231  0.0376
  786MPD2    H511597   4.509   3.494  14.857 -1.9195 -0.8298 -0.8085
  786MPD2    N111598   4.449   3.121  14.434 -0.6665  0.3418  0.0140
  786MPD2    H711599   4.547   3.126  14.408 -0.7315 -0.5530 -0.3734
  787MPD2     C11600   0.277   3.033  14.431  0.2615 -0.0517 -0.2018
  787MPD2    C111601   0.234   2.912  14.378  0.7632 -0.6223  0.5229
  787MPD2    C211602   0.293   2.791  14.409  0.4193  0.0056  0.0428
  787MPD2    C311603   0.389   2.776  14.509  0.3666  0.1296 -0.4558
  787MPD2    C411604   0.433   2.894  14.571 -0.2241 -0.1321  0.0161
  787MPD2    C511605   0.381   3.018  14.527  0.5441  0.2702  0.6857
  787MPD2     H11606   0.250   2.706  14.358  1.4670 -2.2411  2.9386
  787MPD2    H111607   0.506   2.894  14.651 -0.3896 -0.3479  0.1704
  787MPD2    H211608   0.235   3.131  14.412  0.6354 -0.1668 -1.6082
  787MPD2    H311609   0.413   3.105  14.583 -1.6851  1.4982  0.0157
  787MPD2     N11610   0.422   2.643  14.549 -0.8932  0.6059 -0.2650
  787MPD2    H511611   0.387   2.567  14.492  0.9251 -1.3706  1.2836
  787MPD2    N111612   0.119   2.927  14.291 -0.1346  0.9249 -0.6890
  787MPD2    H711613   0.068   3.013  14.307 -1.8818 -0.2540  0.0067
  788MPD2     C11614   1.294   0.927   0.827  0.0972 -0.0221 -0.5692
  788MPD2    C111615   1.402   0.924   0.745  0.0474  0.0357  0.0333
  788MPD2    C211616   1.447   1.041   0.693 -0.0285  0.7373 -0.4446
  788MPD2    C311617   1.382   1.162   0.723 -0.1677 -0.2268 -0.7166
  788MPD2    C411618   1.277   1.162   0.814  0.1700  0.7348  1.3967
  788MPD2    C511619   1.230   1.041   0.863  0.3553  0.2700 -0.3415
  788MPD2     H11620   1.541   1.037   0.639  1.3227  1.7718  1.8224
  788MPD2    H111621   1.231   1.253   0.849 -2.8661 -0.1661 -0.2481
  788MPD2    H211622   1.265   0.840   0.884 -0.9118  0.7461  0.0871
  788MPD2    H311623   1.150   1.044   0.936  1.1137  0.3804  0.4849
  788MPD2     N11624   1.416   1.281   0.655 -0.2223 -0.1215  0.0430
  788MPD2    H511625   1.352   1.357   0.671  0.7122  0.4798  0.9269
  788MPD2    N111626   1.467   0.799   0.701 -0.0894  0.6074 -0.3738
  788MPD2    H711627   1.539   0.804   0.629  0.7834  0.9231  0.5189
  789MPD2     C11628   2.111   1.204  16.055 -0.2808 -0.7382  0.6144
  789MPD2    C111629   2.054   1.153  16.170  0.0998 -0.2835 -0.8336
  789MPD2    C211630   1.960   1.227  16.235  0.5271  0.5255 -0.0504
  789MPD2    C311631   1.905   1.343  16.186  0.5836 -0.3332 -0.3617
  789MPD2    C411632   1.955   1.391  16.070 -0.1702 -0.6773 -0.3570
  789MPD2    C511633   2.060   1.328  16.008  0.0804 -0.0916 -0.0379
  789MPD2     H11634   1.924   1.184  16.328  1.1300 -0.6269 -0.3501
  789MPD2    H111635   1.915   1.481  16.025  1.8870 -0.6339 -2.1100
  789MPD2    H211636   2.183   1.157  15.989 -2.0908 -0.5308 -1.5183
  789MPD2    H311637   2.090   1.368  15.912  0.7753 -0.3405  0.0790
  789MPD2     N11638   1.812   1.424  16.258 -0.3915  0.5940 -0.6645
  789MPD2    H511639   1.804   1.523  16.238 -1.1988  0.7477  0.4106
  789MPD2    N111640   2.088   1.027  16.224  0.6468  0.1859 -0.2868
  789MPD2    H711641   2.045   1.012  16.315  2.8299  0.1870  0.7569
  790MPD2     C11642   3.031   2.856  13.557  0.2391 -0.3086  0.4052
  790MPD2    C111643   3.065   2.724  13.549 -0.1227 -0.4540 -0.9744
  790MPD2    C211644   3.034   2.647  13.436 -0.0631 -0.9574 -0.7248
  790MPD2    C311645   2.961   2.698  13.333  0.1849 -0.0855  0.6018
  790MPD2    C411646   2.915   2.829  13.338 -1.0830  0.5428  0.3601
  790MPD2    C511647   2.949   2.903  13.448 -0.8573 -1.2263  0.1632
  790MPD2     H11648   3.036   2.539  13.446 -1.0543 -0.9464 -0.4289
  790MPD2    H111649   2.859   2.870  13.255  0.2911  1.3153 -0.1975
  790MPD2    H211650   3.028   2.920  13.644  0.0103  2.1093 -1.3870
  790MPD2    H311651   2.919   3.007  13.457 -0.7201 -1.1644 -0.0690
  790MPD2     N11652   2.922   2.604  13.240 -0.3473  0.2882  0.1086
  790MPD2    H511653   2.960   2.510  13.236 -0.0139  0.4153  0.2174
  790MPD2    N111654   3.134   2.660  13.653 -0.5692  0.2721  0.9583
  790MPD2    H711655   3.152   2.560  13.646  2.3220  0.6665  2.7659
  791MPD2     C11656   2.172   2.499  13.015  0.2787 -0.3673 -0.0977
  791MPD2    C111657   2.251   2.384  13.019  0.3759 -0.0784  0.8543
  791MPD2    C211658   2.190   2.263  12.980 -0.2052 -0.1523  0.5582
  791MPD2    C311659   2.061   2.267  12.924 -0.4581  0.1337  0.2318
  791MPD2    C411660   1.991   2.386  12.907 -0.2436  0.1224  0.3480
  791MPD2    C511661   2.047   2.496  12.963 -0.6547  0.6635 -0.3511
  791MPD2     H11662   2.241   2.168  12.972 -0.1669  0.0418 -1.5208
  791MPD2    H111663   1.890   2.387  12.867  0.7796  2.1820 -2.2107
  791MPD2    H211664   2.214   2.596  13.041 -0.5376 -0.4402  1.4308
  791MPD2    H311665   1.984   2.584  12.957 -0.0544  1.4210  4.4163
  791MPD2     N11666   2.016   2.146  12.868 -0.6013 -0.1051  0.4277
  791MPD2    H511667   2.063   2.057  12.882 -2.1692 -1.1143 -0.6497
  791MPD2    N111668   2.389   2.393  13.057 -0.2133 -0.1054  0.1443
  791MPD2    H711669   2.420   2.486  13.083 -0.5917 -0.6187  2.4443
  792MPD2     C11670   3.266   2.157  11.412  0.7626 -0.1747 -0.4809
  792MPD2    C111671   3.232   2.213  11.291  0.2349 -0.4061 -0.2373
  792MPD2    C211672   3.127   2.158  11.226  0.1859 -0.2488 -0.3968
  792MPD2    C311673   3.065   2.044  11.273  0.3873  0.3857  0.8809
  792MPD2    C411674   3.109   1.982  11.393 -0.4838 -0.0080  0.1961
  792MPD2    C511675   3.211   2.039  11.459  0.3502  0.0669  0.0562
  792MPD2     H11676   3.090   2.209  11.139 -0.5306 -0.4600 -0.2102
  792MPD2    H111677   3.056   1.893  11.425 -1.3008  0.1611 -0.6827
  792MPD2    H211678   3.349   2.195  11.470  0.3760 -1.7392  1.0695
  792MPD2    H311679   3.264   2.000  11.545  1.1529 -1.0003 -0.9325
  792MPD2     N11680   2.961   1.979  11.200 -0.1217 -0.1572  0.2058
  792MPD2    H511681   2.930   1.883  11.214  0.0464 -0.1848  0.3798
  792MPD2    N111682   3.305   2.330  11.262 -0.0713 -0.2440 -0.4968
  792MPD2    H711683   3.389   2.336  11.318 -0.4740 -0.3744  0.1124
  793MPD2     C11684   2.702   2.385  10.357 -0.3473  0.1369 -0.0381
  793MPD2    C111685   2.821   2.370  10.424 -0.3746  0.7896 -0.3562
  793MPD2    C211686   2.826   2.275  10.520  0.0958 -0.2976 -0.5537
  793MPD2    C311687   2.716   2.192  10.564  0.1955  0.2804 -0.4082
  793MPD2    C411688   2.605   2.206  10.484  0.2432 -0.4548  1.4809
  793MPD2    C511689   2.599   2.302  10.390 -0.6600 -0.2502 -0.1772
  793MPD2     H11690   2.916   2.261  10.579 -1.2523  0.8699  1.7969
  793MPD2    H111691   2.511   2.162  10.515 -0.6573  1.0590  0.9106
  793MPD2    H211692   2.686   2.455  10.275 -0.4591 -0.5444 -0.6052
  793MPD2    H311693   2.500   2.311  10.346 -0.4506 -2.5131 -1.1101
  793MPD2     N11694   2.728   2.104  10.672 -0.5803  0.0831 -0.4994
  793MPD2    H511695   2.815   2.112  10.724 -1.3629  0.4038  0.7583
  793MPD2    N111696   2.938   2.435  10.398  0.4552  0.6391  0.4653
  793MPD2    H711697   3.019   2.403  10.449 -0.7413  1.8623  3.1094
  794MPD2     C11698   3.018   2.261  17.483 -0.0026  0.3454 -0.0279
  794MPD2    C111699   2.987   2.127  17.451 -0.4620 -0.6600  0.0945
  794MPD2    C211700   2.913   2.099  17.345  0.1730 -0.4312 -0.5590
  794MPD2    C311701   2.864   2.198  17.261  0.6950 -0.7008  0.4528
  794MPD2    C411702   2.886   2.326  17.295 -0.4379 -0.1536 -0.8503
  794MPD2    C511703   2.964   2.355  17.402  0.8813  0.3068 -0.4302
  794MPD2     H11704   2.897   1.994  17.324 -1.8110 -0.0903 -0.7952
  794MPD2    H111705   2.842   2.407  17.238 -1.2121 -1.0474 -1.5171
  794MPD2    H211706   3.079   2.284  17.569 -0.3725 -0.4952  0.4596
  794MPD2    H311707   2.986   2.459  17.425  0.2156  0.6862 -1.5177
  794MPD2     N11708   2.775   2.186  17.149  0.4867 -0.1774 -0.0856
  794MPD2    H511709   2.730   2.267  17.107 -0.7686  1.3880  4.2964
  794MPD2    N111710   3.026   2.015  17.529  0.0266  0.6726  0.6773
  794MPD2    H711711   2.984   1.925  17.510  1.0152  0.1500  0.9341
  795MPD2     C11712   0.553   4.022  13.620  0.2311  0.3223 -0.4099
  795MPD2    C111713   0.510   3.903  13.568  0.3539 -0.3012  0.3139
  795MPD2    C211714   0.583   3.790  13.603  0.7583  0.4134 -0.8144
  795MPD2    C311715   0.691   3.803  13.694 -0.3872 -0.0019  0.0441
  795MPD2    C411716   0.712   3.918  13.765  0.4169 -0.5945 -0.2105
  795MPD2    C511717   0.644   4.031  13.717  0.1412  0.0733  0.5054
  795MPD2     H11718   0.551   3.695  13.562 -1.3600  1.0851 -0.7016
  795MPD2    H111719   0.782   3.932  13.846 -2.3322  2.4264  1.6510
  795MPD2    H211720   0.518   4.116  13.581  1.1911  1.0995  0.5816
  795MPD2    H311721   0.670   4.132  13.746 -0.9671  0.3477  0.5320
  795MPD2     N11722   0.763   3.688  13.712  0.0965  0.0515 -0.0480
  795MPD2    H511723   0.739   3.615  13.646 -2.1186  1.8920 -1.2844
  795MPD2    N111724   0.407   3.885  13.472 -0.0541  0.7037 -0.1105
  795MPD2    H711725   0.389   3.794  13.430  3.0143 -0.2213  0.5321
  796MPD2     C11726   4.505   0.978  15.677  0.4260  0.1895  0.3570
  796MPD2    C111727   4.579   1.029  15.782  0.2797  0.8012 -0.0421
  796MPD2    C211728   4.589   1.166  15.792 -0.0593 -0.4366  0.1757
  796MPD2    C311729   4.521   1.252  15.708  0.8634 -0.1253 -0.1397
  796MPD2    C411730   4.449   1.194  15.605  0.9438 -0.4731  0.3207
  796MPD2    C511731   4.442   1.064  15.592 -0.1521 -0.0379 -0.2652
  796MPD2     H11732   4.654   1.208  15.867  0.6546 -0.9946 -0.1277
  796MPD2    H111733   4.403   1.246  15.522 -1.4841  0.9495  2.5462
  796MPD2    H211734   4.500   0.873  15.651 -1.6406  0.6100 -0.9175
  796MPD2    H311735   4.389   1.022  15.507 -0.5379 -0.6404  0.2669
  796MPD2     N11736   4.542   1.388  15.730 -0.1760 -0.0837 -0.4932
  796MPD2    H511737   4.593   1.418  15.812 -2.8540 -0.2726  1.2478
  796MPD2    N111738   4.642   0.934  15.864 -0.2632  0.0150 -0.1589
  796MPD2    H711739   4.614   0.838  15.846  1.9037 -0.7494  0.5997
  797MPD2     C11740   0.878   0.644  17.202 -0.5493  0.2654 -0.0469
  797MPD2    C111741   0.991   0.723  17.176 -0.1618  0.0046  0.1733
  797MPD2    C211742   0.974   0.836  17.106 -0.3391  0.9609 -0.6529
  797MPD2    C311743   0.848   0.871  17.049 -0.4629  0.1416  0.5273
  797MPD2    C411744   0.744   0.789  17.080  1.0003 -0.2966  0.2579
  797MPD2    C511745   0.749   0.679  17.159  0.2551 -0.2319 -0.5798
  797MPD2     H11746   1.058   0.901  17.084  0.7774 -0.1830  0.2727
  797MPD2    H111747   0.649   0.826  17.042  0.3705  1.5130  3.5782
  797MPD2    H211748   0.881   0.549  17.255  0.3950  0.0845 -0.4292
  797MPD2    H311749   0.664   0.615  17.174  0.1670 -0.7066 -3.0772
  797MPD2     N11750   0.854   0.985  16.962  0.1521  0.1110  0.0855
  797MPD2    H511751   0.946   1.028  16.966 -0.4836  1.3916  1.0214
  797MPD2    N111752   1.130   0.688  17.208  0.5687 -0.5218  0.2921
  797MPD2    H711753   1.200   0.753  17.172  1.2523 -1.4084  0.0322
  798MPD2     C11754   1.467   1.171  16.744  0.0218  0.7457 -0.3262
  798MPD2    C111755   1.343   1.132  16.798  0.4386  0.8335 -0.2814
  798MPD2    C211756   1.351   1.022  16.879 -0.3959  0.1708 -0.0572
  798MPD2    C311757   1.475   0.963  16.918  0.6420 -0.5342 -0.4468
  798MPD2    C411758   1.589   1.001  16.863 -0.1489  0.9278  0.1080
  798MPD2    C511759   1.579   1.105  16.780  0.4219  0.0023  0.9495
  798MPD2     H11760   1.258   0.982  16.919 -0.4111  0.4171  0.1544
  798MPD2    H111761   1.686   0.960  16.886  0.4393  1.9221 -0.5782
  798MPD2    H211762   1.476   1.242  16.663 -2.1262  0.7685 -0.5416
  798MPD2    H311763   1.671   1.125  16.726 -0.7387  0.0550 -0.9759
  798MPD2     N11764   1.467   0.848  17.003 -0.2949  0.8551  0.0484
  798MPD2    H511765   1.374   0.833  17.039 -0.2775 -0.3855 -0.4232
  798MPD2    N111766   1.221   1.185  16.761 -0.4924  0.0463 -0.0568
  798MPD2    H711767   1.218   1.230  16.671 -1.4631  0.4656  0.1777
  799MPD2     C11768   0.236   2.290  14.681  0.3282 -0.4708  1.0335
  799MPD2    C111769   0.153   2.202  14.614  0.3645  0.0482  0.6509
  799MPD2    C211770   0.037   2.251  14.558  0.0205 -0.3023  0.3885
  799MPD2    C311771   0.002   2.387  14.568 -0.3520  0.1920  0.5583
  799MPD2    C411772   0.080   2.470  14.648 -0.1409  0.1377  0.3207
  799MPD2    C511773   0.192   2.416  14.709 -0.2968  0.7966 -0.3474
  799MPD2     H11774   4.695   2.182  14.506  0.4829  1.1455 -2.1172
  799MPD2    H111775   0.050   2.571  14.672  2.2810  0.6138  1.2824
  799MPD2    H211776   0.316   2.253  14.744  0.7013  0.6831  1.2351
  799MPD2    H311777   0.252   2.482  14.771  0.0832  0.8772 -0.7964
  799MPD2     N11778   4.631   2.444  14.480  0.1432  0.5134  0.4807
  799MPD2    H511779   4.632   2.545  14.471 -0.9172  0.5310  0.5346
  799MPD2    N111780   0.182   2.071  14.579  0.2280 -0.2698  0.5884
  799MPD2    H711781   0.120   2.015  14.522  1.7619 -0.2796 -1.0583
  800MPD2     C11782   0.246   3.141  14.045  0.1878  0.5571  0.3164
  800MPD2    C111783   0.376   3.105  14.007  0.1418 -0.0610  0.2717
  800MPD2    C211784   0.386   3.004  13.913 -0.2824  0.0964  0.5955
  800MPD2    C311785   0.277   2.926  13.875  0.0456 -0.6693  0.3654
  800MPD2    C411786   0.151   2.966  13.909 -0.4241  0.3412 -0.3521
  800MPD2    C511787   0.137   3.083  13.992  0.5175  0.1318 -0.1944
  800MPD2     H11788   0.477   2.966  13.868 -2.7335 -3.7008 -1.2368
  800MPD2    H111789   0.067   2.900  13.890 -1.0617  1.0443  0.0421
  800MPD2    H211790   0.218   3.214  14.120 -0.0090 -0.6215  1.4018
  800MPD2    H311791   0.040   3.109  14.033 -0.0200  0.9258 -1.9255
  800MPD2     N11792   0.305   2.820  13.787  0.1112 -0.9918 -0.5136
  800MPD2    H511793   0.402   2.807  13.761  0.5112 -0.2798  0.6509
  800MPD2    N111794   0.489   3.161  14.073  1.1409 -0.8010 -0.1056
  800MPD2    H711795   0.477   3.243  14.132  1.5781 -0.4012 -0.5752
  801MPD2     C11796   0.705   3.828  14.200  0.0562 -0.3533 -0.5649
  801MPD2    C111797   0.618   3.722  14.193 -0.3154  0.3519 -0.2793
  801MPD2    C211798   0.482   3.747  14.202 -0.4248 -0.4365  0.0213
  801MPD2    C311799   0.428   3.880  14.212  0.1717 -0.2266 -0.2839
  801MPD2    C411800   0.525   3.981  14.214  0.3139  0.5712  0.3283
  801MPD2    C511801   0.660   3.955  14.213 -0.3997  0.4621 -0.2938
  801MPD2     H11802   0.412   3.664  14.198  0.0977 -0.8210 -1.0435
  801MPD2    H111803   0.490   4.084  14.221 -0.8572  0.1587  0.5827
  801MPD2    H211804   0.810   3.812  14.177 -0.1490  0.9043 -2.3022
  801MPD2    H311805   0.727   4.040  14.209  0.0003  0.0387 -2.6421
  801MPD2     N11806   0.291   3.919  14.199  0.3371  0.5916 -0.7761
  801MPD2    H511807   0.270   4.017  14.216 -0.2736 -0.0481  2.1184
  801MPD2    N111808   0.665   3.592  14.170  0.4656  0.0786 -0.7003
  801MPD2    H711809   0.594   3.524  14.193  0.2933 -0.0947 -1.7297
  802MPD2     C11810   3.922   4.402  17.246  0.1769  0.6937  0.7522
  802MPD2    C111811   4.039   4.472  17.271  0.4905  0.2646 -0.4602
  802MPD2    C211812   4.156   4.405  17.267  0.0372 -0.2783  0.3755
  802MPD2    C311813   4.172   4.268  17.245  0.3883  0.1441  0.4962
  802MPD2    C411814   4.055   4.201  17.229  0.1802  0.0108 -0.5827
  802MPD2    C511815   3.934   4.270  17.232 -0.2983 -0.0887 -0.1217
  802MPD2     H11816   4.247   4.460  17.288 -0.2779  1.0709 -1.8202
  802MPD2    H111817   4.048   4.093  17.217  0.5336 -0.1746  0.8949
  802MPD2    H211818   3.819   4.433  17.255 -0.2887  0.0712 -2.3049
  802MPD2    H311819   3.846   4.209  17.214 -0.8900  0.7860 -0.1969
  802MPD2     N11820   4.307   4.219  17.242 -0.3595  0.7916 -0.8055
  802MPD2    H511821   4.386   4.279  17.264  0.5572 -0.2365 -1.2505
  802MPD2    N111822   4.034   4.608  17.305  0.4078  0.7666  0.4856
  802MPD2    H711823   4.116   4.654  17.343 -1.1958  1.8878  2.5924
  803MPD2     C11824   1.322   2.175  11.212 -0.1685 -0.2968 -0.1337
  803MPD2    C111825   1.348   2.220  11.337  0.0015 -0.0778 -0.0332
  803MPD2    C211826   1.342   2.139  11.445  0.1995  0.7493 -0.5064
  803MPD2    C311827   1.294   2.013  11.432  0.7445  0.2002 -0.5776
  803MPD2    C411828   1.249   1.972  11.303  0.3264  0.1948  0.2762
  803MPD2    C511829   1.267   2.049  11.194 -0.3629 -0.3841 -0.0995
  803MPD2     H11830   1.355   2.174  11.547  1.5011 -0.5569 -0.2202
  803MPD2    H111831   1.197   1.879  11.283  0.9115  0.8101 -4.1077
  803MPD2    H211832   1.313   2.239  11.125 -3.8546 -1.0412 -0.2941
  803MPD2    H311833   1.234   2.005  11.101  1.4964 -0.6441 -0.6336
  803MPD2     N11834   1.254   1.941  11.550  0.7273 -0.8054  0.2417
  803MPD2    H511835   1.295   1.973  11.637 -2.3287  0.7097  1.1363
  803MPD2    N111836   1.396   2.352  11.367  0.0003  0.0248  0.5770
  803MPD2    H711837   1.423   2.378  11.461 -1.3168  3.4709  0.0177
  804MPD2     C11838   0.339   3.946  16.562 -0.2278  0.4698 -0.3733
  804MPD2    C111839   0.350   3.945  16.696 -0.2923 -0.3277 -0.0144
  804MPD2    C211840   0.427   4.042  16.761  0.4851  0.3201  0.4496
  804MPD2    C311841   0.481   4.149  16.687 -0.6913 -0.0660  0.1286
  804MPD2    C411842   0.466   4.149  16.549  0.5198 -0.4283  0.0234
  804MPD2    C511843   0.392   4.045  16.484  0.4284  0.4838  0.2381
  804MPD2     H11844   0.436   4.037  16.869  1.3293 -1.2216  0.3079
  804MPD2    H111845   0.514   4.223  16.486 -0.4054 -0.3501 -0.5849
  804MPD2    H211846   0.274   3.876  16.510  0.2857 -0.7818  0.6580
  804MPD2    H311847   0.368   4.038  16.379 -0.1145  1.6107  0.2837
  804MPD2     N11848   0.550   4.246  16.756  0.0344 -0.7990  0.4061
  804MPD2    H511849   0.559   4.236  16.857  1.3230  0.4858  0.4256
  804MPD2    N111850   0.297   3.851  16.785  0.4387 -0.2821  0.1958
  804MPD2    H711851   0.331   3.860  16.880  0.8201 -3.1321  0.3287
  805MPD2     C11852   4.534   2.044  15.418  0.3993 -0.3365  0.5340
  805MPD2    C111853   4.529   2.186  15.446 -0.2403 -0.4629 -0.4430
  805MPD2    C211854   4.601   2.229  15.556  0.7160  0.5740 -0.3907
  805MPD2    C311855   4.672   2.141  15.643 -0.8906  0.2562 -0.2253
  805MPD2    C411856   4.668   2.009  15.616 -0.1780  0.3639 -0.6182
  805MPD2    C511857   4.613   1.963  15.497  0.1120 -0.2456  0.0421
  805MPD2     H11858   4.599   2.334  15.583  1.4479  0.3518  0.4983
  805MPD2    H111859   4.716   1.937  15.681 -1.9774  0.2084  0.5477
  805MPD2    H211860   4.490   1.997  15.331 -1.1372  0.6300  0.7897
  805MPD2    H311861   4.603   1.857  15.476  2.8019 -0.0708 -2.0723
  805MPD2     N11862   0.008   2.207  15.751 -0.3509 -0.4599 -0.0249
  805MPD2    H511863   0.021   2.308  15.744 -2.0508 -0.3285 -1.2309
  805MPD2    N111864   4.465   2.284  15.367 -0.2578 -0.1494 -0.0089
  805MPD2    H711865   4.485   2.381  15.385 -1.5773  0.1227  0.0106
  806MPD2     C11866   1.189   2.265   0.752  0.5634 -0.4350 -0.1105
  806MPD2    C111867   1.068   2.240   0.698  0.5202 -0.0425  0.2667
  806MPD2    C211868   1.048   2.253   0.560 -0.0477  0.6214 -0.0436
  806MPD2    C311869   1.159   2.283   0.484 -0.0084 -0.2263 -0.8683
  806MPD2    C411870   1.283   2.317   0.544 -0.3128 -0.3483  0.0875
  806MPD2    C511871   1.297   2.305   0.681  0.0454 -0.0550  0.3715
  806MPD2     H11872   0.947   2.244   0.521 -0.5767  0.4123  1.3751
  806MPD2    H111873   1.371   2.345   0.486 -1.3951  1.3873 -0.7169
  806MPD2    H211874   1.201   2.247   0.858 -1.3044  0.4988  0.2503
  806MPD2    H311875   1.390   2.319   0.736 -0.8376  0.3255  1.7588
  806MPD2     N11876   1.143   2.296   0.350  0.0865 -0.9088  0.2395
  806MPD2    H511877   1.053   2.265   0.316  0.2662  0.5268 -1.5745
  806MPD2    N111878   0.953   2.209   0.774 -0.5915 -0.5410  0.5947
  806MPD2    H711879   0.867   2.184   0.727 -0.5764 -1.1389  0.8804
  807MPD2     C11880   0.242   2.156   1.189 -0.4363  0.1178  0.0711
  807MPD2    C111881   0.329   2.078   1.259  0.0841 -0.7584  0.5407
  807MPD2    C211882   0.263   1.996   1.358 -0.0000 -1.0815 -0.6210
  807MPD2    C311883   0.123   1.992   1.371 -0.5031 -0.2817  0.5908
  807MPD2    C411884   0.047   2.070   1.290  0.6501  0.8613  0.1098
  807MPD2    C511885   0.105   2.156   1.207 -0.0430  0.1545  0.8127
  807MPD2     H11886   0.328   1.948   1.430 -1.9168  2.0316  3.1502
  807MPD2    H111887   4.662   2.062   1.285  0.8400 -0.8677 -1.3928
  807MPD2    H211888   0.283   2.221   1.113 -2.3035  1.3006  0.0800
  807MPD2    H311889   0.047   2.211   1.134  1.3357 -2.8452 -2.5500
  807MPD2     N11890   0.064   1.900   1.463  0.2192  0.2110  0.3553
  807MPD2    H511891   0.119   1.833   1.516 -0.5646 -1.1871 -0.5964
  807MPD2    N111892   0.469   2.082   1.251 -0.2476  0.6084  0.0813
  807MPD2    H711893   0.521   2.017   1.310 -0.8347  0.0722  0.0137
  808MPD2     C11894   1.807   2.977   8.983  0.0141 -0.2070 -0.0822
  808MPD2    C111895   1.702   3.052   8.943 -0.1749 -0.8845  0.1060
  808MPD2    C211896   1.726   3.144   8.846 -0.2691  0.4908  0.6217
  808MPD2    C311897   1.851   3.166   8.794  0.3998  0.7872  0.0437
  808MPD2    C411898   1.958   3.090   8.837  0.0029  0.7108  0.1002
  808MPD2    C511899   1.937   2.992   8.936  0.0591  0.7093 -0.0414
  808MPD2     H11900   1.640   3.198   8.809  0.3978  1.9419  1.1910
  808MPD2    H111901   2.057   3.096   8.793 -0.0665 -0.3249 -0.1859
  808MPD2    H211902   1.799   2.906   9.065 -0.0076 -1.4609 -1.1721
  808MPD2    H311903   2.017   2.919   8.945 -1.5053 -0.9596  0.4873
  808MPD2     N11904   1.875   3.276   8.704  0.1522  0.4142  0.2156
  808MPD2    H511905   1.973   3.298   8.687  0.0027 -0.6940 -2.0178
  808MPD2    N111906   1.571   3.048   8.988 -0.0990  0.0025  0.0330
  808MPD2    H711907   1.507   3.122   8.957 -1.9665 -1.5653  0.1740
  809MPD2     C11908   2.601   3.865   8.386  0.0244 -0.1557  0.0306
  809MPD2    C111909   2.567   3.820   8.510 -0.8932  0.8363 -0.7053
  809MPD2    C211910   2.444   3.756   8.518  0.1852 -0.1733 -0.1741
  809MPD2    C311911   2.358   3.750   8.411  0.0076  0.1735  0.7939
  809MPD2    C411912   2.400   3.804   8.290  0.2336 -0.1260  0.2756
  809MPD2    C511913   2.525   3.856   8.275 -0.1584  0.1259  0.1841
  809MPD2     H11914   2.422   3.723   8.619 -2.8447 -0.2650 -0.8681
  809MPD2    H111915   2.340   3.807   8.200  1.1306 -1.2146 -0.3479
  809MPD2    H211916   2.701   3.907   8.377  0.0250 -0.6070 -2.1635
  809MPD2    H311917   2.564   3.894   8.181 -1.9514 -0.3834 -0.7609
  809MPD2     N11918   2.222   3.702   8.418 -1.3752  0.3349  0.1523
  809MPD2    H511919   2.165   3.710   8.335  1.3764  1.9950 -1.6065
  809MPD2    N111920   2.647   3.832   8.626  0.0901 -0.2430 -0.0073
  809MPD2    H711921   2.617   3.776   8.705  2.2899 -1.0302  0.2810
  810MPD2     C11922   0.779   1.634  10.011 -0.1484 -0.2950 -0.6434
  810MPD2    C111923   0.692   1.743  10.014 -0.9808 -1.0903  0.5500
  810MPD2    C211924   0.739   1.873  10.000  0.0852  0.1367 -0.5082
  810MPD2    C311925   0.873   1.895   9.985  0.4559 -0.5086 -0.5213
  810MPD2    C411926   0.952   1.787   9.966  0.0263 -0.1133  0.8180
  810MPD2    C511927   0.907   1.657   9.976 -0.6268  0.2890 -0.2109
  810MPD2     H11928   0.673   1.957   9.986 -0.2557 -0.0453 -0.0109
  810MPD2    H111929   1.058   1.803   9.952  0.0305 -1.1916 -0.2943
  810MPD2    H211930   0.744   1.533  10.028 -2.3025  0.3842 -1.0567
  810MPD2    H311931   0.979   1.576   9.972  0.5071  1.2210  1.3258
  810MPD2     N11932   0.927   2.031   9.988 -0.0799 -0.7796 -0.2369
  810MPD2    H511933   1.028   2.039   9.979  0.1585 -1.2961  2.0976
  810MPD2    N111934   0.556   1.716  10.031 -0.3528 -0.4765  0.1140
  810MPD2    H711935   0.523   1.620  10.027 -0.9045 -0.2008 -2.0602
  811MPD2     C11936   4.358   1.816  10.010 -0.1815  0.9496  0.5560
  811MPD2    C111937   4.477   1.875   9.968  0.0500  0.2306 -0.1019
  811MPD2    C211938   4.472   2.011   9.942  0.3036 -0.7467  0.0143
  811MPD2    C311939   4.361   2.091   9.946 -0.4114 -0.5702 -0.2730
  811MPD2    C411940   4.248   2.031   9.996 -0.8940 -0.3448 -0.5578
  811MPD2    C511941   4.252   1.899  10.025 -0.9148 -0.1088 -0.1055
  811MPD2     H11942   4.556   2.067   9.904  1.0428 -0.2608  2.3566
  811MPD2    H111943   4.164   2.093  10.025 -1.3135 -1.1863  0.0158
  811MPD2    H211944   4.359   1.711  10.035  1.8639  0.1214 -3.0309
  811MPD2    H311945   4.157   1.855  10.054 -0.0793 -0.6608  1.7622
  811MPD2     N11946   4.371   2.229   9.905 -0.1578 -0.1589  0.0136
  811MPD2    H511947   4.464   2.269   9.891 -0.1262 -0.5704 -0.9475
  811MPD2    N111948   4.597   1.798   9.965 -0.1651 -0.4407 -0.4902
  811MPD2    H711949   4.586   1.704  10.002 -0.2558  0.2722  1.2821
  812MPD2     C11950   3.834   2.117  12.219 -0.3577 -0.3235  0.5920
  812MPD2    C111951   3.741   2.167  12.309  0.4880 -0.5644 -1.0012
  812MPD2    C211952   3.708   2.086  12.412 -0.6626 -0.3886  0.2658
  812MPD2    C311953   3.771   1.961  12.426  0.3673  0.3476 -0.2287
  812MPD2    C411954   3.873   1.918  12.343  0.5939 -0.3722  0.0290
  812MPD2    C511955   3.898   2.002  12.232 -0.7203  0.1456  0.0698
  812MPD2     H11956   3.635   2.119  12.485  0.2143  0.9932  0.5110
  812MPD2    H111957   3.938   1.833  12.354  1.0686  0.3139  2.4852
  812MPD2    H211958   3.867   2.177  12.135 -3.8345  0.0688 -0.5141
  812MPD2    H311959   3.972   1.977  12.157  0.9416  0.0617  1.7266
  812MPD2     N11960   3.731   1.881  12.530 -0.4981 -0.2383 -0.7599
  812MPD2    H511961   3.683   1.928  12.606  2.0308 -0.6200  1.0905
  812MPD2    N111962   3.705   2.305  12.301 -0.1039 -0.1691  0.3190
  812MPD2    H711963   3.748   2.359  12.228 -0.9187  1.0905  0.7716
  813MPD2     C11964   3.142   4.145  12.390  0.5880 -0.0319  0.8698
  813MPD2    C111965   3.210   4.235  12.477 -0.1007 -0.2525 -0.0549
  813MPD2    C211966   3.158   4.242  12.606  0.4902 -0.5491 -0.8895
  813MPD2    C311967   3.058   4.155  12.652 -0.4800  0.0182  0.0051
  813MPD2    C411968   3.010   4.063  12.563 -1.1120 -0.0670  0.3020
  813MPD2    C511969   3.043   4.061  12.432 -0.8297 -0.1467 -0.2341
  813MPD2     H11970   3.202   4.310  12.677 -0.1249 -1.0726 -0.0004
  813MPD2    H111971   2.949   3.979  12.595  0.7486 -2.3617 -2.2658
  813MPD2    H211972   3.185   4.133  12.292 -0.1303 -2.3169  0.8413
  813MPD2    H311973   3.006   3.982  12.367 -2.9743  2.1194 -1.7955
  813MPD2     N11974   3.027   4.169  12.786  0.1037  0.5941 -0.1048
  813MPD2    H511975   3.060   4.251  12.836  1.8546  0.0206 -0.3215
  813MPD2    N111976   3.329   4.305  12.444  0.4080 -0.1928  0.5244
  813MPD2    H711977   3.369   4.370  12.511 -0.4637  0.5401  0.3474
  814MPD2     C11978   3.277   0.872  11.952 -0.2445  0.0613  0.4808
  814MPD2    C111979   3.312   0.939  11.835 -0.0825  0.0233  0.1919
  814MPD2    C211980   3.371   1.060  11.844  0.4092  0.6085 -0.3300
  814MPD2    C311981   3.397   1.105  11.971 -0.0784  0.1918 -0.6284
  814MPD2    C411982   3.359   1.040  12.082 -0.0803  0.6023  0.7114
  814MPD2    C511983   3.309   0.922  12.077  0.0650 -0.1209 -0.2106
  814MPD2     H11984   3.409   1.103  11.751  0.9058 -0.2913 -0.5419
  814MPD2    H111985   3.388   1.071  12.182 -0.9709 -0.2636  1.2410
  814MPD2    H211986   3.232   0.773  11.956  1.3588 -0.6667  0.7369
  814MPD2    H311987   3.295   0.866  12.169 -1.9499 -0.6497 -0.8223
  814MPD2     N11988   3.486   1.210  11.998 -0.3005  0.1964 -0.1501
  814MPD2    H511989   3.516   1.220  12.095  2.1171 -0.4143 -0.8409
  814MPD2    N111990   3.286   0.887  11.701  0.1114 -0.0456 -0.0572
  814MPD2    H711991   3.315   0.951  11.628  1.7729 -0.9601 -0.1973
  815MPD2     C11992   4.288   4.010  11.837  0.1920 -0.6931 -0.0510
  815MPD2    C111993   4.216   3.894  11.831 -0.4801  0.7312 -0.4496
  815MPD2    C211994   4.078   3.907  11.835 -0.6601  0.3612 -1.3050
  815MPD2    C311995   4.015   4.030  11.840  0.3465 -0.4776 -0.3704
  815MPD2    C411996   4.088   4.146  11.850  0.2613  0.9936  0.2389
  815MPD2    C511997   4.224   4.131  11.841 -0.1535  0.0530 -0.1766
  815MPD2     H11998   4.015   3.820  11.828 -1.0502  0.4597  1.1714
  815MPD2    H111999   4.050   4.247  11.860  0.2099  0.9216  0.7591
  815MPD2    H212000   4.396   4.005  11.824  0.2056 -0.3638 -0.0557
  815MPD2    H312001   4.283   4.222  11.843 -0.5593  0.2827  1.8091
  815MPD2     N12002   3.879   4.033  11.841  0.2875 -0.3962  0.6018
  815MPD2    H512003   3.829   3.948  11.815  1.3841 -0.2410 -2.0113
  815MPD2    N112004   4.283   3.775  11.794  0.6194 -0.5282  0.1006
  815MPD2    H712005   4.380   3.790  11.768  0.0892  1.2442 -0.7979
  816MPD2     C12006   3.242   3.499  17.399 -0.2184 -0.6418  0.7862
  816MPD2    C112007   3.321   3.605  17.383  0.4938 -0.0450  0.3684
  816MPD2    C212008   3.443   3.577  17.333  0.1954  0.3861 -0.5766
  816MPD2    C312009   3.487   3.455  17.300 -0.6234 -0.0800 -0.3561
  816MPD2    C412010   3.403   3.349  17.323  0.3709 -0.1837 -1.2241
  816MPD2    C512011   3.281   3.366  17.375 -0.4766 -0.4233  0.3261
  816MPD2     H12012   3.519   3.654  17.327 -1.1269  1.4707 -3.2547
  816MPD2    H112013   3.424   3.243  17.314  0.0131 -0.2942 -0.7665
  816MPD2    H212014   3.146   3.524  17.445 -1.2785 -1.0580 -1.2179
  816MPD2    H312015   3.218   3.279  17.394  1.7650 -1.8023  1.3502
  816MPD2     N12016   3.617   3.426  17.248  0.2809  0.3955 -0.0584
  816MPD2    H512017   3.682   3.500  17.223 -2.5799  2.3952 -1.5369
  816MPD2    N112018   3.274   3.735  17.411  0.2423  0.5463 -0.0358
  816MPD2    H712019   3.175   3.753  17.426  0.4635 -0.8726  3.2130
  817MPD2     C12020   3.203   4.704   9.703  0.2232  0.0309  0.3382
  817MPD2    C112021   3.285   0.002   9.600 -0.1899 -0.2701 -0.5111
  817MPD2    C212022   3.263   0.113   9.520 -0.2779 -0.0412 -0.0849
  817MPD2    C312023   3.165   0.207   9.548 -0.3836 -0.0657  0.0778
  817MPD2    C412024   3.085   0.190   9.655  0.0699 -0.6386 -1.0576
  817MPD2    C512025   3.099   0.066   9.727 -0.1190  0.4837  0.0983
  817MPD2     H12026   3.330   0.131   9.436 -1.0375  2.6333 -0.1069
  817MPD2    H112027   3.016   0.264   9.696 -0.0164 -0.7835 -0.9409
  817MPD2    H212028   3.225   4.622   9.770 -1.9798 -0.8160  0.0319
  817MPD2    H312029   3.040   0.047   9.815 -0.9995  1.7534 -0.2251
  817MPD2     N12030   3.176   0.334   9.487  0.5770  0.3089 -0.2201
  817MPD2    H512031   3.253   0.345   9.423 -1.0195  3.6096 -1.5836
  817MPD2    N112032   3.393   4.636   9.548  0.5865 -0.9593  0.5701
  817MPD2    H712033   3.451   4.668   9.471 -0.0573 -0.2530  0.3745
  818MPD2     C12034   2.102   0.349  10.065  0.2653 -0.2925 -0.7334
  818MPD2    C112035   2.084   0.223  10.115  0.2947 -0.1784  0.4114
  818MPD2    C212036   2.132   0.114  10.042 -0.5334 -0.0149 -0.2567
  818MPD2    C312037   2.203   0.134   9.924  0.5611 -0.6098 -0.1274
  818MPD2    C412038   2.233   0.261   9.884 -1.1183 -0.0957 -0.6018
  818MPD2    C512039   2.176   0.365   9.956 -0.4237 -0.1367 -0.1281
  818MPD2     H12040   2.118   0.016  10.085 -2.4823 -0.2170 -1.3362
  818MPD2    H112041   2.293   0.281   9.796 -1.8634  1.4730 -0.7586
  818MPD2    H212042   2.056   0.436  10.110  1.6753  0.1193 -0.1110
  818MPD2    H312043   2.193   0.465   9.917  0.5978 -1.1722 -2.3203
  818MPD2     N12044   2.247   0.019   9.853  0.4103  0.0385  0.3071
  818MPD2    H512045   2.201   4.656   9.882  2.8172 -1.2687  0.1693
  818MPD2    N112046   2.025   0.203  10.242  0.5197  0.0022  0.1836
  818MPD2    H712047   2.014   0.108  10.278 -1.6851 -0.3027 -1.3022
  819MPD2     C12048   0.268   2.166  15.554 -0.9653 -0.2709 -0.0144
  819MPD2    C112049   0.276   2.024  15.554  0.6656  0.4356  0.0780
  819MPD2    C212050   0.348   1.963  15.660 -0.8948 -0.9288 -0.0639
  819MPD2    C312051   0.420   2.043  15.744 -0.4902  0.1001 -0.0586
  819MPD2    C412052   0.418   2.177  15.734 -0.6921  0.2659 -0.3988
  819MPD2    C512053   0.333   2.241  15.648  0.0293 -0.5681  0.0695
  819MPD2     H12054   0.359   1.855  15.655 -1.7543 -1.1020  1.7411
  819MPD2    H112055   0.461   2.249  15.803  1.2486 -1.0793 -0.1907
  819MPD2    H212056   0.203   2.219  15.485  0.2766  0.3078 -0.7381
  819MPD2    H312057   0.324   2.349  15.644 -1.1843 -0.7324 -1.9685
  819MPD2     N12058   0.499   1.982  15.840  0.3080 -0.8533 -0.3435
  819MPD2    H512059   0.497   1.881  15.832  2.1963 -0.9326  0.2723
  819MPD2    N112060   0.220   1.953  15.444 -0.7424 -0.6028 -0.1202
  819MPD2    H712061   0.176   2.005  15.369  1.2488  1.8389  0.4241
  820MPD2     C12062   4.420   2.164  14.652 -0.8239 -0.6566  0.1664
  820MPD2    C112063   4.472   2.217  14.771 -0.1018 -0.2360  0.4802
  820MPD2    C212064   4.543   2.142  14.859 -0.4300  0.1116  0.3464
  820MPD2    C312065   4.567   2.011  14.831  0.1315 -0.5743  0.4065
  820MPD2    C412066   4.515   1.954  14.715  0.3308  0.4109 -0.1995
  820MPD2    C512067   4.446   2.034  14.627  0.4478 -0.3284 -0.4609
  820MPD2     H12068   4.577   2.180  14.954 -0.7964  1.4446 -0.0610
  820MPD2    H112069   4.535   1.850  14.693  1.1955  0.6788 -0.7026
  820MPD2    H212070   4.346   2.225  14.601 -0.1254  0.0825  0.0357
  820MPD2    H312071   4.387   1.992  14.546 -1.8019 -0.0521  1.0371
  820MPD2     N12072   4.638   1.928  14.922  0.3803 -0.6782  0.3543
  820MPD2    H512073   4.651   1.832  14.891 -0.1112 -0.4479 -0.5835
  820MPD2    N112074   4.426   2.343  14.809  0.1784  0.6687  0.4286
  820MPD2    H712075   4.355   2.389  14.753  0.3924 -0.3175 -0.6406
  821MPD2     C12076   0.485   3.036  13.200  0.3620  0.3928 -0.1925
  821MPD2    C112077   0.570   2.949  13.258 -0.3598  0.0017  0.4660
  821MPD2    C212078   0.702   2.986  13.267  0.1321  0.0215  0.4247
  821MPD2    C312079   0.743   3.112  13.223  0.3714  0.5493  0.0658
  821MPD2    C412080   0.650   3.200  13.166 -0.1897 -0.6456 -0.5172
  821MPD2    C512081   0.523   3.161  13.159  0.3836  0.7295 -0.0545
  821MPD2     H12082   0.766   2.919  13.322  0.8346  0.7810  0.5414
  821MPD2    H112083   0.672   3.295  13.119  1.4669 -0.8871 -0.2411
  821MPD2    H212084   0.377   3.023  13.194  0.4678 -0.8386  0.6207
  821MPD2    H312085   0.451   3.223  13.108 -1.2337  0.8165  2.3728
  821MPD2     N12086   0.882   3.148  13.222  0.1031 -0.0190  0.0523
  821MPD2    H512087   0.903   3.233  13.171 -0.5773 -0.6132 -1.2121
  821MPD2    N112088   0.529   2.827  13.313  0.3632  1.1197 -0.0921
  821MPD2    H712089   0.597   2.778  13.371 -0.8407 -0.8765 -0.3734
  822MPD2     C12090   1.329   3.151  15.544  0.6350  0.6462 -0.2980
  822MPD2    C112091   1.335   3.154  15.683  1.3335  0.7036 -0.1987
  822MPD2    C212092   1.253   3.245  15.744 -0.6207 -1.0231 -0.5072
  822MPD2    C312093   1.155   3.322  15.682 -0.2078  0.6162 -0.1138
  822MPD2    C412094   1.144   3.306  15.542  0.1193  0.0014 -1.1081
  822MPD2    C512095   1.235   3.225  15.476 -0.9684  0.0061 -0.1285
  822MPD2     H12096   1.255   3.241  15.852 -1.2324  1.0046 -0.4256
  822MPD2    H112097   1.059   3.349  15.490  0.3834 -1.4959 -2.8040
  822MPD2    H212098   1.401   3.084  15.499  1.1707  0.4605  0.8423
  822MPD2    H312099   1.228   3.218  15.369  0.9913 -2.9857 -0.0451
  822MPD2     N12100   1.074   3.410  15.761  0.0702  0.3653  0.4913
  822MPD2    H512101   1.088   3.409  15.861  1.7229  0.6770  0.2800
  822MPD2    N112102   1.422   3.074  15.762  0.1432 -0.0206 -0.2478
  822MPD2    H712103   1.407   3.080  15.862 -1.1029  5.3301 -0.7816
  823MPD2     C12104   0.551   3.663  16.404  0.2830  0.1360  0.9428
  823MPD2    C112105   0.646   3.581  16.338 -0.2608 -0.7250  0.5075
  823MPD2    C212106   0.708   3.475  16.406  0.0667  0.1015 -0.2511
  823MPD2    C312107   0.692   3.467  16.541 -0.7257 -0.2661  0.3159
  823MPD2    C412108   0.600   3.542  16.606 -0.6923  0.3071 -0.3185
  823MPD2    C512109   0.537   3.645  16.539 -0.2466  0.1262  0.5321
  823MPD2     H12110   0.786   3.427  16.348  1.4162 -0.0441  1.7166
  823MPD2    H112111   0.576   3.535  16.712  2.1109 -1.5482  0.1957
  823MPD2    H212112   0.501   3.748  16.358  1.4300  0.2185 -0.1591
  823MPD2    H312113   0.467   3.713  16.585 -0.5367  1.1606 -1.4086
  823MPD2     N12114   0.774   3.385  16.623  0.0137  0.0948  0.5712
  823MPD2    H512115   0.756   3.388  16.722  1.9939  1.3557  0.8933
  823MPD2    N112116   0.658   3.594  16.199 -1.0182  0.7119 -0.4868
  823MPD2    H712117   0.626   3.687  16.173 -3.9852 -0.1376  0.1656
  824MPD2     C12118   1.738   2.288  16.052  0.0547 -0.0874  0.6852
  824MPD2    C112119   1.765   2.367  15.937  0.4634 -0.2044  0.1489
  824MPD2    C212120   1.806   2.296  15.822  0.6448 -0.2154 -0.3803
  824MPD2    C312121   1.836   2.158  15.827 -0.3536  0.0211 -0.3589
  824MPD2    C412122   1.811   2.089  15.940 -0.3178  0.5024 -0.3132
  824MPD2    C512123   1.759   2.153  16.051  0.3057 -0.1687  0.1032
  824MPD2     H12124   1.837   2.350  15.733  1.0268  2.1696  1.2075
  824MPD2    H112125   1.831   1.983  15.951 -0.1293  0.5066 -0.6119
  824MPD2    H212126   1.710   2.343  16.141 -0.1953  0.1246  0.4746
  824MPD2    H312127   1.755   2.102  16.147 -3.2253 -0.7797 -0.3939
  824MPD2     N12128   1.889   2.098  15.707  0.0721 -0.3358  0.1466
  824MPD2    H512129   1.904   2.164  15.632  1.6819 -0.2427  0.5601
  824MPD2    N112130   1.736   2.509  15.944 -0.2797 -0.3542 -0.0884
  824MPD2    H712131   1.687   2.545  16.024 -3.1929 -1.3713 -1.4132
  825MPD2     C12132   2.493   2.179  15.131 -0.0207  0.0669 -0.2482
  825MPD2    C112133   2.393   2.211  15.225 -0.0776 -0.3546 -0.5739
  825MPD2    C212134   2.393   2.347  15.272  0.1710 -0.8067 -0.4336
  825MPD2    C312135   2.474   2.445  15.217 -0.2590 -0.2951 -0.2054
  825MPD2    C412136   2.570   2.400  15.126  0.7879 -0.0795 -0.3719
  825MPD2    C512137   2.582   2.270  15.093  0.9365 -0.3460  0.1515
  825MPD2     H12138   2.310   2.385  15.330  1.3245 -0.1175  0.7516
  825MPD2    H112139   2.643   2.470  15.086  0.7691 -1.2872 -2.4572
  825MPD2    H212140   2.501   2.079  15.092 -0.9575 -0.4505  0.8818
  825MPD2    H312141   2.660   2.247  15.022 -0.2275  1.2019 -1.6253
  825MPD2     N12142   2.469   2.582  15.252 -0.6682 -0.5656  0.3058
  825MPD2    H512143   2.520   2.649  15.196 -3.1077  0.5913 -0.5230
  825MPD2    N112144   2.299   2.113  15.257 -0.0686  0.0006  0.0649
  825MPD2    H712145   2.319   2.018  15.229  0.5501  0.2469 -0.3458
  826MPD2     C12146   2.090   2.018  13.696 -0.0824  0.0227  0.6234
  826MPD2    C112147   2.017   2.015  13.579 -0.1767  0.3009 -0.1051
  826MPD2    C212148   1.904   2.090  13.552  0.2808 -0.0244  0.4872
  826MPD2    C312149   1.862   2.182  13.650 -0.3706  0.4373  0.2197
  826MPD2    C412150   1.933   2.188  13.769 -0.3242  0.1754  0.0203
  826MPD2    C512151   2.047   2.108  13.792 -1.1465 -1.3098 -0.1545
  826MPD2     H12152   1.868   2.089  13.450  0.3663 -0.3380  0.4579
  826MPD2    H112153   1.900   2.244  13.856  0.3633  0.5774  0.0235
  826MPD2    H212154   2.175   1.955  13.717 -0.3572 -0.2898  0.7973
  826MPD2    H312155   2.090   2.128  13.890 -0.0020 -1.0153 -0.7223
  826MPD2     N12156   1.742   2.260  13.633 -0.5114  0.2471 -0.1794
  826MPD2    H512157   1.713   2.331  13.699  1.3812  1.9141 -1.1677
  826MPD2    N112158   2.099   1.954  13.486 -0.5068  0.0917 -0.0048
  826MPD2    H712159   2.182   1.915  13.531 -0.6337  3.0167  2.7882
  827MPD2     C12160   3.160   3.614   9.979 -0.0328  0.1961  0.6800
  827MPD2    C112161   3.119   3.486   9.989 -0.0436 -0.9095 -0.6234
  827MPD2    C212162   3.076   3.419   9.876  0.4777 -0.2283  0.3490
  827MPD2    C312163   3.091   3.483   9.754 -0.5258  0.0216  0.0764
  827MPD2    C412164   3.115   3.625   9.752  0.2099 -0.5140 -0.1981
  827MPD2    C512165   3.146   3.686   9.867 -0.0967  0.4001 -0.4589
  827MPD2     H12166   3.046   3.315   9.886  1.5823 -0.5702  0.0257
  827MPD2    H112167   3.118   3.683   9.661  2.6088 -1.1615 -0.5421
  827MPD2    H212168   3.203   3.662  10.066 -0.1382  0.7711  0.4186
  827MPD2    H312169   3.153   3.794   9.875 -1.3851  0.5097 -0.7133
  827MPD2     N12170   3.054   3.419   9.636 -0.0316  0.3087  0.9724
  827MPD2    H512171   3.010   3.328   9.646  2.1005 -0.7066  1.0320
  827MPD2    N112172   3.124   3.442  10.121  0.3867 -0.5408 -0.1643
  827MPD2    H712173   3.180   3.496  10.187  0.5371  1.0611 -1.6092
  828MPD2     C12174   1.255   2.704  12.575 -0.4503  0.0296  0.0558
  828MPD2    C112175   1.276   2.829  12.514 -0.5998 -0.1688  0.2055
  828MPD2    C212176   1.394   2.857  12.457 -0.0901  0.0458  0.2339
  828MPD2    C312177   1.502   2.770  12.450 -0.0577 -0.5188 -0.1558
  828MPD2    C412178   1.479   2.647  12.513  0.5157  0.6825  0.4483
  828MPD2    C512179   1.359   2.615  12.567  0.1730  0.9066  0.5098
  828MPD2     H12180   1.397   2.952  12.403  1.3994 -0.7668 -1.1237
  828MPD2    H112181   1.552   2.567  12.512 -0.0410  0.1843  0.1418
  828MPD2    H212182   1.169   2.676  12.634  0.0507 -1.7385 -0.0647
  828MPD2    H312183   1.354   2.520  12.620 -1.2377  0.1534 -0.9561
  828MPD2     N12184   1.636   2.796  12.395  0.2141  0.5377  0.2072
  828MPD2    H512185   1.700   2.718  12.401  1.2610  1.5246  1.8190
  828MPD2    N112186   1.168   2.924  12.491  0.2611  0.9219  0.1041
  828MPD2    H712187   1.200   3.014  12.456  0.8532  1.0460  0.9555
  829MPD2     C12188   1.383   3.316  11.863  0.0841  0.1300  0.0618
  829MPD2    C112189   1.248   3.345  11.856  0.0589 -0.2680  0.3148
  829MPD2    C212190   1.168   3.329  11.967 -0.2900  0.0447  1.1712
  829MPD2    C312191   1.226   3.290  12.083 -0.5152 -0.4229  0.2399
  829MPD2    C412192   1.361   3.259  12.093 -0.4883 -0.4503 -0.0557
  829MPD2    C512193   1.435   3.282  11.984 -0.0240 -0.1536 -0.1434
  829MPD2     H12194   1.064   3.357  11.957  0.4467  1.4999 -2.5471
  829MPD2    H112195   1.398   3.203  12.178  0.3230  1.0700  0.6121
  829MPD2    H212196   1.446   3.324  11.775 -2.3639  1.6366 -1.5232
  829MPD2    H312197   1.543   3.269  11.987 -0.1277 -0.7152  1.3023
  829MPD2     N12198   1.150   3.262  12.203  0.7151 -0.1322  0.1171
  829MPD2    H512199   1.203   3.241  12.287 -0.0266  1.2330  0.9215
  829MPD2    N112200   1.190   3.377  11.728 -0.1434 -0.1815 -0.4307
  829MPD2    H712201   1.259   3.376  11.653 -0.5480 -0.8218 -0.7995
  830MPD2     C12202   1.281   1.683  15.865  0.1269  0.3986 -0.1816
  830MPD2    C112203   1.167   1.719  15.800  0.1192  0.0497  0.2851
  830MPD2    C212204   1.173   1.748  15.665  0.0661  0.3009  0.0813
  830MPD2    C312205   1.301   1.739  15.600 -0.2861 -0.3753  0.2975
  830MPD2    C412206   1.409   1.683  15.663  0.3078  0.3455 -0.0722
  830MPD2    C512207   1.401   1.657  15.793  0.0004 -0.6297  0.2443
  830MPD2     H12208   1.084   1.783  15.614  0.9556  3.6321  0.8477
  830MPD2    H112209   1.505   1.675  15.614  0.0338 -0.2340 -0.5048
  830MPD2    H212210   1.276   1.651  15.969  2.0785  0.9512  0.0758
  830MPD2    H312211   1.484   1.609  15.845  1.9070  1.4500 -0.8758
  830MPD2     N12212   1.326   1.794  15.473 -0.0918 -0.2404 -0.5563
  830MPD2    H512213   1.420   1.794  15.434  0.4314  2.1206  0.7168
  830MPD2    N112214   1.048   1.724  15.876  0.1073  0.1749 -0.2957
  830MPD2    H712215   1.053   1.707  15.976  0.9932  1.0842 -0.1942
  831MPD2     C12216   1.218   3.601  16.069 -0.5970  0.5330 -0.1756
  831MPD2    C112217   1.270   3.474  16.032  0.9069 -0.7362  0.3410
  831MPD2    C212218   1.202   3.361  16.080  0.0473 -0.1247 -0.0702
  831MPD2    C312219   1.090   3.370  16.165 -0.3677  0.3651 -0.1340
  831MPD2    C412220   1.035   3.497  16.190  0.4327 -0.0551  0.3673
  831MPD2    C512221   1.105   3.608  16.149 -1.1882 -0.2657 -0.9607
  831MPD2     H12222   1.234   3.261  16.055 -2.3456 -0.1063 -3.2156
  831MPD2    H112223   0.950   3.514  16.254  0.7657 -1.2364  1.1136
  831MPD2    H212224   1.267   3.693  16.039  2.4634 -0.5716  1.5123
  831MPD2    H312225   1.063   3.705  16.175 -2.5455 -1.0257 -0.2912
  831MPD2     N12226   1.001   3.260  16.199 -0.1132  0.0523  1.0700
  831MPD2    H512227   0.939   3.289  16.274  0.9890 -2.1392  2.8455
  831MPD2    N112228   1.395   3.467  15.963  0.4287 -0.3278  0.0346
  831MPD2    H712229   1.433   3.556  15.934  0.1505  0.3884  1.8359
  832MPD2     C12230   4.476   0.005  17.122 -0.6206  0.5729  0.0818
  832MPD2    C112231   4.371   0.100  17.117  1.1379 -0.3175 -0.3083
  832MPD2    C212232   4.256   0.083  17.052  0.3218 -0.1601  0.3565
  832MPD2    C312233   4.227   4.684  17.004  0.1309 -0.1674 -0.3934
  832MPD2    C412234   4.321   4.583  17.013  0.0910 -0.2956  0.1334
  832MPD2    C512235   4.444   4.609  17.065 -0.0580  0.2013 -0.3051
  832MPD2     H12236   4.181   0.161  17.054 -0.3776 -0.8074 -0.5293
  832MPD2    H112237   4.298   4.483  16.977  1.7509 -0.8273  0.5690
  832MPD2    H212238   4.571   0.033  17.167  0.9878 -1.0269 -2.2754
  832MPD2    H312239   4.511   4.524  17.070 -2.3896 -1.5578  1.4996
  832MPD2     N12240   4.108   4.662  16.926 -0.4835  0.4437 -0.2725
  832MPD2    H512241   4.083   4.570  16.892 -0.8898  0.6243 -0.4685
  832MPD2    N112242   4.394   0.216  17.191  0.1524  0.0836  0.2364
  832MPD2    H712243   4.484   0.224  17.236  0.3706 -0.7704 -0.0483
  833MPD2     C12244   2.038   0.843  12.651  0.7131 -0.0080  0.5601
  833MPD2    C112245   2.024   0.850  12.512 -0.5443 -0.0280  0.5225
  833MPD2    C212246   2.042   0.728  12.442 -0.7640 -0.4293 -0.3127
  833MPD2    C312247   2.064   0.609  12.503  0.0425  0.3125  0.0146
  833MPD2    C412248   2.080   0.603  12.636 -0.1978 -0.9973 -0.0335
  833MPD2    C512249   2.071   0.721  12.707 -0.1443  0.0938  0.1208
  833MPD2     H12250   2.042   0.721  12.334  1.1461  1.5965 -0.4369
  833MPD2    H112251   2.111   0.515  12.690 -1.9193 -1.7804 -0.3353
  833MPD2    H212252   2.044   0.935  12.707  1.8032  0.1186  0.2394
  833MPD2    H312253   2.097   0.720  12.812 -0.2726  0.1492  0.1540
  833MPD2     N12254   2.088   0.501  12.420  0.2830 -0.7705  0.7419
  833MPD2    H512255   2.113   0.523  12.324 -1.3947  3.1547  1.2155
  833MPD2    N112256   2.004   0.975  12.442  0.1356  1.1753 -0.2379
  833MPD2    H712257   1.996   1.059  12.499 -0.4218  0.2536  1.0477
  834MPD2     C12258   1.303   0.189  12.029  0.1293  0.3496  0.1429
  834MPD2    C112259   1.385   0.187  11.917 -0.0827  0.4349 -0.2588
  834MPD2    C212260   1.525   0.181  11.932 -0.6104  0.0526  0.6484
  834MPD2    C312261   1.584   0.203  12.056 -0.3955  0.2288 -0.5849
  834MPD2    C412262   1.504   0.217  12.166 -0.0908  0.4089  0.4318
  834MPD2    C512263   1.363   0.205  12.155  0.0351  0.2040  0.4416
  834MPD2     H12264   1.596   0.169  11.851  2.1942  0.6807  2.9766
  834MPD2    H112265   1.548   0.234  12.264  0.5538  1.2550 -0.0060
  834MPD2    H212266   1.195   0.182  12.017  0.1433 -1.0659  0.7947
  834MPD2    H312267   1.296   0.213  12.240  0.8973 -1.2943  1.2746
  834MPD2     N12268   1.725   0.203  12.062  0.1196  0.5304  0.1335
  834MPD2    H512269   1.780   0.183  11.979  0.3685  0.7196  0.2532
  834MPD2    N112270   1.323   0.187  11.790  0.1523  0.3725 -0.8464
  834MPD2    H712271   1.222   0.178  11.779  0.2251 -1.4410 -0.0952
  835MPD2     C12272   1.954   3.276  11.122 -0.1999 -0.0068  0.2282
  835MPD2    C112273   1.870   3.364  11.188 -0.5270  0.1339 -0.3795
  835MPD2    C212274   1.913   3.421  11.310 -0.0357 -0.5273 -0.4505
  835MPD2    C312275   2.035   3.386  11.369 -0.8039 -0.5977 -0.0100
  835MPD2    C412276   2.109   3.292  11.300 -0.0991  0.5255 -0.1490
  835MPD2    C512277   2.072   3.234  11.179  0.5211  0.0039 -0.0984
  835MPD2     H12278   1.839   3.484  11.358 -0.1948 -0.2931 -0.9971
  835MPD2    H112279   2.205   3.269  11.342 -0.6851 -0.3301  0.7109
  835MPD2    H212280   1.930   3.219  11.033 -1.7190  0.8446  0.1080
  835MPD2    H312281   2.128   3.153  11.133  0.1926  0.6638 -1.6632
  835MPD2     N12282   2.078   3.428  11.497 -0.1087  0.1633 -0.3938
  835MPD2    H512283   2.160   3.381  11.536  0.0585 -0.5296 -1.6010
  835MPD2    N112284   1.748   3.406  11.132 -0.1329 -0.2030 -0.2656
  835MPD2    H712285   1.715   3.495  11.167 -0.3527 -0.1223 -0.6815
  836MPD2     C12286   1.520   3.647  11.735  0.4510 -0.1582  0.3317
  836MPD2    C112287   1.580   3.624  11.856 -0.2919  0.4602  0.5463
  836MPD2    C212288   1.500   3.606  11.967  0.3126  0.2032  0.5710
  836MPD2    C312289   1.361   3.635  11.953  0.7063 -0.0191  0.1706
  836MPD2    C412290   1.307   3.671  11.831 -0.2327 -0.5696  0.1431
  836MPD2    C512291   1.385   3.667  11.724  0.4722  0.3343 -0.4974
  836MPD2     H12292   1.540   3.574  12.063 -0.5267 -0.8702  0.5618
  836MPD2    H112293   1.201   3.692  11.823  0.3016  2.2802  0.4776
  836MPD2    H212294   1.577   3.659  11.644 -1.1479 -0.8167 -0.7467
  836MPD2    H312295   1.348   3.697  11.627  0.1424 -1.3515 -0.8918
  836MPD2     N12296   1.273   3.635  12.063 -0.0390 -0.6688 -0.0716
  836MPD2    H512297   1.177   3.665  12.046 -0.3151 -0.2833  2.1401
  836MPD2    N112298   1.721   3.604  11.858 -0.8090 -0.6640 -0.1993
  836MPD2    H712299   1.769   3.599  11.768  0.7694  2.0905  0.4935
  837MPD2     C12300   0.086   2.871  10.019 -0.1612  0.1359  0.6584
  837MPD2    C112301   4.692   2.877  10.083 -0.6995  0.3856  0.5837
  837MPD2    C212302   4.641   2.988  10.135 -0.1026 -0.0404  0.6720
  837MPD2    C312303   4.713   3.105  10.126 -0.4792  0.8153  0.0333
  837MPD2    C412304   0.115   3.107  10.064  0.1232  0.3888 -0.7661
  837MPD2    C512305   0.151   2.996  10.000 -0.1845 -0.3148  0.6182
  837MPD2     H12306   4.544   2.995  10.182  0.2710 -0.3121  1.4920
  837MPD2    H112307   0.176   3.192  10.037 -0.5261  1.0513 -0.1528
  837MPD2    H212308   0.129   2.786   9.968  1.1350  0.1999  1.6562
  837MPD2    H312309   0.235   2.992   9.932 -1.7669 -0.3834 -1.3255
  837MPD2     N12310   4.650   3.223  10.175  0.0347  0.4793  0.1918
  837MPD2    H512311   4.565   3.210  10.228  1.3655 -1.5408  1.8607
  837MPD2    N112312   4.587   2.775  10.078  0.0132  0.5775  0.5476
  837MPD2    H712313   4.496   2.804  10.110 -0.1809  0.3154  0.2363
  838MPD2     C12314   2.613   1.484  11.392 -0.1022 -0.0222 -0.1106
  838MPD2    C112315   2.699   1.431  11.482 -0.0849  0.7765  0.1468
  838MPD2    C212316   2.661   1.323  11.563  0.0404  0.8812 -0.0125
  838MPD2    C312317   2.536   1.270  11.556  0.4647  0.4428  0.3730
  838MPD2    C412318   2.455   1.312  11.451 -0.5626 -0.2994  0.4991
  838MPD2    C512319   2.489   1.425  11.380 -0.2386  0.3516 -0.3720
  838MPD2     H12320   2.736   1.296  11.637  0.7830  1.7846 -0.4404
  838MPD2    H112321   2.362   1.268  11.415 -0.6995 -0.3433  0.9060
  838MPD2    H212322   2.635   1.570  11.331 -0.1488  0.1079  0.0560
  838MPD2    H312323   2.426   1.457  11.297 -2.3549  1.2673  1.5722
  838MPD2     N12324   2.513   1.165  11.643 -0.0545  0.1588  0.2920
  838MPD2    H512325   2.585   1.147  11.713  1.2318 -2.4859 -1.7049
  838MPD2    N112326   2.828   1.483  11.497 -0.0061  0.0947 -0.3996
  838MPD2    H712327   2.890   1.444  11.568 -1.3034  1.0551  1.2469
  839MPD2     C12328   2.852   0.950  11.703  0.0120 -0.3667 -0.3880
  839MPD2    C112329   2.854   0.999  11.576  0.0685  0.0134  0.6640
  839MPD2    C212330   2.947   1.101  11.542 -0.4675  0.9748 -0.0792
  839MPD2    C312331   3.020   1.165  11.645 -0.2204 -0.3575  0.5438
  839MPD2    C412332   2.999   1.122  11.772 -0.1585 -0.9517  0.0610
  839MPD2    C512333   2.922   1.015  11.800  0.2034 -0.0161  0.4255
  839MPD2     H12334   2.964   1.125  11.437 -0.7536  0.5846 -0.2114
  839MPD2    H112335   3.050   1.165  11.857  0.3754 -0.1368 -0.6651
  839MPD2    H212336   2.775   0.878  11.726 -1.5518  2.0305  1.7308
  839MPD2    H312337   2.916   0.974  11.900  0.2370 -0.2735  0.3204
  839MPD2     N12338   3.096   1.279  11.622  0.1709  0.2068 -0.2276
  839MPD2    H512339   3.118   1.340  11.701 -1.6776 -0.8590  1.1013
  839MPD2    N112340   2.787   0.943  11.465 -0.1275 -0.6667 -0.6971
  839MPD2    H712341   2.800   0.978  11.371 -1.2668  2.3316  0.2547
  840MPD2     C12342   3.356   3.821  10.538 -0.6040 -0.0462 -0.3939
  840MPD2    C112343   3.334   3.709  10.618 -0.8897 -0.2973  0.0146
  840MPD2    C212344   3.414   3.698  10.729 -0.7881 -0.8424 -0.0484
  840MPD2    C312345   3.507   3.791  10.774  0.6242 -0.4648 -0.7191
  840MPD2    C412346   3.513   3.902  10.695  0.1228  0.1246 -0.5296
  840MPD2    C512347   3.447   3.921  10.580 -0.0639 -0.3612 -0.3203
  840MPD2     H12348   3.412   3.602  10.779  2.4064 -0.2874  1.1834
  840MPD2    H112349   3.586   3.978  10.723 -1.7686  1.8267 -0.1872
  840MPD2    H212350   3.284   3.826  10.457 -0.3052  1.1656 -0.5824
  840MPD2    H312351   3.462   4.015  10.527 -4.1202  0.0171 -0.7423
  840MPD2     N12352   3.593   3.776  10.884  0.4941 -0.0524 -0.3569
  840MPD2    H512353   3.653   3.856  10.899 -0.7776  1.2828 -2.3699
  840MPD2    N112354   3.243   3.610  10.563 -0.0354 -0.2829  0.0347
  840MPD2    H712355   3.197   3.623  10.474  1.1145  0.2246 -0.4925
  841MPD2     C12356   3.336   3.405  13.973  0.5152 -0.6032  0.3961
  841MPD2    C112357   3.307   3.380  14.106  0.0037 -0.0978 -0.2205
  841MPD2    C212358   3.338   3.481  14.192 -0.1896 -0.5423 -0.0566
  841MPD2    C312359   3.408   3.603  14.158 -0.1714  0.1210 -0.4176
  841MPD2    C412360   3.445   3.622  14.021  0.7333 -0.3140  0.3609
  841MPD2    C512361   3.399   3.522  13.935  0.3999 -0.0247 -0.4486
  841MPD2     H12362   3.311   3.462  14.296 -1.4685  0.4381 -0.2133
  841MPD2    H112363   3.516   3.695  13.984 -0.4656 -0.7436 -2.7333
  841MPD2    H212364   3.317   3.331  13.895  0.5219  0.8121 -0.9541
  841MPD2    H312365   3.430   3.533  13.832 -1.7284 -0.2026 -1.1094
  841MPD2     N12366   3.420   3.696  14.262 -0.3584 -0.2938 -0.4259
  841MPD2    H512367   3.387   3.666  14.353 -0.5060  0.8858 -0.0855
  841MPD2    N112368   3.252   3.257  14.140  0.8703  0.3310 -0.0443
  841MPD2    H712369   3.238   3.191  14.064 -1.6411  2.2569 -1.2660
  842MPD2     C12370   3.324   4.668  16.503 -0.2312  0.0749 -0.4833
  842MPD2    C112371   3.192   4.691  16.482 -0.2612 -0.0102 -0.1443
  842MPD2    C212372   3.104   4.670  16.598 -0.2350 -0.5046  0.3522
  842MPD2    C312373   3.159   4.618  16.713  0.4233  0.4145 -0.7278
  842MPD2    C412374   3.292   4.579  16.722 -0.2962  0.3982 -0.0934
  842MPD2    C512375   3.370   4.608  16.616  0.0110 -0.8546 -0.3884
  842MPD2     H12376   2.997   4.657  16.588 -0.4537  1.2655  0.4610
  842MPD2    H112377   3.336   4.543  16.814 -2.1929 -0.3575  0.5260
  842MPD2    H212378   3.398   4.702  16.432  1.0348 -2.2596 -0.2713
  842MPD2    H312379   3.476   4.590  16.622  0.4284  0.8318 -3.0640
  842MPD2     N12380   3.072   4.605  16.828  0.0034  0.0714 -0.4380
  842MPD2    H512381   3.106   4.557  16.911  0.2405  0.4579 -0.3121
  842MPD2    N112382   3.150   0.025  16.352 -0.2908  0.1077  0.0841
  842MPD2    H712383   3.212   0.033  16.272  0.4205  0.6739  0.6853
  843MPD2     C12384   0.357   0.455  17.619 -0.4152 -0.1205  0.2276
  843MPD2    C112385   0.470   0.408  17.684 -0.5749  0.6214  0.1523
  843MPD2    C212386   0.596   0.454  17.644  0.5649 -0.4431 -0.0621
  843MPD2    C312387   0.609   0.560  17.548  0.1512  0.2049  0.1506
  843MPD2    C412388   0.498   0.598  17.485 -0.2140  0.2240 -0.1208
  843MPD2    C512389   0.374   0.557  17.525  0.3735 -0.3320 -0.0846
  843MPD2     H12390   0.679   0.410   0.003 -0.1534 -1.3055  0.3553
  843MPD2    H112391   0.511   0.677  17.412 -1.6218  0.6613  0.0945
  843MPD2    H212392   0.254   0.436  17.649  0.2282  1.7707  3.6679
  843MPD2    H312393   0.286   0.607  17.486 -0.0768 -1.9644 -1.1691
  843MPD2     N12394   0.729   0.618  17.514  0.2863 -0.2574 -0.2853
  843MPD2    H512395   0.726   0.707  17.465 -0.7011 -0.2963 -0.2973
  843MPD2    N112396   0.453   0.331   0.106  0.1630 -0.1128  0.1228
  843MPD2    H712397   0.356   0.318   0.130 -0.4477  2.5382 -0.8406
  844MPD2     C12398   4.117   0.026  16.319  0.3922  0.2694 -0.3356
  844MPD2    C112399   4.163   4.668  16.419 -0.0414 -0.0748  0.1001
  844MPD2    C212400   4.275   4.714  16.489 -0.1669 -0.0209  0.8189
  844MPD2    C312401   4.347   0.101  16.450 -0.2116 -0.3150 -0.0952
  844MPD2    C412402   4.299   0.178  16.348  1.2945 -0.1569 -0.5649
  844MPD2    C512403   4.179   0.148  16.293  0.1466  0.1569 -0.1648
  844MPD2     H12404   4.321   4.653  16.566  1.5940 -0.5500 -0.6696
  844MPD2    H112405   4.342   0.276  16.331  0.5191 -0.0359 -1.8813
  844MPD2    H212406   4.024   0.017  16.264 -0.8271  1.3780  1.5500
  844MPD2    H312407   4.132   0.216  16.223 -1.1461 -0.2347  0.3193
  844MPD2     N12408   4.469   0.126  16.515  0.2173  0.7111  0.0429
  844MPD2    H512409   4.473   0.072  16.601 -1.2254 -0.0745 -0.3784
  844MPD2    N112410   4.104   4.543  16.452 -0.0103 -0.2003 -0.0337
  844MPD2    H712411   4.147   4.493  16.529  3.3509  1.7299 -0.6496
  845MPD2     C12412   0.123   0.966  16.816 -0.0641 -0.5369  0.5076
  845MPD2    C112413   0.010   0.884  16.845  0.2085 -0.1631  0.8026
  845MPD2    C212414   4.718   0.757  16.783 -0.3181 -0.1656 -0.5016
  845MPD2    C312415   0.104   0.700  16.722  0.6154 -0.8498 -0.0735
  845MPD2    C412416   0.214   0.774  16.708 -0.0528 -0.2532 -0.5546
  845MPD2    C512417   0.219   0.908  16.743  0.4345 -0.5798 -0.4365
  845MPD2     H12418   4.628   0.699  16.796  1.0187 -1.9926  0.6515
  845MPD2    H112419   0.299   0.726  16.661  0.0976 -1.1406  0.6242
  845MPD2    H212420   0.130   1.069  16.852  0.5419 -0.9467  1.5703
  845MPD2    H312421   0.306   0.964  16.713  1.2677 -0.7286  1.7170
  845MPD2     N12422   0.089   0.560  16.695  0.4717  0.2580  0.3987
  845MPD2    H512423   4.718   0.521  16.690  0.3394  0.5766  0.4325
  845MPD2    N112424   4.630   0.943  16.913  0.7765  0.1253  0.3343
  845MPD2    H712425   4.638   1.042  16.932 -1.5906  0.3538  0.0819
  846MPD2     C12426   0.836   0.855  13.509  0.6903  0.1806  0.9567
  846MPD2    C112427   0.945   0.846  13.600  0.3030  0.6390 -0.2093
  846MPD2    C212428   0.918   0.852  13.736 -0.3924 -0.0521  0.8197
  846MPD2    C312429   0.792   0.887  13.786  0.4027 -0.0443 -0.2328
  846MPD2    C412430   0.690   0.911  13.699  0.7720 -0.1996 -0.7446
  846MPD2    C512431   0.710   0.884  13.563 -0.4659 -0.0510 -0.4023
  846MPD2     H12432   0.995   0.834  13.810  1.4777  1.5329 -0.7676
  846MPD2    H112433   0.592   0.945  13.730  0.1142  0.0394 -3.1006
  846MPD2    H212434   0.847   0.846  13.402 -1.4945 -0.2802  0.7826
  846MPD2    H312435   0.627   0.911  13.498 -1.2355 -1.3174  0.0677
  846MPD2     N12436   0.779   0.912  13.923 -0.1312 -0.4981  0.2830
  846MPD2    H512437   0.856   0.885  13.983 -0.5475 -2.6433 -0.1200
  846MPD2    N112438   1.075   0.834  13.557 -0.1549 -0.0294 -0.2721
  846MPD2    H712439   1.147   0.827  13.628 -1.0496  0.1786  0.6545
  847MPD2     C12440   1.192   1.530  14.244  0.4046  0.2377  0.4120
  847MPD2    C112441   1.317   1.578  14.264 -0.1341  0.3073  0.2724
  847MPD2    C212442   1.409   1.514  14.346  0.2041 -0.3444  0.5280
  847MPD2    C312443   1.366   1.415  14.429 -0.1135  0.2718  0.0982
  847MPD2    C412444   1.237   1.361  14.415 -0.0986  0.5875 -0.3238
  847MPD2    C512445   1.159   1.412  14.310 -0.4757  0.2269 -0.2699
  847MPD2     H12446   1.513   1.543  14.351  0.2856 -0.4935 -0.3452
  847MPD2    H112447   1.191   1.285  14.477 -0.1256  0.2342 -0.7726
  847MPD2    H212448   1.129   1.578  14.171  0.6783  0.8979  0.5975
  847MPD2    H312449   1.066   1.360  14.292 -0.1713 -0.6913  0.8377
  847MPD2     N12450   1.448   1.370  14.534 -0.4889 -1.1240 -0.1029
  847MPD2    H512451   1.540   1.413  14.537 -0.9489 -0.1602  0.4222
  847MPD2    N112452   1.355   1.691  14.188 -0.0354 -0.0458  0.0253
  847MPD2    H712453   1.295   1.729  14.115 -0.2298 -0.6154 -0.1103
  848MPD2     C12454   3.613   0.149  16.258  0.4205 -0.9474  0.1137
  848MPD2    C112455   3.713   0.193  16.343  0.2944 -0.2139 -1.0393
  848MPD2    C212456   3.779   0.303  16.303 -0.1919 -0.1649 -0.3187
  848MPD2    C312457   3.748   0.367  16.189  0.6130  0.4294 -0.0110
  848MPD2    C412458   3.643   0.320  16.112  1.0311  0.1826  0.3710
  848MPD2    C512459   3.580   0.203  16.141  0.1947 -0.2171 -0.0396
  848MPD2     H12460   3.860   0.339  16.366  0.0761 -1.3214 -0.0056
  848MPD2    H112461   3.613   0.357  16.015  0.2487 -1.9591 -0.2049
  848MPD2    H212462   3.558   0.058  16.279 -0.5941 -0.3888 -0.1182
  848MPD2    H312463   3.497   0.170  16.078  1.9274 -0.2921 -2.2989
  848MPD2     N12464   3.812   0.480  16.133 -0.2102 -0.3208  0.1443
  848MPD2    H512465   3.796   0.515  16.040  3.2553  2.0621  0.4785
  848MPD2    N112466   3.763   0.137  16.461 -0.4223  0.4737 -0.6284
  848MPD2    H712467   3.816   0.199  16.522  0.4226 -0.0299 -0.8639
  849MPD2     C12468   3.527   0.068  13.588 -0.5600  0.2192  0.7112
  849MPD2    C112469   3.473   4.668  13.627  0.0377 -0.3737 -0.0064
  849MPD2    C212470   3.511   4.617  13.744 -0.3422 -0.0187  1.0776
  849MPD2    C312471   3.615   4.671  13.822  0.9583 -0.0821  0.4822
  849MPD2    C412472   3.664   0.068  13.780 -0.3188  0.4902 -0.4368
  849MPD2    C512473   3.622   0.129  13.660  0.0409 -0.0865  0.3009
  849MPD2     H12474   3.461   4.528  13.782 -0.9592  0.0683  0.4648
  849MPD2    H112475   3.732   0.128  13.841 -2.5284  1.8941  0.6356
  849MPD2    H212476   3.516   0.115  13.490  0.3772  2.7497  1.8093
  849MPD2    H312477   3.678   0.211  13.617 -0.3536 -0.9793 -1.9018
  849MPD2     N12478   3.656   4.612  13.945  0.9491 -0.6087 -0.5652
  849MPD2    H512479   3.718   4.667  14.005 -1.5394 -0.4531  1.8586
  849MPD2    N112480   3.385   4.597  13.548  0.1700 -0.2158 -0.4229
  849MPD2    H712481   3.346   4.515  13.593  1.4421 -1.2724 -1.2442
  850MPD2     C12482   1.093   2.942  14.700 -0.4947 -0.3684 -0.1751
  850MPD2    C112483   1.120   2.876  14.815  0.2763 -0.2414  0.3652
  850MPD2    C212484   1.240   2.814  14.849  0.0474  0.4619  0.0338
  850MPD2    C312485   1.354   2.830  14.764 -0.7240  0.9278  0.4906
  850MPD2    C412486   1.328   2.903  14.647 -0.4567 -1.2689  0.1038
  850MPD2    C512487   1.204   2.957  14.614 -0.3712 -0.3447 -0.4248
  850MPD2     H12488   1.245   2.747  14.934 -1.4486 -1.4238 -1.3449
  850MPD2    H112489   1.411   2.933  14.584  0.9378 -0.0417  2.5241
  850MPD2    H212490   1.001   2.997  14.684  0.8214  1.9632  0.3422
  850MPD2    H312491   1.196   3.015  14.523 -1.8970  1.4818  0.8552
  850MPD2     N12492   1.485   2.795  14.794  0.5421  0.0381 -0.7039
  850MPD2    H512493   1.549   2.814  14.718  0.4962  1.1608 -0.4668
  850MPD2    N112494   1.027   2.860  14.919  0.0730  0.0398  0.4471
  850MPD2    H712495   1.067   2.812  14.999 -0.2806  0.0659  0.6354
  851MPD2     C12496   1.266   2.668  15.572 -0.3596 -0.5746 -0.0725
  851MPD2    C112497   1.169   2.631  15.480 -0.1975 -0.5651  0.5407
  851MPD2    C212498   1.185   2.514  15.408 -0.0661 -0.2809  0.1934
  851MPD2    C312499   1.295   2.437  15.419 -0.0929  0.1248  0.4713
  851MPD2    C412500   1.388   2.474  15.517  0.6475 -0.1258  0.2571
  851MPD2    C512501   1.377   2.593  15.583 -0.4053  0.4719 -0.5997
  851MPD2     H12502   1.110   2.489  15.335 -1.0265 -1.1648  1.4894
  851MPD2    H112503   1.475   2.412  15.538  1.2327  0.8048  0.5841
  851MPD2    H212504   1.264   2.766  15.619 -0.8954 -0.5199 -0.2031
  851MPD2    H312505   1.461   2.626  15.643  1.1330  0.3925 -2.6846
  851MPD2     N12506   1.306   2.324  15.334  0.4758  0.0560  0.7829
  851MPD2    H512507   1.230   2.307  15.268  1.3229 -1.2876  0.1344
  851MPD2    N112508   1.063   2.727  15.457 -0.2394  0.2883  0.3744
  851MPD2    H712509   1.066   2.821  15.495 -1.5897 -0.5633  2.5765
  852MPD2     C12510   0.514   0.757   9.568 -0.4287  0.1435 -0.1039
  852MPD2    C112511   0.587   0.738   9.680  0.3856 -0.0639 -0.2489
  852MPD2    C212512   0.672   0.835   9.734 -0.6117 -0.5943  0.6227
  852MPD2    C312513   0.689   0.957   9.668 -0.8921 -0.1583 -0.3661
  852MPD2    C412514   0.609   0.983   9.553  0.3038 -0.0344 -0.4646
  852MPD2    C512515   0.537   0.876   9.503 -0.5593  0.0655 -0.4162
  852MPD2     H12516   0.720   0.812   9.828  3.4616  0.5448 -1.1929
  852MPD2    H112517   0.608   1.071   9.489  2.7243 -0.3851 -1.0035
  852MPD2    H212518   0.450   0.687   9.517 -1.7363  0.3057  1.3229
  852MPD2    H312519   0.492   0.885   9.404 -1.9409  1.2250  0.3224
  852MPD2     N12520   0.785   1.048   9.721 -0.3738 -0.0324  0.1420
  852MPD2    H512521   0.837   1.022   9.804  2.0800 -1.2877 -1.7565
  852MPD2    N112522   0.568   0.619   9.758 -0.4717  0.1812 -0.0445
  852MPD2    H712523   0.619   0.618   9.846 -0.2609  0.9456 -0.1611
  853MPD2     C12524   3.132   4.683  12.030  0.6183 -0.5319 -1.4133
  853MPD2    C112525   3.019   0.040  12.009  0.1194 -0.4779 -0.0981
  853MPD2    C212526   2.960   0.051  11.886 -0.0758 -0.3636  0.4409
  853MPD2    C312527   3.014   4.698  11.774  0.0855  0.0390  0.1726
  853MPD2    C412528   3.122   4.615  11.795  0.2781 -0.1620 -0.6535
  853MPD2    C512529   3.187   4.617  11.918  0.0148  0.9462  0.1647
  853MPD2     H12530   2.885   0.127  11.871  0.1879  0.1179  1.5150
  853MPD2    H112531   3.166   4.556  11.717 -1.8109 -1.5960 -0.7496
  853MPD2    H212532   3.177   4.681  12.128  0.2224 -2.4250 -1.2565
  853MPD2    H312533   3.275   4.556  11.936  0.1066  0.8858 -0.4862
  853MPD2     N12534   2.961   4.710  11.640  0.1995 -0.0340 -0.4197
  853MPD2    H512535   3.014   4.660  11.569  2.2521  0.3018  0.8639
  853MPD2    N112536   2.972   0.113  12.122 -0.2780  0.2111  0.5780
  853MPD2    H712537   3.015   0.103  12.213  0.3396 -1.7828  0.0657
  854MPD2     C12538   4.087   0.471  12.717 -0.5640  0.0522  0.2025
  854MPD2    C112539   4.172   0.430  12.620 -1.2948 -0.7022 -0.9966
  854MPD2    C212540   4.284   0.361  12.661 -0.2502  0.1250  0.5548
  854MPD2    C312541   4.313   0.342  12.791  0.3825  0.1711 -0.3748
  854MPD2    C412542   4.236   0.402  12.884 -0.2069  0.0462  0.4557
  854MPD2    C512543   4.117   0.464  12.851 -0.2184 -1.1448  0.3222
  854MPD2     H12544   4.354   0.330  12.585 -0.8395 -0.0774  0.0900
  854MPD2    H112545   4.252   0.376  12.988 -1.4496 -0.3675  0.5374
  854MPD2    H212546   3.983   0.495  12.695 -0.7423  0.9678  2.0259
  854MPD2    H312547   4.058   0.506  12.931 -0.8080 -0.6715 -0.3595
  854MPD2     N12548   4.415   0.255  12.840 -0.0634 -0.5776  0.5808
  854MPD2    H512549   4.415   0.222  12.936  0.7877 -4.0076 -0.6046
  854MPD2    N112550   4.146   0.461  12.482 -0.3172  0.1080  0.6577
  854MPD2    H712551   4.057   0.508  12.469 -1.9550 -3.0761  0.3577
  855MPD2     C12552   4.480   4.214  13.411  0.2901 -0.0017 -0.4398
  855MPD2    C112553   4.616   4.250  13.412 -0.0756  0.0678  0.8790
  855MPD2    C212554   4.663   4.317  13.295  0.3154 -0.0789  0.3688
  855MPD2    C312555   4.571   4.365  13.198  0.4753 -0.5596  0.1235
  855MPD2    C412556   4.446   4.315  13.200  0.3529  0.2379  0.4993
  855MPD2    C512557   4.398   4.242  13.308  0.0413  0.6228  0.3713
  855MPD2     H12558   0.042   4.351  13.284  0.1109 -0.1507 -1.8288
  855MPD2    H112559   4.384   4.330  13.112  0.9284  1.0476  0.2402
  855MPD2    H212560   4.433   4.162  13.494  1.0599 -0.7738 -0.4875
  855MPD2    H312561   4.297   4.204  13.309 -0.3157  1.5150 -2.2316
  855MPD2     N12562   4.616   4.456  13.110  0.7355 -0.3007  0.7050
  855MPD2    H512563   4.714   4.481  13.118  1.0478 -1.8835  1.7762
  855MPD2    N112564   4.697   4.208  13.520  0.4982 -0.2321  0.6187
  855MPD2    H712565   4.652   4.148  13.587 -0.1698 -0.2989  0.1155
  856MPD2     C12566   2.485   1.107  13.690  1.1994  0.1154  0.1576
  856MPD2    C112567   2.524   1.158  13.806 -0.5184 -0.2463 -0.4701
  856MPD2    C212568   2.438   1.236  13.873  0.1500 -0.6879 -0.5176
  856MPD2    C312569   2.311   1.264  13.825  0.0116 -0.1751  0.0999
  856MPD2    C412570   2.271   1.215  13.707  0.1090  0.0141  0.0928
  856MPD2    C512571   2.355   1.128  13.644  0.0143 -0.5628  0.1778
  856MPD2     H12572   2.481   1.270  13.967  0.8595 -1.8077 -0.4341
  856MPD2    H112573   2.171   1.235  13.670 -0.6595  1.3780  2.9527
  856MPD2    H212574   2.555   1.053  13.627  1.9958  1.2048  0.1003
  856MPD2    H312575   2.328   1.092  13.545  0.0537 -1.8244  0.6211
  856MPD2     N12576   2.222   1.346  13.891  0.2479 -0.5691  0.0338
  856MPD2    H512577   2.126   1.348  13.859  0.8703 -0.8397 -1.8774
  856MPD2    N112578   2.653   1.153  13.859  0.2627  0.4128  0.2519
  856MPD2    H712579   2.676   1.205  13.943  1.1042  0.0354  0.2623
  857MPD2     C12580   3.474   2.883  12.656 -0.5139  0.1559 -1.0871
  857MPD2    C112581   3.602   2.855  12.705  0.5876 -0.6093  0.8078
  857MPD2    C212582   3.681   2.963  12.764  0.4748  0.7015 -0.2664
  857MPD2    C312583   3.635   3.091  12.752  0.3827 -0.0279  0.5809
  857MPD2    C412584   3.517   3.127  12.685  0.4673  0.0193 -0.7029
  857MPD2    C512585   3.435   3.023  12.641 -0.0463 -0.3500  0.5218
  857MPD2     H12586   3.768   2.943  12.825  2.3044 -0.5648 -3.3443
  857MPD2    H112587   3.490   3.229  12.663  0.9743  0.4678  0.7325
  857MPD2    H212588   3.401   2.805  12.638 -2.0219  1.3672 -0.2852
  857MPD2    H312589   3.340   3.038  12.591 -0.0919 -1.2751  0.3471
  857MPD2     N12590   3.717   3.188  12.821 -0.1820 -0.5827 -0.1964
  857MPD2    H512591   3.809   3.162  12.856 -0.2884 -0.9340 -0.1723
  857MPD2    N112592   3.641   2.717  12.710  0.3010 -0.3277  0.0092
  857MPD2    H712593   3.574   2.642  12.700  0.2816 -0.0905 -1.6908
  858MPD2     C12594   4.150   2.275  16.744 -0.1900 -0.4665 -0.2992
  858MPD2    C112595   4.287   2.313  16.744  0.4847 -0.0366  0.0056
  858MPD2    C212596   4.341   2.383  16.845 -0.4263  0.0476  0.2575
  858MPD2    C312597   4.256   2.442  16.939  0.8307  0.0062 -0.1011
  858MPD2    C412598   4.119   2.424  16.922  0.2381  0.5482  0.1750
  858MPD2    C512599   4.068   2.343  16.826  0.3736 -0.4230  0.5003
  858MPD2     H12600   4.447   2.404  16.854 -0.7828  2.4849 -1.0741
  858MPD2    H112601   4.042   2.460  16.989 -1.0433 -0.5390 -0.7057
  858MPD2    H212602   4.110   2.197  16.680 -0.9265 -1.1839  1.0420
  858MPD2    H312603   3.961   2.325  16.823  0.1207  1.1851 -0.1137
  858MPD2     N12604   4.302   2.525  17.044  0.8913 -0.0874  0.4110
  858MPD2    H512605   4.232   2.561  17.109  1.1953  0.1157  0.6237
  858MPD2    N112606   4.373   2.261  16.644  0.3276 -0.1463  0.5541
  858MPD2    H712607   4.471   2.285  16.661  0.5420 -0.4023 -0.3254
  859MPD2     C12608   2.824   4.405  15.608 -0.5495 -0.2687 -0.3518
  859MPD2    C112609   2.956   4.409  15.571  0.6822  0.1366  0.4983
  859MPD2    C212610   3.033   4.297  15.563  0.2834  0.5717 -0.8481
  859MPD2    C312611   2.975   4.177  15.603 -0.3621 -0.6428  0.3272
  859MPD2    C412612   2.846   4.180  15.649  0.0256 -0.2089 -0.6434
  859MPD2    C512613   2.770   4.292  15.654  0.8318  0.8542  1.1922
  859MPD2     H12614   3.128   4.299  15.512 -0.0201 -1.5418 -1.4958
  859MPD2    H112615   2.801   4.086  15.678  0.6085 -0.0455  0.7979
  859MPD2    H212616   2.754   4.486  15.593  0.2789  0.2846 -1.2238
  859MPD2    H312617   2.667   4.278  15.684  1.1149 -3.1992  0.3684
  859MPD2     N12618   3.031   4.054  15.585  0.4739 -0.1533  0.1037
  859MPD2    H512619   2.978   3.977  15.624 -2.8138  1.4330 -1.1836
  859MPD2    N112620   2.988   4.530  15.502  0.3356 -0.6306 -0.4798
  859MPD2    H712621   2.918   4.603  15.492  1.3146  0.5925  1.6716
  860MPD2     C12622   0.796   0.046  11.659 -0.2153  0.5173 -0.3229
  860MPD2    C112623   0.753   0.009  11.784 -0.4942  0.2561  0.4051
  860MPD2    C212624   0.620   0.016  11.811  0.1128 -0.7556  0.4267
  860MPD2    C312625   0.531   0.066  11.724  0.8445  0.1850  0.1294
  860MPD2    C412626   0.571   0.104  11.598 -0.5447  0.5923 -1.0106
  860MPD2    C512627   0.703   0.097  11.567  0.1134  1.1349  0.0882
  860MPD2     H12628   0.581   4.704  11.907 -0.6937 -0.5459  0.1729
  860MPD2    H112629   0.506   0.142  11.520  0.0111 -1.0596 -2.2785
  860MPD2    H212630   0.897   0.031  11.624  0.0051  0.2825  0.4163
  860MPD2    H312631   0.745   0.130  11.472  2.9218 -3.6367 -0.2940
  860MPD2     N12632   0.399   0.074  11.760  0.4682  0.8398 -0.1329
  860MPD2    H512633   0.377   0.027  11.847 -1.2879  0.4215 -0.8031
  860MPD2    N112634   0.840   4.689  11.882 -0.0632  0.3752  0.0960
  860MPD2    H712635   0.805   4.653  11.971  1.8600 -0.6858  0.4463
  861MPD2     C12636   4.366   2.691  11.082 -0.7820 -0.3465 -0.3271
  861MPD2    C112637   4.238   2.677  11.137  0.2437  0.3506  0.2321
  861MPD2    C212638   4.135   2.726  11.061  0.3218 -0.1140 -0.1179
  861MPD2    C312639   4.161   2.809  10.952  0.2155 -0.1243  0.1369
  861MPD2    C412640   4.292   2.833  10.912  0.7406 -0.7841 -0.2782
  861MPD2    C512641   4.393   2.775  10.977  0.0408  0.8795  0.9511
  861MPD2     H12642   4.032   2.704  11.087  0.4387 -2.4787 -1.7226
  861MPD2    H112643   4.301   2.896  10.825  2.8269 -1.2187 -0.3815
  861MPD2    H212644   4.447   2.637  11.129  0.2644  1.5660  0.0398
  861MPD2    H312645   4.495   2.786  10.943  0.8297 -1.6566  2.4319
  861MPD2     N12646   4.060   2.858  10.873 -0.0093  0.5219  0.7179
  861MPD2    H512647   4.092   2.914  10.795  3.9434  0.9790  2.6518
  861MPD2    N112648   4.209   2.596  11.245  0.0777  0.7254  0.4013
  861MPD2    H712649   4.112   2.568  11.260  0.0788  1.1923  1.3008
  862MPD2     C12650   4.080   2.901  10.356 -0.1466 -0.0235  0.2385
  862MPD2    C112651   4.136   2.911  10.480 -0.2301 -0.1062 -0.5168
  862MPD2    C212652   4.169   2.799  10.552  0.9135  0.0603  0.8464
  862MPD2    C312653   4.140   2.679  10.507  0.4950  1.1034  0.6863
  862MPD2    C412654   4.068   2.668  10.391 -0.4285  0.4033  0.3523
  862MPD2    C512655   4.041   2.776  10.310 -0.2745  0.3517  0.3274
  862MPD2     H12656   4.233   2.816  10.638  1.2595 -0.7211  0.7390
  862MPD2    H112657   4.030   2.570  10.366  0.6087 -0.5498  2.4936
  862MPD2    H212658   4.058   2.989  10.296 -0.3160 -0.3868 -0.2320
  862MPD2    H312659   3.995   2.764  10.213  0.6992  0.8752 -0.2062
  862MPD2     N12660   4.152   2.561  10.593  0.1996 -0.2453 -0.4412
  862MPD2    H512661   4.087   2.484  10.589 -1.9235  1.3462  3.8461
  862MPD2    N112662   4.154   3.037  10.544  0.6272 -0.3004 -0.4059
  862MPD2    H712663   4.217   3.036  10.624  0.4228 -1.2243 -0.2662
  863MPD2     C12664   2.944   1.078  16.780  0.0810  0.1652 -0.1431
  863MPD2    C112665   2.903   1.190  16.835  0.4103  0.4348 -1.0613
  863MPD2    C212666   2.959   1.228  16.960  0.0614 -0.1180 -0.0145
  863MPD2    C312667   3.063   1.148  17.019  0.9169 -0.3112  0.3751
  863MPD2    C412668   3.100   1.034  16.956  0.9357 -0.1262 -0.4576
  863MPD2    C512669   3.039   0.999  16.841  0.6358  0.1818  1.4797
  863MPD2     H12670   2.908   1.310  17.008  1.1413  0.9336 -0.6629
  863MPD2    H112671   3.182   0.978  17.001 -0.5352 -0.3444  1.9590
  863MPD2    H212672   2.911   1.061  16.679 -1.9274 -0.1557  0.5646
  863MPD2    H312673   3.066   0.906  16.793  0.8007  1.2700 -0.5052
  863MPD2     N12674   3.130   1.185  17.137  0.3830  0.5930 -0.2166
  863MPD2    H512675   3.190   1.117  17.183 -2.7405 -3.0768 -1.6047
  863MPD2    N112676   2.797   1.258  16.763  0.2490  0.1207  0.4720
  863MPD2    H712677   2.747   1.207  16.690 -1.0795 -0.5566  1.8497
  864MPD2     C12678   3.350   2.466  17.633 -0.3218  0.4368 -0.1982
  864MPD2    C112679   3.396   2.423  17.509 -0.3595 -1.1285  0.4795
  864MPD2    C212680   3.442   2.520  17.419  0.0211 -0.2868 -0.4866
  864MPD2    C312681   3.416   2.657  17.447 -0.6603  0.3648 -0.4327
  864MPD2    C412682   3.370   2.696  17.565 -0.1308 -0.3645  0.6129
  864MPD2    C512683   3.327   2.597  17.654 -0.6410 -0.4166 -0.2587
  864MPD2     H12684   3.486   2.491  17.325 -1.4415  1.8776 -1.8442
  864MPD2    H112685   3.350   2.798  17.595 -1.8055 -0.8477  1.1357
  864MPD2    H212686   3.315   2.387   0.006  1.7230 -1.3295 -1.2140
  864MPD2    H312687   3.279   2.635   0.049 -0.1499  0.3712 -0.3341
  864MPD2     N12688   3.443   2.763  17.356  0.2601  0.4516  0.0486
  864MPD2    H512689   3.407   2.853  17.387  0.9204 -0.4303  3.4641
  864MPD2    N112690   3.397   2.288  17.473  0.5345  0.4739 -0.0422
  864MPD2    H712691   3.346   2.226  17.535 -1.0277  1.7105 -0.0620
  865MPD2     C12692   3.109   2.634  16.677 -0.1185  0.6366  0.4805
  865MPD2    C112693   3.235   2.671  16.645  0.6213  0.1522  0.0067
  865MPD2    C212694   3.295   2.780  16.713 -0.3132 -0.1318 -0.0329
  865MPD2    C312695   3.219   2.854  16.808  0.9114  0.4827  0.1054
  865MPD2    C412696   3.093   2.806  16.842  0.2145  0.2285  0.7629
  865MPD2    C512697   3.046   2.703  16.774 -0.1582 -0.2831  0.0034
  865MPD2     H12698   3.403   2.790  16.705 -0.4102 -1.2643 -2.9729
  865MPD2    H112699   3.033   2.835  16.927  1.5015  1.1077  1.3765
  865MPD2    H212700   3.065   2.549  16.626  0.4791  1.5444 -1.5155
  865MPD2    H312701   2.950   2.670  16.812  0.0777  0.0546  0.8929
  865MPD2     N12702   3.285   2.956  16.877 -0.5276  0.1735  0.4557
  865MPD2    H512703   3.377   2.978  16.841 -0.0057  1.2009  2.4435
  865MPD2    N112704   3.299   2.589  16.550 -0.4878  0.0965  0.4547
  865MPD2    H712705   3.254   2.504  16.519  0.8362 -0.2135 -0.6112
  866MPD2     C12706   0.463   2.969  11.258  0.4172  1.1622 -0.3273
  866MPD2    C112707   0.411   2.932  11.135 -0.0553 -0.2044 -0.3256
  866MPD2    C212708   0.274   2.942  11.119  0.2479 -0.4113 -0.4872
  866MPD2    C312709   0.189   2.981  11.229  0.5379  0.1686 -0.5982
  866MPD2    C412710   0.246   2.986  11.355 -0.4338 -0.2234  0.3320
  866MPD2    C512711   0.386   2.985  11.370 -0.7738  0.8020  0.5721
  866MPD2     H12712   0.237   2.916  11.021  1.1551  0.0048 -0.9393
  866MPD2    H112713   0.181   3.013  11.437 -0.1655  1.2929  0.0487
  866MPD2    H212714   0.569   2.967  11.283  0.7365  0.3881 -1.7225
  866MPD2    H312715   0.435   2.986  11.467  3.3975  1.1208 -1.5279
  866MPD2     N12716   0.046   2.996  11.215  0.1419 -0.3991  0.3806
  866MPD2    H512717   4.718   3.046  11.287 -0.1252  2.8006 -2.0315
  866MPD2    N112718   0.497   2.902  11.029 -0.0263  0.0022 -0.6376
  866MPD2    H712719   0.596   2.918  11.044 -0.0863 -0.5870  0.4065
  867MPD2     C12720   1.991   2.357  16.807 -0.1145  0.2345 -0.3927
  867MPD2    C112721   2.122   2.378  16.846  0.0038  0.2961 -0.2828
  867MPD2    C212722   2.161   2.507  16.874  0.1580 -0.2975 -1.1927
  867MPD2    C312723   2.077   2.612  16.859  0.0871  0.2610  0.4134
  867MPD2    C412724   1.948   2.589  16.813 -0.3457  0.3594 -0.3944
  867MPD2    C512725   1.902   2.462  16.788  0.0118  0.0033  0.6662
  867MPD2     H12726   2.265   2.514  16.904  0.1610 -1.5121 -0.9249
  867MPD2    H112727   1.878   2.670  16.793  1.3444  1.7019 -0.8807
  867MPD2    H212728   1.951   2.257  16.793  2.0779 -0.6711 -0.1340
  867MPD2    H312729   1.797   2.460  16.761  0.2087  0.4358 -0.1292
  867MPD2     N12730   2.120   2.742  16.874 -0.8007 -0.0332  0.5383
  867MPD2    H512731   2.057   2.814  16.842 -0.4186 -0.4581 -1.1608
  867MPD2    N112732   2.214   2.267  16.864  0.1221  0.4051 -0.0432
  867MPD2    H712733   2.183   2.178  16.826 -1.7824  0.1216  2.1906
  868MPD2     C12734   3.933   1.063  12.596 -0.0326  0.6357 -0.0255
  868MPD2    C112735   4.017   1.038  12.701  0.9872 -0.3989 -0.2759
  868MPD2    C212736   4.001   1.111  12.824 -0.0193 -0.8268 -0.1159
  868MPD2    C312737   3.904   1.204  12.835  0.8524  0.4074 -0.3917
  868MPD2    C412738   3.818   1.213  12.730 -0.9684  0.2315 -0.3028
  868MPD2    C512739   3.828   1.152  12.614 -0.0190 -0.3649  0.7545
  868MPD2     H12740   4.079   1.101  12.899 -0.0844 -0.3480  0.0147
  868MPD2    H112741   3.729   1.272  12.747 -0.5018  0.2806  1.9805
  868MPD2    H212742   3.942   1.017  12.498  0.6658 -2.5550  1.5471
  868MPD2    H312743   3.752   1.161  12.538  1.4164  1.1617 -0.4924
  868MPD2     N12744   3.904   1.275  12.952  0.0003 -0.4719 -0.3576
  868MPD2    H512745   3.982   1.271  13.018 -0.0523 -2.1936 -0.3853
  868MPD2    N112746   4.122   0.949  12.671  0.5409 -0.3188 -0.0796
  868MPD2    H712747   4.123   0.924  12.572  0.4416 -0.5193 -0.0308
  869MPD2     C12748   0.641   4.301   1.744  0.1234  0.7383  0.2030
  869MPD2    C112749   0.512   4.342   1.752  0.2549  0.7000  0.3514
  869MPD2    C212750   0.463   4.447   1.674  0.1045 -0.4018  0.2511
  869MPD2    C312751   0.553   4.528   1.610 -0.3508  0.6030 -0.4746
  869MPD2    C412752   0.681   4.486   1.597  0.5141 -0.0300  0.0414
  869MPD2    C512753   0.719   4.373   1.661  0.0996  0.0289  0.0510
  869MPD2     H12754   0.364   4.480   1.704  0.8717  2.0220  0.1407
  869MPD2    H112755   0.751   4.533   1.529 -0.2773  3.3487  1.5429
  869MPD2    H212756   0.685   4.214   1.793  0.2090  1.0589  0.6969
  869MPD2    H312757   0.822   4.342   1.651  0.1123  0.0649  0.0719
  869MPD2     N12758   0.525   4.653   1.544 -0.2027 -0.7801 -0.3024
  869MPD2    H512759   0.603   4.697   1.497 -0.6432 -1.5679 -1.7765
  869MPD2    N112760   0.434   4.271   1.842  0.3353 -0.1447  0.6664
  869MPD2    H712761   0.480   4.210   1.908 -1.8559 -0.8355  1.5576
  870MPD2     C12762   0.124   3.881   1.706 -0.5094  0.7067  0.1423
  870MPD2    C112763   0.072   3.761   1.738 -0.5038 -0.2170 -0.9968
  870MPD2    C212764   4.686   3.717   1.664  0.1955  0.0500  0.9904
  870MPD2    C312765   4.642   3.781   1.547  0.9847  0.1115 -0.2130
  870MPD2    C412766   4.702   3.898   1.520 -0.1580  0.4928  0.4044
  870MPD2    C512767   0.084   3.946   1.594 -0.4326  0.4391  0.0209
  870MPD2     H12768   4.642   3.623   1.694  0.5735 -0.9487 -1.6165
  870MPD2    H112769   4.674   3.965   1.440 -0.5491 -1.7287 -1.3287
  870MPD2    H212770   0.203   3.922   1.768  0.0901  0.3012 -0.3470
  870MPD2    H312771   0.123   4.045   1.570 -1.5992  0.5929 -1.2136
  870MPD2     N12772   4.544   3.733   1.455  0.2188  0.0373 -0.4668
  870MPD2    H512773   4.495   3.654   1.497  1.7450 -1.4894 -1.5561
  870MPD2    N112774   0.118   3.704   1.860  0.9966  0.1190 -0.0261
  870MPD2    H712775   0.203   3.747   1.896  1.2334 -0.5355  0.2066
  871MPD2     C12776   1.265   2.900  16.305  0.0019  0.3621  0.3766
  871MPD2    C112777   1.209   2.851  16.423  0.2608  0.4335 -1.0286
  871MPD2    C212778   1.209   2.720  16.452  0.3699 -0.7303  0.0858
  871MPD2    C312779   1.255   2.630  16.358  0.1496  0.6490  0.2120
  871MPD2    C412780   1.304   2.678  16.240  0.0331 -0.3205 -0.3186
  871MPD2    C512781   1.304   2.811  16.209 -0.8292  0.1033  0.2597
  871MPD2     H12782   1.166   2.679  16.542  0.0831  2.3498  1.3447
  871MPD2    H112783   1.344   2.605  16.170  0.4980  0.5127 -0.9258
  871MPD2    H212784   1.266   3.005  16.279 -0.8653  0.1083 -0.6912
  871MPD2    H312785   1.345   2.852  16.117  1.4947  0.9591  1.6674
  871MPD2     N12786   1.249   2.489  16.379  0.5891 -0.5444 -0.0051
  871MPD2    H512787   1.203   2.452  16.461  0.0749 -2.2361 -1.0594
  871MPD2    N112788   1.176   2.944  16.525 -0.2216  0.2099  0.1644
  871MPD2    H712789   1.183   3.041  16.496 -1.7514 -0.1181 -1.3051
  872MPD2     C12790   2.194   0.990  14.151 -0.1910  0.2608 -0.5824
  872MPD2    C112791   2.194   0.874  14.067 -0.2043  0.0754 -0.6767
  872MPD2    C212792   2.083   0.792  14.083 -0.0050 -0.0994 -0.0357
  872MPD2    C312793   1.979   0.809  14.164 -0.1354 -0.2800  0.1288
  872MPD2    C412794   1.982   0.929  14.233  0.2474 -0.0561  0.2666
  872MPD2    C512795   2.092   1.010  14.235  0.2904 -1.1209 -0.2611
  872MPD2     H12796   2.094   0.706  14.018  1.1620 -0.5851  0.8175
  872MPD2    H112797   1.898   0.956  14.296 -0.8965 -1.4347 -0.6674
  872MPD2    H212798   2.268   1.069  14.145 -1.9574  1.9658  0.0769
  872MPD2    H312799   2.088   1.103  14.289 -2.4555 -1.7029  0.5324
  872MPD2     N12800   1.874   0.715  14.170 -0.3588 -0.3258 -0.2167
  872MPD2    H512801   1.800   0.737  14.236 -2.1014 -2.1575 -1.5641
  872MPD2    N112802   2.300   0.838  13.976 -0.2836  0.1432 -0.2028
  872MPD2    H712803   2.287   0.754  13.920 -2.4644  0.2529  0.1602
  873MPD2     C12804   4.051   0.443   0.971  0.4293 -0.3111 -0.1846
  873MPD2    C112805   3.918   0.419   0.955  0.3106 -0.2617 -0.1686
  873MPD2    C212806   3.877   0.291   0.911  0.2276  0.3368  0.2626
  873MPD2    C312807   3.970   0.204   0.859  0.8367  0.2594  0.2146
  873MPD2    C412808   4.104   0.234   0.859  0.0172  0.0387 -0.3814
  873MPD2    C512809   4.145   0.352   0.922  0.5404 -0.0981 -0.2286
  873MPD2     H12810   3.775   0.260   0.931  0.7598 -0.7304  1.2712
  873MPD2    H112811   4.173   0.154   0.836 -0.8795 -0.7907 -0.2064
  873MPD2    H212812   4.092   0.536   1.007 -1.7478  0.1697  1.0512
  873MPD2    H312813   4.250   0.367   0.942  0.0609  0.7356  1.6638
  873MPD2     N12814   3.941   0.076   0.830  0.4843 -0.4531 -0.4952
  873MPD2    H512815   4.023   0.020   0.809  2.2764  2.4743 -1.1724
  873MPD2    N112816   3.833   0.529   0.976 -0.0466 -0.1637 -0.4201
  873MPD2    H712817   3.881   0.614   1.002 -1.1247  0.3986 -0.2736
  874MPD2     C12818   3.173   0.677  15.778 -0.0746 -0.4448 -0.0193
  874MPD2    C112819   3.217   0.611  15.890  0.0899 -0.0528 -0.6543
  874MPD2    C212820   3.338   0.642  15.949  0.3003 -0.3678  0.1874
  874MPD2    C312821   3.412   0.743  15.890  0.8330 -0.7310  0.1124
  874MPD2    C412822   3.373   0.800  15.767  0.7647 -0.6954  0.2325
  874MPD2    C512823   3.249   0.768  15.717  0.5293  0.9890  0.5432
  874MPD2     H12824   3.381   0.596  16.038  0.9034 -0.7370 -0.2935
  874MPD2    H112825   3.437   0.873  15.720 -0.6741 -0.9962 -2.1736
  874MPD2    H212826   3.080   0.650  15.730 -0.9228  0.0786  1.3160
  874MPD2    H312827   3.203   0.812  15.630  2.7375  0.0452 -1.0953
  874MPD2     N12828   3.535   0.791  15.952  0.5626  1.4718 -0.4833
  874MPD2    H512829   3.555   0.736  16.035  0.7522  0.6073 -1.1082
  874MPD2    N112830   3.142   0.496  15.936 -0.7218  0.1917 -0.5371
  874MPD2    H712831   3.056   0.479  15.885 -1.2451 -0.3515  0.5264
  875MPD2     C12832   0.002   3.673  14.433 -0.2220 -0.4938  0.4775
  875MPD2    C112833   4.597   3.662  14.481  0.0501  0.1006 -0.9752
  875MPD2    C212834   4.572   3.702  14.614  0.4480 -0.3113 -0.7102
  875MPD2    C312835   4.673   3.749  14.701 -0.2229 -0.4856  0.3678
  875MPD2    C412836   0.069   3.769  14.640 -0.4453  0.4467  0.5037
  875MPD2    C512837   0.103   3.711  14.523  0.3761  0.1925  0.0577
  875MPD2     H12838   4.474   3.677  14.652  0.3658 -3.1394 -2.8280
  875MPD2    H112839   0.143   3.820  14.700 -1.3232  4.2308 -1.6595
  875MPD2    H212840   0.032   3.655  14.330 -0.7474 -2.5438  0.6951
  875MPD2    H312841   0.200   3.718  14.474  0.5219  1.0688  0.4559
  875MPD2     N12842   4.658   3.788  14.837 -0.0782 -0.0318  0.5435
  875MPD2    H512843   0.015   3.835  14.880  0.9896 -3.5012  2.3635
  875MPD2    N112844   4.489   3.615  14.404 -0.6453 -0.2137 -0.1331
  875MPD2    H712845   4.395   3.631  14.438 -0.4374  1.6131 -0.4378
  876MPD2     C12846   3.003   0.041  15.758 -0.0608  0.3839 -0.1832
  876MPD2    C112847   3.140   0.041  15.768 -0.2816 -0.1457  0.7000
  876MPD2    C212848   3.195   4.653  15.838 -0.0096  1.0557  0.6946
  876MPD2    C312849   3.120   4.546  15.885 -0.4822 -0.2350 -0.4275
  876MPD2    C412850   2.981   4.560  15.884 -0.6031  0.0923 -0.0868
  876MPD2    C512851   2.926   4.669  15.822  0.3440  0.7792 -0.0354
  876MPD2     H12852   3.303   4.646  15.831 -0.2307  0.3218 -2.0584
  876MPD2    H112853   2.905   4.489  15.915 -0.4372 -1.1081 -2.4856
  876MPD2    H212854   2.946   0.119  15.710 -2.0615 -1.1046 -0.2284
  876MPD2    H312855   2.818   4.671  15.827  0.3155 -1.5367  0.2918
  876MPD2     N12856   3.180   4.427  15.930  0.5024 -0.5748 -0.0579
  876MPD2    H512857   3.267   4.402  15.884 -0.1008 -2.0016 -0.4184
  876MPD2    N112858   3.207   0.158  15.726 -0.1912 -0.2585  0.2240
  876MPD2    H712859   3.157   0.227  15.672  1.2975 -0.5857 -1.5760
  877MPD2     C12860   3.186   0.694  15.212 -0.7277 -0.6829  0.0024
  877MPD2    C112861   3.319   0.665  15.239  0.5303  0.6082 -0.5155
  877MPD2    C212862   3.421   0.695  15.146 -0.0780  0.7227  0.0842
  877MPD2    C312863   3.384   0.757  15.029  0.0205  0.0780 -0.0967
  877MPD2    C412864   3.252   0.777  14.997 -1.0223  0.1202  0.8500
  877MPD2    C512865   3.162   0.747  15.090  0.7622 -0.6657 -0.3870
  877MPD2     H12866   3.525   0.691  15.176 -0.3531 -1.9420  0.6542
  877MPD2    H112867   3.223   0.798  14.895  1.4287  1.5422  0.4611
  877MPD2    H212868   3.111   0.688  15.290 -1.0441 -2.7245 -0.4424
  877MPD2    H312869   3.060   0.771  15.061  1.3050  1.1072 -0.8160
  877MPD2     N12870   3.475   0.772  14.925 -0.6667  0.5348  0.0817
  877MPD2    H512871   3.434   0.796  14.835 -0.5361  2.0158  0.4065
  877MPD2    N112872   3.366   0.620  15.363 -0.4720 -0.0436  0.1127
  877MPD2    H712873   3.466   0.609  15.375 -0.6631 -1.1985  0.6473
  878MPD2     C12874   3.451   4.014  12.799  0.5162 -0.5249  0.7947
  878MPD2    C112875   3.491   4.145  12.797 -0.3731  0.5234  0.0312
  878MPD2    C212876   3.435   4.233  12.883 -0.0507 -0.9042  0.1953
  878MPD2    C312877   3.331   4.202  12.967 -0.6855 -0.3083  0.2224
  878MPD2    C412878   3.284   4.070  12.964  0.0969  0.0540 -0.0008
  878MPD2    C512879   3.348   3.983  12.884  0.2153  0.3599  0.1068
  878MPD2     H12880   3.478   4.332  12.889 -0.6735 -0.6332  0.2405
  878MPD2    H112881   3.216   4.029  13.039  0.8173  0.1107  0.6836
  878MPD2    H212882   3.481   3.935  12.732  2.9973  1.3781 -0.3117
  878MPD2    H312883   3.322   3.878  12.878 -1.1826  0.6942  0.2593
  878MPD2     N12884   3.286   4.287  13.070 -0.5921 -0.0335 -0.3872
  878MPD2    H512885   3.319   4.383  13.059  0.2878 -0.4406 -1.3300
  878MPD2    N112886   3.586   4.175  12.695  0.0825 -0.1199 -0.5536
  878MPD2    H712887   3.604   4.106  12.622  2.5904  1.0365 -1.0254
  879MPD2     C12888   3.524   1.453  17.051  0.1530  0.1793 -0.2210
  879MPD2    C112889   3.592   1.345  17.103  0.4334 -0.2693 -0.1135
  879MPD2    C212890   3.550   1.220  17.067 -0.1730 -0.0776 -0.3261
  879MPD2    C312891   3.465   1.202  16.960  1.0556  0.3709  0.9272
  879MPD2    C412892   3.413   1.312  16.901 -0.4377  0.6158  0.0703
  879MPD2    C512893   3.438   1.436  16.951  0.2554  0.3774 -0.0641
  879MPD2     H12894   3.595   1.131  17.110  0.4952  1.2172  1.6446
  879MPD2    H112895   3.355   1.307  16.809  0.7707 -0.1043 -0.6468
  879MPD2    H212896   3.543   1.557  17.077  0.2432  0.1603 -0.2114
  879MPD2    H312897   3.390   1.521  16.903  1.3019  1.1435  0.2407
  879MPD2     N12898   3.446   1.080  16.896 -0.4232 -0.5409  0.7668
  879MPD2    H512899   3.401   1.088  16.805  0.7509  1.3030  0.3470
  879MPD2    N112900   3.689   1.371  17.200  0.0348 -0.0483  0.2356
  879MPD2    H712901   3.715   1.466  17.224  0.1559  0.4078 -1.7462
  880MPD2     C12902   0.775   3.552   0.250  0.8751 -0.0899  0.1275
  880MPD2    C112903   0.691   3.483   0.323 -0.7445 -0.0689 -1.2495
  880MPD2    C212904   0.737   3.358   0.368  0.2600  0.4696  0.1252
  880MPD2    C312905   0.865   3.310   0.345 -0.1046  0.3635  0.5655
  880MPD2    C412906   0.948   3.386   0.267 -0.1987  0.8933  0.0134
  880MPD2    C512907   0.901   3.506   0.222 -0.4262 -0.2829 -0.3497
  880MPD2     H12908   0.668   3.283   0.405 -0.2056  1.6047  1.5627
  880MPD2    H112909   1.047   3.354   0.236  0.7826  2.4687  1.4938
  880MPD2    H212910   0.745   3.644   0.201 -2.1990 -1.6458 -0.9612
  880MPD2    H312911   0.967   3.568   0.162 -1.9751  2.1769  0.4830
  880MPD2     N12912   0.901   3.174   0.380 -0.1346 -0.0906  0.1829
  880MPD2    H512913   0.828   3.110   0.412 -1.0088  0.5403 -0.5154
  880MPD2    N112914   0.559   3.525   0.331 -0.2560 -0.4002  0.5230
  880MPD2    H712915   0.528   3.605   0.277 -0.7287 -0.8698  0.0979
  881MPD2     C12916   0.260   3.964  17.392  0.5496 -0.8528 -0.3028
  881MPD2    C112917   0.267   3.825  17.385  0.1339  0.1882  0.0556
  881MPD2    C212918   0.227   3.755  17.502  0.3551  0.5026  0.3730
  881MPD2    C312919   0.230   3.823  17.626 -0.2124 -0.1666  0.0760
  881MPD2    C412920   0.269   3.957  17.632 -0.6973 -0.1335  0.0043
  881MPD2    C512921   0.276   4.030  17.518 -0.1694 -0.1981  0.0482
  881MPD2     H12922   0.198   3.651  17.504  0.3170  0.5135  0.3770
  881MPD2    H112923   0.267   4.011   0.032  1.9385 -1.8507  1.0383
  881MPD2    H212924   0.269   4.027  17.304  0.9735 -1.9557 -1.0347
  881MPD2    H312925   0.277   4.138  17.529  0.0232 -0.3573  1.5722
  881MPD2     N12926   0.222   3.760   0.058 -0.4988 -0.1694  0.2948
  881MPD2    H512927   0.269   3.814   0.130  2.0203 -1.2272 -0.5611
  881MPD2    N112928   0.247   3.766  17.258  0.3769 -0.0730 -0.2611
  881MPD2    H712929   0.250   3.830  17.179 -0.7372  0.9389  0.5153
  882MPD2     C12930   3.503   0.322  14.298  0.2688 -0.1656 -0.1374
  882MPD2    C112931   3.454   0.442  14.336 -0.4584 -0.0571  0.5093
  882MPD2    C212932   3.322   0.466  14.321  1.0120  0.7584  0.2116
  882MPD2    C312933   3.231   0.370  14.277 -0.3765 -0.1578  0.4826
  882MPD2    C412934   3.280   0.244  14.242 -0.8479 -0.1480  0.1626
  882MPD2    C512935   3.419   0.224  14.248 -0.4187  0.2904 -0.0183
  882MPD2     H12936   3.285   0.563  14.353 -1.6667 -0.5677  1.1235
  882MPD2    H112937   3.216   0.163  14.210 -0.2059  0.3734 -2.4447
  882MPD2    H212938   3.608   0.296  14.310 -0.5222 -3.2031  0.2339
  882MPD2    H312939   3.460   0.125  14.230  2.8675  1.4345  0.9974
  882MPD2     N12940   3.091   0.399  14.262 -0.1831 -0.0523  0.5210
  882MPD2    H512941   3.032   0.318  14.244  0.8895 -1.0450  1.4768
  882MPD2    N112942   3.548   0.526  14.401 -0.5645 -0.4058 -0.2250
  882MPD2    H712943   3.634   0.480  14.430  0.6073  0.9934 -1.4621
  883MPD2     C12944   0.418   0.305  16.240  0.2219 -0.4105 -0.5168
  883MPD2    C112945   0.508   0.372  16.167 -0.6385  0.1881 -0.0347
  883MPD2    C212946   0.598   0.458  16.229  0.3829 -0.1919  0.5535
  883MPD2    C312947   0.602   0.476  16.366  0.1142 -0.0793 -0.6334
  883MPD2    C412948   0.517   0.397  16.444  0.5327 -0.3793  0.2126
  883MPD2    C512949   0.426   0.318  16.379  0.0711 -0.5811 -0.2746
  883MPD2     H12950   0.671   0.516  16.173 -0.1886  1.7005  1.7535
  883MPD2    H112951   0.503   0.404  16.551 -0.6181  0.1530  0.0302
  883MPD2    H212952   0.348   0.237  16.192  0.5519 -0.4431 -0.9539
  883MPD2    H312953   0.357   0.255  16.434 -0.6525  0.8555  0.4679
  883MPD2     N12954   0.698   0.566  16.416  0.1259 -0.2861  0.1841
  883MPD2    H512955   0.758   0.626  16.360 -0.0741 -1.3090 -1.1496
  883MPD2    N112956   0.502   0.364  16.024 -0.1603  0.1701  0.1219
  883MPD2    H712957   0.527   0.448  15.972 -0.3489 -0.1748 -0.5191
  884MPD2     C12958   2.580   1.175  14.914  0.1342 -0.9598 -0.1445
  884MPD2    C112959   2.575   1.282  14.998  0.3226  0.6854 -0.0935
  884MPD2    C212960   2.474   1.307  15.080 -0.1070 -0.6235  0.1285
  884MPD2    C312961   2.362   1.223  15.073 -0.3929  0.1351 -0.3975
  884MPD2    C412962   2.363   1.115  14.988  0.6228 -0.1322  0.8047
  884MPD2    C512963   2.474   1.092  14.902  0.0949  0.0031  0.3497
  884MPD2     H12964   2.476   1.395  15.143 -1.7234 -0.0432 -0.6251
  884MPD2    H112965   2.287   1.038  14.978 -0.6865  1.2795 -0.0532
  884MPD2    H212966   2.661   1.144  14.849  1.1975  0.5629  0.4452
  884MPD2    H312967   2.468   1.012  14.830 -1.1380  1.5748 -1.2864
  884MPD2     N12968   2.249   1.247  15.154 -0.2637 -0.7051  0.1045
  884MPD2    H512969   2.237   1.338  15.197  1.1310 -0.3972 -0.1523
  884MPD2    N112970   2.678   1.374  14.996  0.0934 -0.0846  0.2495
  884MPD2    H712971   2.660   1.455  15.055 -0.5819 -0.2824  0.3147
  885MPD2     C12972   0.694   1.736   0.145 -0.0481 -0.0056 -0.2466
  885MPD2    C112973   0.740   1.628   0.070  0.0313  0.0008  0.5268
  885MPD2    C212974   0.737   1.641  17.629  0.3428  0.8228 -0.3492
  885MPD2    C312975   0.682   1.746  17.563  0.1695 -0.0142 -0.1866
  885MPD2    C412976   0.625   1.851  17.638  0.2533 -0.0813  0.3303
  885MPD2    C512977   0.636   1.844   0.079 -0.2314 -0.3457  0.0752
  885MPD2     H12978   0.777   1.567  17.559 -0.1653  0.7627 -0.5809
  885MPD2    H112979   0.572   1.935  17.595 -1.6479 -0.2105  2.3993
  885MPD2    H212980   0.686   1.739   0.253  3.6243 -0.2115  0.0287
  885MPD2    H312981   0.592   1.924   0.139 -1.3377 -0.4306 -0.6294
  885MPD2     N12982   0.681   1.748  17.419 -0.5477 -0.7471  0.0390
  885MPD2    H512983   0.708   1.668  17.362 -0.1016 -0.1724 -0.5683
  885MPD2    N112984   0.788   1.515   0.135 -0.5823 -0.5849 -1.1212
  885MPD2    H712985   0.809   1.516   0.235  0.1435 -1.3654 -1.2671
  886MPD2     C12986   1.868   4.222  15.376 -0.2602 -0.1296  0.1479
  886MPD2    C112987   1.996   4.268  15.400  0.3690  0.2234  0.2380
  886MPD2    C212988   2.024   4.399  15.376 -0.4769  0.8491  0.1347
  886MPD2    C312989   1.933   4.500  15.334  0.0939  0.2200  0.0278
  886MPD2    C412990   1.805   4.458  15.327 -0.7955  0.2535 -0.3175
  886MPD2    C512991   1.772   4.322  15.343 -0.1521 -0.1944  0.2223
  886MPD2     H12992   2.125   4.432  15.393 -0.0295  0.0641 -0.9709
  886MPD2    H112993   1.731   4.535  15.311 -0.4859  0.5689 -0.2345
  886MPD2    H212994   1.837   4.125  15.413 -1.6558 -0.7826 -2.7352
  886MPD2    H312995   1.666   4.298  15.344  0.2422 -2.0341 -1.8539
  886MPD2     N12996   1.991   4.626  15.287 -0.4108 -0.3545  0.3187
  886MPD2    H512997   2.092   4.628  15.300 -0.4630 -2.3105  1.1226
  886MPD2    N112998   2.102   4.191  15.453  0.4253  0.0897  0.0668
  886MPD2    H712999   2.185   4.240  15.485 -0.3920  0.3098  1.8106
  887MPD2     C13000   2.696   4.357  15.244  0.1022 -0.3104 -0.5745
  887MPD2    C113001   2.590   4.352  15.338  0.1198 -0.4428 -0.5924
  887MPD2    C213002   2.547   4.464  15.400 -0.0757  0.3104 -0.1089
  887MPD2    C313003   2.609   4.586  15.391 -0.0527  0.2290  0.0176
  887MPD2    C413004   2.718   4.593  15.304  0.1204 -0.4468 -0.3187
  887MPD2    C513005   2.755   4.482  15.224  0.5803  0.3191  0.3797
  887MPD2     H13006   2.467   4.454  15.472  1.5974 -1.3258  1.5211
  887MPD2    H113007   2.774   4.682  15.277 -2.4107  0.7474 -1.5343
  887MPD2    H213008   2.723   4.276  15.178  0.8057 -0.3525 -0.2255
  887MPD2    H313009   2.831   4.490  15.148  0.1119 -0.1582 -0.1371
  887MPD2     N13010   2.569   4.690  15.478 -0.0372  0.4341 -0.4545
  887MPD2    H513011   2.477   4.676  15.520 -0.0335  0.3131 -0.4871
  887MPD2    N113012   2.518   4.233  15.371 -0.6279 -0.1972  0.9015
  887MPD2    H713013   2.432   4.242  15.424 -1.2587 -2.0917  0.2350
  888MPD2     C13014   4.338   4.678  14.712 -0.1620 -0.7216  0.2094
  888MPD2    C113015   4.313   4.693  14.848 -0.5059  0.2163  0.2710
  888MPD2    C213016   4.371   0.080  14.921  0.1521 -0.3033  0.1088
  888MPD2    C313017   4.464   0.157  14.857 -0.0935 -0.2104 -0.7029
  888MPD2    C413018   4.484   0.148  14.723 -0.8084 -0.0821  0.3130
  888MPD2    C513019   4.422   0.047  14.654  0.1667 -0.2990  0.4775
  888MPD2     H13020   4.340   0.097  15.024 -2.7101 -1.1323 -0.6133
  888MPD2    H113021   4.545   0.219  14.667  0.6854 -2.0388 -0.5312
  888MPD2    H213022   4.285   4.607  14.650  0.9228  0.4057 -2.0324
  888MPD2    H313023   4.424   0.052  14.545 -1.5639 -1.6536  0.3911
  888MPD2     N13024   4.537   0.249  14.933  0.0454  0.7857  0.5236
  888MPD2    H513025   4.503   0.268  15.027  1.7564  0.9065  1.1204
  888MPD2    N113026   4.206   4.616  14.914  0.0542 -0.4135  0.5988
  888MPD2    H713027   4.186   4.635  15.012 -0.3364  2.1059  0.0472
  889MPD2     C13028   3.485   3.839  13.210  1.0936 -0.0175  0.4763
  889MPD2    C113029   3.617   3.843  13.178 -0.0644  0.1696 -0.1884
  889MPD2    C213030   3.674   3.971  13.201  0.4388 -0.4190 -1.2927
  889MPD2    C313031   3.606   4.072  13.283 -0.1496  0.2240 -0.6026
  889MPD2    C413032   3.471   4.055  13.307  0.4916  0.1022 -0.0662
  889MPD2    C513033   3.412   3.939  13.266 -0.2559 -0.3814 -0.1023
  889MPD2     H13034   3.782   3.981  13.195  0.5114  0.5050  1.5851
  889MPD2    H113035   3.403   4.125  13.356  2.0382  2.1654 -0.8741
  889MPD2    H213036   3.424   3.755  13.178 -1.2178  0.5856  3.2737
  889MPD2    H313037   3.303   3.935  13.266 -0.2813  0.2282  1.4358
  889MPD2     N13038   3.688   4.180  13.326  0.2783  0.1061 -0.2301
  889MPD2    H513039   3.782   4.171  13.289  0.4927  2.6237 -0.2518
  889MPD2    N113040   3.679   3.738  13.102  0.0486 -0.1312 -0.3515
  889MPD2    H713041   3.622   3.657  13.077 -0.3269  0.0380 -0.0356
  890MPD2     C13042   3.337   1.410  14.591  0.6316 -0.4363 -0.3251
  890MPD2    C113043   3.453   1.398  14.660  0.2909  0.2796 -0.2655
  890MPD2    C213044   3.443   1.340  14.782  0.0359  0.5392  0.0062
  890MPD2    C313045   3.320   1.295  14.824  0.4953  0.2375  0.2958
  890MPD2    C413046   3.203   1.310  14.749 -0.1116  0.0694 -0.8892
  890MPD2    C513047   3.214   1.371  14.633  0.4152  0.8243  0.0370
  890MPD2     H13048   3.523   1.310  14.848 -0.3206  0.0705  0.2323
  890MPD2    H113049   3.104   1.292  14.788 -1.1074  0.8258 -3.0942
  890MPD2    H213050   3.328   1.474  14.504  1.0249 -2.3848 -1.8098
  890MPD2    H313051   3.124   1.411  14.587  0.5490 -0.3045 -1.2069
  890MPD2     N13052   3.310   1.225  14.948 -0.4687  0.3454 -0.0726
  890MPD2    H513053   3.390   1.230  15.010 -0.9934  0.7233  0.5782
  890MPD2    N113054   3.567   1.460  14.603  0.0409 -0.3754 -1.1131
  890MPD2    H713055   3.555   1.499  14.510  0.7659 -2.7736 -2.1898
  891MPD2     C13056   1.490   4.593  15.977 -0.0747 -0.1089  0.3601
  891MPD2    C113057   1.411   4.652  16.075  0.5014 -0.0261 -0.0782
  891MPD2    C213058   1.462   4.674  16.204 -0.1419  0.0459  0.5773
  891MPD2    C313059   1.590   4.626  16.238 -0.2642 -0.1755 -0.4866
  891MPD2    C413060   1.677   4.586  16.131 -0.0274  0.5269 -0.0169
  891MPD2    C513061   1.621   4.564  16.005  0.1628  0.7117 -0.7850
  891MPD2     H13062   1.400   4.712  16.285 -0.4949  0.8614 -0.0726
  891MPD2    H113063   1.773   4.542  16.155 -0.8346 -1.3950 -0.3047
  891MPD2    H213064   1.434   4.552  15.893  1.4873  0.2464 -0.8510
  891MPD2    H313065   1.687   4.519  15.931 -0.4899 -0.0087 -0.9194
  891MPD2     N13066   1.633   4.630  16.369 -0.2585  0.2591  0.0852
  891MPD2    H513067   1.559   4.642  16.438 -0.0483 -0.8361  0.5037
  891MPD2    N113068   1.284   4.693  16.038  0.0601 -0.9826 -0.7071
  891MPD2    H713069   1.251   4.685  15.942  0.1319  0.5511 -0.8586
  892MPD2     C13070   2.482   0.770  14.947  0.5922  0.1619 -0.1670
  892MPD2    C113071   2.399   0.742  14.840 -0.7542 -0.2916  0.6603
  892MPD2    C213072   2.454   0.724  14.717  0.4449  0.6091 -0.3393
  892MPD2    C313073   2.595   0.711  14.698  0.2120 -0.4220  0.4514
  892MPD2    C413074   2.670   0.745  14.801 -0.0273  0.3179 -0.0982
  892MPD2    C513075   2.617   0.785  14.922  0.8873 -0.1488 -0.6069
  892MPD2     H13076   2.390   0.709  14.630 -0.3113  1.7508  0.0184
  892MPD2    H113077   2.777   0.751  14.788 -0.0685 -0.0508 -0.6635
  892MPD2    H213078   2.449   0.792  15.047 -3.0653  0.2901 -1.4259
  892MPD2    H313079   2.686   0.825  14.995 -0.7590  0.1920  0.7588
  892MPD2     N13080   2.654   0.656  14.579  0.2700  0.0109 -0.4938
  892MPD2    H513081   2.755   0.654  14.577  0.3230  0.8007  1.8996
  892MPD2    N113082   2.257   0.754  14.851 -0.4755  0.1671 -0.8141
  892MPD2    H713083   2.210   0.745  14.762  1.0536 -0.5890 -1.5361
  893MPD2     C13084   3.592   3.762   1.108  0.5231  0.4400  0.3112
  893MPD2    C113085   3.652   3.763   1.233  0.2045  0.4574 -0.6892
  893MPD2    C213086   3.583   3.693   1.334  0.1767  0.5348 -0.1131
  893MPD2    C313087   3.466   3.624   1.307 -0.9759  0.7578 -0.4226
  893MPD2    C413088   3.414   3.623   1.182 -0.2709 -0.5694 -0.2438
  893MPD2    C513089   3.480   3.690   1.087 -0.2174 -0.1557  0.0151
  893MPD2     H13090   3.624   3.687   1.434  2.8086 -0.0720 -1.2334
  893MPD2    H113091   3.315   3.584   1.159 -0.5064  0.5934 -1.1764
  893MPD2    H213092   3.622   3.821   1.021  1.6969  0.8370  0.9984
  893MPD2    H313093   3.439   3.692   0.986  0.5945  0.3035 -0.3087
  893MPD2     N13094   3.385   3.556   1.406  0.3305 -0.0064 -0.6538
  893MPD2    H513095   3.304   3.519   1.358 -0.4406  2.0009 -0.9192
  893MPD2    N113096   3.774   3.838   1.246  0.1321  0.1406  0.1954
  893MPD2    H713097   3.812   3.883   1.164 -0.2900 -2.6375 -1.5061
  894MPD2     C13098   1.880   1.567   0.632 -0.0104 -0.2134 -0.1483
  894MPD2    C113099   1.945   1.499   0.734  0.1547 -0.3147 -0.2605
  894MPD2    C213100   2.084   1.520   0.741 -0.1687 -0.0492 -0.3482
  894MPD2    C313101   2.151   1.624   0.677  0.1410  0.0104 -0.4366
  894MPD2    C413102   2.075   1.698   0.586 -0.6308  0.1764 -0.2181
  894MPD2    C513103   1.942   1.663   0.558 -0.3006 -0.0560 -0.0625
  894MPD2     H13104   2.131   1.454   0.814 -1.6202 -0.6303  0.0687
  894MPD2    H113105   2.115   1.781   0.529  2.4183  0.0912  1.8191
  894MPD2    H213106   1.777   1.547   0.608 -0.3455  0.5232  0.7046
  894MPD2    H313107   1.880   1.721   0.491 -2.3935  0.8987  2.7551
  894MPD2     N13108   2.279   1.670   0.724  0.3306  0.0703 -0.4622
  894MPD2    H513109   2.297   1.644   0.820 -1.0172 -1.3755 -0.5930
  894MPD2    N113110   1.879   1.401   0.814 -0.1321 -1.0648 -0.2214
  894MPD2    H713111   1.935   1.336   0.867 -1.5096 -1.3575  0.8883
  895MPD2     C13112   2.210   4.480  13.647 -0.0571  0.1556  0.3645
  895MPD2    C113113   2.092   4.477  13.584  0.2442  1.0916 -0.6275
  895MPD2    C213114   2.065   4.385  13.481 -0.4165 -0.2225 -0.4045
  895MPD2    C313115   2.133   4.268  13.479 -0.3038  0.0292 -0.0120
  895MPD2    C413116   2.246   4.268  13.555 -0.7849 -0.1204  0.1842
  895MPD2    C513117   2.292   4.372  13.635  0.8971 -0.4438 -0.2164
  895MPD2     H13118   1.977   4.382  13.417 -1.4747  0.0476  1.0386
  895MPD2    H113119   2.305   4.177  13.551  0.1820  0.5536 -0.9857
  895MPD2    H213120   2.237   4.551  13.724 -2.1425  1.1354  0.2067
  895MPD2    H313121   2.378   4.356  13.699 -1.9581 -1.7470  3.2702
  895MPD2     N13122   2.084   4.159  13.402 -0.3085  0.0352 -0.0018
  895MPD2    H513123   2.002   4.173  13.344 -0.0471  1.3957 -0.0560
  895MPD2    N113124   2.002   4.591  13.587  0.1993  0.1139 -0.0908
  895MPD2    H713125   1.923   4.592  13.524 -1.6700  0.6848  2.2944
  896MPD2     C13126   3.942   2.912   1.695 -0.1854  0.1687 -0.0887
  896MPD2    C113127   3.973   2.841   1.580 -0.5118  0.7501  0.3342
  896MPD2    C213128   3.881   2.770   1.509  0.1206  0.0042  0.4463
  896MPD2    C313129   3.746   2.780   1.548  0.3314 -0.5763  0.1574
  896MPD2    C413130   3.715   2.858   1.662  0.3123 -0.3662  0.5181
  896MPD2    C513131   3.816   2.921   1.729 -0.1083  0.4024 -0.2722
  896MPD2     H13132   3.909   2.713   1.421  0.4521 -2.0935  1.9188
  896MPD2    H113133   3.616   2.878   1.700 -0.0977  0.1798 -0.8606
  896MPD2    H213134   4.021   2.950   1.760 -0.3018  1.1490 -0.5250
  896MPD2    H313135   3.795   2.984   1.815  1.3817  0.0383  0.3692
  896MPD2     N13136   3.647   2.713   1.471 -0.0464 -0.3290 -0.3971
  896MPD2    H513137   3.672   2.687   1.376  1.2785 -0.8328  0.0959
  896MPD2    N113138   4.108   2.860   1.543  0.3228  0.0834 -0.0156
  896MPD2    H713139   4.162   2.928   1.594 -0.7582 -1.7589  3.5867
  897MPD2     C13140   0.257   3.508  10.415  0.1214 -0.0708  0.3640
  897MPD2    C113141   0.215   3.634  10.412  0.2780 -0.0226  0.0680
  897MPD2    C213142   0.161   3.692  10.522  0.4504 -0.3557 -0.5454
  897MPD2    C313143   0.164   3.615  10.639  0.0918 -0.1388  0.9057
  897MPD2    C413144   0.200   3.480  10.642  0.4551 -0.2133 -0.3801
  897MPD2    C513145   0.249   3.428  10.523 -0.5003  0.0416 -0.6383
  897MPD2     H13146   0.131   3.796  10.530  1.2193  0.1551 -4.6323
  897MPD2    H113147   0.202   3.413  10.727  1.3342 -1.2702 -1.2297
  897MPD2    H213148   0.282   3.461  10.320  0.3931 -0.6948  0.7436
  897MPD2    H313149   0.272   3.324  10.538  0.4668  0.3403 -0.0547
  897MPD2     N13150   0.116   3.681  10.755  0.1687 -0.5172  0.1411
  897MPD2    H513151   0.083   3.776  10.756 -0.7412 -0.8273 -0.5679
  897MPD2    N113152   0.217   3.706  10.284 -0.0524 -0.1558  0.4726
  897MPD2    H713153   0.264   3.664  10.205 -2.4109 -1.7065 -0.1016
  898MPD2     C13154   2.565   4.610  17.247 -0.1545  0.0820  0.4279
  898MPD2    C113155   2.559   0.004  17.313  0.2441 -0.3106 -0.0083
  898MPD2    C213156   2.503   0.117  17.257 -0.1988  0.6754  0.4950
  898MPD2    C313157   2.477   0.115  17.124  0.1278  0.5490  0.4152
  898MPD2    C413158   2.475   4.721  17.063  0.6147  0.2110  0.7045
  898MPD2    C513159   2.509   4.606  17.124 -0.1905 -0.0134  0.3887
  898MPD2     H13160   2.488   0.206  17.317  0.7934  1.1442  0.0423
  898MPD2    H113161   2.456   4.711  16.957 -0.2331 -1.1100  0.9754
  898MPD2    H213162   2.603   4.514  17.280  0.7675  0.2138 -0.2340
  898MPD2    H313163   2.504   4.515  17.065 -0.5209  0.6430 -0.5936
  898MPD2     N13164   2.434   0.237  17.066 -0.3178 -0.5585  0.0486
  898MPD2    H513165   2.434   0.323  17.119  2.1420 -0.5743  0.0723
  898MPD2    N113166   2.604   0.011  17.446 -0.3245  0.2918  0.2445
  898MPD2    H713167   2.620   0.105  17.481  0.8444 -0.0485  0.6232
  899MPD2     C13168   3.487   0.838   0.049  0.6765  0.2140 -0.0772
  899MPD2    C113169   3.371   0.914   0.034 -0.5807  0.1713  0.1383
  899MPD2    C213170   3.285   0.914   0.144 -0.3467 -0.8049  0.0329
  899MPD2    C313171   3.313   0.844   0.258 -0.1873 -0.1606 -0.1232
  899MPD2    C413172   3.429   0.770   0.272 -0.0155  0.0497 -0.2805
  899MPD2    C513173   3.514   0.770   0.164 -0.8770  0.8204  0.2806
  899MPD2     H13174   3.200   0.981   0.137  1.3143  1.3151  0.0503
  899MPD2    H113175   3.442   0.697   0.351 -1.7278  0.6657  0.5512
  899MPD2    H213176   3.559   0.844  17.662  1.2649 -0.9823  0.3555
  899MPD2    H313177   3.613   0.728   0.180 -1.5472 -0.6579  0.5969
  899MPD2     N13178   3.224   0.848   0.366  0.2435 -0.3320 -0.1601
  899MPD2    H513179   3.259   0.806   0.451  0.9405 -0.6579 -0.6060
  899MPD2    N113180   3.359   0.997  17.607  0.6971 -0.0722  0.0314
  899MPD2    H713181   3.432   0.998  17.537  0.9580 -0.5700  0.2981
  900MPD2     C13182   2.504   2.063  12.701 -0.2921 -0.4950  0.2428
  900MPD2    C113183   2.573   1.986  12.614 -0.1621  0.8533 -0.0206
  900MPD2    C213184   2.546   1.999  12.480  0.0671  0.2638 -0.2693
  900MPD2    C313185   2.458   2.102  12.440  0.7721  0.2784 -0.3461
  900MPD2    C413186   2.388   2.184  12.535 -0.1579  0.2140 -0.1575
  900MPD2    C513187   2.418   2.162  12.666  0.1555 -0.0787  0.0347
  900MPD2     H13188   2.597   1.929  12.415 -2.0330 -1.7136  0.2018
  900MPD2    H113189   2.300   2.240  12.508  1.4749  3.2408  0.8641
  900MPD2    H213190   2.527   2.052  12.806  0.1644  0.8226  0.2854
  900MPD2    H313191   2.366   2.213  12.747 -2.0020 -0.8875 -0.8383
  900MPD2     N13192   2.428   2.105  12.306 -0.3450  0.3508  0.1002
  900MPD2    H513193   2.475   2.033  12.252  1.9701  1.6096  0.4432
  900MPD2    N113194   2.682   1.905  12.654 -0.3568  0.4903  0.1154
  900MPD2    H713195   2.752   1.877  12.586  1.4753  0.1390  2.1640
  901MPD2     C13196   2.759   0.921  12.775 -0.0075 -0.0390 -1.0052
  901MPD2    C113197   2.885   0.959  12.746 -0.8196 -0.0946 -0.0025
  901MPD2    C213198   2.920   1.090  12.750  0.3423  0.4046  0.3203
  901MPD2    C313199   2.827   1.186  12.792 -0.7898 -0.3643  0.1597
  901MPD2    C413200   2.699   1.146  12.816 -0.8247 -0.3314 -1.0283
  901MPD2    C513201   2.662   1.015  12.806  0.4137  0.0068  1.0272
  901MPD2     H13202   3.016   1.127  12.715 -0.1595  1.1187 -0.3034
  901MPD2    H113203   2.622   1.215  12.849  1.1396  0.9576  0.8704
  901MPD2    H213204   2.728   0.817  12.765 -0.9579  0.2084 -0.6768
  901MPD2    H313205   2.560   0.988  12.831  0.2280 -0.3291 -0.0888
  901MPD2     N13206   2.869   1.319  12.812  0.1653 -0.4397 -0.6052
  901MPD2    H513207   2.966   1.336  12.785  0.3020  0.2208  0.3085
  901MPD2    N113208   2.969   0.857  12.681 -0.9112 -0.3109 -0.2339
  901MPD2    H713209   2.928   0.768  12.655  1.3884 -1.5162  0.2844
  902MPD2     C13210   2.506   0.002  12.488  0.0987  0.0438 -0.4809
  902MPD2    C113211   2.391   4.694  12.563  0.4372  0.4678  0.4784
  902MPD2    C213212   2.331   4.571  12.531 -0.7066 -0.4484  0.1916
  902MPD2    C313213   2.376   4.489  12.435  0.3376  0.1676 -0.8702
  902MPD2    C413214   2.498   4.520  12.370 -0.7191  0.7397 -0.5446
  902MPD2    C513215   2.559   4.643  12.398 -0.3689 -0.3169 -0.4264
  902MPD2     H13216   2.239   4.551  12.584 -1.4332 -0.1695 -0.9635
  902MPD2    H113217   2.553   4.454  12.305 -0.9692 -1.8309  1.8845
  902MPD2    H213218   2.562   0.093  12.509  0.7860 -0.1561 -1.4404
  902MPD2    H313219   2.647   4.675  12.344 -0.9356 -1.9949 -2.3420
  902MPD2     N13220   2.326   4.358  12.420  0.1477 -0.1653 -0.2779
  902MPD2    H513221   2.371   4.297  12.352 -0.4420 -0.5808 -0.2999
  902MPD2    N113222   2.338   0.070  12.650  0.2370 -0.1547  0.2835
  902MPD2    H713223   2.387   0.158  12.652  2.2216 -1.1948 -1.9272
  903MPD2     C13224   1.557   3.935  12.185  0.3512  0.2395  1.0571
  903MPD2    C113225   1.604   4.045  12.256  0.1272 -0.0110 -0.1252
  903MPD2    C213226   1.536   4.170  12.236 -0.5243 -0.0625  0.4032
  903MPD2    C313227   1.432   4.188  12.144 -0.2560 -0.4105 -0.4337
  903MPD2    C413228   1.400   4.072  12.072  0.1252 -0.1983  0.3042
  903MPD2    C513229   1.453   3.949  12.098 -0.2092  0.3978  0.0193
  903MPD2     H13230   1.573   4.256  12.291  1.9173  0.0395 -1.3847
  903MPD2    H113231   1.317   4.073  12.003 -0.0250  2.9294  0.5157
  903MPD2    H213232   1.596   3.834  12.192 -1.2817 -0.3436  1.8627
  903MPD2    H313233   1.413   3.872  12.032 -1.5426  0.0404  1.2587
  903MPD2     N13234   1.368   4.314  12.135 -0.2474 -0.1217 -0.6128
  903MPD2    H513235   1.393   4.383  12.205  0.3565  1.4588 -2.3825
  903MPD2    N113236   1.730   4.019  12.314 -0.2327 -0.4571 -0.1494
  903MPD2    H713237   1.768   3.927  12.292  2.3304  0.8829 -1.1837
  904MPD2     C13238   1.406   3.699  14.102 -0.6108 -0.2964  0.2173
  904MPD2    C113239   1.398   3.778  13.990 -0.2700 -0.2175  0.6011
  904MPD2    C213240   1.512   3.798  13.923  0.5724  0.3712 -0.2301
  904MPD2    C313241   1.634   3.768  13.970  0.2844  0.2110  0.3934
  904MPD2    C413242   1.636   3.693  14.078 -0.4954  0.3989 -0.2046
  904MPD2    C513243   1.527   3.670  14.156 -1.0698 -0.3933  0.0472
  904MPD2     H13244   1.513   3.851  13.828  0.0551  0.1188 -0.3737
  904MPD2    H113245   1.736   3.675  14.115 -0.6258  0.5901  0.2522
  904MPD2    H213246   1.318   3.681  14.163  0.0229 -0.1734  1.1668
  904MPD2    H313247   1.533   3.620  14.253 -0.8095 -2.5500 -1.0790
  904MPD2     N13248   1.755   3.810  13.902 -0.2800 -0.2783 -0.0824
  904MPD2    H513249   1.737   3.878  13.829 -1.1948  1.5980  1.8980
  904MPD2    N113250   1.275   3.827  13.946  0.8579 -0.6845 -0.2730
  904MPD2    H713251   1.209   3.832  14.023  0.7471  1.3034 -0.5031
  905MPD2     C13252   1.233   4.188  13.303  0.0386 -0.3221 -0.2369
  905MPD2    C113253   1.268   4.109  13.411 -0.0317 -0.0323 -0.0388
  905MPD2    C213254   1.385   4.038  13.403 -0.0864  0.7191  0.2481
  905MPD2    C313255   1.476   4.056  13.298 -0.0142  0.5979 -0.4157
  905MPD2    C413256   1.445   4.143  13.194  0.2885 -0.3918 -0.2290
  905MPD2    C513257   1.321   4.207  13.199  0.3551  0.0172 -0.7158
  905MPD2     H13258   1.409   3.961  13.475 -0.4864  0.2750 -0.0978
  905MPD2    H113259   1.507   4.141  13.105 -0.2087 -2.5070 -0.5177
  905MPD2    H213260   1.132   4.230  13.302  0.2580  0.1730 -1.2683
  905MPD2    H313261   1.300   4.274  13.116 -0.3577 -0.8457 -1.2307
  905MPD2     N13262   1.592   3.986  13.305 -0.1281  0.1345 -0.5380
  905MPD2    H513263   1.600   3.924  13.385 -1.6082  0.0879 -0.4325
  905MPD2    N113264   1.181   4.084  13.526  0.2167  0.5533 -0.1800
  905MPD2    H713265   1.226   4.025  13.596 -0.0479  1.9124  1.1448
  906MPD2     C13266   3.530   3.431  11.667 -0.0804 -0.4779  0.1170
  906MPD2    C113267   3.482   3.428  11.537 -0.1553  0.4828 -0.4979
  906MPD2    C213268   3.363   3.364  11.518 -0.0319  0.0251  0.2299
  906MPD2    C313269   3.294   3.300  11.621  0.2818 -0.0478  0.3103
  906MPD2    C413270   3.338   3.315  11.751  0.5126 -0.1798  0.0388
  906MPD2    C513271   3.461   3.366  11.769  0.9069 -0.1679 -0.0565
  906MPD2     H13272   3.333   3.361  11.414 -0.1765  4.2857  0.1463
  906MPD2    H113273   3.281   3.259  11.824 -1.3339 -1.2761 -2.2562
  906MPD2    H213274   3.620   3.486  11.690  0.5674 -0.7333 -1.8004
  906MPD2    H313275   3.499   3.372  11.871  1.4512  0.0609 -0.2732
  906MPD2     N13276   3.182   3.210  11.596  0.5604 -0.1183 -0.3031
  906MPD2    H513277   3.127   3.181  11.675 -3.1469  0.9518 -2.5022
  906MPD2    N113278   3.556   3.482  11.425  1.0108 -0.5325  0.1550
  906MPD2    H713279   3.529   3.457  11.331 -0.0574  0.1419  0.2853
  907MPD2     C13280   2.347   3.123  15.883  0.1549 -0.1965 -0.8008
  907MPD2    C113281   2.463   3.056  15.834  0.4616  1.0251  0.3709
  907MPD2    C213282   2.577   3.046  15.916  0.3512  0.6331 -0.4358
  907MPD2    C313283   2.576   3.092  16.043  0.4557 -0.3813  0.1022
  907MPD2    C413284   2.462   3.155  16.086 -0.5492  0.6146  0.1832
  907MPD2    C513285   2.347   3.158  16.012  0.9492 -0.2472 -0.1973
  907MPD2     H13286   2.665   2.995  15.878  0.0565 -0.8971  0.9441
  907MPD2    H113287   2.464   3.186  16.190 -0.7462 -0.2899  0.4620
  907MPD2    H213288   2.252   3.118  15.832 -1.2870  0.9928  1.7878
  907MPD2    H313289   2.263   3.211  16.056  1.8199  0.8808  0.1201
  907MPD2     N13290   2.693   3.086  16.127 -0.1342 -0.1472  0.1821
  907MPD2    H513291   2.779   3.052  16.086  0.1977 -0.0181  0.7752
  907MPD2    N113292   2.465   2.999  15.706 -0.2225  0.2148  0.2385
  907MPD2    H713293   2.553   2.951  15.690 -0.9208 -0.1296 -2.6208
  908MPD2     C13294   4.391   3.354   9.744 -0.4827  0.0340  0.3861
  908MPD2    C113295   4.526   3.321   9.762 -0.6586 -0.2546  0.3888
  908MPD2    C213296   4.622   3.420   9.790  0.8681 -0.0350 -0.0529
  908MPD2    C313297   4.578   3.554   9.800  0.1390  0.6923 -0.0090
  908MPD2    C413298   4.441   3.584   9.796 -0.2580 -0.1508  0.0088
  908MPD2    C513299   4.356   3.483   9.775  0.1444 -0.6312 -0.4711
  908MPD2     H13300   0.001   3.392   9.814  0.6367  0.4318  1.4906
  908MPD2    H113301   4.411   3.687   9.811 -2.2000 -0.7934  0.4970
  908MPD2    H213302   4.315   3.281   9.719 -0.2166 -0.0731 -0.0901
  908MPD2    H313303   4.249   3.501   9.774  0.3026  0.5131  1.9667
  908MPD2     N13304   4.671   3.653   9.845 -0.0575 -0.4085 -0.4252
  908MPD2    H513305   0.047   3.629   9.849 -0.9854 -3.8154  2.1938
  908MPD2    N113306   4.575   3.187   9.748 -0.2858  0.2751  0.1679
  908MPD2    H713307   4.676   3.186   9.739 -0.4051  1.8596 -1.4745
  909MPD2     C13308   0.887   1.464  11.558 -0.0551  0.6960  0.5364
  909MPD2    C113309   0.845   1.587  11.504  0.2648 -0.0559 -0.4372
  909MPD2    C213310   0.752   1.670  11.575  0.3503  0.4020 -0.1721
  909MPD2    C313311   0.708   1.618  11.694 -0.4589 -0.0423  0.3078
  909MPD2    C413312   0.766   1.510  11.753 -0.5679 -0.1221 -0.3516
  909MPD2    C513313   0.842   1.426  11.682  0.2667  0.5091  0.5259
  909MPD2     H13314   0.715   1.761  11.528  0.2155  0.5700  0.2626
  909MPD2    H113315   0.737   1.468  11.848 -0.6898  1.0603  0.1315
  909MPD2    H213316   0.965   1.409  11.507  0.9388  1.2639  1.4348
  909MPD2    H313317   0.867   1.325  11.715  1.1120  0.2163 -1.0185
  909MPD2     N13318   0.605   1.700  11.748  0.4363 -0.0565 -0.1039
  909MPD2    H513319   0.578   1.784  11.699  1.1174  0.0588 -0.2909
  909MPD2    N113320   0.883   1.633  11.376 -0.4840 -0.1488  0.1624
  909MPD2    H713321   0.854   1.731  11.371  1.7878  0.4627 -0.6764
  910MPD2     C13322   1.852   3.643  15.865  0.0049 -0.3123 -0.4323
  910MPD2    C113323   1.986   3.597  15.866  0.3340 -0.1281  0.5074
  910MPD2    C213324   2.053   3.590  15.746  0.1173 -0.1250 -0.2423
  910MPD2    C313325   1.986   3.618  15.632  0.9473 -0.1451  0.3460
  910MPD2    C413326   1.851   3.652  15.630 -0.0466  0.1388 -0.5214
  910MPD2    C513327   1.790   3.680  15.750 -0.3527  0.4471 -0.1080
  910MPD2     H13328   2.158   3.565  15.746 -0.6066 -3.1633  0.1407
  910MPD2    H113329   1.792   3.659  15.539  0.1326 -2.6964 -0.8643
  910MPD2    H213330   1.789   3.645  15.954  1.5375  1.7708  0.5911
  910MPD2    H313331   1.688   3.716  15.753  0.0290  1.5469 -0.5162
  910MPD2     N13332   2.044   3.598  15.499 -0.5361  0.1597  0.3820
  910MPD2    H513333   1.990   3.602  15.414  0.6218 -0.2425 -0.3735
  910MPD2    N113334   2.053   3.547  15.984  0.1106 -0.3726  0.0224
  910MPD2    H713335   2.139   3.496  15.971  0.2746 -0.4541  1.4482
  911MPD2     C13336   4.232   4.190  16.069 -0.4472  0.3129  0.0340
  911MPD2    C113337   4.315   4.298  16.061  0.3173  0.8403 -0.2519
  911MPD2    C213338   4.264   4.425  16.042 -0.1245  0.8497  0.0473
  911MPD2    C313339   4.122   4.431  16.026 -0.4647  0.1668  0.0355
  911MPD2    C413340   4.040   4.318  16.032 -1.0474  0.0098  0.4176
  911MPD2    C513341   4.097   4.196  16.055  0.4498  0.5114  0.4005
  911MPD2     H13342   4.318   4.519  16.045 -0.5087  1.0683  0.1967
  911MPD2    H113343   3.932   4.316  16.035 -1.0754 -0.1463 -0.7404
  911MPD2    H213344   4.268   4.090  16.086  1.7475  1.2852  1.0556
  911MPD2    H313345   4.038   4.106  16.067 -0.6502  0.6919 -3.5012
  911MPD2     N13346   4.042   4.548  16.021 -0.3422 -0.3742 -0.1165
  911MPD2    H513347   3.947   4.543  16.057 -0.1380 -0.5350  0.4083
  911MPD2    N113348   4.450   4.273  16.088  0.3134 -0.1295  0.5135
  911MPD2    H713349   4.464   4.174  16.105  3.0628  0.0539 -0.5897
  912MPD2     C13350   3.724   4.290  15.819 -0.3219 -0.1852 -0.1932
  912MPD2    C113351   3.679   4.382  15.911  0.0375  0.5278 -1.1155
  912MPD2    C213352   3.651   4.340  16.043  1.2743  0.4575 -0.3159
  912MPD2    C313353   3.673   4.211  16.082  1.1664 -0.1301  0.0791
  912MPD2    C413354   3.727   4.125  15.991  0.6576  0.0616 -0.1583
  912MPD2    C513355   3.743   4.160  15.857  0.3848 -0.2871  0.7601
  912MPD2     H13356   3.619   4.403  16.126 -1.0560  1.3274 -1.8746
  912MPD2    H113357   3.753   4.028  16.031  0.0341 -0.5550 -1.2491
  912MPD2    H213358   3.756   4.317  15.720 -0.0882 -0.9513 -0.3311
  912MPD2    H313359   3.786   4.092  15.784 -0.9182 -2.0239  1.6059
  912MPD2     N13360   3.675   4.179  16.225  0.3387  0.1422 -0.1360
  912MPD2    H513361   3.643   4.253  16.286  0.1049 -0.6823  0.7289
  912MPD2    N113362   3.681   4.518  15.869  0.2295  0.0277  0.0966
  912MPD2    H713363   3.726   4.536  15.779 -3.3289 -0.9206 -1.8829
  913MPD2     C13364   0.050   1.126   9.586 -0.0291  0.7999 -0.4892
  913MPD2    C113365   4.715   1.022   9.646 -0.2100 -0.1023  0.4716
  913MPD2    C213366   4.721   0.898   9.590 -0.3717 -0.9070  0.9781
  913MPD2    C313367   0.070   0.882   9.467 -0.4241  0.0047 -0.8389
  913MPD2    C413368   0.125   0.993   9.408 -0.0859  0.2727 -0.1602
  913MPD2    C513369   0.110   1.115   9.467  0.0898 -0.1346 -0.2055
  913MPD2     H13370   4.683   0.811   9.643 -0.3546 -1.1851  0.5320
  913MPD2    H113371   0.184   0.992   9.317 -1.6612 -0.2595 -1.1796
  913MPD2    H213372   0.056   1.224   9.632 -1.0800  1.0470 -0.8689
  913MPD2    H313373   0.148   1.199   9.410 -1.0698  0.3841 -0.2218
  913MPD2     N13374   0.088   0.747   9.410  0.5569  0.0361  0.3744
  913MPD2    H513375   0.146   0.741   9.327 -0.0115 -1.4260  0.0824
  913MPD2    N113376   4.663   1.038   9.786  0.1421  0.3222  0.0566
  913MPD2    H713377   4.708   1.108   9.843 -0.4959  1.5622 -0.9753
  914MPD2     C13378   2.795   0.661  11.881  0.7067 -0.2029  0.3049
  914MPD2    C113379   2.772   0.762  11.975  0.5201 -0.0070 -0.2535
  914MPD2    C213380   2.860   0.770  12.088 -0.2327 -0.2603  0.0150
  914MPD2    C313381   2.970   0.686  12.105  0.1359  0.6546  0.0398
  914MPD2    C413382   2.988   0.592  12.007  0.2054  0.0375 -0.0340
  914MPD2    C513383   2.908   0.587  11.894  0.1812  0.4410 -0.2712
  914MPD2     H13384   2.826   0.836  12.166  0.5389 -0.2028  0.3061
  914MPD2    H113385   3.075   0.527  12.009 -0.9371 -1.4253  2.1824
  914MPD2    H213386   2.729   0.656  11.794 -1.4465 -3.2052  2.1110
  914MPD2    H313387   2.952   0.523  11.818 -0.9173 -0.6820  0.0432
  914MPD2     N13388   3.048   0.701  12.222  0.4686  0.0682  0.6505
  914MPD2    H513389   3.033   0.786  12.274  1.1276  0.1068  0.7747
  914MPD2    N113390   2.650   0.830  11.968 -0.2955  0.3429  0.5176
  914MPD2    H713391   2.576   0.787  11.913  1.4526 -1.3093 -0.5373
  915MPD2     C13392   0.929   1.061  15.521 -0.9420 -0.1321  0.1490
  915MPD2    C113393   0.801   1.019  15.547 -0.3440  1.0466 -0.2090
  915MPD2    C213394   0.733   1.054  15.661  0.1191 -0.5546  0.7386
  915MPD2    C313395   0.796   1.140  15.756  0.5803  0.2340  0.0435
  915MPD2    C413396   0.924   1.180  15.735 -0.3412 -0.4518  0.3973
  915MPD2    C513397   0.993   1.138  15.622  0.2345 -0.6313  0.2795
  915MPD2     H13398   0.632   1.017  15.676  0.2338 -1.0349  0.2836
  915MPD2    H113399   0.977   1.232  15.814 -0.5341 -1.3730  1.1366
  915MPD2    H213400   0.984   1.046  15.428 -2.4431 -0.4237 -0.7021
  915MPD2    H313401   1.095   1.166  15.598  0.2989 -1.8492 -0.9081
  915MPD2     N13402   0.728   1.195  15.863  0.5530  0.2991  0.1980
  915MPD2    H513403   0.782   1.263  15.915 -1.5099  1.4620  0.8376
  915MPD2    N113404   0.734   0.955  15.441  0.2197 -0.2946 -0.3959
  915MPD2    H713405   0.788   0.945  15.355  0.4966  1.2978 -0.4031
  916MPD2     C13406   3.534   4.181  15.499 -0.3797  0.7154  1.4486
  916MPD2    C113407   3.505   4.084  15.586 -0.8545  0.6183 -0.6806
  916MPD2    C213408   3.527   3.956  15.547  0.2952 -0.1222 -0.7031
  916MPD2    C313409   3.592   3.920  15.432 -0.6601  0.2100 -0.0988
  916MPD2    C413410   3.623   4.022  15.342  0.3525  0.5373  0.0727
  916MPD2    C513411   3.602   4.154  15.381 -0.2401 -0.8639  0.2244
  916MPD2     H13412   3.488   3.871  15.602  2.0545  0.2171  1.0807
  916MPD2    H113413   3.661   3.997  15.243  0.3353 -2.1206  0.7349
  916MPD2    H213414   3.522   4.286  15.522  3.0556  1.6954 -1.1991
  916MPD2    H313415   3.629   4.231  15.309  0.5621 -1.2238  0.1512
  916MPD2     N13416   3.623   3.782  15.409  0.0574  0.3256  0.1517
  916MPD2    H513417   3.601   3.727  15.492 -2.1126  0.7445 -0.1418
  916MPD2    N113418   3.458   4.123  15.714  0.5785 -0.0979  0.2820
  916MPD2    H713419   3.449   4.222  15.731 -0.0232 -0.3580  1.5481
  917MPD2     C13420   3.963   1.630  10.776  0.0090 -0.3641  0.1991
  917MPD2    C113421   4.022   1.616  10.899  0.0731 -0.1021  0.6846
  917MPD2    C213422   4.157   1.624  10.897  0.0148 -0.1968 -0.0906
  917MPD2    C313423   4.240   1.660  10.795  0.1432 -0.0309  0.0246
  917MPD2    C413424   4.174   1.689  10.676  0.2312 -0.1380  0.1928
  917MPD2    C513425   4.039   1.665  10.665  0.5216 -0.5659 -0.2195
  917MPD2     H13426   4.204   1.605  10.993  0.8194 -0.0497 -0.4592
  917MPD2    H113427   4.230   1.710  10.585  1.7160  1.8056  1.5439
  917MPD2    H213428   3.857   1.612  10.760 -0.2061  1.6289 -0.6131
  917MPD2    H313429   3.997   1.666  10.565 -0.8003 -0.5280  0.3254
  917MPD2     N13430   4.379   1.664  10.808 -0.7984  0.3525  0.2240
  917MPD2    H513431   4.421   1.706  10.726 -0.2247  1.9499  1.3411
  917MPD2    N113432   3.941   1.586  11.005 -0.6950  0.7332  0.0080
  917MPD2    H713433   3.843   1.565  10.989 -0.6440  1.6065 -1.4895
  918MPD2     C13434   4.090   1.751  12.008 -0.2721 -0.5835  0.1935
  918MPD2    C113435   4.170   1.673  11.922 -0.1962 -0.1758 -0.3684
  918MPD2    C213436   4.119   1.631  11.799 -0.1327 -0.2421  1.0273
  918MPD2    C313437   3.989   1.662  11.762  0.4511 -0.5775 -0.0542
  918MPD2    C413438   3.911   1.736  11.849  0.2921  0.2854 -0.3925
  918MPD2    C513439   3.956   1.777  11.976 -0.0914 -0.5640 -0.1933
  918MPD2     H13440   4.177   1.588  11.718 -0.5641  0.6492  0.2435
  918MPD2    H113441   3.813   1.770  11.819 -0.7990 -2.2851  0.2329
  918MPD2    H213442   4.121   1.797  12.101 -0.6687 -0.3872  0.2300
  918MPD2    H313443   3.889   1.828  12.044 -0.3638 -0.8600 -0.2407
  918MPD2     N13444   3.949   1.627  11.633 -0.1773 -0.2232  0.9445
  918MPD2    H513445   4.020   1.601  11.565  1.2095  1.4927  1.7313
  918MPD2    N113446   4.306   1.646  11.951  0.4055 -0.2303  0.1413
  918MPD2    H713447   4.357   1.598  11.878  0.9574  1.7069 -0.7379
  919MPD2     C13448   4.639   0.349  11.384 -0.5029  0.3177 -0.1093
  919MPD2    C113449   4.612   0.244  11.297  0.5215 -0.6325  0.1306
  919MPD2    C213450   4.603   0.275  11.163  0.5578  0.1458  0.2002
  919MPD2    C313451   4.595   0.404  11.120  0.6683 -0.2835  0.2146
  919MPD2    C413452   4.625   0.506  11.208  0.7975 -0.1692 -0.1820
  919MPD2    C513453   4.661   0.476  11.337  0.0327 -0.5778 -0.3288
  919MPD2     H13454   4.573   0.196  11.095  0.5994 -0.8284  1.3080
  919MPD2    H113455   4.624   0.609  11.174  1.4683  0.3545  1.3643
  919MPD2    H213456   4.647   0.324  11.489 -0.0040 -1.5304 -0.5836
  919MPD2    H313457   4.696   0.558  11.399 -0.2212  1.0338 -2.3300
  919MPD2     N13458   4.547   0.434  10.988  0.7171 -0.1698  0.0277
  919MPD2    H513459   4.533   0.533  10.970  1.7613  0.2925  1.7528
  919MPD2    N113460   4.619   0.111  11.333 -0.0500 -0.7469  0.1605
  919MPD2    H713461   4.633   0.045  11.257  1.1589  0.7629 -0.9279
  920MPD2     C13462   4.455   1.145  10.296  0.1059 -0.4439 -0.8514
  920MPD2    C113463   4.368   1.044  10.250  0.3989  0.1421  0.1743
  920MPD2    C213464   4.349   0.923  10.320  0.9058  0.9233 -0.3881
  920MPD2    C313465   4.416   0.909  10.442 -0.4855  0.0150 -0.6875
  920MPD2    C413466   4.509   1.005  10.478  0.1011 -0.6030 -0.0660
  920MPD2    C513467   4.532   1.115  10.407  0.6086  0.5413  0.3513
  920MPD2     H13468   4.279   0.848  10.284 -0.7040  1.1178  2.3782
  920MPD2    H113469   4.562   0.989  10.571 -0.2202  0.4118  0.2891
  920MPD2    H213470   4.469   1.242  10.250 -2.3652  2.3846  4.2693
  920MPD2    H313471   4.610   1.183  10.437 -2.2578  3.8040  0.3643
  920MPD2     N13472   4.398   0.789  10.510 -0.2641  0.3940  0.2344
  920MPD2    H513473   4.329   0.730  10.465  0.4454 -1.7283  1.8540
  920MPD2    N113474   4.305   1.057  10.124  0.4181 -0.2654  0.3084
  920MPD2    H713475   4.241   0.984  10.094  1.7752 -0.2467 -2.5542
  921MPD2     C13476   0.535   0.031  16.442 -0.1927  0.8452 -0.2109
  921MPD2    C113477   0.558   4.680  16.327 -0.2129 -0.0147  0.7999
  921MPD2    C213478   0.474   4.576  16.290 -0.1361  0.0427 -0.1447
  921MPD2    C313479   0.357   4.558  16.368  0.4517  0.0469 -0.0353
  921MPD2    C413480   0.334   4.633  16.479  0.8205 -0.0949  0.0245
  921MPD2    C513481   0.427   0.005  16.519 -0.1329  0.0889 -0.0039
  921MPD2     H13482   0.490   4.513  16.203 -2.7160  0.7522 -1.1440
  921MPD2    H113483   0.246   4.635  16.542  0.1878 -3.0707 -0.7502
  921MPD2    H213484   0.598   0.113  16.474 -2.1065  2.7010 -1.2117
  921MPD2    H313485   0.409   0.067  16.606  0.3451  0.2483 -0.0224
  921MPD2     N13486   0.258   4.460  16.340  0.2889  0.3036  0.1148
  921MPD2    H513487   0.173   4.471  16.394  0.9734  1.7523  0.8847
  921MPD2    N113488   0.683   4.705  16.264  0.8102  0.2359 -0.0693
  921MPD2    H713489   0.721   0.076  16.255 -1.6171  1.1963 -0.3877
  922MPD2     C13490   1.420   2.038  17.619  0.2562  0.0832 -0.0114
  922MPD2    C113491   1.403   2.089  17.490 -0.7075 -0.5924  0.0465
  922MPD2    C213492   1.279   2.118  17.447 -0.6361  0.1803  0.0939
  922MPD2    C313493   1.172   2.114  17.537 -0.4049 -0.3406  0.2024
  922MPD2    C413494   1.190   2.075  17.674 -0.0743 -0.4247  0.4587
  922MPD2    C513495   1.322   2.034   0.019  0.5058  0.9089 -0.0630
  922MPD2     H13496   1.256   2.166  17.353  1.7064  0.5576 -0.2828
  922MPD2    H113497   1.118   2.067   0.060  0.6447  1.6681  1.3084
  922MPD2    H213498   1.511   1.989  17.652  0.7972  1.2433  0.2436
  922MPD2    H313499   1.354   2.004   0.118  2.2342  2.4000 -0.1947
  922MPD2     N13500   1.044   2.138  17.485 -0.3296  0.4290  0.1757
  922MPD2    H513501   1.042   2.154  17.385  0.0893  2.9351  0.5823
  922MPD2    N113502   1.503   2.089  17.384 -0.3368 -0.2811  0.2431
  922MPD2    H713503   1.478   2.120  17.290  0.9795  0.7585  0.2509
  923MPD2     C13504   3.415   0.100   8.436 -0.0235 -0.4528 -0.5746
  923MPD2    C113505   3.381   0.110   8.568  0.3917 -0.4283  0.1856
  923MPD2    C213506   3.415   0.007   8.650  0.4556 -0.6117  0.4571
  923MPD2    C313507   3.492   4.627   8.602  0.5892 -0.1181 -0.8776
  923MPD2    C413508   3.524   4.622   8.471  0.2559 -0.2734 -0.7298
  923MPD2    C513509   3.479   4.721   8.388  0.1963 -0.4248 -0.0865
  923MPD2     H13510   3.378   0.001   8.752 -0.0030 -0.9497  0.2751
  923MPD2    H113511   3.596   4.547   8.438  2.5412  1.4172  0.3900
  923MPD2    H213512   3.385   0.170   8.359  0.3562  0.1203 -0.1974
  923MPD2    H313513   3.519   0.008   8.287  0.2989  1.1916  0.1166
  923MPD2     N13514   3.537   4.520   8.676 -0.3353  0.2593 -0.9490
  923MPD2    H513515   3.551   4.430   8.630  1.0858  1.1978 -2.3402
  923MPD2    N113516   3.310   0.221   8.610 -0.2143 -0.0039 -0.1568
  923MPD2    H713517   3.298   0.294   8.541  1.7002  0.2401 -0.2382
  924MPD2     C13518   2.731   2.273  16.219 -0.1572  0.3168 -0.1548
  924MPD2    C113519   2.748   2.316  16.350 -0.3970  0.0950  0.1597
  924MPD2    C213520   2.792   2.445  16.373  0.6304 -0.3205 -0.3491
  924MPD2    C313521   2.813   2.534  16.266 -0.2390 -0.2712  0.3740
  924MPD2    C413522   2.796   2.489  16.135  0.3349  0.3929 -0.1877
  924MPD2    C513523   2.769   2.353  16.114 -0.0541 -0.0805  0.4924
  924MPD2     H13524   2.816   2.470  16.476  1.6111  1.6761 -1.0652
  924MPD2    H113525   2.809   2.552  16.047 -1.1750  1.9454  0.6816
  924MPD2    H213526   2.714   2.169  16.195 -2.0994  0.2779  1.3089
  924MPD2    H313527   2.767   2.306  16.016 -0.6046  1.8589 -0.4238
  924MPD2     N13528   2.870   2.661  16.276  0.3949  0.1157 -0.1441
  924MPD2    H513529   2.889   2.713  16.191 -0.1819  1.0955  0.3247
  924MPD2    N113530   2.737   2.221  16.454 -0.0499 -0.1360 -0.7168
  924MPD2    H713531   2.764   2.128  16.424  0.8547 -0.1463  0.1058
  925MPD2     C13532   1.758   0.169  14.730  0.0121 -0.0125  0.3352
  925MPD2    C113533   1.645   0.209  14.659 -0.1412  0.2467  0.2797
  925MPD2    C213534   1.517   0.187  14.726 -0.1530 -0.0744  0.3321
  925MPD2    C313535   1.512   0.147  14.859  0.1645  0.2735  0.5724
  925MPD2    C413536   1.628   0.105  14.921  0.6269  0.8063 -0.3812
  925MPD2    C513537   1.754   0.122  14.858  0.0720 -0.0507 -0.0552
  925MPD2     H13538   1.430   0.217  14.669  0.0413  1.3662  0.8078
  925MPD2    H113539   1.618   0.051  15.014  0.0146 -0.5034 -1.2073
  925MPD2    H213540   1.853   0.173  14.678  0.1883 -1.0363  0.5895
  925MPD2    H313541   1.845   0.091  14.907 -0.5835 -2.3137 -0.2806
  925MPD2     N13542   1.387   0.133  14.920  0.3845 -0.4357  0.2290
  925MPD2    H513543   1.377   0.086  15.010 -0.7909  1.3344  1.0189
  925MPD2    N113544   1.652   0.282  14.541 -0.0405  0.2408  0.1776
  925MPD2    H713545   1.563   0.321  14.514  0.7272  0.1961 -2.4257
  926MPD2     C13546   0.112   2.932  12.985  0.3859  0.3630  0.5995
  926MPD2    C113547   0.146   3.051  13.050 -0.3351 -0.6685 -0.3127
  926MPD2    C213548   0.231   3.131  12.978 -0.0377  0.0589  0.5208
  926MPD2    C313549   0.295   3.100  12.863  0.1745 -0.0956 -0.7587
  926MPD2    C413550   0.269   2.978  12.809  0.2801  0.3193 -0.2372
  926MPD2    C513551   0.186   2.892  12.881  0.2070 -0.1959 -0.0611
  926MPD2     H13552   0.267   3.217  13.033  1.1557 -1.5523  2.2549
  926MPD2    H113553   0.319   2.943  12.719  1.1883 -0.7901  0.7036
  926MPD2    H213554   0.040   2.866  13.033  1.3676 -0.2324  1.2279
  926MPD2    H313555   0.152   2.795  12.847 -1.0058  0.5579 -1.0040
  926MPD2     N13556   0.395   3.187  12.811 -0.2224 -0.2499  0.0371
  926MPD2    H513557   0.455   3.154  12.736  0.1955  0.6954 -0.0494
  926MPD2    N113558   0.096   3.088  13.177  0.3589 -0.1952  0.8795
  926MPD2    H713559   0.134   3.170  13.223  1.6699 -0.2767 -0.0514
  927MPD2     C13560   0.641   1.192   0.714 -0.1723 -0.2411  0.8465
  927MPD2    C113561   0.593   1.313   0.663 -0.4124 -0.9387 -0.4346
  927MPD2    C213562   0.550   1.315   0.529 -0.0005 -0.3101  0.6013
  927MPD2    C313563   0.564   1.199   0.451 -0.3976 -0.1096  0.4445
  927MPD2    C413564   0.624   1.093   0.505  0.5488 -0.1118  0.0778
  927MPD2    C513565   0.663   1.091   0.637 -0.1635  0.2859  0.0942
  927MPD2     H13566   0.508   1.406   0.489 -0.1551  0.4333  2.4582
  927MPD2    H113567   0.644   1.008   0.441 -2.0631  0.2142 -1.1821
  927MPD2    H213568   0.659   1.184   0.821 -1.4537 -0.6892  1.0317
  927MPD2    H313569   0.716   1.000   0.663 -0.4909 -0.1673 -0.8323
  927MPD2     N13570   0.522   1.211   0.313 -0.4315  0.3169 -0.1563
  927MPD2    H513571   0.480   1.298   0.284 -0.0806  0.6786  0.4375
  927MPD2    N113572   0.582   1.419   0.754  0.0920 -0.4033 -0.0612
  927MPD2    H713573   0.605   1.399   0.851  2.8051 -0.1948 -0.6631
  928MPD2     C13574   3.039   3.755   1.000 -0.0393 -0.8468 -0.0532
  928MPD2    C113575   3.133   3.853   1.033  0.9126 -0.4525  0.0365
  928MPD2    C213576   3.146   3.950   0.937  0.2276 -0.2039  0.6043
  928MPD2    C313577   3.084   3.956   0.815  0.3926  0.2941  0.9285
  928MPD2    C413578   3.005   3.848   0.782 -0.0681  0.8855 -0.1477
  928MPD2    C513579   2.981   3.752   0.878  0.2513 -0.2280 -0.3026
  928MPD2     H13580   3.215   4.033   0.950  0.0109 -0.1833  1.6171
  928MPD2    H113581   2.943   3.853   0.693 -0.7903  0.3765  0.3266
  928MPD2    H213582   3.001   3.675   1.064 -1.5850  0.5388  0.7508
  928MPD2    H313583   2.908   3.675   0.859  1.2241 -0.7586 -1.9149
  928MPD2     N13584   3.103   4.047   0.709 -0.2777 -0.6383  0.3763
  928MPD2    H513585   3.059   4.020   0.621  1.0435 -0.3779 -0.3661
  928MPD2    N113586   3.186   3.861   1.167  0.1797  0.1044  0.4344
  928MPD2    H713587   3.168   3.788   1.236  0.1059  0.0333  0.3395
  929MPD2     C13588   2.987   4.295   9.942  0.3762 -0.2993  0.2539
  929MPD2    C113589   2.894   4.206   9.894  1.2951  0.7166  0.4961
  929MPD2    C213590   2.797   4.249   9.802 -0.4335 -0.3218  0.3607
  929MPD2    C313591   2.793   4.388   9.769  0.2625 -0.2770  0.0300
  929MPD2    C413592   2.890   4.469   9.819  0.2115 -0.1194  0.3053
  929MPD2    C513593   2.992   4.422   9.897 -0.3288  0.0407 -0.4422
  929MPD2     H13594   2.710   4.185   9.790 -0.2799 -0.1144 -1.8605
  929MPD2    H113595   2.892   4.576   9.808 -1.6105 -0.1853 -0.6461
  929MPD2    H213596   3.066   4.256  10.005  2.4591  0.8076 -1.6634
  929MPD2    H313597   3.070   4.490   9.930  1.5022 -1.6899 -1.1825
  929MPD2     N13598   2.694   4.443   9.680  1.0200 -0.5674 -0.3694
  929MPD2    H513599   2.691   4.544   9.667 -0.1952 -0.2685  2.2186
  929MPD2    N113600   2.899   4.073   9.948 -0.1605 -0.2017  0.6970
  929MPD2    H713601   2.984   4.048   9.999 -0.4619  1.6270  2.1133
  930MPD2     C13602   4.396   1.642  14.363 -0.3149 -0.4715 -0.0734
  930MPD2    C113603   4.343   1.702  14.249  0.7536 -0.8778 -0.3709
  930MPD2    C213604   4.220   1.661  14.198 -0.4726  0.4540 -0.6171
  930MPD2    C313605   4.175   1.538  14.243 -0.0290  0.1141 -0.0181
  930MPD2    C413606   4.230   1.480  14.362  0.4065 -0.1908  0.0726
  930MPD2    C513607   4.334   1.539  14.427 -0.2071 -0.1117 -0.7177
  930MPD2     H13608   4.167   1.721  14.124  1.2994  1.6002 -0.9585
  930MPD2    H113609   4.187   1.389  14.403  0.4601 -0.2703 -0.0479
  930MPD2    H213610   4.486   1.674  14.415  0.4680 -1.0931 -1.0444
  930MPD2    H313611   4.377   1.496  14.518  1.0590  1.0121 -0.7853
  930MPD2     N13612   4.070   1.471  14.182  0.4705  0.5263 -0.0864
  930MPD2    H513613   4.022   1.399  14.234 -0.6475 -1.3697 -3.7703
  930MPD2    N113614   4.416   1.815  14.204 -0.2954 -0.0268  0.0848
  930MPD2    H713615   4.511   1.822  14.237 -0.5060 -1.1253  0.8844
  931MPD2     C13616   4.661   1.772   1.137  0.8078  0.0454 -0.1873
  931MPD2    C113617   0.042   1.677   1.157 -0.2516  0.0317 -0.7699
  931MPD2    C213618   0.018   1.564   1.223  0.8163  0.7662  0.0119
  931MPD2    C313619   4.617   1.549   1.286 -0.7669  0.1709  1.2250
  931MPD2    C413620   4.512   1.637   1.264  0.1497  0.0963 -0.0918
  931MPD2    C513621   4.530   1.741   1.178  0.0411  0.5863  0.1753
  931MPD2     H13622   0.099   1.498   1.253  1.1363  0.2548 -1.9824
  931MPD2    H113623   4.414   1.628   1.309 -0.3374 -0.0593 -1.1690
  931MPD2    H213624   4.685   1.867   1.090  1.0264  0.4437  0.7278
  931MPD2    H313625   4.453   1.816   1.188  0.0633  0.8915 -1.9926
  931MPD2     N13626   4.592   1.445   1.375  0.1125  0.1720  0.1970
  931MPD2    H513627   4.502   1.442   1.422  0.3889  1.7528  0.8331
  931MPD2    N113628   0.170   1.714   1.117  0.4534 -0.1173  0.0088
  931MPD2    H713629   0.178   1.803   1.069  1.2943  0.7935  1.8621
  932MPD2     C13630   1.101   4.426  11.242 -0.2476 -0.0530 -0.2354
  932MPD2    C113631   1.212   4.476  11.307 -0.0836  0.5470 -0.4821
  932MPD2    C213632   1.331   4.404  11.308 -0.1053 -0.2672 -1.2394
  932MPD2    C313633   1.343   4.287  11.241  0.5988 -0.9023  0.2629
  932MPD2    C413634   1.231   4.240  11.175  0.0138 -0.0460  0.2611
  932MPD2    C513635   1.108   4.302  11.178  0.3487  0.5319  0.5639
  932MPD2     H13636   1.414   4.467  11.337  0.2453 -0.2169 -2.3627
  932MPD2    H113637   1.237   4.143  11.127  0.1773  0.1993 -0.2157
  932MPD2    H213638   1.005   4.477  11.242 -0.5238 -0.5666  0.3762
  932MPD2    H313639   1.017   4.259  11.137  0.5673 -0.0739  0.7064
  932MPD2     N13640   1.460   4.210  11.217 -0.5332  0.2998  0.3263
  932MPD2    H513641   1.447   4.126  11.162  1.4485 -0.5460  1.1661
  932MPD2    N113642   1.213   4.613  11.357 -0.5582  0.8973  0.2446
  932MPD2    H713643   1.304   4.645  11.391  0.2338 -1.1107  0.0152
  933MPD2     C13644   3.075   3.616   1.946  0.4397  0.2778 -0.2386
  933MPD2    C113645   3.041   3.667   1.822 -0.5476  0.6966 -0.7265
  933MPD2    C213646   2.930   3.606   1.759 -0.6072 -0.0523 -0.0276
  933MPD2    C313647   2.854   3.508   1.820 -0.0037  0.4512  0.2437
  933MPD2    C413648   2.895   3.454   1.938  0.4022 -0.3473 -0.5051
  933MPD2    C513649   3.005   3.510   1.993  0.6965  0.0529  0.0788
  933MPD2     H13650   2.897   3.642   1.663  1.8969 -2.1371 -1.6544
  933MPD2    H113651   2.843   3.375   1.990  0.3835 -1.5879 -2.4179
  933MPD2    H213652   3.165   3.656   1.992  0.5288  0.8105 -0.8668
  933MPD2    H313653   3.031   3.480   2.094 -1.3146  3.0374  1.5261
  933MPD2     N13654   2.740   3.471   1.755  0.0576 -0.5679  0.2799
  933MPD2    H513655   2.728   3.506   1.661 -0.7878 -1.6099  0.0029
  933MPD2    N113656   3.127   3.756   1.757  0.3814  1.0333 -0.5144
  933MPD2    H713657   3.223   3.761   1.790  0.3201  0.7618 -0.2897
  934MPD2     C13658   3.305   2.579   1.761 -0.2107  0.0312 -0.3451
  934MPD2    C113659   3.422   2.514   1.805 -0.4230  0.1825 -0.7787
  934MPD2    C213660   3.438   2.376   1.767 -0.0864 -0.0319 -0.2187
  934MPD2    C313661   3.335   2.307   1.695  0.2708 -0.0450 -0.0567
  934MPD2    C413662   3.214   2.373   1.676  1.0830  0.0029 -0.2788
  934MPD2    C513663   3.204   2.510   1.705  0.5744 -0.3170 -0.4230
  934MPD2     H13664   3.535   2.335   1.794 -0.7150 -0.8786  0.7634
  934MPD2    H113665   3.139   2.336   1.607 -0.9627 -0.1905  2.0323
  934MPD2    H213666   3.276   2.683   1.773  2.0067  0.6052 -0.1257
  934MPD2    H313667   3.117   2.561   1.665  0.5195  0.1775  0.3270
  934MPD2     N13668   3.343   2.179   1.642 -0.9441 -0.1537 -0.3679
  934MPD2    H513669   3.255   2.140   1.610 -0.7959 -1.1316  0.4105
  934MPD2    N113670   3.530   2.582   1.876 -0.5152 -0.2699 -0.4967
  934MPD2    H713671   3.614   2.530   1.898 -0.6310 -0.9625 -1.6883
  935MPD2     C13672   4.104   1.537   1.380  0.2985 -0.4265  0.2980
  935MPD2    C113673   3.980   1.481   1.352  0.1258  0.0560 -0.4597
  935MPD2    C213674   3.869   1.565   1.383 -0.6176  1.0628  0.1580
  935MPD2    C313675   3.884   1.694   1.430 -0.0440  0.2881 -0.9270
  935MPD2    C413676   4.001   1.731   1.489 -0.1030 -0.5371  0.3764
  935MPD2    C513677   4.111   1.653   1.457  0.1694  0.6114  0.4384
  935MPD2     H13678   3.771   1.524   1.365  0.1779 -0.3071 -1.1080
  935MPD2    H113679   4.004   1.822   1.548  1.7582 -0.1947 -0.2604
  935MPD2    H213680   4.192   1.481   1.353 -0.1215 -0.3575 -1.2043
  935MPD2    H313681   4.208   1.695   1.480  1.7116 -1.8421 -1.6092
  935MPD2     N13682   3.779   1.782   1.440  0.5201  0.0200 -0.1451
  935MPD2    H513683   3.780   1.874   1.481 -1.4769  0.6334 -1.4663
  935MPD2    N113684   3.956   1.371   1.271 -0.0437 -0.2065  0.0960
  935MPD2    H713685   3.858   1.357   1.251  0.4069 -3.0727 -0.2110
  936MPD2     C13686   2.147   3.622  12.380  0.8626  0.0324  0.4194
  936MPD2    C113687   2.170   3.500  12.316 -0.1905  0.5174 -0.4801
  936MPD2    C213688   2.269   3.497  12.225 -0.3534 -0.2239  0.2055
  936MPD2    C313689   2.344   3.610  12.185 -0.8563  0.4188  0.1046
  936MPD2    C413690   2.323   3.726  12.246  0.0085  0.0517 -0.6353
  936MPD2    C513691   2.226   3.733  12.344  0.2641 -0.2349  0.2326
  936MPD2     H13692   2.291   3.397  12.189  2.2613 -1.1080  4.2752
  936MPD2    H113693   2.369   3.818  12.212 -0.5656  0.0910 -1.3141
  936MPD2    H213694   2.075   3.639  12.460 -0.1424 -1.5639 -0.1619
  936MPD2    H313695   2.220   3.827  12.398 -2.1799  0.1846 -0.7656
  936MPD2     N13696   2.456   3.596  12.105 -0.5409 -0.6883  0.0022
  936MPD2    H513697   2.533   3.661  12.116 -1.6259  0.2510  1.9953
  936MPD2    N113698   2.087   3.388  12.322 -0.1933 -0.9569 -0.5167
  936MPD2    H713699   2.106   3.318  12.251 -0.2368 -2.3304  0.8161
  937MPD2     C13700   4.684   4.247  10.969  0.1381  0.4014  0.1218
  937MPD2    C113701   0.018   4.355  11.034 -0.5859  0.8576  0.2171
  937MPD2    C213702   0.088   4.439  10.956  0.0230  0.2301 -0.3813
  937MPD2    C313703   0.116   4.417  10.822  0.2919  0.2776  0.3314
  937MPD2    C413704   0.073   4.299  10.760  0.3057  0.1696  0.2677
  937MPD2    C513705   0.001   4.216  10.843  0.1032  0.7169  0.3446
  937MPD2     H13706   0.128   4.525  11.009  0.6767 -0.7712  0.7554
  937MPD2    H113707   0.099   4.272  10.658  0.6025  2.3812 -0.2494
  937MPD2    H213708   4.626   4.166  11.012  0.6811 -0.3966 -0.6590
  937MPD2    H313709   4.680   4.124  10.805 -0.2278  1.3703 -0.8639
  937MPD2     N13710   0.189   4.510  10.741  0.2617  0.7964 -0.1664
  937MPD2    H513711   0.230   4.472  10.657  2.6294  0.4145  1.1505
  937MPD2    N113712   4.684   4.411  11.148  0.3807 -0.3568  0.1521
  937MPD2    H713713   4.696   4.512  11.158 -1.0001 -0.0269 -1.5817
  938MPD2     C13714   2.578   1.503   0.562  0.0025 -0.7160  0.4567
  938MPD2    C113715   2.660   1.434   0.640  0.6311  0.5869 -0.6736
  938MPD2    C213716   2.608   1.320   0.698  0.2418 -0.2907  0.3044
  938MPD2    C313717   2.473   1.286   0.683 -0.5888 -0.6095  0.0762
  938MPD2    C413718   2.396   1.357   0.591 -0.3592  0.0488  0.6938
  938MPD2    C513719   2.449   1.470   0.529 -1.1215 -0.5917 -0.2987
  938MPD2     H13720   2.676   1.252   0.748  1.5233  1.6137  1.1563
  938MPD2    H113721   2.291   1.334   0.581 -0.2079 -1.5302  2.6839
  938MPD2    H213722   2.619   1.591   0.515 -0.1838 -0.5830  0.5454
  938MPD2    H313723   2.390   1.531   0.463  1.1310  0.0071 -1.7433
  938MPD2     N13724   2.417   1.179   0.753 -0.0657 -0.0400  0.0955
  938MPD2    H513725   2.323   1.157   0.724 -0.6450 -0.8167  2.5905
  938MPD2    N113726   2.794   1.476   0.660  0.2824 -0.6103 -0.0104
  938MPD2    H713727   2.852   1.411   0.713  1.0253  0.8677  0.9944
  939MPD2     C13728   4.425   3.234   1.383 -0.1608  0.4354  0.4702
  939MPD2    C113729   4.303   3.201   1.328  0.2643  0.5733 -0.3618
  939MPD2    C213730   4.303   3.183   1.189 -0.2523  0.0194  0.9229
  939MPD2    C313731   4.416   3.205   1.112  1.0187  0.2207  0.0967
  939MPD2    C413732   4.534   3.235   1.177  0.8519  0.6355  0.1398
  939MPD2    C513733   4.538   3.251   1.309  0.3650 -0.0956  0.3862
  939MPD2     H13734   4.213   3.140   1.146  1.0062 -1.5911 -0.0726
  939MPD2    H113735   4.622   3.260   1.120  1.6277 -1.6880  0.3322
  939MPD2    H213736   4.411   3.256   1.488  3.0785 -3.8861  1.8184
  939MPD2    H313737   4.634   3.283   1.347  0.2489 -1.0374  1.4729
  939MPD2     N13738   4.400   3.184   0.973  0.7244  0.3224  0.4957
  939MPD2    H513739   4.307   3.149   0.954  2.2366 -2.5615 -1.6413
  939MPD2    N113740   4.195   3.186   1.417  0.4220  0.5843 -0.2519
  939MPD2    H713741   4.214   3.190   1.516 -1.0521  1.0045  0.0027
  940MPD2     C13742   2.328   2.835  12.920  0.1454  0.3765  0.3436
  940MPD2    C113743   2.453   2.792  12.957  0.1744  0.5309  0.0888
  940MPD2    C213744   2.520   2.699  12.878 -0.2024  0.4821  0.4762
  940MPD2    C313745   2.454   2.642  12.767  0.2182  0.3348 -0.6644
  940MPD2    C413746   2.320   2.684  12.740 -0.4438  0.4385 -0.3065
  940MPD2    C513747   2.256   2.782  12.814  0.4523 -0.1204 -0.0008
  940MPD2     H13748   2.620   2.665  12.903  0.0067  0.8704  0.1564
  940MPD2    H113749   2.268   2.632  12.660 -1.2822 -1.5862  1.5591
  940MPD2    H213750   2.284   2.917  12.976  0.9005  0.1345  1.2741
  940MPD2    H313751   2.152   2.809  12.797  0.7620 -0.1490 -2.0144
  940MPD2     N13752   2.516   2.547  12.679 -0.5786 -0.6031 -0.1869
  940MPD2    H513753   2.467   2.495  12.607  2.0530 -0.4955 -2.0464
  940MPD2    N113754   2.517   2.846  13.067  0.0618 -0.3559 -0.9023
  940MPD2    H713755   2.599   2.789  13.088 -0.0141 -0.4354 -0.8223
  941MPD2     C13756   2.586   2.567   9.246  0.2483 -0.3857  0.7892
  941MPD2    C113757   2.620   2.537   9.379  0.0731 -0.0663  0.0611
  941MPD2    C213758   2.564   2.433   9.453 -0.0548  0.0636 -0.0301
  941MPD2    C313759   2.473   2.350   9.389  0.0789 -0.0186  0.6544
  941MPD2    C413760   2.445   2.379   9.258 -0.3328  0.5129 -0.2702
  941MPD2    C513761   2.491   2.485   9.186 -0.1593  0.2606  0.4111
  941MPD2     H13762   2.568   2.424   9.561  1.5096  0.6904 -0.0222
  941MPD2    H113763   2.369   2.317   9.213  1.6643 -1.0687 -1.4272
  941MPD2    H213764   2.628   2.653   9.195 -0.8440 -0.1387  0.2995
  941MPD2    H313765   2.472   2.495   9.080 -0.6969 -0.0486  0.4759
  941MPD2     N13766   2.396   2.252   9.447 -0.2353 -0.5009  0.8818
  941MPD2    H513767   2.318   2.224   9.388 -1.8236  1.2563  2.1677
  941MPD2    N113768   2.712   2.623   9.447 -0.0323 -0.5061  0.7358
  941MPD2    H713769   2.720   2.598   9.545 -1.2612  1.0451  1.2343
  942MPD2     C13770   2.187   4.609   8.740 -0.0143 -0.0806 -0.1357
  942MPD2    C113771   2.306   4.670   8.699  0.2408  1.2266 -0.4844
  942MPD2    C213772   2.420   4.590   8.696  0.4834  0.0380  0.0055
  942MPD2    C313773   2.424   4.459   8.735 -0.1554  0.2322  0.5133
  942MPD2    C413774   2.304   4.402   8.766  0.1098 -0.0138  0.1755
  942MPD2    C513775   2.185   4.476   8.770  0.2141 -0.1252  0.0168
  942MPD2     H13776   2.511   4.644   8.672  1.1099 -0.9339  0.2078
  942MPD2    H113777   2.307   4.298   8.799 -1.5885 -0.2894 -0.5273
  942MPD2    H213778   2.089   4.655   8.729  0.2148  1.1002  2.7290
  942MPD2    H313779   2.095   4.427   8.805 -0.2272  3.4113  3.9287
  942MPD2     N13780   2.547   4.385   8.738 -0.8174  0.2467 -0.0473
  942MPD2    H513781   2.538   4.291   8.776  0.8639  0.4387  0.8629
  942MPD2    N113782   2.307   0.084   8.677 -0.7371  0.5136 -0.2877
  942MPD2    H713783   2.397   0.127   8.657 -1.1855  1.7581  0.3667
  943MPD2     C13784   1.034   1.104   9.313 -1.3641  0.2519  0.1234
  943MPD2    C113785   1.156   1.040   9.288  0.6076  0.0084 -0.4177
  943MPD2    C213786   1.265   1.108   9.240 -0.2218 -0.1334  0.4832
  943MPD2    C313787   1.247   1.244   9.215 -0.5659  0.1815 -1.0909
  943MPD2    C413788   1.127   1.303   9.235 -0.5270 -0.2958 -0.1998
  943MPD2    C513789   1.015   1.234   9.273 -0.5609  0.0567 -0.3390
  943MPD2     H13790   1.368   1.075   9.237 -0.2701 -0.1152 -1.2653
  943MPD2    H113791   1.113   1.408   9.213  2.0528 -0.1894 -1.3041
  943MPD2    H213792   0.946   1.048   9.343 -1.1762  0.3705  0.8980
  943MPD2    H313793   0.920   1.286   9.279 -1.1687 -0.8440 -2.2833
  943MPD2     N13794   1.346   1.327   9.154 -0.2659  0.1917  0.5770
  943MPD2    H513795   1.320   1.414   9.109  0.8611  0.2060 -0.0654
  943MPD2    N113796   1.151   0.903   9.316 -0.0733  0.6894 -0.3007
  943MPD2    H713797   1.061   0.868   9.349 -0.2697  3.1635  1.7355
  944MPD2     C13798   0.880   0.857  10.930 -0.3279 -0.2003 -1.0186
  944MPD2    C113799   0.757   0.902  10.875 -0.0380 -0.5295  0.5358
  944MPD2    C213800   0.680   0.991  10.941  0.4149 -0.5230 -0.4599
  944MPD2    C313801   0.705   1.042  11.065  0.3233  0.1108 -0.1366
  944MPD2    C413802   0.822   0.995  11.133  0.0284  0.0176  0.0026
  944MPD2    C513803   0.909   0.911  11.060 -0.3184 -0.1844  0.3945
  944MPD2     H13804   0.598   1.042  10.892 -0.1589 -0.2732  0.7652
  944MPD2    H113805   0.850   1.039  11.228 -0.7352 -1.8906  1.1111
  944MPD2    H213806   0.951   0.790  10.883  0.2209 -0.1032 -0.3197
  944MPD2    H313807   0.992   0.870  11.116 -1.4970 -0.5981  1.8463
  944MPD2     N13808   0.625   1.147  11.105  0.4211 -0.2974  0.0361
  944MPD2    H513809   0.554   1.179  11.040 -1.8378  1.4949  3.4162
  944MPD2    N113810   0.729   0.869  10.738  0.2934  0.3066 -0.5608
  944MPD2    H713811   0.801   0.820  10.687  0.7258 -0.7904  1.0765
    1TCq1    O113812   3.191   1.981  14.179  0.0392 -0.0924 -0.0553
    1TCq1    C113813   3.207   2.011  14.312 -0.9419  0.1129 -0.0398
    1TCq1    O213814   3.253   1.934  14.399 -0.4066 -0.1731  0.0232
    1TCq1    C213815   3.189   2.152  14.321  0.3040 -0.1518  0.3011
    1TCq1    C313816   3.069   2.207  14.285  0.5358 -0.6378  0.6157
    1TCq1    C413817   3.051   2.343  14.324  0.5524 -0.0620 -0.3634
    1TCq1    C513818   3.146   2.419  14.387 -0.2860  0.5253  0.4272
    1TCq1    C613819   3.265   2.357  14.409 -0.8184 -0.0050 -0.0359
    1TCq1    C713820   3.292   2.230  14.370 -0.2679  0.5954  0.1737
    1TCq1    C813821   3.372   2.423  14.484  0.2274 -0.4395  0.0074
    1TCq1    O413822   3.443   2.350  14.549  0.4120 -0.6897  0.4537
    1TCq1    C913823   2.919   2.395  14.294 -0.4519  0.1038 -0.4207
    1TCq1    O513824   2.896   2.515  14.312  0.3332  0.9375 -0.3724
    1TCq1    O613825   2.841   2.324  14.231 -0.1691 -0.2612 -0.9691
    1TCq1    H113826   3.154   2.052  14.123  1.9801 -0.1789 -1.4312
    1TCq1    H213827   2.986   2.156  14.237 -0.1274  0.8830  0.1257
    1TCq1    H313828   3.118   2.519  14.419 -0.4614  0.7310 -0.3803
    1TCq1    H413829   3.387   2.183  14.394  0.5833  2.2221  0.0314
    2MPD2     C13830   3.654   2.833  14.618  0.6072  0.7122 -0.0771
    2MPD2    C113831   3.563   2.872  14.526  0.0434  0.0230 -0.1788
    2MPD2    C213832   3.461   2.790  14.489 -0.3042 -0.5860 -0.1672
    2MPD2    C313833   3.463   2.653  14.523  0.1646 -0.2954 -0.0687
    2MPD2    C413834   3.573   2.619  14.601 -0.2431  0.9873 -0.1178
    2MPD2    C513835   3.663   2.703  14.657  0.4347 -0.3607 -0.2902
    2MPD2     H13836   3.388   2.824  14.417 -0.9827 -2.0460 -0.1758
    2MPD2    H113837   3.588   2.516  14.631  0.4850  0.7465 -1.3040
    2MPD2    H213838   3.725   2.900  14.665  0.3720  0.4172  0.7049
    2MPD2    H313839   3.738   2.659  14.721  0.3032 -0.5323 -0.2526
    2MPD2     N13840   3.367   2.561  14.478 -0.1341 -0.0494 -0.7903
    2MPD2    H513841   3.295   2.603  14.421 -1.0124  1.0118  1.0991
    2MPD2    N113842   3.585   3.005  14.484 -0.2207 -0.2308  0.0473
    2MPD2    H713843   3.656   3.062  14.529 -0.2127  0.0032 -0.2618
    3TMC2    C113844   3.593   3.191  14.334 -0.6379  0.2570 -0.1241
    3TMC2    C213845   3.622   3.298  14.413  0.1518  0.2517 -0.1526
    3TMC2    C313846   3.657   3.422  14.362  0.2138  0.3495 -0.5004
    3TMC2    C413847   3.609   3.204  14.201 -0.2024 -0.2099 -0.3824
    3TMC2    C513848   3.671   3.314  14.157  1.3957 -0.5644  0.0326
    3TMC2    C613849   3.690   3.428  14.229  0.8037 -0.3059  0.1113
    3TMC2     C13850   3.526   3.069  14.374  0.0281 -0.0707 -0.5707
    3TMC2     O13851   3.461   3.016  14.284  0.1276  0.0526 -0.5537
    3TMC2     H13852   3.587   3.295  14.516 -0.4949 -0.4351 -0.3896
    3TMC2    H113853   3.621   3.113  14.144 -1.1303 -1.0232  0.6987
    3TMC2    H213854   3.717   3.520  14.177  0.6684 -1.7841 -2.5393
    3TMC2    C713855   3.704   3.318  14.013 -0.0866 -0.0249  0.4809
    3TMC2    C813856   3.627   3.529  14.441 -0.0711  0.3393  0.7137
    3TMC2    O113857   3.784   3.407  13.977  0.0109  0.2081  0.8084
    3TMC2    O213858   3.534   3.527  14.522 -0.9040 -0.4432 -0.1573
    3TMC2    O513859   3.697   3.641  14.405  0.0769  0.0096 -0.2198
    3TMC2    H513860   3.776   3.622  14.350 -0.6733  2.5757 -2.2072
    4MPD2     C13861   2.558   3.677  13.138  0.1824  0.2754 -0.2228
    4MPD2    C113862   2.657   3.659  13.053  0.4813  0.1291 -0.0135
    4MPD2    C213863   2.758   3.569  13.075 -0.1589 -0.2569 -0.2322
    4MPD2    C313864   2.773   3.513  13.205  0.2068 -0.6345 -0.2433
    4MPD2    C413865   2.665   3.531  13.292 -0.2742  0.3249 -0.2337
    4MPD2    C513866   2.565   3.604  13.255  0.2852  0.6329  0.3973
    4MPD2     H13867   2.826   3.556  12.992  0.5648 -2.5909  0.7378
    4MPD2    H113868   2.673   3.485  13.389  1.2091 -0.9440 -0.9524
    4MPD2    H213869   2.481   3.751  13.117 -0.3411 -0.4905 -1.0076
    4MPD2    H313870   2.496   3.622  13.337 -0.3904 -0.9117  0.1704
    4MPD2     N13871   2.888   3.440  13.221  0.0708  0.2509 -0.4024
    4MPD2    H513872   2.962   3.469  13.159  0.7075 -1.5394 -0.4785
    4MPD2    N113873   2.624   3.703  12.923 -0.1894  0.1124 -0.0967
    4MPD2    H713874   2.548   3.769  12.911  0.0140  0.1505 -1.1942
    5TCq2    C113875   2.927   3.364  13.332  0.1206  0.0875  0.2046
    5TCq2    O213876   2.857   3.341  13.429  0.1642  0.0931 -0.0774
    5TCq2    C213877   3.039   3.273  13.314 -0.5664 -0.7912  0.4768
    5TCq2    C313878   3.075   3.233  13.191 -0.1572 -0.4961  0.6120
    5TCq2    C413879   3.185   3.160  13.174  0.3458  0.3008  0.6746
    5TCq2    C513880   3.256   3.114  13.285 -0.0946  0.2585  0.3849
    5TCq2    C613881   3.208   3.151  13.412  0.1191 -0.1668 -1.0788
    5TCq2    C713882   3.093   3.226  13.432  0.0592  0.5594  0.4595
    5TCq2    C813883   3.291   3.151  13.531 -0.2925  0.0456  0.2318
    5TCq2    O413884   3.242   3.187  13.638 -0.2297  0.0814 -0.4039
    5TCq2    C913885   3.242   3.146  13.043  0.1576  0.2713  0.6669
    5TCq2    O513886   3.362   3.111  13.035 -0.3370 -0.1045 -0.2727
    5TCq2    O613887   3.180   3.198  12.945  0.1302  0.2860  0.1019
    5TCq2    H213888   3.037   3.281  13.102 -2.3844 -2.9493  0.2322
    5TCq2    H313889   3.346   3.058  13.261 -1.2818 -1.1716 -0.7552
    5TCq2    H413890   3.056   3.265  13.526 -1.6605 -0.8838  0.3913
    6MPD1     C13891   2.252   0.506  13.396  0.1433  0.1522 -0.6445
    6MPD1    C113892   2.131   0.446  13.366 -0.3557  0.2953  0.4403
    6MPD1    C213893   2.143   0.318  13.314 -0.0969  0.2794  0.6091
    6MPD1    C313894   2.259   0.264  13.267  0.2034  0.7100 -0.1178
    6MPD1    C413895   2.372   0.341  13.293  1.0670 -0.1655  0.1406
    6MPD1    C513896   2.375   0.461  13.352  0.2190 -0.5092 -0.4456
    6MPD1     H13897   2.050   0.265  13.299  0.0088 -0.0106  0.9981
    6MPD1    H113898   2.469   0.299  13.266  0.8055 -0.5449 -0.2028
    6MPD1    H213899   2.250   0.600  13.451  2.0194 -0.8751  1.1734
    6MPD1    H313900   2.462   0.522  13.373  1.2205 -1.3369 -2.1872
    6MPD1     N13901   2.275   0.138  13.209 -0.2694 -0.1361  0.3408
    6MPD1    H513902   2.371   0.112  13.185 -0.3659 -1.4816  1.3994
    6MPD1    N113903   2.013   0.502  13.414  0.9879 -0.4537  0.0650
    6MPD1    H613904   2.026   0.603  13.422 -0.3971 -0.3624  1.1573
    6MPD1    H713905   1.928   0.488  13.359  1.6882  1.9114 -1.6477
    7MPD2     C13906   1.976   4.076  12.944 -0.0733  0.2465  0.3488
    7MPD2    C113907   2.070   4.132  12.865 -0.0667  0.1733 -0.2113
    7MPD2    C213908   2.156   4.062  12.788  0.6373  0.0011 -0.5979
    7MPD2    C313909   2.137   3.927  12.771  1.0978  0.1940  0.1007
    7MPD2    C413910   2.026   3.868  12.838 -0.6470 -0.0999  0.1443
    7MPD2    C513911   1.952   3.943  12.926  0.1229  0.0143 -0.2450
    7MPD2     H13912   2.235   4.116  12.739  2.0733 -2.1809 -0.6910
    7MPD2    H113913   1.992   3.766  12.823 -3.6080  0.9839 -0.4032
    7MPD2    H213914   1.926   4.137  13.018 -0.8083 -0.6951  0.6298
    7MPD2    H313915   1.877   3.892  12.984 -0.9622 -0.9241 -2.5029
    7MPD2     N13916   2.221   3.841  12.699  0.2742  0.1867  0.5404
    7MPD2    H513917   2.209   3.742  12.716 -0.7194  0.2123 -0.0067
    7MPD2    N113918   2.098   4.271  12.883 -0.0723 -0.9884 -0.0980
    7MPD2    H713919   2.175   4.310  12.829  0.7789 -2.2974  0.1742
    8TMC3    C113920   2.437   3.799  12.583  0.3517 -0.4417  0.3742
    8TMC3    C213921   2.497   3.733  12.689  0.1310 -0.2276  0.5236
    8TMC3    C313922   2.631   3.731  12.684  0.6670 -0.2103  0.3571
    8TMC3    C413923   2.511   3.857  12.485  0.6586 -0.1051  0.3079
    8TMC3    C513924   2.647   3.854  12.482 -0.6469 -0.3024  0.3394
    8TMC3    C613925   2.706   3.777  12.581 -0.1275 -0.8694 -0.2736
    8TMC3     C13926   2.331   3.890  12.623  0.9051  0.8610  0.0390
    8TMC3     O13927   2.346   4.002  12.579 -0.4036 -0.1402  0.0276
    8TMC3     H13928   2.430   3.698  12.766  2.4263 -0.7776  2.2777
    8TMC3    H113929   2.464   3.912  12.404 -0.6758 -0.3662  0.9045
    8TMC3    H213930   2.812   3.787  12.599 -0.4293  0.0049  1.0389
    8TMC3    C713931   2.701   3.988  12.469 -0.6109  0.1181  0.0376
    8TMC3    C813932   2.699   3.687  12.807  0.1457 -0.1768 -0.2598
    8TMC3    O113933   2.720   4.025  12.357  0.4006 -0.2535 -0.0281
    8TMC3    O213934   2.818   3.654  12.793  0.4028 -0.1094 -0.3945
    9TMC3    C113935   2.202   4.660  13.087 -0.8344 -0.3727  0.3757
    9TMC3    C213936   2.321   4.663  13.026 -0.4702 -1.0581 -0.2850
    9TMC3    C313937   2.345   4.570  12.932  1.1033  0.4257 -0.3980
    9TMC3    C413938   2.102   4.569  13.068  0.3259  0.4391  0.1015
    9TMC3    C513939   2.135   4.474  12.977  0.9520 -0.4796 -1.1324
    9TMC3    C613940   2.254   4.476  12.898 -0.4708 -0.0974  0.1668
    9TMC3     C13941   2.173   0.049  13.180 -0.3030  0.5662 -0.7256
    9TMC3     O13942   2.054   0.069  13.207 -0.0357 -0.4039  0.9413
    9TMC3     H13943   2.403   0.008  13.047 -1.1068 -0.4546  0.2358
    9TMC3    H113944   2.008   4.569  13.120  0.7780  2.4608  0.9078
    9TMC3    H213945   2.287   4.411  12.818  2.7543  2.9538 -0.9540
    9TMC3    C713946   2.059   4.350  12.986 -0.4951  0.0450 -0.2483
    9TMC3    C813947   2.483   4.559  12.861  0.1579  0.4359  0.0800
    9TMC3    O113948   1.979   4.337  13.074 -0.1821  0.4812  0.5208
    9TMC3    O213949   2.536   4.664  12.820 -0.0672  0.0779  0.2796
   10MPD2     C13950   2.745   4.274  12.529  0.3194 -0.1989  0.3212
   10MPD2    C113951   2.668   4.189  12.601  0.1064 -0.7446  0.6873
   10MPD2    C213952   2.597   4.245  12.709  0.6195  0.6857 -0.0247
   10MPD2    C313953   2.600   4.382  12.729 -0.2627 -0.2953 -0.4296
   10MPD2    C413954   2.674   4.467  12.655  0.0227  0.1151  0.0916
   10MPD2    C513955   2.757   4.407  12.563 -0.3323  0.0063  0.6087
   10MPD2     H13956   2.542   4.181  12.778  1.4876 -0.7549 -0.6479
   10MPD2    H113957   2.676   4.571  12.686 -0.0132  0.6844 -1.8156
   10MPD2    H213958   2.807   4.233  12.449 -0.3667  2.0792 -1.3764
   10MPD2    H313959   2.829   4.462  12.503 -0.2639  0.6631  1.2926
   10MPD2     N13960   2.511   4.429  12.834  0.2112 -0.1643 -0.1264
   10MPD2    H513961   2.454   4.356  12.875 -1.1483 -0.2489 -2.1691
   10MPD2    N113962   2.653   4.055  12.572  0.0812  0.5574  0.4511
   10MPD2    H713963   2.594   3.994  12.628  0.1443 -0.4644 -0.5782
   11MPD2     C13964   3.770   3.247  13.730 -0.4112 -0.8293 -0.7698
   11MPD2    C113965   3.646   3.239  13.794 -0.0452  0.5224  0.4590
   11MPD2    C213966   3.528   3.210  13.721  0.5790  0.3879  0.1017
   11MPD2    C313967   3.537   3.187  13.584  0.5206 -0.8438  0.2132
   11MPD2    C413968   3.666   3.190  13.524 -0.1305 -0.1406 -0.4530
   11MPD2    C513969   3.775   3.226  13.601  0.2146 -0.6750  0.2817
   11MPD2     H13970   3.432   3.211  13.770 -0.2479  4.8531 -1.6026
   11MPD2    H113971   3.685   3.154  13.423  0.0499  0.8494 -0.7738
   11MPD2    H213972   3.866   3.250  13.780 -1.2514  0.9682  0.7467
   11MPD2    H313973   3.868   3.220  13.546  1.0926 -3.0046  1.9968
   11MPD2     N13974   3.426   3.162  13.496  0.5440  0.9800  0.1208
   11MPD2    H513975   3.445   3.162  13.396  0.4288 -0.2892  0.1076
   11MPD2    N113976   3.629   3.241  13.932  0.4917 -0.0424 -0.4971
   11MPD2    H713977   3.568   3.179  13.983  1.5126 -0.0580  0.7097
    1MPD1     C13978   0.528   0.115  17.050 -0.1212 -0.4568  0.0480
    1MPD1    C113979   0.630   0.210  17.073 -0.3350 -0.4366 -0.0505
    1MPD1    C213980   0.702   0.257  16.965 -0.4395 -0.4305  0.5074
    1MPD1    C313981   0.698   0.182  16.844 -0.3473  0.1247  0.0388
    1MPD1    C413982   0.608   0.080  16.835 -0.9662  0.3169  0.1407
    1MPD1    C513983   0.517   0.051  16.934  0.3351 -0.7136 -0.2344
    1MPD1     H13984   0.771   0.340  16.978 -0.2067 -0.5486  0.0262
    1MPD1    H113985   0.616   0.008  16.755 -0.5421  1.9552 -1.2994
    1MPD1    H213986   0.471   0.073  17.131  2.7422 -0.7516  1.9063
    1MPD1    H313987   0.453   4.687  16.924  0.1176 -0.8288  2.0439
    1MPD1     N13988   0.788   0.208  16.739 -0.3572  0.1483  0.5368
    1MPD1    H513989   0.785   0.156  16.651  1.5339 -0.1362  0.6216
    1MPD1    N113990   0.636   0.267  17.201  0.3607  0.5000 -0.5481
    1MPD1    H613991   0.730   0.305  17.212  0.1064  1.2509 -0.9554
    1MPD1    H713992   0.597   0.209  17.275  1.2100 -0.9007 -1.2061
    2MPD1     C13993   1.772   0.267  16.325  0.1048  0.5031 -0.8374
    2MPD1    C113994   1.677   0.227  16.233  0.3307  0.0303  0.0622
    2MPD1    C213995   1.538   0.235  16.265  0.7922 -0.1164 -0.1073
    2MPD1    C313996   1.508   0.290  16.388  0.7786 -0.0625  0.3725
    2MPD1    C413997   1.601   0.347  16.467  0.2443  0.2268 -0.0108
    2MPD1    C513998   1.734   0.334  16.437 -0.6244  0.3932  0.7227
    2MPD1     H13999   1.460   0.200  16.199  0.1492  0.0803  0.5424
    2MPD1    H114000   1.574   0.412  16.550  2.2968 -0.3340  1.0907
    2MPD1    H214001   1.877   0.265  16.301  0.2243 -2.1863 -0.0628
    2MPD1    H314002   1.807   0.388  16.496  0.1969 -1.0159  0.9891
    2MPD1     N14003   1.369   0.304  16.406  0.5151  0.0935 -0.6250
    2MPD1    H514004   1.311   0.256  16.338 -0.9616  2.1977 -0.8540
    2MPD1    N114005   1.726   0.177  16.111 -0.8184 -0.3037  0.8741
    2MPD1    H614006   1.826   0.167  16.124 -0.8030 -0.4225  0.6539
    2MPD1    H714007   1.701   0.078  16.105 -1.1356 -0.0552 -1.7374
    3TMC3    C114008   1.160   0.346  16.498 -0.3913 -0.3187 -0.4577
    3TMC3    C214009   1.101   0.366  16.384  0.0795 -0.1071 -0.3410
    3TMC3    C314010   0.965   0.350  16.376 -0.1984  0.0088 -0.4855
    3TMC3    C414011   1.093   0.322  16.609  0.3145 -0.2645 -0.1320
    3TMC3    C514012   0.956   0.297  16.601 -0.0568  1.0085 -0.1520
    3TMC3    C614013   0.889   0.315  16.486 -0.9805  0.2199 -0.0146
    3TMC3     C14014   1.305   0.359  16.509  0.0870  0.5173  0.2993
    3TMC3     O14015   1.346   0.421  16.607 -0.4629 -0.2828  0.0964
    3TMC3     H14016   1.158   0.387  16.294  1.9141 -1.2539  0.5597
    3TMC3    H114017   1.142   0.325  16.706  2.0347 -1.5099 -0.9565
    3TMC3    H214018   0.785   0.285  16.472 -0.2076 -2.3230 -0.4414
    3TMC3    C714019   0.888   0.300  16.733  0.1482  0.0084  1.0068
    3TMC3    C814020   0.908   0.347  16.248 -0.1037  0.0488  0.3224
    3TMC3    O114021   0.925   0.385  16.812 -0.1610 -0.1753 -0.1069
    3TMC3    O214022   0.823   0.257  16.238 -0.7129 -0.1667 -0.0555
    4MPD1     C14023   0.904   0.437  15.750 -0.9530 -0.4347 -0.4531
    4MPD1    C114024   0.968   0.540  15.814 -0.4239 -0.2113  0.2359
    4MPD1    C214025   0.977   0.542  15.948 -0.4713  1.0096 -0.1249
    4MPD1    C314026   0.927   0.432  16.024  0.5080 -0.0040 -0.3844
    4MPD1    C414027   0.869   0.330  15.952 -0.7020 -0.7122 -0.6173
    4MPD1    C514028   0.857   0.327  15.819  0.0186  0.2866 -0.3798
    4MPD1     H14029   1.044   0.616  15.991  0.4828 -0.1178  0.3356
    4MPD1    H114030   0.821   0.245  15.999 -1.2624  0.6457  1.2811
    4MPD1    H214031   0.915   0.418  15.644  0.3445  0.5476 -0.4928
    4MPD1    H314032   0.819   0.238  15.770 -1.6248 -0.3231  2.0172
    4MPD1     N14033   0.955   0.439  16.160  0.4683  0.5691  0.2394
    4MPD1    H514034   1.018   0.510  16.196  0.3280 -0.0712  1.7650
    4MPD1    N114035   1.048   0.631  15.740  0.2789  0.2267 -0.3971
    4MPD1    H614036   1.041   0.720  15.790 -0.3818  0.1117 -0.2812
    4MPD1    H714037   1.015   0.624  15.644 -2.7647  0.6481  0.5991
    1TCq1    O114038   3.494   3.663  12.519  0.2493  0.5004  0.5486
    1TCq1    C114039   3.516   3.603  12.399  0.0334 -0.4502  0.7917
    1TCq1    O214040   3.591   3.635  12.308 -0.1338  0.4672 -0.3468
    1TCq1    C214041   3.402   3.517  12.378 -0.5382 -0.4198 -0.0562
    1TCq1    C314042   3.363   3.438  12.482  0.0208  0.6730 -0.0897
    1TCq1    C414043   3.261   3.353  12.455  0.2993 -0.7087  0.3571
    1TCq1    C514044   3.200   3.346  12.336  0.0351  0.9273  0.3302
    1TCq1    C614045   3.256   3.427  12.235 -0.3024 -0.5989 -0.3817
    1TCq1    C714046   3.368   3.507  12.244  0.4565 -0.0638 -0.7729
    1TCq1    C814047   3.212   3.407  12.101  0.4432 -0.6607  0.3170
    1TCq1    O414048   3.232   3.488  12.014 -0.5081  0.1270  0.0529
    1TCq1    C914049   3.183   3.298  12.566 -0.0512 -0.1810  0.3654
    1TCq1    O514050   3.235   3.319  12.680  0.3827  0.4857  0.4415
    1TCq1    O614051   3.061   3.280  12.540  0.8565  0.1976 -0.4557
    1TCq1    H114052   3.421   3.635  12.579 -0.9948  0.0106 -1.1875
    1TCq1    H214053   3.379   3.460  12.587 -2.8141  0.7365  0.3304
    1TCq1    H314054   3.106   3.293  12.328  1.0320 -0.6379 -0.9541
    1TCq1    H414055   3.386   3.585  12.171  1.3243  0.3392 -0.1256
    2MPD1     C14056   2.840   3.255  11.791  0.3065 -0.1792 -0.2459
    2MPD1    C114057   2.852   3.154  11.886 -0.1788  0.0045 -0.7206
    2MPD1    C214058   2.960   3.171  11.972  0.2379  0.0829  0.0067
    2MPD1    C314059   3.044   3.283  11.977  0.5595 -0.3437  0.9331
    2MPD1    C414060   3.021   3.379  11.881 -1.1215 -0.2105 -0.2176
    2MPD1    C514061   2.925   3.362  11.792 -0.8440  0.0780 -0.2844
    2MPD1     H14062   2.983   3.091  12.041 -0.4504 -0.2776 -0.1796
    2MPD1    H114063   3.082   3.467  11.864 -2.0084  0.7761  1.6470
    2MPD1    H214064   2.762   3.248  11.716  0.5737  1.3051 -0.6762
    2MPD1    H314065   2.919   3.443  11.720 -2.3740  0.7473  0.5944
    2MPD1     N14066   3.128   3.300  12.088 -0.5001 -0.4297  0.1288
    2MPD1    H514067   3.124   3.223  12.154  1.9557 -1.8432 -1.3858
    2MPD1    N114068   2.746   3.062  11.914 -0.6754  0.5957 -0.0088
    2MPD1    H614069   2.684   3.059  11.833 -1.5416 -0.1348  0.6835
    2MPD1    H714070   2.786   2.972  11.940 -1.7427  0.8390  2.4602
    1TCq1    O114071   3.851   3.055   0.387 -0.2711  0.3309 -0.3073
    1TCq1    C114072   3.824   3.176   0.338 -0.5081  0.0842  0.4531
    1TCq1    O214073   3.711   3.227   0.326  0.6550 -0.4365  0.2372
    1TCq1    C214074   3.931   3.209   0.252 -0.3008  0.5640 -0.9442
    1TCq1    C314075   4.030   3.126   0.220 -0.1025  0.1820 -0.0631
    1TCq1    C414076   4.143   3.180   0.165 -0.2417 -0.0477 -0.0746
    1TCq1    C514077   4.171   3.317   0.163 -0.8548 -0.6530  0.2524
    1TCq1    C614078   4.067   3.397   0.195 -0.1705  0.0511  0.3533
    1TCq1    C714079   3.944   3.347   0.237 -0.3288 -0.6786  0.3725
    1TCq1    C814080   4.090   3.531   0.223  0.6710  0.6730  0.3539
    1TCq1    O414081   4.014   3.585   0.296 -0.3390  0.2645 -0.6448
    1TCq1    C914082   4.258   3.092   0.166  0.7062 -0.3654  0.5632
    1TCq1    O514083   4.241   2.979   0.118  0.0821  0.0196 -0.2379
    1TCq1    O614084   4.376   3.140   0.168 -0.5766  0.3301 -0.5463
    1TCq1    H114085   3.946   3.050   0.409 -0.6618  1.0775  1.5462
    1TCq1    H214086   4.042   3.021   0.245  0.5743  0.2893  0.0472
    1TCq1    H314087   4.270   3.351   0.137 -1.3806  1.5133  1.0620
    1TCq1    H414088   3.864   3.416   0.260  0.3863  0.0862  0.5686
    2MPD1     C14089   4.408   3.929   0.206  0.1780 -0.3988 -0.4784
    2MPD1    C114090   4.460   3.833   0.128  0.1830  0.4788 -0.1784
    2MPD1    C214091   4.381   3.719   0.113 -0.4334 -0.4144 -0.2788
    2MPD1    C314092   4.267   3.698   0.185  0.0723  0.7529  0.1250
    2MPD1    C414093   4.221   3.793   0.271  0.3410  0.0688 -0.2950
    2MPD1    C514094   4.295   3.912   0.272  0.8673 -0.4774 -0.1412
    2MPD1     H14095   4.413   3.645   0.040  0.5678 -0.6142  0.3659
    2MPD1    H114096   4.125   3.782   0.320  0.5279  3.1591  0.8358
    2MPD1    H214097   4.460   4.023   0.215 -1.6385  0.4471  1.2783
    2MPD1    H314098   4.275   3.995   0.339  1.3380 -0.3523 -0.1550
    2MPD1     N14099   4.206   3.577   0.165  0.4006 -0.5646  0.2496
    2MPD1    H514100   4.258   3.507   0.112  1.5213 -1.0397  1.9696
    2MPD1    N114101   4.568   3.853   0.041 -0.3757  0.0984  0.2598
    2MPD1    H614102   4.613   3.767   0.010 -0.3598  0.3217 -0.3433
    2MPD1    H714103   4.630   3.931   0.060  0.4966 -0.8629  1.4023
    1MPD1     C14104   4.398   4.507  11.010  0.3441  1.4018 -0.9025
    1MPD1    C114105   4.427   4.637  11.054  0.0721  0.5252  0.3407
    1MPD1    C214106   4.337   4.690  11.149  0.3261 -0.2003  0.0858
    1MPD1    C314107   4.210   4.625  11.170  0.5918 -0.3153  1.2216
    1MPD1    C414108   4.193   4.498  11.122  0.2861 -0.1420 -0.0501
    1MPD1    C514109   4.285   4.443  11.038 -0.2334  0.0575 -0.0047
    1MPD1     H14110   4.362   0.055  11.206 -1.8543  1.4425 -1.5048
    1MPD1    H114111   4.097   4.450  11.141 -0.5009  1.5134  0.1756
    1MPD1    H214112   4.469   4.447  10.954  0.8168  1.8301 -0.7556
    1MPD1    H314113   4.264   4.343  11.003 -0.8789  0.1927  0.0010
    1MPD1     N14114   4.116   4.681  11.263 -0.9516  0.1500 -0.0371
    1MPD1    H514115   4.159   0.014  11.336  2.3605 -0.5139 -1.4561
    1MPD1    N114116   4.559   4.687  11.033 -0.2837 -0.6594 -0.1196
    1MPD1    H614117   4.546   0.064  11.016  1.5734 -0.1791  1.2531
    1MPD1    H714118   4.600   4.652  10.947  0.1319 -0.2431 -0.0905
    2MPD1     C14119   3.524   4.369  11.167 -0.1541  0.2551 -0.3362
    2MPD1    C114120   3.584   4.348  11.045  0.5461  0.0686  0.2714
    2MPD1    C214121   3.604   4.460  10.968  1.1658 -0.4584  0.6553
    2MPD1    C314122   3.570   4.595  11.010  0.3328 -0.7380  0.2217
    2MPD1    C414123   3.520   4.606  11.135  0.1598 -0.9155  0.1166
    2MPD1    C514124   3.494   4.498  11.209 -0.2124 -0.3640 -0.2658
    2MPD1     H14125   3.659   4.451  10.875  1.7907  0.8853  0.8882
    2MPD1    H114126   3.496   4.705  11.173 -3.2896 -1.8479  0.3197
    2MPD1    H214127   3.498   4.291  11.238  1.0997 -0.2469 -0.4177
    2MPD1    H314128   3.430   4.503  11.296  0.2668  1.1793  0.0040
    2MPD1     N14129   3.596   4.713  10.930  0.1950  0.4564  0.7735
    2MPD1    H514130   3.598   0.079  10.979 -1.0537  1.2099 -0.5648
    2MPD1    N114131   3.635   4.221  11.013 -0.0227 -0.5332 -1.1728
    2MPD1    H614132   3.587   4.143  11.058 -0.0130  0.6082  0.8191
    2MPD1    H714133   3.647   4.212  10.912 -1.3290  0.4370 -1.4125
    3MPD1     C14134   3.713   0.478   9.945 -0.6327 -0.3236 -0.4745
    3MPD1    C114135   3.681   0.563  10.043  0.1070 -0.2097  0.1439
    3MPD1    C214136   3.692   0.522  10.173 -0.5219  0.3196  0.1259
    3MPD1    C314137   3.697   0.390  10.208  0.4287 -0.3950 -0.0969
    3MPD1    C414138   3.720   0.301  10.108  0.4557 -0.5705 -0.3406
    3MPD1    C514139   3.722   0.338   9.974 -0.6136 -0.0190 -0.8262
    3MPD1     H14140   3.684   0.594  10.253 -2.7395  0.1033  0.0906
    3MPD1    H114141   3.724   0.194  10.125  0.4198 -0.5125  0.0282
    3MPD1    H214142   3.716   0.507   9.840  2.5428 -2.0102 -0.8323
    3MPD1    H314143   3.753   0.260   9.906  3.3616  0.8579  0.0200
    3MPD1     N14144   3.689   0.353  10.343  0.2510 -0.4468 -0.0091
    3MPD1    H514145   3.701   0.425  10.413 -1.7302 -0.2125  0.0923
    3MPD1    N114146   3.674   0.699  10.019 -0.1717 -0.4391 -0.2092
    3MPD1    H614147   3.605   0.744  10.077 -0.4690  0.7698 -1.5060
    3MPD1    H714148   3.642   0.710   9.923 -0.4518  0.2724 -0.0291
    4MPD2     C14149   3.661   0.478  11.005  0.2211 -0.1074 -0.8339
    4MPD2    C114150   3.737   0.484  11.126  0.4312  0.5940  0.3616
    4MPD2    C214151   3.819   0.583  11.162  0.2938  0.0974  1.2104
    4MPD2    C314152   3.833   0.689  11.081  0.0579 -0.0788  0.6488
    4MPD2    C414153   3.756   0.691  10.964  0.1549  0.7968 -0.3788
    4MPD2    C514154   3.666   0.591  10.931 -0.3756  0.1868 -0.0247
    4MPD2     H14155   3.883   0.573  11.249  1.0925  0.5001  0.6707
    4MPD2    H114156   3.775   0.783  10.911 -1.0045  0.9315 -0.5664
    4MPD2    H214157   3.597   0.393  10.981  1.3664 -0.6869 -1.7896
    4MPD2    H314158   3.596   0.607  10.850  0.6197  1.7309 -0.5775
    4MPD2     N14159   3.914   0.802  11.103  0.7859 -0.0108  0.5435
    4MPD2    H514160   3.901   0.875  11.034  0.2801 -1.7294 -1.1687
    4MPD2    N114161   3.729   0.380  11.217 -0.9205  0.1600  0.2094
    4MPD2    H714162   3.768   0.406  11.307  1.1680 -1.5384 -0.2033
    5TMC3    C114163   3.703   0.172  11.311  0.2687  0.2281 -0.3709
    5TMC3    C214164   3.778   0.065  11.257  0.0015 -0.2859  0.1804
    5TMC3    C314165   3.897   0.031  11.325  0.8990  0.2969  0.5251
    5TMC3    C414166   3.747   0.240  11.422 -0.2149 -0.1776 -0.4789
    5TMC3    C514167   3.876   0.211  11.472  0.3131  0.2248 -0.0493
    5TMC3    C614168   3.951   0.105  11.429 -0.3780 -0.7373 -0.5711
    5TMC3     C14169   3.668   0.260  11.202  0.1845 -0.1778  0.1394
    5TMC3     O14170   3.626   0.200  11.103 -0.2902  0.3375 -0.2046
    5TMC3     H14171   3.758   0.016  11.163 -0.7236 -1.1990  0.7957
    5TMC3    H114172   3.686   0.313  11.472 -0.0647  0.1105 -0.7134
    5TMC3    H214173   4.048   0.082  11.472 -0.5742 -0.0668  0.2341
    5TMC3    C714174   3.947   0.327  11.511  0.0679 -0.2710 -0.5545
    5TMC3    C814175   3.983   4.654  11.255 -0.6652 -0.4977 -0.1050
    5TMC3    O114176   3.902   0.432  11.465  0.1236 -0.4538  0.1458
    5TMC3    O214177   3.925   4.605  11.162 -0.0252  0.0373 -0.0660
    6TMC3    C114178   3.659   0.111  10.732 -0.2664  0.2202 -0.1618
    6TMC3    C214179   3.646   0.109  10.599 -0.1490  0.0691  0.1138
    6TMC3    C314180   3.714   0.204  10.529 -0.5695  0.2969  0.4137
    6TMC3    C414181   3.753   0.190  10.796  0.4111  0.5086  0.3133
    6TMC3    C514182   3.802   0.299  10.727  0.6344  0.1050 -0.3037
    6TMC3    C614183   3.787   0.311  10.591 -0.8074 -0.5208  0.2888
    6TMC3     C14184   3.620   4.707  10.791 -0.6170  0.2929 -0.3122
    6TMC3     O14185   3.624   4.610  10.715 -0.1046 -0.5331  0.4954
    6TMC3     H14186   3.584   0.033  10.551  0.2645 -0.3167  0.1904
    6TMC3    H114187   3.769   0.182  10.903 -3.7783  0.4757  0.9389
    6TMC3    H214188   3.825   0.400  10.543  0.6191 -3.0577 -3.3030
    6TMC3    C714189   3.912   0.370  10.792 -0.0731  0.1329  0.0337
    6TMC3    C814190   3.674   0.223  10.389 -0.2300  0.4829  1.0265
    6TMC3    O114191   3.959   0.460  10.724  0.3931 -0.3441  0.3692
    6TMC3    O214192   3.621   0.129  10.332 -0.4348  0.3051  0.2035
    7MPD2     C14193   4.394   0.581  11.576  0.7371 -0.1441  0.2049
    7MPD2    C114194   4.282   0.603  11.496 -0.4412  0.5572  0.6145
    7MPD2    C214195   4.175   0.525  11.506 -0.1489  0.0593  1.3333
    7MPD2    C314196   4.179   0.403  11.574  0.0472  0.2784 -0.1154
    7MPD2    C414197   4.295   0.369  11.639  0.2469 -0.2191  0.0442
    7MPD2    C514198   4.388   0.467  11.652  0.1422  0.1815 -0.8398
    7MPD2     H14199   4.081   0.566  11.473  0.7062  1.4344  0.6096
    7MPD2    H114200   4.288   0.280  11.701  0.0296 -0.5529 -0.4632
    7MPD2    H214201   4.479   0.646  11.593  0.7159 -0.1649  0.3907
    7MPD2    H314202   4.473   0.449  11.717 -0.8621  3.8179  1.4854
    7MPD2     N14203   4.075   0.303  11.568 -0.2824 -0.5301  0.5530
    7MPD2    H514204   4.092   0.214  11.614 -1.6628 -0.6940  0.7372
    7MPD2    N114205   4.257   0.724  11.423  0.6165 -0.3120  0.1377
    7MPD2    H714206   4.163   0.741  11.390  0.7241  0.1315  0.0643
    8TMC3    C114207   4.304   0.895  11.273  0.0830  0.5821 -0.3779
    8TMC3    C214208   4.356   0.879  11.147  0.3475 -0.0545 -0.1119
    8TMC3    C314209   4.276   0.885  11.038 -0.9039 -0.5694 -0.2456
    8TMC3    C414210   4.182   0.935  11.299  0.2318  0.6612  0.0657
    8TMC3    C514211   4.095   0.934  11.190  0.7505  0.2225 -0.8833
    8TMC3    C614212   4.147   0.927  11.062  0.7429 -0.1252  0.2539
    8TMC3     C14213   4.359   0.796  11.363 -0.3202  0.2435 -0.0029
    8TMC3     O14214   4.476   0.758  11.350 -0.1987  0.6041  0.2514
    8TMC3     H14215   4.451   0.835  11.120  1.6408  3.6809 -1.6178
    8TMC3    H114216   4.137   0.948  11.396 -0.2769  0.1940 -0.1063
    8TMC3    H214217   4.082   0.948  10.978  0.5069  1.7518  0.9190
    8TMC3    C714218   3.998   0.832  11.212 -0.1391  0.0906  0.4127
    8TMC3    C814219   4.260   0.758  10.973  0.1575 -0.5324 -0.3748
    8TMC3    O114220   4.006   0.773  11.318  0.1895  0.2455 -0.2734
    8TMC3    O214221   4.199   0.754  10.867  0.8393  0.2166  0.1584
    9MPD2     C14222   4.244   0.456  11.173  0.6582 -0.0121 -0.0169
    9MPD2    C114223   4.210   0.531  11.063 -0.1764 -0.3985 -0.0773
    9MPD2    C214224   4.122   0.486  10.966 -0.0753 -0.4447  0.1120
    9MPD2    C314225   4.060   0.366  10.995  0.3361 -0.1858  1.1474
    9MPD2    C414226   4.094   0.283  11.099  0.7216  0.7538  0.1049
    9MPD2    C514227   4.181   0.333  11.189 -0.1180  0.0682  0.6282
    9MPD2     H14228   4.089   0.560  10.893 -1.3237  0.2876  1.4194
    9MPD2    H114229   4.043   0.188  11.109  0.7586  0.6893 -0.3152
    9MPD2    H214230   4.306   0.495  11.252 -2.5302  1.2203  1.8479
    9MPD2    H314231   4.199   0.282  11.283  0.7896 -0.2299  0.2901
    9MPD2     N14232   3.955   0.320  10.914 -0.5659 -0.8953 -0.1168
    9MPD2    H514233   3.909   0.232  10.932  1.1667 -1.8478 -0.3706
    9MPD2    N114234   4.268   0.661  11.065 -0.3274 -0.0622  0.1303
    9MPD2    H714235   4.320   0.685  11.149  1.6224 -0.7465 -0.8794
    1MPD1     C14236   2.798   4.400  16.654 -0.0830  0.0577 -0.3336
    1MPD1    C114237   2.677   4.352  16.692 -0.5673 -0.4249  0.1926
    1MPD1    C214238   2.677   4.235  16.767  0.6994 -0.3238  1.3509
    1MPD1    C314239   2.792   4.177  16.820  0.5259  0.5127 -0.4693
    1MPD1    C414240   2.914   4.229  16.775 -0.0526  0.0477 -0.6251
    1MPD1    C514241   2.911   4.347  16.699  0.4082  0.2839 -0.9115
    1MPD1     H14242   2.586   4.182  16.791 -0.3752  0.4636 -0.9728
    1MPD1    H114243   3.013   4.196  16.800 -1.3753 -2.1963  1.5964
    1MPD1    H214244   2.808   4.477  16.578  0.1686 -0.9135 -1.2867
    1MPD1    H314245   3.005   4.391  16.671 -0.1424  1.3244 -1.1194
    1MPD1     N14246   2.797   4.072  16.914 -0.4251  0.0299 -0.4160
    1MPD1    H514247   2.890   4.046  16.947 -0.4988  1.2464  0.7292
    1MPD1    N114248   2.557   4.403  16.645  0.1076  0.3742 -0.2436
    1MPD1    H614249   2.473   4.393  16.702 -0.1825  1.7173 -0.4179
    1MPD1    H714250   2.573   4.504  16.645  0.7915  0.2551  1.1396
    2MPD1     C14251   3.482   3.578  16.919 -0.1098  0.3578  0.4862
    2MPD1    C114252   3.445   3.708  16.897  0.1820  0.4720 -0.0912
    2MPD1    C214253   3.313   3.745  16.934  0.4475  0.6793 -0.8911
    2MPD1    C314254   3.225   3.648  16.981 -0.0829  0.1149 -0.4661
    2MPD1    C414255   3.271   3.519  17.015 -0.5631  0.3591  0.4543
    2MPD1    C514256   3.402   3.486  16.981  0.1258 -0.2938  0.9460
    2MPD1     H14257   3.284   3.849  16.924 -1.8687  0.0043 -1.1794
    2MPD1    H114258   3.208   3.448  17.067  1.0392 -1.2922  0.1180
    2MPD1    H214259   3.584   3.550  16.896 -0.5493 -2.3836  1.7442
    2MPD1    H314260   3.438   3.386  17.007 -1.5376 -1.2801 -0.5691
    2MPD1     N14261   3.093   3.701  17.009  0.5117  0.2256 -0.0832
    2MPD1    H514262   3.077   3.799  16.991  0.5505  0.1773 -0.3838
    2MPD1    N114263   3.546   3.801  16.874  0.7070 -0.5844  0.4381
    2MPD1    H614264   3.503   3.879  16.824  1.5322 -0.3860  0.0481
    2MPD1    H714265   3.622   3.754  16.826 -0.6351 -0.7709 -1.4983
    3TCq2    C114266   3.008   3.651  17.101 -0.4790  0.0740  0.6961
    3TCq2    O214267   3.023   3.554  17.178  0.6157 -0.4420 -0.0373
    3TCq2    C214268   2.896   3.743  17.132  0.5555 -0.2174  0.2386
    3TCq2    C314269   2.828   3.729  17.251 -0.8532  0.0257 -0.2998
    3TCq2    C414270   2.720   3.804  17.282  0.0839 -0.0683  0.5974
    3TCq2    C514271   2.669   3.885  17.191  0.3105  0.4540  0.1423
    3TCq2    C614272   2.731   3.907  17.069 -0.0885 -0.5093 -0.6889
    3TCq2    C714273   2.844   3.832  17.035  0.3026 -0.5253 -0.5274
    3TCq2    C814274   2.690   4.017  16.981 -0.2475  0.5185 -0.9130
    3TCq2    O414275   2.575   4.060  16.993  0.2179  0.0095 -0.1040
    3TCq2    C914276   2.660   3.786  17.412 -0.6383  0.1871  0.2769
    3TCq2    O514277   2.534   3.812  17.428  0.1614  0.2717 -0.1740
    3TCq2    O614278   2.733   3.773  17.511 -0.2605  0.6467 -0.2835
    3TCq2    H214279   2.858   3.657  17.327 -0.6105  0.5205  0.0702
    3TCq2    H314280   2.588   3.947  17.228  0.7085  0.4123  1.1018
    3TCq2    H414281   2.878   3.833  16.932  1.2189  4.0523 -0.1790
    1TCq1    O114282   1.729   1.727  13.246 -0.4607 -0.2283 -0.1078
    1TCq1    C114283   1.637   1.820  13.285 -0.0990  0.0781 -0.6873
    1TCq1    O214284   1.537   1.784  13.344 -0.1583  0.5547 -0.2964
    1TCq1    C214285   1.647   1.912  13.168  0.0485 -0.0809  0.4448
    1TCq1    C314286   1.559   1.881  13.068 -1.1719 -0.3872 -0.2654
    1TCq1    C414287   1.553   1.964  12.963  0.5847  0.1137  0.0782
    1TCq1    C514288   1.620   2.086  12.967  0.5711 -0.5025 -0.5052
    1TCq1    C614289   1.713   2.106  13.066 -0.1566  1.2532  0.1580
    1TCq1    C714290   1.732   2.013  13.167 -0.6349  0.2998  0.0128
    1TCq1    C814291   1.744   2.242  13.111 -1.0599 -0.1863 -0.0166
    1TCq1    O414292   1.672   2.336  13.078  0.2505  0.3928  0.0008
    1TCq1    C914293   1.462   1.933  12.856  0.2765 -0.3918 -0.7138
    1TCq1    O514294   1.395   1.827  12.859  0.1115  0.4188 -0.2572
    1TCq1    O614295   1.434   2.031  12.783  0.1691 -0.0714 -0.0998
    1TCq1    H114296   1.789   1.755  13.173 -1.1128 -1.8755 -1.2715
    1TCq1    H214297   1.501   1.790  13.078 -2.6199  0.2107 -3.4048
    1TCq1    H314298   1.620   2.154  12.882  0.1046  2.0447  1.5437
    1TCq1    H414299   1.780   2.030  13.263  1.1974 -2.6869 -0.3756
    2MPD2     C14300   1.844   2.475  13.266 -0.6364 -0.1199  0.1734
    2MPD2    C114301   1.911   2.358  13.260  0.7182  0.7784  0.4269
    2MPD2    C214302   2.032   2.337  13.333  0.4290  0.0117 -0.6351
    2MPD2    C314303   2.071   2.436  13.426 -0.4883 -0.0382 -0.2375
    2MPD2    C414304   2.002   2.555  13.434 -0.0854  0.7602 -1.1168
    2MPD2    C514305   1.900   2.573  13.350 -0.3720 -0.5259  0.3902
    2MPD2     H14306   2.094   2.249  13.334  0.1221 -0.1994  0.9144
    2MPD2    H114307   2.023   2.636  13.504 -0.7679  1.6768 -1.9663
    2MPD2    H214308   1.762   2.505  13.202 -1.5206 -0.6783  1.0418
    2MPD2    H314309   1.851   2.669  13.361 -0.3311 -0.4021 -0.5320
    2MPD2     N14310   2.176   2.397  13.513  0.0166 -0.3159 -0.1684
    2MPD2    H514311   2.218   2.305  13.509  1.9338  0.4937  1.3295
    2MPD2    N114312   1.860   2.253  13.180 -0.2989  0.2737  0.4943
    2MPD2    H714313   1.914   2.168  13.192  1.1357  1.4049  1.9334
    3TCq1    O114314   2.440   1.959  13.842 -0.1043 -0.6613 -0.4677
    3TCq1    C114315   2.436   2.046  13.736 -0.0908 -0.4811  0.8029
    3TCq1    O214316   2.405   2.011  13.625 -0.2102 -0.1908  0.1981
    3TCq1    C214317   2.414   2.180  13.774 -0.2694  1.0517  1.0090
    3TCq1    C314318   2.473   2.235  13.882 -0.5530  0.0374 -0.2472
    3TCq1    C414319   2.441   2.367  13.905 -0.4081 -0.0580 -0.6531
    3TCq1    C514320   2.353   2.436  13.830 -0.3837 -0.5559  0.5032
    3TCq1    C614321   2.295   2.381  13.720  0.0538  0.2038 -0.1140
    3TCq1    C714322   2.329   2.246  13.694 -0.3454  0.3804  0.1165
    3TCq1    C814323   2.214   2.460  13.630 -0.1625  0.1544  0.8706
    3TCq1    O414324   2.194   2.578  13.658 -0.1387 -0.4080  0.3248
    3TCq1    C914325   2.491   2.433  14.027  0.4393  0.0386  0.7934
    3TCq1    O514326   2.578   2.375  14.099 -0.4183 -0.2648 -0.0622
    3TCq1    O614327   2.443   2.546  14.053 -0.0482 -0.7890 -0.0143
    3TCq1    H114328   2.446   2.008  13.926 -0.2967  0.8027 -1.3164
    3TCq1    H214329   2.534   2.182  13.955  1.2775  0.0925 -1.7440
    3TCq1    H314330   2.320   2.535  13.860 -0.3100 -0.9598  1.9011
    3TCq1    H414331   2.294   2.192  13.607 -2.3396  1.4318  0.2858
    1MPD2     C14332   1.720   3.775  14.700 -0.5276  0.4607 -0.3524
    1MPD2    C114333   1.617   3.681  14.679 -0.3009 -0.1252 -1.0872
    1MPD2    C214334   1.612   3.557  14.739 -0.2156  0.4191 -0.0484
    1MPD2    C314335   1.707   3.516  14.824  0.9212  0.6493  0.5958
    1MPD2    C414336   1.805   3.614  14.855 -0.5169 -0.1630  0.9235
    1MPD2    C514337   1.822   3.740  14.793  0.2124 -0.3223  0.3335
    1MPD2     H14338   1.531   3.489  14.714  0.4757  0.1598 -1.6240
    1MPD2    H114339   1.880   3.591  14.929  0.3520  0.8572  0.3502
    1MPD2    H214340   1.714   3.873  14.656 -1.6860  0.2848 -0.5801
    1MPD2    H314341   1.904   3.806  14.816 -0.2389  0.5204 -0.4550
    1MPD2     N14342   1.722   3.385  14.880 -0.2269 -0.0608  0.2954
    1MPD2    H514343   1.800   3.357  14.937 -0.6158 -0.1487  0.7850
    1MPD2    N114344   1.515   3.718  14.589 -0.1502 -0.5360  0.5180
    1MPD2    H714345   1.540   3.799  14.534 -0.0215 -0.9279 -0.0021
    2TMC3    C114346   1.315   3.699  14.453 -0.0835 -0.3201  0.0847
    2TMC3    C214347   1.199   3.613  14.458  0.8455  0.0482 -0.1498
    2TMC3    C314348   1.079   3.671  14.477  0.2679 -0.2289 -0.0286
    2TMC3    C414349   1.306   3.832  14.443 -0.0796  0.5904 -0.6039
    2TMC3    C514350   1.185   3.886  14.459  0.6841 -0.7795 -0.6291
    2TMC3    C614351   1.066   3.811  14.470  0.1245 -0.4562 -0.5225
    2TMC3     C14352   1.402   3.645  14.548 -0.3019  0.0440  0.0617
    2TMC3     O14353   1.368   3.532  14.583 -0.4599  0.2512 -0.1455
    2TMC3     H14354   1.218   3.507  14.443  1.8966  0.2762 -0.4709
    2TMC3    H114355   1.389   3.898  14.423 -0.8488  1.5664 -0.6218
    2TMC3    H214356   0.971   3.855  14.497  0.3917  0.1274 -0.5283
    2TMC3    C714357   1.163   4.028  14.427  0.3464  0.0724  0.3628
    2TMC3    C814358   1.015   3.616  14.595 -0.2481  0.7779 -0.7492
    2TMC3    O114359   1.048   4.051  14.396 -0.2331  0.4148  0.2631
    2TMC3    O214360   0.910   3.668  14.633 -0.0565 -0.6964 -0.1794
    3TCq1    O114361   2.060   0.161  14.297  0.5207 -0.0080  0.5347
    3TCq1    C114362   1.980   0.085  14.220  0.2720 -0.2930 -0.7412
    3TCq1    O214363   1.941   0.109  14.108  0.6460 -0.2582 -0.2282
    3TCq1    C214364   1.902   0.027  14.328  0.2566 -1.1747 -0.2938
    3TCq1    C314365   1.971   4.687  14.416  0.0109  0.0568 -0.1678
    3TCq1    C414366   1.900   4.610  14.508  0.3109  0.4251 -0.3268
    3TCq1    C514367   1.761   4.602  14.493  0.0264 -0.1692 -0.5260
    3TCq1    C614368   1.695   4.672  14.400 -0.0739 -0.1861  0.6018
    3TCq1    C714369   1.772   0.015  14.307  0.6237 -0.2480  0.2158
    3TCq1    C814370   1.560   4.629  14.370 -1.1653  0.2910  0.2968
    3TCq1    O414371   1.489   4.718  14.328  0.3318 -0.2667 -0.0030
    3TCq1    C914372   1.958   4.532  14.611 -0.0180  0.4591  0.7096
    3TCq1    O514373   1.877   4.469  14.685  0.6931  0.7280 -0.4298
    3TCq1    O614374   2.083   4.529  14.612 -0.1199 -0.1801 -0.3193
    3TCq1    H114375   2.026   0.183  14.386  1.9404  2.7727  0.4086
    3TCq1    H214376   2.079   4.695  14.420  0.0338  0.7534 -2.0870
    3TCq1    H314377   1.708   4.558  14.576  1.1211  2.3585  1.5018
    3TCq1    H414378   1.732   0.065  14.220  0.7658 -1.5386 -0.5853
    4MPD2     C14379   1.326   4.479  14.277 -0.1706 -0.8780 -0.0737
    4MPD2    C114380   1.421   4.425  14.364 -0.2035 -0.0499  0.3290
    4MPD2    C214381   1.404   4.299  14.403 -0.0744 -0.6270 -0.1800
    4MPD2    C314382   1.282   4.243  14.392  0.1456 -0.4379  0.0907
    4MPD2    C414383   1.182   4.294  14.316  0.0716 -0.6034  0.3859
    4MPD2    C514384   1.212   4.411  14.248  0.5176  0.2926 -0.6119
    4MPD2     H14385   1.471   4.253  14.475  0.1362  0.8904  0.5746
    4MPD2    H114386   1.079   4.262  14.308  0.1143 -0.7960  0.6238
    4MPD2    H214387   1.337   4.579  14.238  1.6063 -1.1619 -0.2685
    4MPD2    H314388   1.130   4.449  14.188  1.2397  0.5836 -1.4001
    4MPD2     N14389   1.271   4.111  14.443  0.4566 -0.6980 -0.2943
    4MPD2    H514390   1.358   4.073  14.480 -0.7009 -0.6063  2.5061
    4MPD2    N114391   1.534   4.501  14.400 -0.0624 -0.4406  0.6328
    4MPD2    H714392   1.606   4.460  14.458  2.1782  0.5825 -1.4230
    5TMC2    C114393   1.434   3.086  15.073  0.0698  0.4838 -0.5864
    5TMC2    C214394   1.479   3.112  15.198 -0.1189  0.2869  0.5845
    5TMC2    C314395   1.597   3.174  15.203  0.0840  0.1530 -0.7481
    5TMC2    C414396   1.499   3.116  14.958 -0.5203 -0.1046 -0.4743
    5TMC2    C514397   1.614   3.192  14.976 -0.5205 -0.4017  0.2210
    5TMC2    C614398   1.670   3.217  15.096 -0.5548  0.8069  0.1324
    5TMC2     C14399   1.292   3.125  15.069  0.4688 -0.4146 -0.0606
    5TMC2     O14400   1.212   3.100  15.164 -0.1245  0.2207  0.4432
    5TMC2     H14401   1.437   3.062  15.285 -0.8498  1.3435  0.8400
    5TMC2    H114402   1.471   3.073  14.862  0.4074 -1.2784 -0.2299
    5TMC2    H214403   1.744   3.296  15.102  0.9469 -0.7984  2.7668
    5TMC2    C714404   1.626   3.287  14.866 -0.7086 -0.0887  0.0974
    5TMC2    C814405   1.683   3.160  15.313 -0.4707 -0.6615  0.2186
    5TMC2    O114406   1.544   3.276  14.773 -0.1672 -1.1407 -0.5971
    5TMC2    O214407   1.639   3.151  15.425  0.6609 -0.3254  0.4814
    5TMC2    O514408   1.814   3.170  15.284 -0.1925 -0.4346 -0.5035
    5TMC2    H514409   1.835   3.144  15.192 -0.5906 -0.3497 -0.6148
    6MPD2     C14410   0.966   3.466  14.858 -0.1187 -0.5161  0.1670
    6MPD2    C114411   1.072   3.449  14.772  0.1650  0.1186  0.5966
    6MPD2    C214412   1.175   3.364  14.807 -0.0288 -0.2828 -0.1870
    6MPD2    C314413   1.169   3.289  14.927  0.9960  0.0761 -0.2787
    6MPD2    C414414   1.059   3.306  15.005 -0.0271  0.1018  0.2108
    6MPD2    C514415   0.959   3.385  14.971 -0.0109  0.0414 -0.1921
    6MPD2     H14416   1.253   3.337  14.737 -0.0758 -1.1961  0.1107
    6MPD2    H114417   1.049   3.255  15.100 -1.9537 -0.6307 -0.4034
    6MPD2    H214418   0.884   3.536  14.846  0.7951  0.3276 -1.1477
    6MPD2    H314419   0.873   3.390  15.038  1.3668 -0.6416  1.6367
    6MPD2     N14420   1.277   3.202  14.955 -0.9313  0.4372 -0.6796
    6MPD2    H514421   1.348   3.203  14.883 -0.8394 -0.1444 -0.5987
    6MPD2    N114422   1.092   3.523  14.654  0.7903  0.4322  0.0179
    6MPD2    H714423   1.189   3.520  14.623  0.2468  1.7256 -1.7970
  945NH3     N114424   3.156   0.198  14.627  0.4341 -0.0433 -0.4742
  945NH3     H214425   3.178   0.259  14.705  1.8181 -1.3609  0.1580
  945NH3     H314426   3.208   0.227  14.545  0.5884 -2.8174 -1.3460
  945NH3     H414427   3.171   0.105  14.665  0.6244  1.1371  2.3309
  946SOD     NA14428   1.006   1.804  14.523 -0.1803  0.1031 -0.2866
  947SOD     NA14429   2.970   3.843  14.858 -0.4774 -0.3422  0.0869
  948SOD     NA14430   1.428   0.261  15.253 -0.2751 -0.3914  0.1722
  949SOD     NA14431   4.377   2.012  12.912  0.1388  0.5263 -0.0661
  950SOD     NA14432   1.367   4.693   0.666 -0.3066  0.1579  0.1214
  951SOD     NA14433   3.656   3.263   2.031  0.4696 -0.0220 -0.2502
  952SOD     NA14434   3.420   4.335   2.755  0.3671  0.3437  0.3712
  953SOD     NA14435   2.527   2.182   2.318 -0.5586  0.3607 -0.1234
  954SOD     NA14436   1.574   1.300  13.085  0.0102  0.4735  0.0112
  955SOD     NA14437   2.453   4.382   7.431  0.2050 -0.1202 -0.4176
  956SOD     NA14438   1.154   3.138  10.705 -0.2740  0.1448  0.2141
  957SOD     NA14439   0.747   1.776  14.990  0.3479  0.5408 -0.0969
  958SOD     NA14440   2.841   2.639  14.493 -0.1309 -0.5119 -0.1434
  959SOD     NA14441   2.658   2.487  14.253 -0.5030 -0.6609  0.0356
  960SOD     NA14442   4.008   2.783  12.901  0.2344 -0.2694 -0.2561
  961SOD     NA14443   1.777   3.380   0.017  0.5434 -0.2419  0.1522
  962SOD     NA14444   0.868   1.729  10.545 -0.2835 -0.0150  0.5272
  963SOD     NA14445   1.875   1.181   8.622 -0.3968  0.2110 -0.3503
  964SOD     NA14446   1.078   1.248  11.277  0.1252  0.3592 -0.0928
  965SOD     NA14447   0.440   3.846   9.325  0.1073 -0.3351 -0.2961
  966SOD     NA14448   1.070   2.372  14.963 -0.2850 -0.0957  0.0831
  967SOD     NA14449   3.934   0.740  10.034 -0.4520  0.7168  0.0564
  968SOD     NA14450   1.601   0.084   9.023  0.3679 -0.0893 -0.2553
  969SOD     NA14451   1.973   2.529  11.782  0.5054  0.2539  0.0987
  970SOD     NA14452   1.938   2.815  11.150  0.0562 -0.0731  0.4005
  971SOD     NA14453   0.438   0.225  13.507  0.2379  0.6315 -0.0982
  972SOD     NA14454   1.092   1.037  10.241  0.0732 -0.0336  0.5381
  973SOD     NA14455   2.207   3.726  17.199 -0.0120 -0.5349  0.4217
  974SOD     NA14456   1.039   1.738  12.885  0.4347  0.1406  0.1907
  975SOD     NA14457   3.659   0.872   2.365 -0.3522  0.6536  0.3315
  976SOD     NA14458   1.745   3.601  10.168 -0.4088  0.0182 -0.3850
  977SOD     NA14459   1.674   2.935   3.891  0.4306  0.6433 -0.0375
  978SOD     NA14460   3.343   3.334  12.867 -0.3203 -0.0634 -0.1937
  979SOD     NA14461   3.536   1.668  14.202  0.1809  0.4846 -0.0190
  980SOD     NA14462   3.042   2.888  14.834  0.5450 -0.0857  0.2073
  981SOD     NA14463   4.325   3.054   2.077  0.0522  0.0010 -0.0767
  982SOD     NA14464   3.194   3.032   2.104 -0.4043  0.2533 -0.0346
  983SOD     NA14465   0.864   4.043   2.282  0.0536  0.4663 -0.7276
  984SOD     NA14466   1.833   1.863  11.375  0.4159 -0.0048 -0.1966
  985SOD     NA14467   3.219   1.448   2.297 -0.3699 -0.4170 -0.5172
  986SOD     NA14468   2.043   2.635   8.647 -0.0750  0.8200  0.3292
  987SOD     NA14469   4.137   2.802   0.492  0.4937  0.0473  0.1137
  988SOD     NA14470   2.017   1.714  10.485 -0.0493  0.1970 -0.5912
  989SOD     NA14471   2.787   4.512   1.330  0.6159 -0.2467 -0.2120
  990SOD     NA14472   0.114   2.034  10.537 -0.0838 -0.2328  0.3073
  991SOD     NA14473   3.983   3.645  14.971  0.0992 -0.4406 -0.0790
  992SOD     NA14474   3.851   3.781  16.144 -0.1227 -0.2376 -0.2395
  993SOD     NA14475   0.293   0.658   2.661  0.3467  0.1415 -0.0090
  994SOD     NA14476   0.791   2.706  12.602  0.4058  0.1121 -0.0103
  995SOD     NA14477   3.055   3.214  12.779 -0.3769  0.5154  0.4732
  996SOD     NA14478   3.003   0.467  16.651 -0.5520 -0.0687 -0.0534
  997SOD     NA14479   1.469   2.367   9.800  0.2737 -0.0304 -0.1832
  998SOD     NA14480   2.784   1.035  17.481 -0.2908  0.2854  0.4124
  999SOD     NA14481   3.436   1.294   0.481  0.0236 -0.1776  0.2412
 1000SOD     NA14482   3.007   3.293  14.766  0.0670  0.3591 -0.3832
 1001SOD     NA14483   0.995   3.396   6.566 -0.1726  0.2483 -0.5227
 1002SOD     NA14484   2.326   3.492  13.939  0.3372  0.0290  0.4252
 1003SOD     NA14485   0.297   2.341   9.786  0.3864  0.8051  0.0168
 1004SOD     NA14486   3.514   1.198  12.945  0.2764 -0.6700 -0.1819
 1005SOD     NA14487   4.039   2.751   1.110 -0.0197  0.1919  0.0211
 1006SOD     NA14488   2.937   0.382   6.549 -0.0226 -0.0382 -0.3783
 1007SOD     NA14489   3.175   3.233  11.126 -0.3511 -0.5355 -0.2240
 1008SOD     NA14490   0.120   0.994  13.975 -0.6725 -0.2176  0.0413
 1009SOD     NA14491   2.817   2.381  11.059  0.1443 -0.5490 -0.2650
 1010SOD     NA14492   3.677   3.245   8.319  0.1339  0.0716  0.2328
 1011SOD     NA14493   4.439   4.538   9.562 -0.1071  0.4374 -0.3450
 1012SOL     OW14494   3.882   1.845   5.780 -0.0133  0.1633  0.0965
 1012SOL    HW114495   3.909   1.935   5.761 -1.1696  0.0462 -2.0611
 1012SOL    HW214496   3.827   1.842   5.858  0.5739  2.5217  0.5974
 1013SOL     OW14497   3.423   1.363   9.322  0.4796  0.3460 -0.3053
 1013SOL    HW114498   3.376   1.401   9.396 -2.2428 -0.7785 -1.4438
 1013SOL    HW214499   3.501   1.418   9.316  0.6390  0.1984  0.4114
 1014SOL     OW14500   1.910   4.169   4.513  0.5638  0.1380 -0.3172
 1014SOL    HW114501   1.899   4.075   4.496 -0.1084  0.3538 -1.0819
 1014SOL    HW214502   1.830   4.191   4.465  1.5813  2.2041 -1.0526
 1015SOL     OW14503   3.160   3.768   5.649  0.5804 -0.0116  0.2993
 1015SOL    HW114504   3.219   3.750   5.722  1.3822  2.3127  0.2428
 1015SOL    HW214505   3.150   3.678   5.617  2.6568  0.2747 -1.2017
 1016SOL     OW14506   1.309   3.186   8.276  0.0937  0.0632 -0.0299
 1016SOL    HW114507   1.372   3.225   8.216 -0.3697  2.4342  1.0357
 1016SOL    HW214508   1.366   3.144   8.341  1.8305  0.9019 -1.0129
 1017SOL     OW14509   3.192   1.455  12.183 -0.3816 -0.0154 -0.2371
 1017SOL    HW114510   3.231   1.425  12.265  1.5184  2.7192 -0.1386
 1017SOL    HW214511   3.146   1.374  12.162 -1.4156  0.1568  1.4077
 1018SOL     OW14512   1.923   3.597  10.927 -0.1044  0.1704 -0.2628
 1018SOL    HW114513   1.879   3.625  11.007 -1.4540 -0.7970 -0.6604
 1018SOL    HW214514   2.014   3.605  10.954 -0.2282  0.9062 -0.0764
 1019SOL     OW14515   2.974   1.381   9.062  0.8850 -0.3230 -0.2849
 1019SOL    HW114516   3.056   1.341   9.035  0.7678  0.5619 -1.9706
 1019SOL    HW214517   2.962   1.438   8.986  1.1124  0.2480  0.1064
 1020SOL     OW14518   1.156   0.634   8.894 -0.0222  0.3081  0.3511
 1020SOL    HW114519   1.213   0.566   8.931  0.9056  1.8737  1.7951
 1020SOL    HW214520   1.216   0.707   8.906  2.1061 -1.3918  0.0634
 1021SOL     OW14521   4.499   4.365   8.777 -0.2353 -0.0537  0.1447
 1021SOL    HW114522   4.443   4.420   8.832  1.1692  0.3544  1.1717
 1021SOL    HW214523   4.489   4.396   8.687 -0.1064  0.7995  0.4247
 1022SOL     OW14524   0.203   4.013   7.118  0.2064  0.1247 -0.0351
 1022SOL    HW114525   0.151   3.940   7.150  0.0451  0.7496  1.0994
 1022SOL    HW214526   0.172   4.030   7.028  0.0773  0.5100  0.0808
 1023SOL     OW14527   4.193   2.589  15.516 -0.3815  0.3602  0.5038
 1023SOL    HW114528   4.145   2.619  15.439  1.4374 -0.5083 -0.9452
 1023SOL    HW214529   4.268   2.542  15.479 -3.3432 -2.4519 -1.9210
 1024SOL     OW14530   1.097   2.875   8.318  0.8950  0.6049 -0.1818
 1024SOL    HW114531   1.062   2.870   8.407  1.0691 -0.9967 -0.2109
 1024SOL    HW214532   1.027   2.928   8.279 -0.0763 -2.6433 -2.8188
 1025SOL     OW14533   1.935   1.363  13.728  1.0678  0.1570  0.0782
 1025SOL    HW114534   1.920   1.295  13.662  0.8923  1.6422 -1.3956
 1025SOL    HW214535   1.979   1.421  13.666  1.3661  2.2521  2.2864
 1026SOL     OW14536   2.374   2.682   4.293  0.1921  1.1473 -0.0336
 1026SOL    HW114537   2.314   2.753   4.270  0.7529  1.2020 -1.3235
 1026SOL    HW214538   2.314   2.617   4.329  0.0499  0.1753 -2.0592
 1027SOL     OW14539   3.389   2.190   5.199  0.1518 -0.2344 -0.8064
 1027SOL    HW114540   3.440   2.172   5.120  0.7318 -0.6989 -0.3252
 1027SOL    HW214541   3.346   2.273   5.179  0.8355  0.4697  0.5744
 1028SOL     OW14542   2.814   0.609   7.864 -0.6054 -0.2058  0.3256
 1028SOL    HW114543   2.793   0.522   7.900  1.5218 -1.0394 -0.4422
 1028SOL    HW214544   2.817   0.661   7.945 -1.3098 -3.2571  2.3547
 1029SOL     OW14545   3.630   1.254   5.638 -0.1131 -0.0661 -0.2111
 1029SOL    HW114546   3.586   1.251   5.553 -0.6473 -2.6635  0.1382
 1029SOL    HW214547   3.611   1.344   5.664  0.9056 -0.1348  0.8129
 1030SOL     OW14548   2.505   4.440   6.414  0.1672 -0.0569 -0.2401
 1030SOL    HW114549   2.474   4.455   6.325  3.2437 -1.6913 -1.5895
 1030SOL    HW214550   2.588   4.488   6.413  1.4080 -2.1565 -0.4072
 1031SOL     OW14551   2.487   0.308  12.307 -0.2516  0.3829  0.3176
 1031SOL    HW114552   2.509   0.348  12.223 -0.8019  1.5530  0.7345
 1031SOL    HW214553   2.430   0.234  12.284  0.1041  0.2595 -0.1737
 1032SOL     OW14554   3.052   1.417   4.553 -0.4137  0.2254 -0.0507
 1032SOL    HW114555   3.138   1.415   4.511  0.0513 -1.7668  0.9899
 1032SOL    HW214556   2.993   1.391   4.482  1.3316 -2.8975 -0.3776
 1033SOL     OW14557   3.157   4.012  10.013 -0.0950 -0.1110 -0.2696
 1033SOL    HW114558   3.180   4.038   9.924  0.7012  0.1240  0.0075
 1033SOL    HW214559   3.239   4.030  10.058 -0.6922  0.2539  0.6672
 1034SOL     OW14560   4.160   0.760   6.683 -0.1397  0.1467 -0.2292
 1034SOL    HW114561   4.165   0.696   6.754 -1.7669  1.3971  1.0050
 1034SOL    HW214562   4.174   0.839   6.736 -0.3421  1.1130 -1.6295
 1035SOL     OW14563   3.996   3.867   7.170 -0.7040  0.8192  0.1682
 1035SOL    HW114564   4.012   3.774   7.153  0.3637  0.9914  0.2320
 1035SOL    HW214565   3.903   3.860   7.191 -1.4522  0.2039 -3.3863
 1036SOL     OW14566   1.185   2.310  12.667  0.0932 -0.0226 -0.2945
 1036SOL    HW114567   1.138   2.230  12.690 -3.2499  1.7540 -0.9875
 1036SOL    HW214568   1.262   2.307  12.724 -0.6955  0.7309  0.8268
 1037SOL     OW14569   1.801   3.770   6.467 -0.6113 -0.5240 -0.1656
 1037SOL    HW114570   1.858   3.776   6.391 -0.9997 -0.9076 -0.4906
 1037SOL    HW214571   1.738   3.842   6.460 -1.6005 -1.2321  1.4337
 1038SOL     OW14572   2.385   4.285  13.217  0.0259 -0.3972 -0.3023
 1038SOL    HW114573   2.449   4.235  13.267  1.5187  1.4556 -0.3939
 1038SOL    HW214574   2.364   4.359  13.273  1.0064 -0.3537  0.0100
 1039SOL     OW14575   4.520   0.935   8.651 -0.0681 -0.3630  0.3951
 1039SOL    HW114576   4.484   0.940   8.739 -0.5281 -0.4147  0.2102
 1039SOL    HW214577   4.538   1.028   8.637  0.3123 -0.5835 -0.5647
 1040SOL     OW14578   2.425   3.746   8.925  0.3745  0.6152  0.3382
 1040SOL    HW114579   2.400   3.835   8.901  0.2754  0.6208  0.4634
 1040SOL    HW214580   2.478   3.762   9.003  0.2505  0.6150  0.4228
 1041SOL     OW14581   0.288   2.181  17.678  0.0985  0.3697  0.2839
 1041SOL    HW114582   0.327   2.170  17.591  1.5488 -0.3484  1.0273
 1041SOL    HW214583   0.205   2.136  17.665  1.9308 -2.6208 -0.9844
 1042SOL     OW14584   2.521   1.795  12.238  0.5045  0.1797  0.2119
 1042SOL    HW114585   2.578   1.726  12.273 -0.2859  0.0173  1.1830
 1042SOL    HW214586   2.487   1.750  12.161  2.3511 -1.0594  0.0986
 1043SOL     OW14587   1.559   3.303   0.031  0.3156  0.4721  0.3127
 1043SOL    HW114588   1.525   3.320   0.118  0.1477 -2.1264  0.7720
 1043SOL    HW214589   1.579   3.210   0.045  1.6820  0.3339 -2.4535
 1044SOL     OW14590   2.050   4.084   3.498 -0.7778 -0.0126 -0.0300
 1044SOL    HW114591   2.112   4.041   3.557 -1.2376  0.4417  0.7835
 1044SOL    HW214592   2.082   4.055   3.413 -1.2170 -0.9561  0.1314
 1045SOL     OW14593   1.234   0.863   6.514  0.3203 -0.7413  0.4428
 1045SOL    HW114594   1.161   0.875   6.575 -1.5979 -0.2399 -1.9407
 1045SOL    HW214595   1.287   0.938   6.542 -2.7109  0.6518  2.4851
 1046SOL     OW14596   1.727   3.641   9.312 -0.4765 -0.0277 -0.5252
 1046SOL    HW114597   1.674   3.562   9.320  3.4760 -2.4400  1.2507
 1046SOL    HW214598   1.788   3.644   9.385 -1.5321  2.2487  0.3047
 1047SOL     OW14599   2.483   3.426   4.353  0.1254  0.2019  0.0484
 1047SOL    HW114600   2.408   3.457   4.303 -0.0935  0.1495  0.3507
 1047SOL    HW214601   2.448   3.340   4.377 -0.1138  0.4617  0.6184
 1048SOL     OW14602   3.665   3.788  16.031  0.2852 -0.4858 -0.3537
 1048SOL    HW114603   3.646   3.709  15.981  1.6514 -2.1392  1.7455
 1048SOL    HW214604   3.604   3.845  15.984  1.3328 -0.3061 -1.5277
 1049SOL     OW14605   2.844   0.821   5.686  0.2008  0.2113  0.5929
 1049SOL    HW114606   2.879   0.908   5.705  0.9478 -0.4292  2.1610
 1049SOL    HW214607   2.828   0.841   5.593 -0.5920  0.0795  0.7051
 1050SOL     OW14608   0.669   3.683   3.655  0.0984 -0.5695  0.4924
 1050SOL    HW114609   0.704   3.772   3.648 -0.5270 -0.4429 -1.0808
 1050SOL    HW214610   0.746   3.643   3.696  0.4112  0.7402  1.1781
 1051SOL     OW14611   2.248   4.680   2.291 -0.3721 -0.1468  0.0224
 1051SOL    HW114612   2.275   0.047   2.306 -1.4991  0.2728 -0.4477
 1051SOL    HW214613   2.328   4.636   2.321 -1.0557 -2.5450 -1.6571
 1052SOL     OW14614   1.997   4.115   1.800 -0.5444 -0.3267  0.2891
 1052SOL    HW114615   1.939   4.181   1.762  0.9104 -0.1981 -1.7120
 1052SOL    HW214616   1.987   4.044   1.737  1.8101  0.2597 -0.7711
 1053SOL     OW14617   3.481   1.467   4.210  0.1299  0.5718 -0.1420
 1053SOL    HW114618   3.417   1.499   4.146  0.6559 -0.2810 -1.1031
 1053SOL    HW214619   3.532   1.547   4.224  0.1280  0.3219  1.2234
 1054SOL     OW14620   2.929   4.207   4.614 -0.3914 -0.8702  0.2103
 1054SOL    HW114621   2.931   4.176   4.704 -1.0316  0.1477  0.5694
 1054SOL    HW214622   2.864   4.152   4.571 -2.1648  1.1141  0.3968
 1055SOL     OW14623   3.122   2.150   5.818  0.1219  0.6778  0.4692
 1055SOL    HW114624   3.158   2.195   5.741 -2.2067  1.1279 -0.3439
 1055SOL    HW214625   3.032   2.182   5.816  0.5341  1.8148  0.2176
 1056SOL     OW14626   0.976   0.896   3.554  0.6156  0.3237  0.0139
 1056SOL    HW114627   0.980   0.857   3.467 -1.9313  1.5361 -0.6252
 1056SOL    HW214628   0.915   0.968   3.538  0.2400 -0.2020 -0.9494
 1057SOL     OW14629   1.200   2.089   4.222 -0.0756  0.3602 -0.1702
 1057SOL    HW114630   1.278   2.048   4.258  0.7560  1.0898 -1.1570
 1057SOL    HW214631   1.194   2.073   4.128 -1.3649  0.4185 -0.1070
 1058SOL     OW14632   3.711   0.633  16.461 -0.1119  0.0702 -0.6685
 1058SOL    HW114633   3.758   0.576  16.400  1.3204  0.2022  0.3123
 1058SOL    HW214634   3.651   0.569  16.499 -1.7348  1.0786 -1.5209
 1059SOL     OW14635   1.507   2.498   2.119  0.9342 -0.5153 -0.4815
 1059SOL    HW114636   1.585   2.445   2.135 -0.2748 -1.8729  0.9988
 1059SOL    HW214637   1.536   2.574   2.070  0.1787  0.1534  0.0945
 1060SOL     OW14638   4.513   0.360   2.836  0.0032 -0.1375  0.0286
 1060SOL    HW114639   4.524   0.313   2.753 -0.4985 -0.8027  0.3311
 1060SOL    HW214640   4.454   0.304   2.887 -2.8830  1.9246 -1.0629
 1061SOL     OW14641   3.318   2.144   2.014  0.4594  0.0713  0.1605
 1061SOL    HW114642   3.401   2.123   1.970  0.3985 -1.4162  0.7659
 1061SOL    HW214643   3.251   2.110   1.955  2.1061 -1.6030 -0.7337
 1062SOL     OW14644   1.284   3.725   4.789  0.0016 -0.1593 -0.1731
 1062SOL    HW114645   1.262   3.784   4.860  0.9183 -0.0783  0.0469
 1062SOL    HW214646   1.377   3.747   4.787  0.4384 -2.0274 -0.6895
 1063SOL     OW14647   3.188   0.181   1.486  0.4759  0.3244  0.2612
 1063SOL    HW114648   3.215   0.129   1.410 -0.7814  2.7353 -1.8418
 1063SOL    HW214649   3.098   0.148   1.494  0.4932 -0.2632 -1.9483
 1064SOL     OW14650   3.397   1.143   4.944 -0.4086  0.6107 -0.7743
 1064SOL    HW114651   3.453   1.220   4.933  2.1834 -1.5358 -2.8095
 1064SOL    HW214652   3.353   1.145   4.858 -0.2825  1.0395 -0.8320
 1065SOL     OW14653   2.641   2.966   8.611 -0.3309 -0.0080  0.0749
 1065SOL    HW114654   2.605   3.034   8.668 -0.4627  0.6614 -0.8041
 1065SOL    HW214655   2.610   3.001   8.527  1.1339  0.3757 -0.3120
 1066SOL     OW14656   2.182   4.471   6.078  0.2039  0.1891 -0.3660
 1066SOL    HW114657   2.265   4.501   6.113 -0.0831 -0.4499  0.8310
 1066SOL    HW214658   2.143   4.433   6.156  0.8958 -0.2435 -0.2413
 1067SOL     OW14659   0.020   3.597  16.499  0.1088 -0.6138 -0.7881
 1067SOL    HW114660   0.071   3.600  16.418  2.1050  1.5707  0.5483
 1067SOL    HW214661   0.081   3.629  16.565 -2.8535  1.5583  0.9343
 1068SOL     OW14662   3.838   4.321   4.551 -0.5099 -0.2731  0.1748
 1068SOL    HW114663   3.872   4.266   4.622  0.2431 -0.1504 -0.0862
 1068SOL    HW214664   3.912   4.324   4.490 -1.4073 -2.4664 -1.0150
 1069SOL     OW14665   0.438   4.613  14.254 -0.3147 -0.4451 -0.2352
 1069SOL    HW114666   0.530   4.634  14.268 -0.3739 -0.9282  0.8878
 1069SOL    HW214667   0.432   4.531  14.301  1.3279  0.7004  1.9898
 1070SOL     OW14668   1.967   0.291   6.874  0.1424  0.3219  0.2473
 1070SOL    HW114669   1.995   0.205   6.840  0.2835  0.1927  0.6957
 1070SOL    HW214670   2.026   0.357   6.838  2.2915 -1.5477  0.3728
 1071SOL     OW14671   2.819   2.247   6.596  0.0276 -0.0975  0.1215
 1071SOL    HW114672   2.857   2.288   6.673  0.2091  0.8507 -0.4786
 1071SOL    HW214673   2.888   2.184   6.572  0.7016 -0.1134  2.0635
 1072SOL     OW14674   2.309   1.159   3.610 -0.1357 -0.0067  0.4286
 1072SOL    HW114675   2.299   1.206   3.693  1.4130  0.6279  0.2759
 1072SOL    HW214676   2.284   1.072   3.639  0.1891  0.3162  1.6855
 1073SOL     OW14677   3.534   1.174  13.561  0.7826 -0.6635 -0.2571
 1073SOL    HW114678   3.555   1.200  13.471 -3.0660 -0.3272 -1.0555
 1073SOL    HW214679   3.600   1.215  13.617 -0.4161  0.3072  0.4285
 1074SOL     OW14680   0.273   0.430   8.825 -0.0419  0.3349  0.4590
 1074SOL    HW114681   0.198   0.463   8.873 -1.0389 -0.4005 -0.5915
 1074SOL    HW214682   0.255   0.342   8.792  0.3476  0.2167  0.5542
 1075SOL     OW14683   1.458   0.521   6.860 -0.0667  0.1126 -0.1836
 1075SOL    HW114684   1.392   0.550   6.798 -0.1158  1.0453  0.2979
 1075SOL    HW214685   1.403   0.470   6.920 -1.5370  0.0855 -1.5504
 1076SOL     OW14686   3.286   4.046  15.187 -0.1514 -0.0380  0.1117
 1076SOL    HW114687   3.369   4.068  15.143  2.0301 -1.2984  3.5642
 1076SOL    HW214688   3.262   4.132  15.221  1.4519  0.5455 -0.1904
 1077SOL     OW14689   0.183   4.691   4.174 -0.3613 -0.0702  0.1943
 1077SOL    HW114690   0.151   4.602   4.162 -2.1199  0.5810  0.1736
 1077SOL    HW214691   0.160   4.699   4.267  0.3542  1.7800  0.2266
 1078SOL     OW14692   2.313   4.438  14.710  0.2428 -0.2177 -0.3947
 1078SOL    HW114693   2.234   4.466  14.663 -1.3106 -3.0277  0.5016
 1078SOL    HW214694   2.350   4.524  14.730 -0.0668  0.3654 -2.3775
 1079SOL     OW14695   1.992   4.527  13.966  0.6659 -0.7738 -0.0309
 1079SOL    HW114696   1.978   4.462  13.897 -1.5510 -1.7882  1.3593
 1079SOL    HW214697   1.979   4.612  13.923  2.7936 -0.2118  0.4426
 1080SOL     OW14698   2.315   0.971  10.417  0.0127  0.8785  0.0454
 1080SOL    HW114699   2.224   0.999  10.427  0.1431  1.6291 -0.8364
 1080SOL    HW214700   2.310   0.880  10.446 -0.4758  0.2409 -2.0063
 1081SOL     OW14701   1.044   0.253  11.805  0.4800  0.5307 -0.7315
 1081SOL    HW114702   0.978   0.218  11.745 -0.4819 -0.3068  0.8040
 1081SOL    HW214703   0.995   0.327  11.841 -0.9966 -0.7808 -0.0129
 1082SOL     OW14704   1.120   0.866   8.596  0.1411  0.0836  0.0663
 1082SOL    HW114705   1.062   0.865   8.672  0.3735 -1.0480  0.2310
 1082SOL    HW214706   1.091   0.943   8.547  0.6622  1.6037  2.1495
 1083SOL     OW14707   3.637   2.612  16.963  0.6151 -0.2932 -0.1373
 1083SOL    HW114708   3.613   2.645  17.050  0.6036 -0.9479  0.1101
 1083SOL    HW214709   3.680   2.530  16.990  2.5292  1.3930  1.9418
 1084SOL     OW14710   2.180   1.526   8.094  0.1704 -0.1646  0.1615
 1084SOL    HW114711   2.087   1.532   8.075 -0.0037 -2.1030  0.4318
 1084SOL    HW214712   2.177   1.438   8.133 -0.0722 -1.3503 -2.5371
 1085SOL     OW14713   2.790   0.484   7.078  0.7896 -0.0180  0.3056
 1085SOL    HW114714   2.860   0.447   7.024  0.2369 -1.1607  0.3880
 1085SOL    HW214715   2.717   0.425   7.060  1.2957 -0.9410  1.2516
 1086SOL     OW14716   4.029   2.698   8.206 -0.2505 -0.4511  0.4110
 1086SOL    HW114717   3.988   2.733   8.285 -0.9226 -1.6068  0.5845
 1086SOL    HW214718   4.121   2.706   8.229 -0.4152 -0.4870  1.0888
 1087SOL     OW14719   2.622   3.747  14.521  0.0287  0.0742  0.7448
 1087SOL    HW114720   2.657   3.708  14.441 -1.9958 -0.8690  0.3257
 1087SOL    HW214721   2.568   3.815  14.481  2.9334  0.6443 -2.2121
 1088SOL     OW14722   3.493   2.917   6.946  0.4876  0.4153 -0.0071
 1088SOL    HW114723   3.495   2.971   6.867  0.9139  1.9509  1.0554
 1088SOL    HW214724   3.568   2.866   6.916 -0.3941 -0.6952 -0.3145
 1089SOL     OW14725   2.260   2.318  16.027  0.1985  0.1842 -0.0058
 1089SOL    HW114726   2.232   2.400  15.986  0.4275 -0.2789 -1.0648
 1089SOL    HW214727   2.262   2.354  16.116  0.8251 -2.1608  0.9195
 1090SOL     OW14728   2.913   0.429   4.135 -0.5651  0.1757 -0.1698
 1090SOL    HW114729   2.846   0.490   4.103 -0.3311  0.7803  0.5086
 1090SOL    HW214730   2.882   0.404   4.222  1.9535 -0.5460  0.4956
 1091SOL     OW14731   0.042   4.071   8.819  0.0844 -0.3036 -0.4637
 1091SOL    HW114732   0.038   4.158   8.779 -0.2283 -0.2696 -0.3544
 1091SOL    HW214733   0.083   4.088   8.904 -0.6873 -0.4776 -0.0612
 1092SOL     OW14734   0.164   3.543   3.096  0.4675 -0.0554 -0.0915
 1092SOL    HW114735   0.218   3.505   3.027 -0.9233 -2.1312 -0.0428
 1092SOL    HW214736   0.228   3.588   3.151  1.5658 -2.5570  0.6181
 1093SOL     OW14737   3.324   0.741   7.125  0.2364  0.0038  0.6292
 1093SOL    HW114738   3.268   0.810   7.160  1.8963  2.7875 -2.1685
 1093SOL    HW214739   3.287   0.670   7.177  1.4947  0.7799  2.5886
 1094SOL     OW14740   0.209   1.725   4.201 -0.4417  0.0367 -0.0976
 1094SOL    HW114741   0.169   1.788   4.140 -1.4572  0.1297  0.6755
 1094SOL    HW214742   0.291   1.772   4.209 -0.2724 -0.7221  2.4098
 1095SOL     OW14743   3.685   3.697   8.338  0.1028  0.4609  0.0438
 1095SOL    HW114744   3.621   3.742   8.394 -0.7037  0.0953 -0.5853
 1095SOL    HW214745   3.720   3.634   8.401 -0.1977 -0.9230 -1.1596
 1096SOL     OW14746   4.089   2.420   3.512  0.3160  0.4228  0.4983
 1096SOL    HW114747   4.034   2.376   3.577 -0.7062  0.9586  0.0077
 1096SOL    HW214748   4.043   2.416   3.428 -1.0600 -1.4523  1.3591
 1097SOL     OW14749   0.657   3.152   9.692  0.3461 -0.0125  0.2930
 1097SOL    HW114750   0.577   3.195   9.723  0.3182 -0.9488  1.5397
 1097SOL    HW214751   0.671   3.073   9.745 -1.0476  0.5565  1.5272
 1098SOL     OW14752   0.722   1.357   2.087 -0.1333  0.5744 -0.2808
 1098SOL    HW114753   0.718   1.265   2.062 -0.2103  1.1990 -2.5189
 1098SOL    HW214754   0.814   1.377   2.103 -0.0575 -0.4825  0.6305
 1099SOL     OW14755   0.844   3.035  15.728 -0.4479  0.4997  0.1838
 1099SOL    HW114756   0.796   3.099  15.782 -1.0684  0.3778 -0.2204
 1099SOL    HW214757   0.835   3.064  15.637  3.4661 -0.6788 -0.5707
 1100SOL     OW14758   2.847   3.342   8.220  0.3568  0.8180  0.1647
 1100SOL    HW114759   2.772   3.300   8.262 -0.8356  3.8725  1.1026
 1100SOL    HW214760   2.914   3.366   8.284 -0.1347 -1.1879  1.4333
 1101SOL     OW14761   1.262   3.236   5.582 -0.0611  0.4945 -0.1662
 1101SOL    HW114762   1.346   3.238   5.535  0.0641  3.6060  0.1940
 1101SOL    HW214763   1.267   3.295   5.657 -2.4018  0.8178 -0.2844
 1102SOL     OW14764   0.180   2.679  11.294 -0.2370 -0.2608  0.5741
 1102SOL    HW114765   0.167   2.772  11.276  2.7965  0.1490  0.4051
 1102SOL    HW214766   0.191   2.635  11.210 -0.2507 -1.2577  1.0981
 1103SOL     OW14767   0.469   2.495   2.661 -0.2611  0.0693  0.4405
 1103SOL    HW114768   0.550   2.506   2.612 -1.1322  1.9073 -0.6012
 1103SOL    HW214769   0.454   2.401   2.663 -0.1845  0.0400 -0.4271
 1104SOL     OW14770   2.564   2.103   4.684  0.3607 -0.0351  0.0618
 1104SOL    HW114771   2.607   2.023   4.653 -0.4179 -1.1071  1.7403
 1104SOL    HW214772   2.578   2.164   4.612  2.1911 -1.8516 -1.1302
 1105SOL     OW14773   2.229   4.222  16.287  0.5205 -0.0639  0.4190
 1105SOL    HW114774   2.204   4.200  16.376  2.8070  0.8110  1.2761
 1105SOL    HW214775   2.312   4.267  16.302  0.3521  0.5290 -0.3959
 1106SOL     OW14776   2.713   1.486  15.695 -0.3200  0.0327  0.4080
 1106SOL    HW114777   2.684   1.572  15.724 -0.8752  0.3124 -1.0145
 1106SOL    HW214778   2.637   1.434  15.723 -1.1509  0.3394 -1.2785
 1107SOL     OW14779   3.540   4.215   9.979 -0.0238 -0.0548 -0.0163
 1107SOL    HW114780   3.581   4.149   9.923 -0.8502 -0.4747 -0.1320
 1107SOL    HW214781   3.461   4.234   9.929 -0.0750 -0.4861 -0.1071
 1108SOL     OW14782   0.879   1.983  13.596  0.0649 -0.3307  0.3222
 1108SOL    HW114783   0.916   2.015  13.514 -0.0854 -2.3354 -0.5336
 1108SOL    HW214784   0.927   1.901  13.606 -1.4649 -1.2384  0.3094
 1109SOL     OW14785   2.031   1.268   8.146  0.3502 -0.2790 -0.2935
 1109SOL    HW114786   1.955   1.306   8.103  1.3613  1.2032 -0.8032
 1109SOL    HW214787   2.018   1.174   8.139  1.0021 -0.4033  0.1298
 1110SOL     OW14788   0.830   0.539   6.071  0.5167  0.0876  0.0236
 1110SOL    HW114789   0.771   0.557   6.144 -0.9398  1.3544 -1.4760
 1110SOL    HW214790   0.896   0.609   6.071  1.3334 -0.6822  0.4877
 1111SOL     OW14791   1.388   1.824   2.464  0.4221 -0.4539  0.2487
 1111SOL    HW114792   1.300   1.823   2.500  1.3241  1.0224  2.5086
 1111SOL    HW214793   1.351   1.815   2.376  1.8869 -1.1138 -0.3048
 1112SOL     OW14794   3.791   0.804  15.662  0.5219  0.1126  0.2472
 1112SOL    HW114795   3.727   0.858  15.708  0.7346  0.3532  0.2601
 1112SOL    HW214796   3.874   0.844  15.685 -0.0211  1.7564 -0.6498
 1113SOL     OW14797   0.102   2.073   6.010 -0.9235  0.0741 -0.3833
 1113SOL    HW114798   0.082   2.021   5.933 -0.7128  0.0451 -0.4204
 1113SOL    HW214799   0.128   2.155   5.967  2.1371 -1.4615 -1.4593
 1114SOL     OW14800   1.893   0.918  17.050  0.1118  0.5844 -0.0533
 1114SOL    HW114801   1.812   0.868  17.063  0.2453  0.5476  0.6688
 1114SOL    HW214802   1.956   0.847  17.054 -2.5012 -1.6200  2.0958
 1115SOL     OW14803   0.522   3.920  12.969  0.4891  0.5151  0.2326
 1115SOL    HW114804   0.571   3.953  12.893  0.3035  1.5151  0.5501
 1115SOL    HW214805   0.586   3.886  13.031  1.5924 -1.1642 -1.7926
 1116SOL     OW14806   3.823   0.523   7.300 -0.6249 -0.7668  0.9316
 1116SOL    HW114807   3.789   0.450   7.249 -0.6282 -1.8313  2.4435
 1116SOL    HW214808   3.870   0.560   7.225 -1.1012 -3.5040 -0.7063
 1117SOL     OW14809   4.463   2.235   9.155 -0.1131 -0.0928  0.0250
 1117SOL    HW114810   4.485   2.238   9.062  1.5387 -1.0682  0.3967
 1117SOL    HW214811   4.508   2.314   9.184 -2.6332  1.0993  0.7338
 1118SOL     OW14812   2.023   0.556   0.746  0.1803 -0.0747 -0.1862
 1118SOL    HW114813   1.960   0.568   0.817  0.7168 -0.5949  0.3741
 1118SOL    HW214814   1.987   0.479   0.702 -1.0042  0.0685  0.5248
 1119SOL     OW14815   1.852   1.398   6.187  0.1020  0.7669  0.2598
 1119SOL    HW114816   1.856   1.376   6.094 -0.0181  1.9225 -0.0142
 1119SOL    HW214817   1.849   1.492   6.170 -0.2978  0.4447 -1.4304
 1120SOL     OW14818   4.307   4.327   3.854  0.0842  0.1481  0.2383
 1120SOL    HW114819   4.316   4.250   3.797  0.8321  1.6244 -1.6635
 1120SOL    HW214820   4.324   4.288   3.939 -0.0658 -1.1921 -0.3446
 1121SOL     OW14821   1.087   2.349   6.944  0.5585 -0.8576  0.2501
 1121SOL    HW114822   1.137   2.274   6.913  1.7440 -0.6004  1.5233
 1121SOL    HW214823   1.022   2.352   6.874  1.2090 -0.2708 -0.3402
 1122SOL     OW14824   1.731   1.144   5.640  0.3293 -0.0025 -0.3671
 1122SOL    HW114825   1.722   1.064   5.692 -1.6828  0.8905  0.6686
 1122SOL    HW214826   1.804   1.177   5.692 -0.7714  0.5492  0.8092
 1123SOL     OW14827   2.800   3.167   8.880  0.3123  0.1041  0.1234
 1123SOL    HW114828   2.802   3.122   8.965  0.3791  2.2881  1.2842
 1123SOL    HW214829   2.707   3.169   8.858 -0.0475 -0.2729  1.6035
 1124SOL     OW14830   2.556   2.097   4.982  0.1920 -0.2837 -0.1233
 1124SOL    HW114831   2.610   2.106   4.903 -0.8155  1.8249 -0.5574
 1124SOL    HW214832   2.506   2.178   4.975 -1.8274 -1.5913 -0.6967
 1125SOL     OW14833   0.539   2.472   9.147 -0.5818 -0.3236  0.1836
 1125SOL    HW114834   0.521   2.398   9.089  0.1727  0.9467 -1.6984
 1125SOL    HW214835   0.468   2.532   9.125  0.7510  1.9046  1.9788
 1126SOL     OW14836   4.374   0.545   1.550 -0.3163 -0.1581  0.6266
 1126SOL    HW114837   4.414   0.494   1.480  0.3312  0.0000  0.8763
 1126SOL    HW214838   4.445   0.589   1.597  1.5274 -3.2279  0.6783
 1127SOL     OW14839   3.701   3.756  12.688 -0.5645 -0.0869  0.5332
 1127SOL    HW114840   3.628   3.742  12.628  1.0563  0.2919 -1.4976
 1127SOL    HW214841   3.760   3.683  12.670 -1.2373 -0.3631 -0.5500
 1128SOL     OW14842   4.401   3.598   3.725 -0.2553 -0.1963  0.1144
 1128SOL    HW114843   4.496   3.589   3.729  0.0504  3.4871  1.1899
 1128SOL    HW214844   4.370   3.510   3.744 -0.9267  0.1423  0.5708
 1129SOL     OW14845   2.730   3.040   4.089 -0.2894 -0.3168  0.2190
 1129SOL    HW114846   2.743   3.060   4.181 -1.6207  1.0334  0.1296
 1129SOL    HW214847   2.696   2.952   4.102  1.2833 -0.9109  0.2668
 1130SOL     OW14848   1.492   2.220  11.980 -0.6781 -0.0248  0.2101
 1130SOL    HW114849   1.586   2.203  11.985 -0.3017  1.5517 -1.3920
 1130SOL    HW214850   1.484   2.280  12.054 -2.6349  0.3765 -0.3065
 1131SOL     OW14851   0.790   1.721   5.888  0.5113  0.0139  0.4313
 1131SOL    HW114852   0.860   1.661   5.912 -0.7719 -1.7450 -0.1442
 1131SOL    HW214853   0.811   1.736   5.796 -2.3340  2.5476  0.1809
 1132SOL     OW14854   0.860   2.443  15.076 -0.3921  0.1157 -0.4295
 1132SOL    HW114855   0.885   2.497  15.151 -1.2816  1.4936 -1.1250
 1132SOL    HW214856   0.780   2.400  15.108  0.9857 -1.6379  0.6377
 1133SOL     OW14857   2.986   0.023   4.775 -0.3853  0.2791 -0.4595
 1133SOL    HW114858   2.994   0.062   4.688 -0.6222 -1.0876 -1.0883
 1133SOL    HW214859   3.061   4.687   4.776 -0.2579  0.4766  2.8526
 1134SOL     OW14860   2.882   1.333  15.223 -0.3117 -0.0011  0.4244
 1134SOL    HW114861   2.883   1.428  15.238  0.9073  0.2265 -1.1014
 1134SOL    HW214862   2.818   1.319  15.293 -0.0325 -0.9414  0.4891
 1135SOL     OW14863   0.014   0.825   6.356 -0.0004 -0.4081  0.3965
 1135SOL    HW114864   4.699   0.785   6.434 -0.0412  1.7067  1.4651
 1135SOL    HW214865   0.063   0.759   6.308 -0.9263 -2.0028  1.6680
 1136SOL     OW14866   4.508   1.672   4.569  0.9092  0.1093  0.0891
 1136SOL    HW114867   4.587   1.621   4.589 -1.1468 -2.0537  2.5671
 1136SOL    HW214868   4.511   1.677   4.474 -0.3856 -0.8520  0.0120
 1137SOL     OW14869   0.409   4.480   7.772  0.5034 -0.0557 -0.5235
 1137SOL    HW114870   0.355   4.451   7.699  0.5913  0.1632 -0.6740
 1137SOL    HW214871   0.479   4.415   7.764  1.5210  1.1709 -1.6178
 1138SOL     OW14872   2.614   0.891   7.637 -0.4153 -0.2457 -0.2780
 1138SOL    HW114873   2.561   0.853   7.706  0.6063  0.0179  0.6507
 1138SOL    HW214874   2.696   0.916   7.679  0.0691 -1.2045 -0.6403
 1139SOL     OW14875   3.208   4.040   3.734 -0.5401  0.2608 -0.1567
 1139SOL    HW114876   3.279   4.076   3.681  1.3771  0.8877  2.8813
 1139SOL    HW214877   3.203   4.099   3.809 -0.3762 -0.1307  0.1644
 1140SOL     OW14878   1.988   4.021   6.423  0.8342 -0.5572  0.0796
 1140SOL    HW114879   2.021   3.990   6.338  0.7834  0.5129 -0.3378
 1140SOL    HW214880   2.048   4.092   6.445 -0.6729  0.0571  2.1855
 1141SOL     OW14881   1.775   4.071   0.148 -0.1706  0.0033  0.5613
 1141SOL    HW114882   1.766   3.987   0.192 -0.6868  0.5569  1.5050
 1141SOL    HW214883   1.855   4.100   0.190  0.2781  0.5825 -0.6812
 1142SOL     OW14884   0.057   2.426   5.824  0.1287  0.9005  0.0579
 1142SOL    HW114885   0.077   2.493   5.890 -0.8839  2.1181 -0.8730
 1142SOL    HW214886   0.128   2.365   5.844 -2.6671 -2.0908  0.8397
 1143SOL     OW14887   3.793   4.217   1.391 -0.0593  0.1182 -0.2118
 1143SOL    HW114888   3.758   4.162   1.321  2.9374 -2.2376  0.1261
 1143SOL    HW214889   3.748   4.182   1.468  1.6723 -0.2965  0.6128
 1144SOL     OW14890   0.441   1.917   6.638  0.6667  0.2967  0.1275
 1144SOL    HW114891   0.356   1.934   6.598  0.4904 -2.9025 -0.8294
 1144SOL    HW214892   0.477   1.874   6.561 -0.0737  0.9442 -0.5732
 1145SOL     OW14893   3.393   1.070   1.979  0.2659 -0.4302  0.2730
 1145SOL    HW114894   3.484   1.099   1.977  0.5221 -1.3783 -1.4943
 1145SOL    HW214895   3.379   1.058   1.885 -1.3338 -0.9475  0.5677
 1146SOL     OW14896   4.087   1.982   3.042  0.0723  0.5577 -0.5192
 1146SOL    HW114897   4.175   2.019   3.041  1.4745 -2.9075 -1.5757
 1146SOL    HW214898   4.100   1.893   3.075 -2.3084  0.3446 -0.0993
 1147SOL     OW14899   4.705   4.689   3.582 -0.5320 -0.3635  0.3312
 1147SOL    HW114900   0.017   4.697   3.671 -0.9381 -0.1661  0.4719
 1147SOL    HW214901   4.674   4.599   3.575 -3.4729  0.5852  1.1388
 1148SOL     OW14902   4.537   4.381   4.806 -0.7535  0.3120  0.5393
 1148SOL    HW114903   4.457   4.378   4.754 -1.4382  2.3547  1.4900
 1148SOL    HW214904   4.511   4.443   4.874  1.4159  1.7286  0.0670
 1149SOL     OW14905   3.996   2.294   0.175 -0.3904  0.4204 -0.1328
 1149SOL    HW114906   4.069   2.295   0.236 -0.3297  1.6697 -0.2345
 1149SOL    HW214907   4.037   2.304   0.089 -1.0183 -0.3748 -0.5321
 1150SOL     OW14908   1.295   4.558  13.631  0.1969 -0.0256  0.5195
 1150SOL    HW114909   1.224   4.616  13.658  1.4993  0.9389  1.8845
 1150SOL    HW214910   1.274   4.489  13.694 -2.0120 -0.9792 -1.2663
 1151SOL     OW14911   3.170   0.703  17.493 -0.4066 -0.1544  0.3126
 1151SOL    HW114912   3.192   0.772  17.554  0.3581 -0.9623  0.9525
 1151SOL    HW214913   3.115   0.649  17.550 -1.0432  0.2537  0.0888
 1152SOL     OW14914   0.707   1.086   2.042  0.2401  0.2803  0.1263
 1152SOL    HW114915   0.782   1.099   2.099 -0.3170 -0.0680  0.9319
 1152SOL    HW214916   0.683   0.995   2.058 -1.4461  0.5410 -0.9265
 1153SOL     OW14917   2.404   2.612   2.051 -0.4640 -0.1730  0.0359
 1153SOL    HW114918   2.467   2.592   1.982  0.6853 -0.2773  1.1070
 1153SOL    HW214919   2.365   2.525   2.053  0.8555 -0.7910 -0.6575
 1154SOL     OW14920   2.213   4.372   2.034 -0.1698  0.3195  0.5360
 1154SOL    HW114921   2.244   4.294   1.988  2.7125  1.5503  0.4306
 1154SOL    HW214922   2.249   4.432   1.969  0.7435 -0.7528  0.0528
 1155SOL     OW14923   2.151   2.630   5.260  0.4256 -0.0500  0.2604
 1155SOL    HW114924   2.086   2.698   5.278 -1.8436 -1.8523 -1.1495
 1155SOL    HW214925   2.191   2.628   5.346 -0.2759  2.9746  0.6782
 1156SOL     OW14926   4.244   1.428  15.134 -0.1497  0.6037  0.3423
 1156SOL    HW114927   4.336   1.425  15.160  0.6535  0.5944 -2.5290
 1156SOL    HW214928   4.213   1.441  15.223 -2.3983  0.0248 -0.3575
 1157SOL     OW14929   1.602   2.899   1.056  0.3106 -0.5472  0.1928
 1157SOL    HW114930   1.681   2.851   1.032  0.1678 -0.4937 -0.3980
 1157SOL    HW214931   1.550   2.919   0.978  0.2565  2.3881  0.9812
 1158SOL     OW14932   3.134   0.638   2.047 -0.3333 -0.0109 -0.0410
 1158SOL    HW114933   3.119   0.675   2.134  0.6365  0.6905 -0.1667
 1158SOL    HW214934   3.086   0.696   1.989  0.6209 -1.8370 -2.6604
 1159SOL     OW14935   1.737   3.854   1.933 -0.2146  0.0797 -0.5705
 1159SOL    HW114936   1.712   3.946   1.932  0.4344  0.2753  1.6641
 1159SOL    HW214937   1.723   3.838   2.027 -0.3268 -1.7992 -0.8949
 1160SOL     OW14938   2.950   3.354  17.356 -0.7312  0.0130  0.1166
 1160SOL    HW114939   2.982   3.429  17.306 -1.0089 -0.1526 -0.3205
 1160SOL    HW214940   2.946   3.291  17.284  0.0325 -1.7011  1.5620
 1161SOL     OW14941   0.383   3.511  16.009 -0.3491 -0.0689  0.3136
 1161SOL    HW114942   0.290   3.520  15.985  0.1324 -0.9963 -1.9947
 1161SOL    HW214943   0.400   3.597  16.047 -3.2694 -0.2375  2.0083
 1162SOL     OW14944   2.639   0.559   1.647  0.4458 -0.3870 -0.4798
 1162SOL    HW114945   2.684   0.612   1.713 -0.9108  2.1868 -1.6088
 1162SOL    HW214946   2.624   0.624   1.578  2.6109 -0.5545 -1.1120
 1163SOL     OW14947   1.925   3.035   7.926 -0.3437 -0.2155  0.3121
 1163SOL    HW114948   1.893   3.004   7.842  0.1522  0.0012  0.0390
 1163SOL    HW214949   1.967   3.120   7.912 -0.7463 -0.3181 -1.5105
 1164SOL     OW14950   0.097   3.304   8.696  0.0120  0.0763  0.1419
 1164SOL    HW114951   0.177   3.276   8.740  1.1444  0.2005 -1.8396
 1164SOL    HW214952   0.097   3.254   8.615  1.3076 -0.8437  0.7127
 1165SOL     OW14953   4.368   3.030   5.985 -0.2995 -0.0656 -0.0213
 1165SOL    HW114954   4.332   2.953   6.031  0.7363 -0.9200 -0.6645
 1165SOL    HW214955   4.328   3.095   6.043 -0.6173  0.3907 -0.7527
 1166SOL     OW14956   4.476   1.986   5.054  0.1762 -0.3254 -0.0236
 1166SOL    HW114957   4.450   1.968   5.144 -1.1423  1.6689 -0.0085
 1166SOL    HW214958   4.391   2.009   5.015  0.4890 -1.9663 -1.6819
 1167SOL     OW14959   3.553   0.305   3.783 -0.1862 -0.1007 -0.8046
 1167SOL    HW114960   3.626   0.353   3.745  0.4732 -0.5480 -0.1016
 1167SOL    HW214961   3.522   0.246   3.714  1.9031 -0.4583 -1.4468
 1168SOL     OW14962   4.146   0.252   8.132  0.0056  0.9344  0.7368
 1168SOL    HW114963   4.123   0.165   8.165 -2.5475  0.7778 -1.4276
 1168SOL    HW214964   4.164   0.227   8.041  0.7804  2.7179  0.3991
 1169SOL     OW14965   4.533   2.509  13.696  0.8248 -0.1785 -0.1126
 1169SOL    HW114966   4.541   2.561  13.617  1.4459  1.8470  1.2937
 1169SOL    HW214967   4.477   2.562  13.753  1.9973  0.8603  0.0532
 1170SOL     OW14968   1.900   1.746  17.374  0.5249 -0.2365 -0.1490
 1170SOL    HW114969   1.950   1.820  17.409 -1.1213  0.3274  1.0201
 1170SOL    HW214970   1.832   1.739  17.441  0.8159 -1.0071  0.0574
 1171SOL     OW14971   0.211   2.835   2.709  0.3629 -0.0955  0.7029
 1171SOL    HW114972   0.226   2.769   2.776  1.2687  0.0134  0.6144
 1171SOL    HW214973   0.249   2.789   2.633 -2.1799 -0.5654 -0.2730
 1172SOL     OW14974   3.485   4.348   5.168  0.0183 -0.1743  0.1990
 1172SOL    HW114975   3.445   4.353   5.082 -1.4657  0.8941  0.9540
 1172SOL    HW214976   3.480   4.442   5.188  0.5555  0.2637 -1.7906
 1173SOL     OW14977   1.288   3.852   3.520 -0.5746 -0.0817  0.6731
 1173SOL    HW114978   1.337   3.929   3.492 -0.7452 -0.2514 -0.0806
 1173SOL    HW214979   1.280   3.811   3.434 -1.6856  1.4451  0.0367
 1174SOL     OW14980   2.508   0.797   6.901 -0.0176  0.1326 -0.1230
 1174SOL    HW114981   2.596   0.834   6.900 -0.6292  1.5611 -1.8675
 1174SOL    HW214982   2.499   0.773   6.809  2.6038  1.1601 -0.6470
 1175SOL     OW14983   0.259   1.977   6.425 -0.3688 -0.3053  0.7232
 1175SOL    HW114984   0.204   2.051   6.399 -0.1728 -0.7031 -0.7960
 1175SOL    HW214985   0.291   1.956   6.338 -3.1170  0.2669 -0.4068
 1176SOL     OW14986   1.880   0.800   8.379 -0.0371  0.5789  0.6109
 1176SOL    HW114987   1.831   0.751   8.445 -1.0970  0.9457  0.0988
 1176SOL    HW214988   1.971   0.779   8.400  0.0357 -0.4575 -0.7756
 1177SOL     OW14989   0.223   0.363   3.197  0.0790  0.4637  0.2235
 1177SOL    HW114990   0.205   0.275   3.231 -1.2735  0.8217  0.4328
 1177SOL    HW214991   0.265   0.397   3.276 -2.0404 -2.1078  2.4654
 1178SOL     OW14992   1.480   2.304   1.650  0.2373  0.1974  0.4083
 1178SOL    HW114993   1.464   2.260   1.733 -3.6411  1.5960  0.4029
 1178SOL    HW214994   1.462   2.232   1.589 -0.8300 -0.8010  1.9140
 1179SOL     OW14995   2.296   2.577   5.983  0.7623 -0.1985 -0.2053
 1179SOL    HW114996   2.309   2.508   6.048  0.9210 -0.5567 -0.6190
 1179SOL    HW214997   2.203   2.562   5.970  0.4728  1.3786  0.0197
 1180SOL     OW14998   1.651   1.179   7.233 -0.0935 -0.3907  0.4897
 1180SOL    HW114999   1.584   1.111   7.223 -2.3749  1.8336  0.7954
 1180SOL    HW215000   1.649   1.213   7.144  1.1068 -0.6003  0.3811
 1181SOL     OW15001   0.162   3.159   8.197 -0.0206 -0.5977  0.3230
 1181SOL    HW115002   0.223   3.153   8.123  1.5504 -2.5036  1.7785
 1181SOL    HW215003   0.111   3.080   8.178 -0.7938 -0.0923  0.2759
 1182SOL     OW15004   4.204   3.664   8.838 -0.0263  0.0380  0.5016
 1182SOL    HW115005   4.281   3.714   8.811 -0.1323  1.8640  3.6749
 1182SOL    HW215006   4.200   3.609   8.759  1.8492 -1.0576  1.1886
 1183SOL     OW15007   2.817   3.713   1.400 -0.3859 -0.0619 -0.1417
 1183SOL    HW115008   2.873   3.779   1.442  0.5693 -2.0653  1.7620
 1183SOL    HW215009   2.771   3.770   1.340  0.2643  0.2755 -0.3190
 1184SOL     OW15010   4.161   0.997   0.727  0.3632 -0.0922  0.0089
 1184SOL    HW115011   4.236   0.955   0.768 -0.2920  0.0633  1.3863
 1184SOL    HW215012   4.089   0.935   0.733  1.8786 -1.7655  0.8230
 1185SOL     OW15013   1.886   0.088   3.487  0.1569 -0.8595 -0.0713
 1185SOL    HW115014   1.934   0.171   3.486 -0.0656 -0.7359 -0.8745
 1185SOL    HW215015   1.844   0.081   3.401  0.3899 -0.2125 -0.2382
 1186SOL     OW15016   2.024   0.405  13.673 -0.0732 -0.0940 -0.4718
 1186SOL    HW115017   2.028   0.437  13.583 -0.2931  2.1902  0.3410
 1186SOL    HW215018   2.091   0.337  13.665 -0.6309 -1.0299  2.7346
 1187SOL     OW15019   2.216   0.144   3.377 -0.1497  0.2072 -0.0960
 1187SOL    HW115020   2.260   0.065   3.407 -0.2367  0.2958  0.2570
 1187SOL    HW215021   2.148   0.154   3.443  1.0252 -0.9263  1.2908
 1188SOL     OW15022   0.333   1.713   9.120  0.1082 -0.2735  1.2838
 1188SOL    HW115023   0.274   1.656   9.071  0.6288  0.1040  0.1977
 1188SOL    HW215024   0.423   1.685   9.104 -0.7891 -1.7642 -1.1425
 1189SOL     OW15025   3.046   2.087   5.462  0.1965  0.4877 -0.4438
 1189SOL    HW115026   3.004   2.155   5.409  2.4523 -0.0232 -2.8842
 1189SOL    HW215027   3.099   2.040   5.398  2.3199 -1.8791  3.0436
 1190SOL     OW15028   2.932   3.823   5.175  0.3407 -0.5026  0.1937
 1190SOL    HW115029   2.919   3.736   5.139 -1.8049  0.7110 -1.9724
 1190SOL    HW215030   3.025   3.835   5.154 -0.3155 -0.0353 -2.4823
 1191SOL     OW15031   0.933   0.120   3.394 -0.6295 -0.1731  0.0258
 1191SOL    HW115032   0.897   0.126   3.306  0.0428  2.1272 -0.0823
 1191SOL    HW215033   0.855   0.112   3.449 -0.1709  2.3312  1.0474
 1192SOL     OW15034   4.390   3.962   8.333  0.2049  0.4246 -0.3621
 1192SOL    HW115035   4.394   3.974   8.238  0.0856  0.6315 -0.3396
 1192SOL    HW215036   4.461   4.007   8.379  1.8395 -1.4002 -1.1055
 1193SOL     OW15037   1.254   1.045   8.941  0.1082 -0.3685 -0.5040
 1193SOL    HW115038   1.280   0.953   8.945 -1.4051 -0.7607  0.4859
 1193SOL    HW215039   1.161   1.031   8.960  0.3426  0.3288  1.1708
 1194SOL     OW15040   4.451   4.038  14.711  0.2898  0.0348 -0.2407
 1194SOL    HW115041   4.511   4.093  14.763 -0.4188 -1.5819  2.2536
 1194SOL    HW215042   4.513   3.984  14.662 -1.8963 -1.7208 -1.0409
 1195SOL     OW15043   2.792   4.655   4.472 -0.0064 -0.2542 -0.2022
 1195SOL    HW115044   2.819   4.575   4.516  1.0810  0.0132 -0.3799
 1195SOL    HW215045   2.713   4.674   4.523 -0.0815  0.4340 -0.5657
 1196SOL     OW15046   0.441   2.472   3.591  0.3404  0.4391 -0.4055
 1196SOL    HW115047   0.502   2.487   3.519 -1.3043 -1.2421 -2.1677
 1196SOL    HW215048   0.500   2.450   3.663 -0.7100  0.6448  0.5299
 1197SOL     OW15049   0.788   2.103   9.206 -0.6060 -0.1969 -0.4240
 1197SOL    HW115050   0.818   2.137   9.122 -0.4169 -0.9507 -0.6583
 1197SOL    HW215051   0.763   2.013   9.186 -2.6903  0.3038 -0.0452
 1198SOL     OW15052   2.644   4.224  14.845 -0.2078  0.1843  0.3520
 1198SOL    HW115053   2.586   4.249  14.917  0.1615 -1.5183  1.2527
 1198SOL    HW215054   2.587   4.243  14.770 -0.2415 -3.5660 -0.5743
 1199SOL     OW15055   3.758   4.258   2.902  0.0283  0.2359  0.5100
 1199SOL    HW115056   3.720   4.227   2.984  1.3807  0.8922  1.3884
 1199SOL    HW215057   3.756   4.180   2.846  1.8369  0.7843 -0.3043
 1200SOL     OW15058   0.936   4.328  13.103  0.5329  0.6439  0.4449
 1200SOL    HW115059   0.862   4.370  13.145 -1.3404  0.3253 -2.5532
 1200SOL    HW215060   0.917   4.338  13.010  0.5282  0.1700  0.3924
 1201SOL     OW15061   4.434   0.190   7.830  0.5801 -0.1937 -0.3526
 1201SOL    HW115062   4.347   0.153   7.840  1.7290 -2.9798 -0.6146
 1201SOL    HW215063   4.462   0.220   7.916 -0.0991 -0.7287  0.0559
 1202SOL     OW15064   2.307   3.044   6.208 -0.9416 -0.1148 -0.4666
 1202SOL    HW115065   2.342   3.068   6.122 -0.6962  3.4928  0.6655
 1202SOL    HW215066   2.267   3.125   6.239  0.6038  0.0630  1.0453
 1203SOL     OW15067   0.530   3.045   3.175 -0.6165 -0.0785 -0.4695
 1203SOL    HW115068   0.457   3.079   3.227 -0.0149 -1.7766  1.4946
 1203SOL    HW215069   0.497   2.959   3.146  1.2415 -1.1704  0.6801
 1204SOL     OW15070   3.915   4.422  13.109  0.6734 -0.6285 -0.1659
 1204SOL    HW115071   3.909   4.509  13.069  0.9754 -0.3859  0.3234
 1204SOL    HW215072   3.837   4.373  13.082  0.1055 -0.1299  0.5740
 1205SOL     OW15073   1.139   2.998   3.584 -0.1516 -0.0064 -0.3753
 1205SOL    HW115074   1.079   2.993   3.658  0.9470 -0.2763  0.4982
 1205SOL    HW215075   1.073   3.004   3.516 -2.8477  2.7904  2.5135
 1206SOL     OW15076   0.445   3.254  12.062 -0.5219  0.3119 -0.0719
 1206SOL    HW115077   0.436   3.275  11.969 -0.4571  2.6100  0.4407
 1206SOL    HW215078   0.380   3.320  12.086  0.8987  1.2162  1.2660
 1207SOL     OW15079   2.742   4.437   9.269 -0.3246 -0.1480  0.0772
 1207SOL    HW115080   2.734   4.367   9.205  1.2213 -0.6266  0.4168
 1207SOL    HW215081   2.777   4.388   9.343  2.3324  0.1715 -0.9731
 1208SOL     OW15082   0.755   2.452  12.371 -0.5228  0.0710  0.1754
 1208SOL    HW115083   0.785   2.375  12.323 -1.9200  0.5820 -1.5473
 1208SOL    HW215084   0.739   2.409  12.455  0.0418  1.0306  0.7598
 1209SOL     OW15085   2.947   4.398   2.641 -0.2208  0.2108 -0.4298
 1209SOL    HW115086   2.939   4.411   2.735  1.0689 -0.1727 -0.2553
 1209SOL    HW215087   2.967   4.488   2.615  0.0735  0.2477 -0.0743
 1210SOL     OW15088   4.255   0.902   2.647  0.2536  0.4628 -0.3457
 1210SOL    HW115089   4.272   0.853   2.567 -0.1834 -0.8918  0.3783
 1210SOL    HW215090   4.334   0.956   2.640 -0.9080  2.0077 -1.5000
 1211SOL     OW15091   2.412   4.094  15.028 -0.3115  0.4014 -0.4944
 1211SOL    HW115092   2.409   4.175  15.078  0.8969  0.1817 -0.0716
 1211SOL    HW215093   2.321   4.088  14.997  0.0124  0.1746 -1.3837
 1212SOL     OW15094   1.696   3.992  10.132  0.4753 -0.5056  0.0035
 1212SOL    HW115095   1.624   3.999  10.194 -0.3945 -1.6993 -0.8704
 1212SOL    HW215096   1.770   4.022  10.186 -2.0600  1.7196  2.2094
 1213SOL     OW15097   1.017   1.009   1.191  0.2763 -0.0219  0.6206
 1213SOL    HW115098   1.069   0.956   1.251 -0.1897 -0.0317  1.0155
 1213SOL    HW215099   0.966   0.944   1.143  0.2396  0.2346  0.3124
 1214SOL     OW15100   1.498   0.004  10.792  0.0449 -0.3288  0.0101
 1214SOL    HW115101   1.436   4.657  10.770  0.0262 -0.8727  1.8077
 1214SOL    HW215102   1.485   0.027  10.884  1.9208 -0.1593  0.2389
 1215SOL     OW15103   0.842   1.972   4.114  0.3373  0.4954  0.2070
 1215SOL    HW115104   0.797   1.902   4.161  0.3600 -0.5918 -1.3755
 1215SOL    HW215105   0.933   1.952   4.139 -0.1092 -2.2441 -0.4053
 1216SOL     OW15106   0.079   1.363   2.429  0.0912  0.0372 -0.0131
 1216SOL    HW115107   0.123   1.443   2.402  1.8421 -0.9209 -0.0015
 1216SOL    HW215108   0.092   1.320   2.344 -0.5486  0.9012 -0.5510
 1217SOL     OW15109   2.959   2.884   4.262 -0.0332  0.7002 -0.7509
 1217SOL    HW115110   2.912   2.945   4.319  0.3501  1.0623 -0.8227
 1217SOL    HW215111   2.895   2.817   4.237 -1.3417  1.1802  1.3164
 1218SOL     OW15112   1.199   2.751   5.375 -0.9337  0.1301 -0.1754
 1218SOL    HW115113   1.177   2.671   5.326 -0.1615  0.0480 -0.3868
 1218SOL    HW215114   1.271   2.781   5.320 -1.2252 -0.5248 -0.9166
 1219SOL     OW15115   1.275   0.790   7.701  0.5223  0.4893  0.1893
 1219SOL    HW115116   1.213   0.788   7.774 -0.4346 -1.4867 -0.6919
 1219SOL    HW215117   1.227   0.846   7.640  1.3527  0.1428 -0.7805
 1220SOL     OW15118   1.677   2.353   1.316 -0.1065  0.2630 -0.9530
 1220SOL    HW115119   1.698   2.439   1.279  0.7449  0.1184 -0.8012
 1220SOL    HW215120   1.634   2.322   1.237 -2.8992 -1.0666  1.0804
 1221SOL     OW15121   0.481   2.031  15.303  1.0399 -0.2694 -0.0184
 1221SOL    HW115122   0.416   2.082  15.254  2.5008 -0.9516 -2.6520
 1221SOL    HW215123   0.464   2.069  15.390 -2.6590  0.9554 -1.2996
 1222SOL     OW15124   0.329   2.679   2.529  0.1353 -0.1276  0.2985
 1222SOL    HW115125   0.386   2.619   2.575  3.2258  0.2179 -3.0620
 1222SOL    HW215126   0.391   2.721   2.469  1.0755 -0.8513  0.7731
 1223SOL     OW15127   4.470   1.361   5.065 -0.1954 -0.2419  0.3810
 1223SOL    HW115128   4.553   1.343   5.022 -0.6344 -1.2945 -0.0349
 1223SOL    HW215129   4.474   1.456   5.069 -1.0304 -0.2572  1.7055
 1224SOL     OW15130   4.673   2.505   6.262  0.8208 -0.2257 -0.0822
 1224SOL    HW115131   4.591   2.474   6.225  0.7258  1.0989 -0.9703
 1224SOL    HW215132   0.006   2.506   6.184 -0.5314  1.2483 -1.0153
 1225SOL     OW15133   1.189   3.007  11.707 -0.2199 -0.0963  0.1599
 1225SOL    HW115134   1.243   2.963  11.773  1.0543  1.1600 -0.0368
 1225SOL    HW215135   1.239   2.981  11.629  0.4531 -0.0455  0.5753
 1226SOL     OW15136   2.742   4.398   1.516  0.4838  0.0663  0.2066
 1226SOL    HW115137   2.762   4.440   1.599 -3.0516 -0.4280  1.3370
 1226SOL    HW215138   2.773   4.310   1.535  0.4009  0.3509  1.6104
 1227SOL     OW15139   1.343   0.828   5.065  0.0222  0.6381 -0.0427
 1227SOL    HW115140   1.318   0.906   5.115  2.6981  1.8119 -0.5054
 1227SOL    HW215141   1.261   0.788   5.037  0.0404  1.0262 -0.6648
 1228SOL     OW15142   3.335   2.126  11.838  0.4411 -0.1417  0.0608
 1228SOL    HW115143   3.413   2.077  11.864 -0.7953 -2.5959 -0.8649
 1228SOL    HW215144   3.374   2.192  11.780 -1.6704  1.6964  0.7177
 1229SOL     OW15145   1.878   1.661   2.322 -0.1720 -0.2552 -0.1249
 1229SOL    HW115146   1.846   1.655   2.412  0.0615 -1.2886 -0.1218
 1229SOL    HW215147   1.888   1.756   2.309  0.8211 -0.1958  1.0115
 1230SOL     OW15148   4.430   4.424   7.968  0.1664  0.4188  0.2019
 1230SOL    HW115149   4.517   4.411   8.005  0.4535  1.2753 -0.1678
 1230SOL    HW215150   4.464   4.470   7.891  0.0635 -2.1769 -1.4050
 1231SOL     OW15151   1.649   3.730   9.693 -0.3198  0.4876  0.3117
 1231SOL    HW115152   1.660   3.793   9.764 -1.8042  2.1085 -0.8978
 1231SOL    HW215153   1.740   3.702   9.682 -0.7645 -1.9211  2.9831
 1232SOL     OW15154   4.179   3.199   8.192 -0.3303 -0.0432 -0.2099
 1232SOL    HW115155   4.149   3.206   8.282 -0.6838  0.1222 -0.3397
 1232SOL    HW215156   4.254   3.139   8.199 -1.6546 -1.4800  1.4504
 1233SOL     OW15157   0.115   4.267  17.683 -0.0605  0.4200 -0.9086
 1233SOL    HW115158   0.098   4.204   0.059  1.8820  1.4985  0.5527
 1233SOL    HW215159   0.174   4.322   0.041 -2.2803  1.9357  0.0037
 1234SOL     OW15160   1.700   3.951   3.617  0.3714  0.2030  0.0355
 1234SOL    HW115161   1.615   3.990   3.597  1.0278  1.1900 -0.8187
 1234SOL    HW215162   1.678   3.859   3.600 -2.0434  1.1265 -1.7517
 1235SOL     OW15163   2.738   0.219   4.731  0.2277 -0.3501  0.9592
 1235SOL    HW115164   2.696   0.138   4.705  4.6940 -2.3581  0.0658
 1235SOL    HW215165   2.811   0.195   4.789  0.5325 -0.1420  0.6628
 1236SOL     OW15166   1.654   2.005   8.703 -0.6187  0.8164 -0.5347
 1236SOL    HW115167   1.685   2.093   8.723  2.7796 -0.6152  0.4255
 1236SOL    HW215168   1.662   1.967   8.790 -0.3884 -1.4683 -1.5246
 1237SOL     OW15169   1.068   1.439   3.980 -0.4679 -0.2095 -0.5152
 1237SOL    HW115170   1.027   1.403   3.901 -2.1024  1.2111 -0.3065
 1237SOL    HW215171   0.986   1.481   4.006 -0.6573 -1.2396  0.5413
 1238SOL     OW15172   3.813   2.666   3.349  0.0230 -0.0543 -0.2693
 1238SOL    HW115173   3.759   2.591   3.376  0.7187 -0.1919  0.7284
 1238SOL    HW215174   3.806   2.655   3.254 -0.1477 -0.9331 -0.1559
 1239SOL     OW15175   2.010   0.578   1.629 -0.1786  0.0320  0.8498
 1239SOL    HW115176   2.060   0.653   1.597 -0.0735  0.4763  2.0803
 1239SOL    HW215177   1.925   0.616   1.606  0.5619  0.9042 -0.4566
 1240SOL     OW15178   4.622   3.415   4.391  0.6073  0.1425 -0.0071
 1240SOL    HW115179   4.587   3.503   4.376 -0.1938 -0.0119  0.9618
 1240SOL    HW215180   4.564   3.370   4.331 -1.8293  3.3179 -0.0612
 1241SOL     OW15181   1.131   3.769   7.007  0.2969  0.2908 -0.4654
 1241SOL    HW115182   1.156   3.718   7.084  0.0969  1.1711  0.1747
 1241SOL    HW215183   1.219   3.772   6.970 -0.1234  0.6020 -1.4325
 1242SOL     OW15184   1.397   2.137   8.559 -0.1647  0.1373 -0.1460
 1242SOL    HW115185   1.398   2.080   8.636 -0.2257 -1.0071 -0.9882
 1242SOL    HW215186   1.487   2.168   8.547  0.2359 -0.5136  1.1409
 1243SOL     OW15187   1.211   3.892   1.524  0.0610  0.6201  0.1453
 1243SOL    HW115188   1.127   3.907   1.482  1.0441 -0.5087 -2.1836
 1243SOL    HW215189   1.232   3.981   1.553  0.2778  1.0789 -1.4584
 1244SOL     OW15190   0.800   1.197   1.161  0.3637  0.5606 -0.0471
 1244SOL    HW115191   0.878   1.145   1.181  0.8233  0.7611 -1.3383
 1244SOL    HW215192   0.745   1.162   1.231  1.2134 -0.0900  0.2908
 1245SOL     OW15193   2.740   4.227   3.378  0.1893 -0.2063 -0.1705
 1245SOL    HW115194   2.668   4.221   3.316  2.3501 -0.6081 -2.6733
 1245SOL    HW215195   2.688   4.240   3.458 -1.1917 -0.2497 -1.0697
 1246SOL     OW15196   4.205   3.750  12.994  0.2201 -0.0256  0.1468
 1246SOL    HW115197   4.212   3.723  12.902 -0.1836 -0.5787  0.2825
 1246SOL    HW215198   4.267   3.821  13.010  0.3949 -0.0375 -0.4798
 1247SOL     OW15199   2.328   2.177   4.407 -0.1301  0.0460  0.1820
 1247SOL    HW115200   2.357   2.091   4.379  3.3679  0.8783  1.3028
 1247SOL    HW215201   2.272   2.199   4.333  1.2326 -2.3682 -1.5456
 1248SOL     OW15202   3.458   3.162   8.255  0.3640 -0.0104 -0.0524
 1248SOL    HW115203   3.375   3.197   8.288 -0.1990  0.8917 -2.4513
 1248SOL    HW215204   3.455   3.083   8.309 -0.9942  2.6983  3.8971
 1249SOL     OW15205   0.330   4.710   6.030  0.0626 -1.1238  0.1676
 1249SOL    HW115206   0.273   0.054   6.068 -1.2567 -1.4996 -1.1464
 1249SOL    HW215207   0.258   4.667   5.984  0.3605 -2.0607  0.5693
 1250SOL     OW15208   2.187   4.213  11.389 -0.8219 -0.0917  0.6437
 1250SOL    HW115209   2.112   4.236  11.336 -0.2889  2.1729  0.8624
 1250SOL    HW215210   2.202   4.126  11.352 -1.3021  1.0762 -2.2982
 1251SOL     OW15211   2.982   2.888   1.230 -0.1532 -0.2584 -0.2860
 1251SOL    HW115212   3.039   2.857   1.160  2.4331  1.7675  0.9219
 1251SOL    HW215213   3.020   2.833   1.299 -1.0975 -1.6036 -0.8556
 1252SOL     OW15214   0.207   3.458  12.175  0.0483 -0.1694  0.1300
 1252SOL    HW115215   0.226   3.527  12.112  2.6009 -1.0465 -0.0782
 1252SOL    HW215216   0.244   3.505  12.249 -1.1602 -0.0164  0.6310
 1253SOL     OW15217   2.072   1.939   8.237 -0.0902 -0.0484 -0.3155
 1253SOL    HW115218   2.100   2.014   8.289 -0.8111 -1.1841  1.6771
 1253SOL    HW215219   2.154   1.891   8.226 -0.3619 -0.2379 -1.5362
 1254SOL     OW15220   3.460   0.730   3.123  0.1384  0.7101  0.4660
 1254SOL    HW115221   3.400   0.804   3.121 -1.4219 -0.5419  1.9683
 1254SOL    HW215222   3.505   0.745   3.040  0.8717 -0.9723  0.5632
 1255SOL     OW15223   2.080   2.209   6.271 -0.3763  0.5074  0.6889
 1255SOL    HW115224   2.120   2.138   6.321 -1.4990 -0.6335 -0.0329
 1255SOL    HW215225   2.144   2.232   6.204 -1.6528  3.1253  0.3542
 1256SOL     OW15226   0.252   0.218   3.789  0.4197 -0.7086 -0.4168
 1256SOL    HW115227   0.236   0.139   3.842 -0.5543 -0.8763 -0.9574
 1256SOL    HW215228   0.218   0.290   3.842 -1.9366 -1.2327 -1.2136
 1257SOL     OW15229   0.906   2.786   1.298 -0.0223 -0.3147 -0.4681
 1257SOL    HW115230   0.979   2.749   1.249 -0.4111 -1.3852 -0.2413
 1257SOL    HW215231   0.917   2.879   1.282 -2.2454 -0.0010 -0.1938
 1258SOL     OW15232   3.966   3.895   3.420 -0.2644  0.1504 -0.6457
 1258SOL    HW115233   3.947   3.809   3.456 -1.6818  1.3979  1.5674
 1258SOL    HW215234   3.912   3.951   3.475 -0.3021  1.0502 -1.5841
 1259SOL     OW15235   2.538   1.316   4.529  0.2682 -0.2232  0.2993
 1259SOL    HW115236   2.591   1.393   4.506  1.4288 -0.9975  0.3829
 1259SOL    HW215237   2.554   1.260   4.454 -2.6367 -1.8509  0.9156
 1260SOL     OW15238   1.962   3.490  14.571 -0.4235 -0.1236  0.0868
 1260SOL    HW115239   1.872   3.496  14.538 -0.3390 -0.6194 -0.2281
 1260SOL    HW215240   1.946   3.478  14.665  0.0011 -0.1091  0.1603
 1261SOL     OW15241   3.919   3.864   2.590  0.1481  0.6635  0.3434
 1261SOL    HW115242   3.926   3.946   2.542  1.5889  1.2492  1.5548
 1261SOL    HW215243   3.974   3.879   2.667  1.5161 -2.0234 -0.1077
 1262SOL     OW15244   3.861   4.025   0.913 -0.3603  0.0346 -0.3269
 1262SOL    HW115245   3.941   3.975   0.929 -0.6471 -0.6566 -1.0446
 1262SOL    HW215246   3.797   3.959   0.888  1.1356 -0.6871 -2.3093
 1263SOL     OW15247   4.215   4.568  12.251 -0.2656  0.1943  0.0857
 1263SOL    HW115248   4.210   4.589  12.158 -0.8291 -1.4783 -0.2676
 1263SOL    HW215249   4.130   4.538  12.285  0.5458 -0.0143  1.9630
 1264SOL     OW15250   0.272   3.040   6.294  0.1685 -0.3818 -0.5349
 1264SOL    HW115251   0.316   2.997   6.221  0.2917 -1.4683  0.1811
 1264SOL    HW215252   0.180   3.014   6.283  0.3685 -0.5940 -1.7463
 1265SOL     OW15253   4.474   4.569   2.985 -0.1745 -0.1038  0.3790
 1265SOL    HW115254   4.487   4.475   3.001  0.8850  0.5218  3.1721
 1265SOL    HW215255   4.417   4.572   2.908 -1.1864 -0.7656  1.1054
 1266SOL     OW15256   3.864   2.619   3.058 -0.1001 -0.3058 -0.6153
 1266SOL    HW115257   3.938   2.560   3.073  0.7993  0.3968 -2.2313
 1266SOL    HW215258   3.843   2.635   2.966 -1.5646 -3.1965 -0.7632
 1267SOL     OW15259   1.743   1.248   2.179  0.5300  0.1323 -0.6063
 1267SOL    HW115260   1.838   1.255   2.172  0.5838  0.2608  0.2090
 1267SOL    HW215261   1.718   1.268   2.269  1.2097  2.5118 -0.9587
 1268SOL     OW15262   4.345   3.448  12.800  0.0411  0.3815 -0.1234
 1268SOL    HW115263   4.429   3.494  12.790  0.4499 -1.0026 -3.1510
 1268SOL    HW215264   4.354   3.411  12.887 -0.3901 -1.4494 -0.8639
 1269SOL     OW15265   0.522   0.090   5.521  0.4338 -0.0189 -0.4165
 1269SOL    HW115266   0.499   0.124   5.607  0.6667  0.5143 -0.5660
 1269SOL    HW215267   0.490   0.000   5.525 -0.5448  0.3246 -0.5933
 1270SOL     OW15268   1.835   0.635   5.185  0.3285  0.4756  0.7716
 1270SOL    HW115269   1.809   0.727   5.191  0.0931  0.3838  1.1610
 1270SOL    HW215270   1.804   0.613   5.273  2.2750 -0.5868  1.1677
 1271SOL     OW15271   3.948   1.276   3.165 -0.1558 -0.0389 -0.2430
 1271SOL    HW115272   3.965   1.223   3.087  0.7839  0.7063 -0.5358
 1271SOL    HW215273   3.892   1.210   3.207 -0.6534 -0.2461 -1.2228
 1272SOL     OW15274   2.682   1.327   4.800 -0.1411  0.3386  0.0945
 1272SOL    HW115275   2.656   1.278   4.722 -1.7155  2.7525 -0.8530
 1272SOL    HW215276   2.709   1.262   4.865  0.9622 -0.6739 -1.3839
 1273SOL     OW15277   2.629   0.486   3.026 -0.2450  0.4712  0.1706
 1273SOL    HW115278   2.585   0.413   2.982  1.8772 -0.9103  0.3586
 1273SOL    HW215279   2.644   0.439   3.108 -0.6617  2.6635  1.5110
 1274SOL     OW15280   1.847   3.560   1.940  0.2107 -0.0756 -0.3896
 1274SOL    HW115281   1.916   3.519   1.889  1.2616  0.0327  0.9318
 1274SOL    HW215282   1.792   3.615   1.885 -0.9905  0.3738  1.2477
 1275SOL     OW15283   2.222   4.422   1.411 -0.4890  0.2277 -0.1791
 1275SOL    HW115284   2.293   4.362   1.433 -0.6500  0.2297  0.3410
 1275SOL    HW215285   2.234   4.432   1.317  0.0982  0.8558 -0.0431
 1276SOL     OW15286   4.641   4.680   9.007 -0.3725 -0.4358 -0.1446
 1276SOL    HW115287   4.635   4.598   9.057  1.4525 -0.0392  0.7501
 1276SOL    HW215288   4.667   0.008   9.085  1.7978 -0.3861 -0.8873
 1277SOL     OW15289   1.147   0.478   7.602  0.9002  0.1156  0.7554
 1277SOL    HW115290   1.064   0.439   7.574  0.5600  2.3897 -1.4942
 1277SOL    HW215291   1.104   0.522   7.675  2.9393  1.1038  1.3625
 1278SOL     OW15292   1.933   4.611  11.173 -0.6141  0.2889 -0.1439
 1278SOL    HW115293   2.008   4.647  11.127 -0.2723 -1.9732 -1.3725
 1278SOL    HW215294   1.956   4.631  11.264 -0.6714 -0.5168  0.0530
 1279SOL     OW15295   4.440   3.169  17.615 -0.1721  0.5209  0.0351
 1279SOL    HW115296   4.371   3.230  17.591 -3.2152 -1.8091  2.8285
 1279SOL    HW215297   4.418   3.159   0.014  0.4391 -0.5986  0.0652
 1280SOL     OW15298   2.278   2.277   5.446 -0.2174  0.7052 -0.1492
 1280SOL    HW115299   2.321   2.203   5.489 -1.6060  1.2331  2.0839
 1280SOL    HW215300   2.345   2.305   5.383  0.9779 -1.7611  0.0378
 1281SOL     OW15301   2.060   0.903   5.220  0.7292  0.6417  0.9889
 1281SOL    HW115302   2.105   0.856   5.149  0.3634  2.2121 -0.2884
 1281SOL    HW215303   2.055   0.987   5.175  1.6572 -0.0006 -0.3156
 1282SOL     OW15304   4.072   1.958   4.671 -0.5086  0.1183  0.0356
 1282SOL    HW115305   4.090   2.025   4.605 -1.7449  0.4371  0.0286
 1282SOL    HW215306   4.123   1.993   4.744 -0.0185 -0.8319  0.1520
 1283SOL     OW15307   0.670   0.874  17.637  0.2398  0.1303 -0.3163
 1283SOL    HW115308   0.744   0.894   0.000  0.6313 -1.1256 -0.3762
 1283SOL    HW215309   0.601   0.835  17.690 -0.3329  2.2081  0.4404
 1284SOL     OW15310   3.052   4.533  12.615 -0.0501  0.0180  0.2432
 1284SOL    HW115311   3.061   4.509  12.522  2.9140  1.3459  0.1863
 1284SOL    HW215312   2.978   4.594  12.607 -0.5145 -0.4328  1.1886
 1285SOL     OW15313   3.505   0.298   2.063  0.1428 -0.1616 -0.0537
 1285SOL    HW115314   3.482   0.220   2.012  0.8609 -0.5502  0.2219
 1285SOL    HW215315   3.472   0.369   2.008  3.4743  0.4698 -1.2341
 1286SOL     OW15316   1.154   0.935  11.409  0.5308 -0.2306  0.1027
 1286SOL    HW115317   1.167   0.987  11.330 -1.0054 -0.1789 -0.1057
 1286SOL    HW215318   1.152   1.003  11.476  3.2077  2.0718 -2.1526
 1287SOL     OW15319   1.675   4.444   5.341  0.1208  0.5097  0.1753
 1287SOL    HW115320   1.729   4.513   5.380  0.0608 -0.3422  1.7552
 1287SOL    HW215321   1.709   4.365   5.383 -2.3387  0.3172  1.8141
 1288SOL     OW15322   4.452   2.675  16.164 -0.1147 -0.2336 -0.0261
 1288SOL    HW115323   4.360   2.698  16.176 -0.1001 -0.0178 -0.3077
 1288SOL    HW215324   4.466   2.607  16.230 -1.2181 -1.7089 -1.3182
 1289SOL     OW15325   1.237   3.818  10.659 -0.4536 -0.1371  0.2991
 1289SOL    HW115326   1.301   3.883  10.631  0.0728 -0.9614 -0.4089
 1289SOL    HW215327   1.220   3.862  10.742  1.4814 -0.5893  0.9501
 1290SOL     OW15328   2.877   0.109   5.025  0.2184 -0.2532  0.3026
 1290SOL    HW115329   2.905   0.068   4.942  1.3274  1.9730 -0.4192
 1290SOL    HW215330   2.918   0.195   5.018 -0.9271  0.0876 -2.5086
 1291SOL     OW15331   0.927   1.509   6.968 -0.2638  0.6118  0.1757
 1291SOL    HW115332   0.897   1.532   7.056  0.2263 -1.9445  1.0164
 1291SOL    HW215333   0.855   1.458   6.931 -0.7588  0.8538  0.8130
 1292SOL     OW15334   3.160   2.969   3.396  0.2156 -0.4281 -0.4632
 1292SOL    HW115335   3.163   2.880   3.362  0.6590 -0.2640 -0.8447
 1292SOL    HW215336   3.117   3.014   3.323 -0.1207 -1.8294 -1.1277
 1293SOL     OW15337   3.071   0.902   6.708 -1.1174 -0.0385 -0.7129
 1293SOL    HW115338   3.028   0.837   6.764  1.8847 -0.4003  1.1703
 1293SOL    HW215339   3.104   0.971   6.766  0.0990 -0.3116 -1.0822
 1294SOL     OW15340   2.981   4.151   1.960  0.4741 -0.0626  0.2836
 1294SOL    HW115341   2.988   4.214   2.032 -0.6066  2.0206 -1.4514
 1294SOL    HW215342   3.033   4.080   1.998  3.3373  0.7472 -2.0943
 1295SOL     OW15343   3.202   0.189   8.134  0.3466 -0.4834 -0.1927
 1295SOL    HW115344   3.113   0.173   8.102  0.1945  3.3167 -1.6601
 1295SOL    HW215345   3.232   0.100   8.148 -1.8708 -1.0712  0.8833
 1296SOL     OW15346   4.552   4.605   6.010  0.2469  0.0568  0.0211
 1296SOL    HW115347   4.464   4.582   5.979  0.6122  0.2408 -1.1682
 1296SOL    HW215348   4.571   4.531   6.068  0.7922  1.6442  1.8420
 1297SOL     OW15349   1.151   4.360   2.063 -0.1071  0.3151 -0.4138
 1297SOL    HW115350   1.161   4.377   1.969  0.8523 -0.8891 -0.5278
 1297SOL    HW215351   1.110   4.445   2.081  2.9374  2.2958 -2.8567
 1298SOL     OW15352   0.681   0.025   8.021  0.1395 -0.3222 -0.2485
 1298SOL    HW115353   0.739   4.674   8.039 -0.6367 -0.8876 -0.1284
 1298SOL    HW215354   0.639   0.017   8.106 -0.6009  0.1606 -0.5706
 1299SOL     OW15355   3.180   3.917  13.946 -0.4100 -0.0832 -0.6841
 1299SOL    HW115356   3.189   3.849  14.013 -0.2240  0.3370 -0.2921
 1299SOL    HW215357   3.136   3.875  13.871 -0.2419  0.4831 -1.0965
 1300SOL     OW15358   3.422   0.376  10.573  0.5263  0.3442  0.3647
 1300SOL    HW115359   3.345   0.419  10.609  1.0630  1.9809 -0.4309
 1300SOL    HW215360   3.492   0.438  10.595  0.2678  1.2956 -1.5491
 1301SOL     OW15361   3.008   3.906  14.413  0.4643 -0.0552 -0.2883
 1301SOL    HW115362   3.087   3.955  14.435 -1.1038  2.3321  0.1191
 1301SOL    HW215363   2.942   3.974  14.430 -0.2870 -1.1421  1.1529
 1302SOL     OW15364   4.254   2.962   5.456 -0.0438 -0.3593  0.2734
 1302SOL    HW115365   4.183   2.905   5.484 -2.1205  3.7474  3.4337
 1302SOL    HW215366   4.283   2.994   5.542  0.1264  0.6524 -0.1636
 1303SOL     OW15367   1.476   0.904   4.165 -0.1668 -0.3342  0.2258
 1303SOL    HW115368   1.444   0.985   4.205 -0.7128  0.3178 -1.5294
 1303SOL    HW215369   1.569   0.930   4.159  0.0350 -1.1779 -0.2576
 1304SOL     OW15370   1.394   2.819   5.208  0.1890 -0.1921 -0.0959
 1304SOL    HW115371   1.417   2.798   5.117 -1.0447 -1.4782 -0.1156
 1304SOL    HW215372   1.447   2.898   5.218  0.3008 -0.2229 -0.4342
 1305SOL     OW15373   2.181   1.953   6.346  0.3108  0.5764 -0.0337
 1305SOL    HW115374   2.259   1.899   6.337 -0.6920 -1.1387  1.7870
 1305SOL    HW215375   2.114   1.899   6.305  1.3790 -0.5682 -0.2579
 1306SOL     OW15376   3.122   2.898  15.895 -0.1996 -0.6479 -0.1516
 1306SOL    HW115377   3.206   2.885  15.849 -0.1334  1.9241 -0.7689
 1306SOL    HW215378   3.077   2.960  15.836 -1.4629 -1.3875  0.0565
 1307SOL     OW15379   1.815   2.735   0.961 -0.1570 -0.1315  0.1670
 1307SOL    HW115380   1.763   2.724   0.881  0.9718 -2.0344 -0.3012
 1307SOL    HW215381   1.904   2.710   0.938 -0.2978  0.7498 -1.3907
 1308SOL     OW15382   4.346   0.624   2.179 -0.1192 -0.5571 -0.5181
 1308SOL    HW115383   4.284   0.688   2.215 -0.7432 -0.7722 -1.2089
 1308SOL    HW215384   4.323   0.612   2.087 -0.0191 -1.8974 -0.3686
 1309SOL     OW15385   0.237   1.250   1.700  0.0211 -0.8183  0.1129
 1309SOL    HW115386   0.291   1.325   1.676 -0.0192 -0.4020  1.3355
 1309SOL    HW215387   0.152   1.289   1.680 -1.6420 -4.8228 -0.7847
 1310SOL     OW15388   3.161   1.470   7.445  0.0162 -0.0548  0.1529
 1310SOL    HW115389   3.229   1.428   7.498  1.5863 -0.3153 -2.0827
 1310SOL    HW215390   3.111   1.392   7.421 -0.9497 -0.2165  2.6998
 1311SOL     OW15391   4.213   2.696   4.853  0.4808  0.2803  0.5098
 1311SOL    HW115392   4.241   2.606   4.866  0.9459  0.1687 -1.1940
 1311SOL    HW215393   4.299   2.737   4.852  0.2649  0.7551  2.5049
 1312SOL     OW15394   4.644   3.125  14.931  0.1429  0.3982  0.1756
 1312SOL    HW115395   4.658   3.044  14.881 -2.5297  0.3503 -0.4742
 1312SOL    HW215396   0.008   3.162  14.917 -0.4847  2.4339  1.6269
 1313SOL     OW15397   2.857   4.106   7.287 -0.9884  0.0465 -0.3381
 1313SOL    HW115398   2.807   4.075   7.211 -0.2101 -1.1275 -0.3699
 1313SOL    HW215399   2.893   4.023   7.319 -0.2837  0.1531 -0.8381
 1314SOL     OW15400   2.118   1.867   1.209 -0.4599  0.1230  0.1078
 1314SOL    HW115401   2.186   1.802   1.224 -1.1833 -1.1716 -2.3111
 1314SOL    HW215402   2.078   1.881   1.295 -0.4268  2.2542 -0.2198
 1315SOL     OW15403   4.300   3.337  16.325  0.0196  0.2295 -0.3732
 1315SOL    HW115404   4.204   3.334  16.330  0.1517 -0.6660  1.5836
 1315SOL    HW215405   4.316   3.429  16.302 -2.1269  0.5622 -0.5100
 1316SOL     OW15406   1.289   2.529  12.936 -0.2252 -0.1395  0.2292
 1316SOL    HW115407   1.310   2.583  12.860 -1.7736 -0.9561 -0.7723
 1316SOL    HW215408   1.197   2.552  12.951 -0.5095 -0.1595 -1.5394
 1317SOL     OW15409   1.328   3.195   5.284 -0.1697 -0.0047 -0.1209
 1317SOL    HW115410   1.365   3.196   5.196 -1.4030 -0.1927 -0.6476
 1317SOL    HW215411   1.409   3.187   5.333  0.4211 -1.5819 -1.3462
 1318SOL     OW15412   3.210   4.039   5.046  0.1827 -0.1199  0.4594
 1318SOL    HW115413   3.220   4.123   5.002 -0.1170 -0.5447 -0.4258
 1318SOL    HW215414   3.296   4.016   5.080  0.5583  0.6484  0.0112
 1319SOL     OW15415   4.243   0.851   8.855 -0.9145 -0.1913 -0.3974
 1319SOL    HW115416   4.164   0.885   8.814 -2.0430 -0.3415  1.6489
 1319SOL    HW215417   4.290   0.932   8.873 -1.6447  0.6419 -2.3490
 1320SOL     OW15418   1.579   2.619   2.846  0.1188  0.8686 -0.2505
 1320SOL    HW115419   1.513   2.550   2.838 -0.7227  1.5489  0.7709
 1320SOL    HW215420   1.551   2.646   2.934 -0.5878  0.8215 -0.4611
 1321SOL     OW15421   1.971   2.352   7.819  0.3760  0.3810 -0.3179
 1321SOL    HW115422   2.008   2.373   7.734 -0.7432 -1.4522 -1.2384
 1321SOL    HW215423   2.032   2.397   7.878 -0.7895  2.3063 -0.5830
 1322SOL     OW15424   0.431   0.423   7.584  0.0247 -0.2051 -0.1177
 1322SOL    HW115425   0.367   0.394   7.518 -0.6206  1.7624 -0.3403
 1322SOL    HW215426   0.380   0.457   7.658  0.0365 -1.9838  0.7084
 1323SOL     OW15427   2.522   0.187   1.257 -0.4604  0.3645  0.0365
 1323SOL    HW115428   2.474   0.233   1.326  1.7860  1.4073  0.8770
 1323SOL    HW215429   2.597   0.245   1.268  1.3608 -2.6822  3.6440
 1324SOL     OW15430   1.611   1.999   7.997 -0.3132 -0.5313  0.3728
 1324SOL    HW115431   1.690   2.043   8.028 -0.1826 -0.8617  0.5029
 1324SOL    HW215432   1.540   2.062   8.009 -0.7437 -0.7513 -1.0344
 1325SOL     OW15433   4.166   0.766   4.345 -0.5503  0.0151 -0.1101
 1325SOL    HW115434   4.185   0.812   4.264  1.0312 -0.5279 -0.0458
 1325SOL    HW215435   4.201   0.825   4.412  0.9740  0.2727 -1.1468
 1326SOL     OW15436   4.420   4.105   8.840  0.3834 -0.4188 -0.0777
 1326SOL    HW115437   4.372   4.125   8.760  1.4400 -1.0531 -0.8777
 1326SOL    HW215438   4.458   4.192   8.839  1.2889 -0.8134 -0.2685
 1327SOL     OW15439   1.883   2.438   3.945 -0.2982  0.1170  0.3559
 1327SOL    HW115440   1.890   2.446   4.040 -2.0045 -0.6065  0.5520
 1327SOL    HW215441   1.791   2.412   3.943 -0.3204  0.1786  0.6483
 1328SOL     OW15442   4.269   4.633  11.965 -0.0749 -0.0146  0.0310
 1328SOL    HW115443   4.173   4.642  11.968 -0.1350 -0.0722 -1.7576
 1328SOL    HW215444   4.281   4.539  11.952 -0.6971 -0.2567  1.1923
 1329SOL     OW15445   3.959   0.601  13.117 -0.0491  0.0205 -0.4063
 1329SOL    HW115446   3.980   0.512  13.146 -0.2567  0.1736  0.2124
 1329SOL    HW215447   3.899   0.621  13.188  2.4781  3.3401  0.7818
 1330SOL     OW15448   2.309   2.425   6.225  0.3297 -0.0904  0.4511
 1330SOL    HW115449   2.248   2.478   6.276  0.7972 -1.0551  1.9899
 1330SOL    HW215450   2.350   2.368   6.289 -1.8846 -0.7771  1.2513
 1331SOL     OW15451   2.204   2.114   0.074 -0.3822  0.1830  0.0875
 1331SOL    HW115452   2.230   2.040   0.019 -1.3704 -0.6007  0.6936
 1331SOL    HW215453   2.163   2.068   0.147  0.9989 -0.6508  0.3292
 1332SOL     OW15454   3.865   3.427  15.945  0.1249  0.4022 -0.1357
 1332SOL    HW115455   3.918   3.371  15.888 -0.7381  0.7469 -1.2662
 1332SOL    HW215456   3.794   3.442  15.882  0.2378  2.4575  0.2143
 1333SOL     OW15457   2.046   3.970   4.248 -0.3612 -0.2527 -0.2823
 1333SOL    HW115458   2.057   3.876   4.236 -0.9062 -0.3051 -0.3870
 1333SOL    HW215459   1.967   3.974   4.301 -0.2108 -1.0550  0.0053
 1334SOL     OW15460   3.294   3.809   6.379 -0.0846 -0.5415 -0.4968
 1334SOL    HW115461   3.366   3.748   6.366  0.6752  1.1371 -4.0766
 1334SOL    HW215462   3.309   3.868   6.305  3.3525 -0.8979 -0.0556
 1335SOL     OW15463   3.101   1.394   6.018  0.0180  0.0960  0.7893
 1335SOL    HW115464   3.134   1.483   6.010 -0.5388  0.2172 -0.2018
 1335SOL    HW215465   3.144   1.348   5.946 -2.0124 -1.5988  0.6313
 1336SOL     OW15466   0.084   3.397   1.621  0.4517  0.0856 -0.7582
 1336SOL    HW115467   0.067   3.450   1.544  0.2601  1.1345 -0.0032
 1336SOL    HW215468   0.138   3.330   1.579  0.1234 -1.7127  1.6833
 1337SOL     OW15469   3.238   3.204  15.118  0.3249 -0.1174 -0.6149
 1337SOL    HW115470   3.260   3.140  15.186  1.4363 -0.2234 -1.0831
 1337SOL    HW215471   3.287   3.182  15.039  2.0742 -0.7154  0.6515
 1338SOL     OW15472   2.686   3.090   7.769  0.2701 -0.0519 -0.3689
 1338SOL    HW115473   2.640   3.137   7.700  0.3960 -0.0223 -0.4333
 1338SOL    HW215474   2.697   3.152   7.841 -0.4327  1.2103 -1.3512
 1339SOL     OW15475   1.610   2.108   3.558 -0.4731 -0.0286 -0.2975
 1339SOL    HW115476   1.696   2.130   3.522  1.1441 -1.1858  2.8641
 1339SOL    HW215477   1.582   2.042   3.495  0.5099  0.1897 -0.9736
 1340SOL     OW15478   0.252   4.389   1.348  0.3015  0.1618  0.1534
 1340SOL    HW115479   0.318   4.452   1.318 -2.2614  2.3915 -0.7668
 1340SOL    HW215480   0.191   4.386   1.274  0.0416  1.6255  0.3194
 1341SOL     OW15481   1.176   2.089   6.864 -0.0703  0.0714  0.2783
 1341SOL    HW115482   1.172   2.005   6.909 -0.5734 -0.5432 -0.9168
 1341SOL    HW215483   1.120   2.080   6.788 -2.1613 -1.7948  2.0317
 1342SOL     OW15484   0.457   4.160  11.242 -0.1187  0.2555 -0.6717
 1342SOL    HW115485   0.515   4.131  11.172  1.2159 -1.9796  1.3501
 1342SOL    HW215486   0.425   4.077  11.275  0.7886 -0.7304 -2.2601
 1343SOL     OW15487   3.796   3.453   7.600 -0.3265  0.1670 -0.8764
 1343SOL    HW115488   3.869   3.483   7.545  1.8682 -0.3838  1.7547
 1343SOL    HW215489   3.841   3.454   7.684  0.0203  0.8754 -1.0624
 1344SOL     OW15490   4.200   3.304   7.945 -0.0321 -0.2377  0.1547
 1344SOL    HW115491   4.184   3.284   8.037  0.3795  0.5359  0.3877
 1344SOL    HW215492   4.286   3.266   7.930  0.6385  1.4405 -0.1762
 1345SOL     OW15493   0.279   3.752   3.294 -0.4777  0.4346 -0.5277
 1345SOL    HW115494   0.293   3.811   3.220  1.0958  1.9086  0.9334
 1345SOL    HW215495   0.367   3.751   3.332 -1.0940  0.1077  0.9241
 1346SOL     OW15496   4.569   3.317   0.154  0.5920  0.2014 -0.0277
 1346SOL    HW115497   4.496   3.256   0.164  0.2324  0.3905 -1.4161
 1346SOL    HW215498   4.620   3.263   0.093  0.6655  0.5731 -0.2951
 1347SOL     OW15499   2.378   0.589  14.193 -0.1332 -0.1206  0.0368
 1347SOL    HW115500   2.464   0.578  14.233  0.7871  3.4002 -0.9143
 1347SOL    HW215501   2.324   0.521  14.234  0.6769 -0.4982  0.4645
 1348SOL     OW15502   3.014   1.256   1.691  0.1358  0.3727  0.5149
 1348SOL    HW115503   3.028   1.350   1.695  2.7897  0.0456 -1.3997
 1348SOL    HW215504   2.920   1.266   1.678  0.5820  2.4778 -1.0964
 1349SOL     OW15505   3.502   3.898   3.616 -0.6608  0.0615 -0.1126
 1349SOL    HW115506   3.546   3.925   3.696  1.1584 -1.1959 -0.6851
 1349SOL    HW215507   3.461   3.982   3.593 -1.5193 -0.8489 -1.9184
 1350SOL     OW15508   1.773   3.758   9.997 -0.0471  0.2733 -0.0053
 1350SOL    HW115509   1.716   3.829  10.027 -0.5791  0.3472 -1.1900
 1350SOL    HW215510   1.857   3.804   9.988 -0.2041  0.8681  1.5382
 1351SOL     OW15511   3.294   1.882  15.227 -0.7555  0.5139  0.0541
 1351SOL    HW115512   3.288   1.796  15.185 -1.1016  1.2300 -1.3634
 1351SOL    HW215513   3.220   1.934  15.196 -0.5661  1.2331  0.8159
 1352SOL     OW15514   0.575   1.909  11.318  0.4616 -0.6678 -0.1531
 1352SOL    HW115515   0.575   1.953  11.403 -0.4547 -1.3910  0.2270
 1352SOL    HW215516   0.636   1.955  11.261 -0.0920  1.1561  0.7312
 1353SOL     OW15517   1.804   0.251  17.518  0.8443 -0.1469 -0.2416
 1353SOL    HW115518   1.719   0.208  17.507 -0.0951  1.0518  2.3980
 1353SOL    HW215519   1.799   0.318  17.450  1.0201 -0.7360 -0.8474
 1354SOL     OW15520   2.390   4.074  15.801  0.9363 -0.0184  0.0685
 1354SOL    HW115521   2.484   4.088  15.813  0.8593  1.7425 -1.3097
 1354SOL    HW215522   2.386   4.071  15.897 -0.8433 -3.5389 -0.1027
 1355SOL     OW15523   3.730   2.572   2.319 -0.3026 -0.1501 -0.3262
 1355SOL    HW115524   3.810   2.545   2.276  1.2710 -0.9282  3.0614
 1355SOL    HW215525   3.663   2.522   2.272  0.2786 -1.8794  0.6850
 1356SOL     OW15526   1.426   4.572  16.569  0.2884  0.9361  0.2159
 1356SOL    HW115527   1.346   4.529  16.600  2.8977 -1.6102  3.3950
 1356SOL    HW215528   1.490   4.528  16.624 -1.9403  1.1651  3.0220
 1357SOL     OW15529   1.879   3.881   4.480 -0.6002 -0.1083 -0.2433
 1357SOL    HW115530   1.866   3.801   4.428 -1.8564 -1.0364  1.5160
 1357SOL    HW215531   1.827   3.853   4.555  0.5904 -2.0668 -0.1402
 1358SOL     OW15532   3.600   1.658   0.266  0.2231 -0.1686  0.4488
 1358SOL    HW115533   3.615   1.730   0.328  0.2526  0.9940 -0.8983
 1358SOL    HW215534   3.609   1.708   0.185 -0.8960  1.6255  1.4298
 1359SOL     OW15535   0.358   4.365  13.333  0.3124  0.4558  0.2400
 1359SOL    HW115536   0.303   4.352  13.411  0.5472  0.8102  0.4635
 1359SOL    HW215537   0.349   4.280  13.289  0.5849  0.3256  0.4299
 1360SOL     OW15538   1.317   4.535   0.828 -0.0871  0.3477  0.3247
 1360SOL    HW115539   1.354   4.522   0.915 -1.1534  1.9041  1.0056
 1360SOL    HW215540   1.232   4.492   0.820  1.1561 -2.2995  1.2864
 1361SOL     OW15541   1.224   3.715   8.666  0.2822  0.6078  0.1560
 1361SOL    HW115542   1.310   3.678   8.685 -0.3200 -0.7184  0.2814
 1361SOL    HW215543   1.185   3.659   8.599 -0.2756 -0.0111  0.9975
 1362SOL     OW15544   3.066   0.388   6.954 -0.0273  0.2797  0.4228
 1362SOL    HW115545   3.031   0.367   6.867  0.1035 -1.4315  0.7670
 1362SOL    HW215546   3.157   0.365   6.933 -0.5407 -0.8320 -0.6154
 1363SOL     OW15547   0.314   1.651  13.243  0.1084 -0.1217 -0.1361
 1363SOL    HW115548   0.275   1.568  13.215 -0.9298 -0.4334  2.1984
 1363SOL    HW215549   0.336   1.631  13.334 -0.9444  3.1810  0.8498
 1364SOL     OW15550   3.730   3.617  16.272  0.2944 -0.1023  0.5673
 1364SOL    HW115551   3.769   3.550  16.329 -0.1452 -0.5951  0.2894
 1364SOL    HW215552   3.693   3.675  16.338  1.2186  1.5427 -0.3514
 1365SOL     OW15553   3.436   4.406  14.656 -0.9476  0.0599  0.1384
 1365SOL    HW115554   3.502   4.344  14.625 -0.0743  0.8285  0.4680
 1365SOL    HW215555   3.372   4.355  14.705  0.7070 -1.2786  0.8673
 1366SOL     OW15556   3.665   1.667   7.066  0.5280 -0.2189  0.1404
 1366SOL    HW115557   3.708   1.593   7.023 -1.3980 -0.8290 -0.7496
 1366SOL    HW215558   3.734   1.732   7.072 -0.1502  0.4841  0.2912
 1367SOL     OW15559   4.022   2.935   8.639 -0.4590  0.5266  0.0706
 1367SOL    HW115560   3.946   2.978   8.679 -0.0063  1.5941 -0.2104
 1367SOL    HW215561   4.051   2.898   8.722  0.8801 -1.1997 -1.1836
 1368SOL     OW15562   3.455   4.056   5.185 -0.5986  0.8158 -0.1017
 1368SOL    HW115563   3.457   4.021   5.275 -0.6621  0.9210 -0.0596
 1368SOL    HW215564   3.452   4.149   5.205  2.9912  1.3876 -2.2061
 1369SOL     OW15565   0.520   2.376  12.208 -0.7803 -0.3073 -0.4542
 1369SOL    HW115566   0.588   2.402  12.270 -0.3395  0.6143 -1.3211
 1369SOL    HW215567   0.474   2.459  12.197 -2.7716 -1.0513  2.2389
 1370SOL     OW15568   3.863   0.227  12.325  0.0812  0.4661 -0.3823
 1370SOL    HW115569   3.950   0.191  12.346 -0.4933 -1.9077 -2.0854
 1370SOL    HW215570   3.812   0.191  12.397  1.6515 -0.4035  0.3089
 1371SOL     OW15571   2.424   4.649  11.469 -0.1862 -0.2364  0.3380
 1371SOL    HW115572   2.346   4.672  11.520 -1.2931  0.2699 -1.5931
 1371SOL    HW215573   2.471   4.626  11.549  0.5716  1.6063  0.4284
 1372SOL     OW15574   2.825   1.425   6.077  0.1209  0.0519 -0.9419
 1372SOL    HW115575   2.825   1.341   6.029 -0.8504 -0.7205  0.4263
 1372SOL    HW215576   2.911   1.449   6.041 -0.4385  1.0645 -1.5962
 1373SOL     OW15577   1.326   4.624   9.998 -0.0167  0.2956  0.7869
 1373SOL    HW115578   1.358   4.534  10.004  0.0113  0.2763  0.3758
 1373SOL    HW215579   1.233   4.618   9.976  0.1857 -0.7556  0.2182
 1374SOL     OW15580   0.830   0.559   9.531 -0.0282 -0.2405  0.4765
 1374SOL    HW115581   0.776   0.486   9.499 -0.9236  0.7677 -0.3446
 1374SOL    HW215582   0.857   0.539   9.620 -2.5184 -0.8942  1.0824
 1375SOL     OW15583   1.152   4.234   6.108  0.0572  0.1067 -0.0767
 1375SOL    HW115584   1.230   4.191   6.071 -0.8124  0.2985 -2.1731
 1375SOL    HW215585   1.083   4.177   6.074 -0.1072 -0.2567  0.8910
 1376SOL     OW15586   0.941   2.429   4.973  0.2649 -0.2218  0.0209
 1376SOL    HW115587   0.926   2.427   4.879  0.7117 -0.5569 -0.0444
 1376SOL    HW215588   0.966   2.337   4.985 -1.0929 -0.7479 -1.1666
 1377SOL     OW15589   1.760   3.873  17.122  0.7070  0.0353  0.4260
 1377SOL    HW115590   1.802   3.896  17.039  0.0915 -2.9358 -0.7300
 1377SOL    HW215591   1.684   3.931  17.123 -0.6957 -1.7116 -3.6638
 1378SOL     OW15592   0.335   2.335   5.248 -0.2722  0.3988 -0.3755
 1378SOL    HW115593   0.258   2.282   5.228 -1.8159  2.7774 -0.7103
 1378SOL    HW215594   0.327   2.342   5.343  0.3068  2.0807 -0.4577
 1379SOL     OW15595   3.725   3.022  12.384  0.1862  0.2999 -1.0279
 1379SOL    HW115596   3.781   2.982  12.450 -2.1749 -2.0750 -0.4542
 1379SOL    HW215597   3.772   3.103  12.366  0.7415  0.3064  0.4424
 1380SOL     OW15598   1.070   1.111   4.386 -0.3092  0.0286  0.5066
 1380SOL    HW115599   1.071   1.123   4.481 -2.6815 -1.5948  0.7455
 1380SOL    HW215600   1.094   1.197   4.354 -4.4031 -0.4136 -3.7998
 1381SOL     OW15601   4.362   1.240   8.940  0.2385 -0.2499  0.9950
 1381SOL    HW115602   4.432   1.194   8.894 -0.2504  0.1784 -0.1842
 1381SOL    HW215603   4.405   1.323   8.962 -2.6752  1.4803  0.3164
 1382SOL     OW15604   1.747   3.145   4.461  0.4286  0.2234 -0.0529
 1382SOL    HW115605   1.751   3.228   4.507 -0.3315  0.0866  0.2549
 1382SOL    HW215606   1.687   3.169   4.390 -0.1956 -0.7083  0.1572
 1383SOL     OW15607   1.170   2.624   3.506  0.3257 -0.2908  0.5069
 1383SOL    HW115608   1.161   2.535   3.541 -0.2252 -0.2350  0.5037
 1383SOL    HW215609   1.079   2.651   3.515  0.3402  0.9396 -2.9507
 1384SOL     OW15610   2.709   0.676   6.274 -0.8323  0.6244 -0.3548
 1384SOL    HW115611   2.630   0.644   6.317  0.8606  0.6109  2.7302
 1384SOL    HW215612   2.737   0.600   6.222 -3.5355  0.1488 -1.1169
 1385SOL     OW15613   4.329   3.681   6.017  0.4596 -0.0369  0.4100
 1385SOL    HW115614   4.372   3.647   6.095  0.6271 -0.3590  0.1788
 1385SOL    HW215615   4.248   3.631   6.012 -0.9659  2.2505  0.8442
 1386SOL     OW15616   1.719   2.399  10.992 -0.0084 -0.3028  0.4052
 1386SOL    HW115617   1.725   2.372  10.901 -0.3509 -1.8591  0.8416
 1386SOL    HW215618   1.688   2.488  10.979 -0.9516 -0.1685  3.4762
 1387SOL     OW15619   1.758   0.019   4.476 -0.3386  0.5438  0.3365
 1387SOL    HW115620   1.809   4.698   4.545  0.6284  0.3661 -0.4880
 1387SOL    HW215621   1.755   0.110   4.505 -2.1189  0.2434  1.1236
 1388SOL     OW15622   3.702   4.248  13.715 -0.3146  0.6805  0.3668
 1388SOL    HW115623   3.779   4.297  13.742 -0.8438  1.7001  0.0401
 1388SOL    HW215624   3.640   4.278  13.782  0.0817 -0.4519  1.2438
 1389SOL     OW15625   1.137   1.741   8.848  0.0978  0.0439 -0.2290
 1389SOL    HW115626   1.177   1.680   8.910  1.9456  1.2047 -0.2742
 1389SOL    HW215627   1.090   1.802   8.904  1.4742 -0.3128  1.3168
 1390SOL     OW15628   4.602   4.674  12.166 -0.4107  0.2379 -0.0573
 1390SOL    HW115629   4.615   4.647  12.075 -0.5701 -1.7007  0.5070
 1390SOL    HW215630   4.555   0.034  12.160 -1.0150  0.0202  1.7848
 1391SOL     OW15631   3.394   1.280   2.451  0.5673  0.1616 -0.0141
 1391SOL    HW115632   3.486   1.286   2.425 -0.0179  0.1377 -2.1590
 1391SOL    HW215633   3.360   1.216   2.388 -2.4866 -0.3118  2.1247
 1392SOL     OW15634   3.966   1.046   2.721  0.4693  0.3134  0.1133
 1392SOL    HW115635   3.968   0.977   2.655  2.1635  0.0873  0.4066
 1392SOL    HW215636   4.006   1.118   2.671 -2.3898  1.4334 -0.5441
 1393SOL     OW15637   0.420   1.433   7.045  0.4937  0.1890 -0.2932
 1393SOL    HW115638   0.353   1.450   6.979 -0.4531  2.5862  1.2922
 1393SOL    HW215639   0.414   1.515   7.094  1.7534 -0.8178  1.5593
 1394SOL     OW15640   1.299   0.182   1.036 -0.2182 -0.3062 -0.0952
 1394SOL    HW115641   1.216   0.146   1.005 -0.8313 -0.9497  2.2802
 1394SOL    HW215642   1.275   0.206   1.126  2.4684  0.6563  0.3704
 1395SOL     OW15643   2.731   3.797  10.927  0.2003  0.8703  0.2179
 1395SOL    HW115644   2.737   3.735  10.999  0.2133 -0.7180 -1.1351
 1395SOL    HW215645   2.771   3.874  10.968  0.9304  1.4433 -1.5483
 1396SOL     OW15646   2.383   0.846  14.375 -0.8858 -0.5118  0.3900
 1396SOL    HW115647   2.369   0.759  14.338 -0.0123 -0.2175 -0.6158
 1396SOL    HW215648   2.380   0.898  14.295 -0.8341 -0.0022  0.7202
 1397SOL     OW15649   1.854   3.845  10.765 -0.9058  0.6033 -0.2803
 1397SOL    HW115650   1.844   3.765  10.818  0.6642  0.3648 -0.3472
 1397SOL    HW215651   1.905   3.815  10.689  0.9066  1.9097  0.4189
 1398SOL     OW15652   0.287   2.116  10.411  0.3142  0.5244 -0.3189
 1398SOL    HW115653   0.353   2.176  10.444  0.0404  0.7513 -0.1868
 1398SOL    HW215654   0.342   2.068  10.349  0.4283 -1.6070  1.4328
 1399SOL     OW15655   1.653   3.431   1.670 -0.1780  0.0797 -0.1434
 1399SOL    HW115656   1.595   3.370   1.716 -0.5707 -0.1638 -0.9521
 1399SOL    HW215657   1.618   3.513   1.705  0.1360 -0.2256  0.8921
 1400SOL     OW15658   0.400   4.127  13.079  0.4536 -0.1596 -0.6518
 1400SOL    HW115659   0.484   4.172  13.067 -0.1629  0.5721 -2.1510
 1400SOL    HW215660   0.418   4.040  13.043  0.6878 -2.0273  3.9044
 1401SOL     OW15661   2.277   3.355   4.689  0.2322  0.2194  0.0273
 1401SOL    HW115662   2.219   3.424   4.655 -1.3545 -0.9067  0.4222
 1401SOL    HW215663   2.358   3.402   4.705  0.0799  1.4065 -2.7620
 1402SOL     OW15664   4.124   3.153   8.460 -0.1014 -0.0180 -0.3999
 1402SOL    HW115665   4.152   3.185   8.546  0.6481 -0.6540 -0.4070
 1402SOL    HW215666   4.089   3.069   8.489 -1.4076  0.7401  0.2234
 1403SOL     OW15667   3.584   4.143  17.264  0.0823 -0.3155 -0.0779
 1403SOL    HW115668   3.596   4.092  17.184 -0.1659 -2.0576  1.0118
 1403SOL    HW215669   3.619   4.088  17.333 -0.8209 -0.3379  0.3547
 1404SOL     OW15670   1.541   2.751   4.988 -0.4016 -0.0520  0.3454
 1404SOL    HW115671   1.607   2.811   4.954 -0.2842  0.7546  1.9663
 1404SOL    HW215672   1.590   2.670   4.981 -1.8473 -0.9359  0.3032
 1405SOL     OW15673   1.383   4.387   5.954  0.7490 -0.0349 -0.4521
 1405SOL    HW115674   1.324   4.385   5.879 -0.9652  0.8378  0.8625
 1405SOL    HW215675   1.454   4.445   5.927  0.6159  0.0746 -0.5654
 1406SOL     OW15676   1.229   2.933   7.104 -0.5674 -0.2791  0.0883
 1406SOL    HW115677   1.200   2.996   7.170 -1.2421 -0.2294 -0.2475
 1406SOL    HW215678   1.200   2.855   7.150  1.6727 -0.3335  1.3894
 1407SOL     OW15679   0.386   3.454   2.650 -0.1058 -0.4274 -0.1629
 1407SOL    HW115680   0.453   3.445   2.581  0.3549 -3.2163  0.6685
 1407SOL    HW215681   0.334   3.379   2.622  0.3179 -1.0978  0.8685
 1408SOL     OW15682   0.983   0.051   2.942 -0.4986 -0.1828  0.4639
 1408SOL    HW115683   1.039   0.128   2.956  0.0897 -0.7456  1.1477
 1408SOL    HW215684   1.039   4.698   2.956  1.3542  0.7605 -1.7922
 1409SOL     OW15685   3.927   3.553  10.736  0.6067  0.2391  0.1907
 1409SOL    HW115686   3.948   3.636  10.777  0.7899  1.2299 -1.9088
 1409SOL    HW215687   3.876   3.580  10.659  1.1950 -3.3337 -1.4726
 1410SOL     OW15688   1.303   2.747  10.013  0.0108 -0.1802  0.3280
 1410SOL    HW115689   1.313   2.665   9.964  0.0888  0.5416 -0.8360
 1410SOL    HW215690   1.381   2.739  10.069 -0.6529 -2.1608  0.9866
 1411SOL     OW15691   0.777   1.090   7.304  0.0241 -0.7029  0.3390
 1411SOL    HW115692   0.761   1.109   7.396  0.8928  0.3346  0.2681
 1411SOL    HW215693   0.723   1.157   7.263 -0.9356 -1.2329  0.7334
 1412SOL     OW15694   0.843   4.437  16.390  0.3444  0.3702  0.3612
 1412SOL    HW115695   0.777   4.403  16.451  1.9506  0.4461  2.1023
 1412SOL    HW215696   0.795   4.433  16.307  0.3010  2.6226  0.2567
 1413SOL     OW15697   1.128   3.183   4.514 -0.5644 -0.0430 -0.0873
 1413SOL    HW115698   1.183   3.162   4.589  1.5322  2.5363 -0.8893
 1413SOL    HW215699   1.159   3.269   4.485 -0.1125  0.2404  1.2416
 1414SOL     OW15700   0.109   4.248   9.548 -0.2118  0.0335  0.6684
 1414SOL    HW115701   0.029   4.294   9.573  0.0677  0.7347  0.2650
 1414SOL    HW215702   0.141   4.242   9.638 -2.1246  0.7436  1.3907
 1415SOL     OW15703   4.203   4.251   0.267  0.1870  0.5898  0.1764
 1415SOL    HW115704   4.132   4.229   0.327 -0.9333  0.6162 -1.1470
 1415SOL    HW215705   4.158   4.324   0.225 -0.7194 -0.4809 -0.7125
 1416SOL     OW15706   1.688   3.521   1.399 -0.5071  0.1529  0.1020
 1416SOL    HW115707   1.643   3.548   1.479 -0.0809 -0.2785  0.4864
 1416SOL    HW215708   1.655   3.431   1.393  1.6908 -0.7534  1.7810
 1417SOL     OW15709   3.521   1.237   5.329  0.1739  0.3339  0.4028
 1417SOL    HW115710   3.441   1.278   5.297 -1.1049 -2.3581  0.1644
 1417SOL    HW215711   3.516   1.170   5.261 -0.4130  1.8599 -1.0631
 1418SOL     OW15712   0.609   4.031   1.976 -0.1605  0.7937 -0.2230
 1418SOL    HW115713   0.638   4.061   2.062 -1.2267  2.1114 -0.3141
 1418SOL    HW215714   0.694   4.035   1.932 -0.2418  0.6073 -0.3965
 1419SOL     OW15715   0.014   4.472   8.824  0.6331 -0.2143  0.1146
 1419SOL    HW115716   4.690   4.529   8.885  1.9427 -0.4573  1.3308
 1419SOL    HW215717   4.672   4.412   8.787  0.2765 -0.4016  1.0378
 1420SOL     OW15718   2.096   2.649   2.597  0.3975 -0.7906  0.6367
 1420SOL    HW115719   2.145   2.670   2.517 -0.5305  1.5716  0.6832
 1420SOL    HW215720   2.045   2.728   2.613 -2.1600 -2.8572  2.7063
 1421SOL     OW15721   4.189   0.764  10.049 -0.0922  0.2325  0.4345
 1421SOL    HW115722   4.229   0.731   9.968 -1.1091 -2.8632  1.1762
 1421SOL    HW215723   4.210   0.702  10.119 -0.9583  1.4361  1.7635
 1422SOL     OW15724   4.038   1.176  14.856  0.0779  0.2899  0.6978
 1422SOL    HW115725   4.014   1.219  14.938  1.2571 -1.0571  1.7481
 1422SOL    HW215726   4.046   1.083  14.877  1.5342  0.6261  1.5697
 1423SOL     OW15727   4.182   2.088   2.652  0.1844 -0.1848 -0.4040
 1423SOL    HW115728   4.106   2.126   2.696  2.0076  0.7746  1.8696
 1423SOL    HW215729   4.242   2.162   2.662 -0.3538 -0.0796  2.0415
 1424SOL     OW15730   2.005   1.892   8.617 -0.7347  0.0049  0.1310
 1424SOL    HW115731   2.030   1.840   8.693 -0.2492  0.0006 -0.0332
 1424SOL    HW215732   1.968   1.825   8.559 -1.3932 -1.7478  2.6092
 1425SOL     OW15733   4.408   1.585   5.350 -0.5056  0.1757 -0.7431
 1425SOL    HW115734   4.385   1.512   5.408 -0.3612  0.4227 -0.3712
 1425SOL    HW215735   4.422   1.654   5.415 -2.9453 -0.8131  0.8693
 1426SOL     OW15736   2.793   0.259   1.037  0.1856 -0.7109  0.4589
 1426SOL    HW115737   2.836   0.344   1.043 -3.1395  0.8192  2.6390
 1426SOL    HW215738   2.734   0.275   0.963  0.2634 -0.1380  0.5171
 1427SOL     OW15739   3.711   2.840   4.250 -0.0945  0.6082  0.0239
 1427SOL    HW115740   3.772   2.911   4.232  1.3513 -0.2660  1.4373
 1427SOL    HW215741   3.775   2.770   4.237  1.0412  1.4408  1.2117
 1428SOL     OW15742   0.979   1.604   9.315 -0.2759  0.5334 -0.1227
 1428SOL    HW115743   0.997   1.698   9.316 -0.7568  0.6265 -0.1693
 1428SOL    HW215744   1.026   1.588   9.397  1.7815  1.4066 -1.1553
 1429SOL     OW15745   1.759   2.659   5.467  0.0921  0.0622 -0.2957
 1429SOL    HW115746   1.782   2.569   5.492 -0.2377  0.5436  1.7754
 1429SOL    HW215747   1.699   2.631   5.397  0.5456 -1.0303 -0.2473
 1430SOL     OW15748   3.866   0.296   8.289 -0.5314  0.7257 -0.4842
 1430SOL    HW115749   3.903   0.383   8.273 -1.5903  1.3298  0.4008
 1430SOL    HW215750   3.948   0.255   8.316 -1.2774  0.2244  1.0322
 1431SOL     OW15751   2.199   0.115  16.290  0.5541 -0.0202 -0.0307
 1431SOL    HW115752   2.189   0.177  16.362  3.1770  0.4234 -0.0315
 1431SOL    HW215753   2.295   0.116  16.280  0.7347 -1.2357  1.5208
 1432SOL     OW15754   4.036   4.026   6.160 -0.1094 -0.4198  0.0189
 1432SOL    HW115755   3.976   3.955   6.136 -0.5956 -0.1237  0.3668
 1432SOL    HW215756   3.994   4.066   6.236 -2.6270  1.1524 -2.1913
 1433SOL     OW15757   4.092   3.793   9.223  0.6214  0.1668 -0.2523
 1433SOL    HW115758   4.016   3.774   9.167 -0.8300  0.1805  1.7297
 1433SOL    HW215759   4.124   3.704   9.235  1.1995  0.4707  0.4498
 1434SOL     OW15760   4.338   4.220   4.093 -0.0132  0.2222 -0.4752
 1434SOL    HW115761   4.271   4.152   4.099  1.3175 -1.0284  0.2095
 1434SOL    HW215762   4.405   4.188   4.153 -0.1449  0.4747 -0.1893
 1435SOL     OW15763   3.043   3.316  16.899  0.5944  0.1095 -0.3892
 1435SOL    HW115764   3.126   3.334  16.854 -0.0911  0.2917 -1.5826
 1435SOL    HW215765   2.985   3.303  16.823 -0.9611  0.6221  0.7193
 1436SOL     OW15766   2.085   0.238   0.921 -0.0630 -0.7362 -0.3340
 1436SOL    HW115767   2.097   0.247   0.827 -0.4506 -0.1187 -0.3283
 1436SOL    HW215768   1.992   0.217   0.932 -0.3150  1.1267  1.1228
 1437SOL     OW15769   0.579   3.331  17.169  0.2525 -0.2904 -0.1222
 1437SOL    HW115770   0.557   3.244  17.202 -0.2194  0.2898  1.0972
 1437SOL    HW215771   0.674   3.331  17.171  0.2716 -1.2421 -0.8177
 1438SOL     OW15772   2.986   0.911  10.896 -0.5176  0.2629 -0.5433
 1438SOL    HW115773   2.901   0.889  10.934  1.2138 -0.9723  2.6437
 1438SOL    HW215774   3.033   0.938  10.975 -0.6554  0.9860 -0.7132
 1439SOL     OW15775   4.086   3.806   7.774 -0.4666  0.0800 -0.2635
 1439SOL    HW115776   4.143   3.739   7.810 -1.1909 -1.0601 -1.2452
 1439SOL    HW215777   4.151   3.869   7.741  0.0130  0.5278  1.5452
 1440SOL     OW15778   4.578   1.999   8.940 -0.2807  0.0753 -0.5677
 1440SOL    HW115779   4.486   1.986   8.960 -0.3570  1.4698 -0.0504
 1440SOL    HW215780   4.589   2.091   8.916 -2.4152  0.5552  0.3429
 1441SOL     OW15781   2.050   4.190   7.745 -0.3547  0.0742 -0.1115
 1441SOL    HW115782   2.008   4.261   7.792  0.9185  1.7960 -1.5701
 1441SOL    HW215783   2.103   4.153   7.816 -1.9982  0.9508  1.5592
 1442SOL     OW15784   3.548   2.799   5.381 -0.4370 -0.0912 -0.1236
 1442SOL    HW115785   3.551   2.892   5.403 -1.3669  0.3050 -1.7189
 1442SOL    HW215786   3.464   2.790   5.335 -1.3796  1.0539  1.3655
 1443SOL     OW15787   1.752   3.244   9.882 -0.0880  0.2027 -0.0943
 1443SOL    HW115788   1.793   3.175   9.830 -3.0571 -1.7709  0.1795
 1443SOL    HW215789   1.829   3.271   9.933  0.4074 -1.2351 -0.0964
 1444SOL     OW15790   1.189   3.854  17.088 -0.2867  0.1985 -0.2736
 1444SOL    HW115791   1.254   3.813  17.031  0.5045 -0.0550  0.8085
 1444SOL    HW215792   1.188   3.939  17.044  1.6002 -0.2312 -1.1392
 1445SOL     OW15793   4.348   0.481   4.847  1.0700  0.0406  0.2375
 1445SOL    HW115794   4.265   0.433   4.844  0.5781  1.0031 -1.2516
 1445SOL    HW215795   4.389   0.450   4.766  0.0445  0.0815 -0.2979
 1446SOL     OW15796   4.388   4.121   5.338  0.2536  0.0595 -0.2759
 1446SOL    HW115797   4.314   4.140   5.396  0.2741  2.1290 -0.9230
 1446SOL    HW215798   4.450   4.083   5.399  0.7622  1.1263 -0.1282
 1447SOL     OW15799   3.550   4.005   9.315 -0.4699  0.1923 -0.4214
 1447SOL    HW115800   3.484   3.943   9.285 -0.5594 -1.5872  3.5057
 1447SOL    HW215801   3.505   4.089   9.307 -1.4989 -0.2950  0.4059
 1448SOL     OW15802   0.045   1.210   2.207 -0.0362  0.6293 -0.4282
 1448SOL    HW115803   0.083   1.256   2.133  1.9196 -0.6764 -0.2219
 1448SOL    HW215804   4.675   1.206   2.183 -0.3125  1.4018  0.4815
 1449SOL     OW15805   2.437   1.365  10.731 -0.1873  0.4104 -0.3577
 1449SOL    HW115806   2.352   1.334  10.701 -0.4461  0.1913  0.6009
 1449SOL    HW215807   2.414   1.356  10.824  0.6886 -0.5757 -0.2446
 1450SOL     OW15808   4.360   1.601   6.000  0.0588  0.2387 -0.2914
 1450SOL    HW115809   4.376   1.692   5.973  0.5030  0.0667 -0.6077
 1450SOL    HW215810   4.352   1.569   5.910  3.8858 -3.0859  0.5618
 1451SOL     OW15811   4.220   1.631  12.410  0.1091  0.1419 -0.5221
 1451SOL    HW115812   4.156   1.571  12.373  0.4097 -1.9837  2.4192
 1451SOL    HW215813   4.245   1.679  12.331  0.8712  2.2464  0.9826
 1452SOL     OW15814   0.646   1.174  17.175 -0.0974  0.1896 -0.0090
 1452SOL    HW115815   0.634   1.080  17.190 -0.8035 -0.0030 -1.7927
 1452SOL    HW215816   0.673   1.198  17.264 -0.5855 -1.4926  0.6012
 1453SOL     OW15817   3.868   3.021   3.972 -0.1861 -0.4041 -0.0821
 1453SOL    HW115818   3.899   3.002   4.060 -1.3476 -3.8778 -0.4252
 1453SOL    HW215819   3.929   3.090   3.945 -0.8783  0.1824 -0.1179
 1454SOL     OW15820   4.691   1.496   7.498 -0.6408  0.4686 -0.5021
 1454SOL    HW115821   4.602   1.526   7.516 -0.9257 -0.8585  0.2947
 1454SOL    HW215822   0.008   1.511   7.584 -1.1317  0.1037 -0.2105
 1455SOL     OW15823   0.983   3.655  16.513  0.4845  0.2889 -0.4475
 1455SOL    HW115824   0.953   3.699  16.433  0.2458  0.9172 -0.0118
 1455SOL    HW215825   0.907   3.613  16.552  0.7420  1.2395  1.0743
 1456SOL     OW15826   1.727   4.470   4.401  0.3805  0.1309 -0.4626
 1456SOL    HW115827   1.660   4.445   4.338 -0.3849 -0.0514  0.4427
 1456SOL    HW215828   1.719   4.565   4.408  0.6270  0.2590 -1.8757
 1457SOL     OW15829   0.517   2.608   0.296 -0.5868 -0.0799  0.1006
 1457SOL    HW115830   0.493   2.584   0.206  2.8672  0.3501 -0.9319
 1457SOL    HW215831   0.568   2.533   0.325  1.7273  1.7643  0.7597
 1458SOL     OW15832   0.178   3.778  15.313 -0.1769  0.0941  0.5561
 1458SOL    HW115833   0.223   3.831  15.247 -0.1306 -2.3168 -1.3597
 1458SOL    HW215834   0.190   3.831  15.393  1.9459  0.6155 -0.1003
 1459SOL     OW15835   2.020   1.034   3.300 -0.2228 -0.2669 -0.2375
 1459SOL    HW115836   2.074   0.956   3.284  0.6673 -0.0945  1.9728
 1459SOL    HW215837   2.075   1.108   3.272 -0.4383  0.8608  2.3068
 1460SOL     OW15838   1.378   4.435   7.017  0.3159  0.0642 -0.3272
 1460SOL    HW115839   1.435   4.491   7.071 -1.3433  0.6221  0.8696
 1460SOL    HW215840   1.377   4.493   6.941  3.3914  1.8263  0.9572
 1461SOL     OW15841   0.648   3.743   6.802 -0.6369 -0.5652  0.4200
 1461SOL    HW115842   0.646   3.719   6.709  1.3180  4.7412 -1.0342
 1461SOL    HW215843   0.742   3.747   6.820 -0.3060  2.2581 -1.9775
 1462SOL     OW15844   2.545   2.700   2.520 -0.1285 -0.2647  0.3092
 1462SOL    HW115845   2.460   2.715   2.479 -0.1857 -2.9543 -0.5866
 1462SOL    HW215846   2.577   2.620   2.477  1.6333  0.6020  0.0189
 1463SOL     OW15847   0.165   3.206   2.320 -0.3336  0.3401 -0.5958
 1463SOL    HW115848   0.145   3.135   2.381 -0.8203  0.3249 -0.7744
 1463SOL    HW215849   0.251   3.176   2.292 -0.7342 -0.3520 -1.0861
 1464SOL     OW15850   1.291   1.651   6.314 -0.3982  0.4240  0.3684
 1464SOL    HW115851   1.290   1.610   6.400 -2.6470  1.4204  0.8319
 1464SOL    HW215852   1.201   1.684   6.314 -1.2044 -1.7894  2.3128
 1465SOL     OW15853   2.056   2.018   3.714  0.2241  0.1173  0.4866
 1465SOL    HW115854   2.010   2.084   3.767  0.1718  0.8599 -0.4892
 1465SOL    HW215855   2.016   1.948   3.766  1.4254  0.4761  1.8777
 1466SOL     OW15856   4.352   1.733  11.203 -0.6726  0.4464 -0.3744
 1466SOL    HW115857   4.430   1.787  11.197  0.4841 -1.2223 -0.5511
 1466SOL    HW215858   4.371   1.657  11.148  1.0354  0.4664  0.1822
 1467SOL     OW15859   2.803   1.359   5.209 -0.1124  0.1291  0.2886
 1467SOL    HW115860   2.731   1.328   5.154 -1.9673  2.4535  1.4303
 1467SOL    HW215861   2.860   1.397   5.142 -0.0259  0.4732  0.5594
 1468SOL     OW15862   0.357   1.037   2.491  0.1831 -0.7758 -0.0272
 1468SOL    HW115863   0.331   1.000   2.406 -1.1669 -1.0532  0.5116
 1468SOL    HW215864   0.419   1.106   2.465 -0.0048 -0.7425 -0.3904
 1469SOL     OW15865   2.380   3.630   9.916 -0.1864 -0.0672  0.0404
 1469SOL    HW115866   2.416   3.704   9.965 -1.9474  1.7702 -1.4435
 1469SOL    HW215867   2.463   3.584   9.906 -0.3270 -0.3004 -0.0754
 1470SOL     OW15868   0.743   1.690   6.184 -0.2695  0.0798 -0.3110
 1470SOL    HW115869   0.820   1.661   6.234  0.2442  0.3499 -0.9389
 1470SOL    HW215870   0.784   1.745   6.117  1.5094  0.6232  1.2297
 1471SOL     OW15871   0.315   0.950   1.899 -0.0447 -0.3544  0.4824
 1471SOL    HW115872   0.303   0.877   1.960  1.4933 -0.3216  0.8322
 1471SOL    HW215873   0.291   0.915   1.813  0.6499  0.3741 -0.0044
 1472SOL     OW15874   1.490   3.302   1.865 -0.0274 -0.7687 -0.5639
 1472SOL    HW115875   1.452   3.360   1.930  1.3444  1.4504 -1.7695
 1472SOL    HW215876   1.545   3.240   1.914  1.1552  1.2375  0.6252
 1473SOL     OW15877   2.704   2.881   0.177 -0.0351  0.0184 -0.6159
 1473SOL    HW115878   2.776   2.943   0.180 -0.2132  0.1310  1.2619
 1473SOL    HW215879   2.654   2.905   0.099 -2.4913 -2.6755  0.1173
 1474SOL     OW15880   1.928   3.496  10.195 -0.0861 -0.0579  0.0125
 1474SOL    HW115881   1.939   3.414  10.243 -0.9250 -0.1375  0.0643
 1474SOL    HW215882   2.015   3.528  10.170 -0.6189  0.7319 -0.8576
 1475SOL     OW15883   0.878   1.268   4.831 -0.2435  0.1630  0.1686
 1475SOL    HW115884   0.930   1.337   4.789  0.9351 -0.3790  0.7358
 1475SOL    HW215885   0.876   1.298   4.922  0.2638 -0.4488  0.3837
 1476SOL     OW15886   0.926   2.010   8.274 -0.1483 -0.1495 -0.3484
 1476SOL    HW115887   0.902   1.944   8.339  0.1046  1.9416  1.8790
 1476SOL    HW215888   0.956   2.071   8.341 -2.0104  0.6525 -0.2271
 1477SOL     OW15889   4.579   4.214   1.471 -0.0083  0.0255 -0.1054
 1477SOL    HW115890   4.494   4.175   1.492  0.4029  0.1398  1.7940
 1477SOL    HW215891   4.616   4.206   1.559  1.3666  1.0624 -0.5894
 1478SOL     OW15892   1.437   0.577   7.857 -0.1894 -0.2641  0.4109
 1478SOL    HW115893   1.447   0.647   7.792 -0.6571 -1.1765 -0.6493
 1478SOL    HW215894   1.406   0.633   7.927 -1.7146  0.6189 -0.9733
 1479SOL     OW15895   0.432   3.424   8.518 -0.2774 -0.0984  0.0567
 1479SOL    HW115896   0.397   3.335   8.518  0.9217 -0.5774  2.9658
 1479SOL    HW215897   0.524   3.399   8.504 -0.7472 -0.6949 -1.8940
 1480SOL     OW15898   0.598   4.303   7.055 -0.0025  0.3139  0.3059
 1480SOL    HW115899   0.538   4.238   7.018  1.6755 -0.7031 -0.6105
 1480SOL    HW215900   0.534   4.362   7.095 -1.1025 -1.3935  1.0648
 1481SOL     OW15901   2.957   2.252   0.927  0.3865 -0.1965 -0.3219
 1481SOL    HW115902   2.933   2.326   0.871  1.3835 -0.0912 -0.6255
 1481SOL    HW215903   2.922   2.180   0.874 -1.2203 -0.8498  1.6677
 1482SOL     OW15904   4.426   0.347   1.324  0.5182  0.4589  0.4492
 1482SOL    HW115905   4.501   0.399   1.296 -0.9366  0.7672 -2.8039
 1482SOL    HW215906   4.456   0.292   1.397 -0.1487  0.4361  0.6999
 1483SOL     OW15907   0.026   4.478   6.447  0.1824  0.2166  0.5952
 1483SOL    HW115908   0.096   4.525   6.402 -0.0956 -1.6051 -1.7456
 1483SOL    HW215909   4.713   4.543   6.508  0.7227 -0.1708  1.3192
 1484SOL     OW15910   1.599   3.648  11.368 -0.2885  0.0272  0.0332
 1484SOL    HW115911   1.618   3.713  11.301 -0.1811  0.0320  0.0685
 1484SOL    HW215912   1.597   3.704  11.446  2.4449 -0.9934  0.8383
 1485SOL     OW15913   2.264   2.909   4.268 -0.3676 -0.2703 -0.1404
 1485SOL    HW115914   2.195   2.943   4.325 -0.9826  1.5293 -1.9718
 1485SOL    HW215915   2.220   2.902   4.183 -2.5809 -2.1220  1.1662
 1486SOL     OW15916   4.586   3.755  13.565  0.1725  0.1571  0.3911
 1486SOL    HW115917   4.636   3.795  13.636  1.0204 -1.2175  0.5652
 1486SOL    HW215918   4.499   3.738  13.601  0.8000  0.0516  1.8558
 1487SOL     OW15919   4.702   2.042  10.312  0.1170  0.2919  0.2901
 1487SOL    HW115920   4.612   2.068  10.295  0.0299 -0.7242 -0.7942
 1487SOL    HW215921   4.701   1.955  10.271  0.6426 -0.3463  1.5982
 1488SOL     OW15922   3.336   3.962   2.601 -0.1492 -0.2951 -0.0328
 1488SOL    HW115923   3.258   3.954   2.654  0.9564 -0.5962  1.5498
 1488SOL    HW215924   3.366   3.871   2.600 -0.0369 -0.2657  2.9608
 1489SOL     OW15925   4.269   1.922  10.428  0.3574  0.3590  0.4435
 1489SOL    HW115926   4.203   1.856  10.409 -0.1364 -0.0542  3.6776
 1489SOL    HW215927   4.209   1.996  10.440  1.0024  0.7651  1.2215
 1490SOL     OW15928   4.075   1.776   2.875 -0.7072 -0.1207  0.2035
 1490SOL    HW115929   4.010   1.842   2.897 -0.8492 -0.7853  1.7415
 1490SOL    HW215930   4.041   1.690   2.897 -0.8472  0.3607  1.8199
 1491SOL     OW15931   3.051   2.735   6.762  0.1499  0.4578 -0.0803
 1491SOL    HW115932   3.077   2.674   6.694  1.0638  0.5791  0.1572
 1491SOL    HW215933   3.080   2.681   6.836  2.2318  0.8104 -0.6263
 1492SOL     OW15934   1.719   1.900   0.681  0.0252  0.5468  0.3859
 1492SOL    HW115935   1.698   1.823   0.627  1.9468  1.4049 -1.5821
 1492SOL    HW215936   1.712   1.854   0.764 -2.7993 -1.0457 -0.7352
 1493SOL     OW15937   2.379   2.877   4.910 -0.5384 -0.6828  0.0756
 1493SOL    HW115938   2.406   2.922   4.991  1.0816  1.5792 -1.7212
 1493SOL    HW215939   2.450   2.821   4.879  0.7068  0.3515  1.0190
 1494SOL     OW15940   3.185   3.550   6.066 -0.5540  0.2657  0.5781
 1494SOL    HW115941   3.181   3.459   6.036 -0.5866  1.0398 -1.7049
 1494SOL    HW215942   3.252   3.538   6.134 -0.9474  2.9818  1.4387
 1495SOL     OW15943   1.089   2.958   6.322 -0.5137 -0.2656  0.0478
 1495SOL    HW115944   1.086   2.869   6.288 -0.0298 -0.1465 -0.3070
 1495SOL    HW215945   1.100   2.939   6.415  0.5739  1.2498  0.2313
 1496SOL     OW15946   4.609   2.841   0.840 -0.1063  0.7330  0.1737
 1496SOL    HW115947   4.593   2.762   0.893  1.3409 -0.2295 -0.8330
 1496SOL    HW215948   4.520   2.878   0.836  0.8086  2.8732 -0.2920
 1497SOL     OW15949   3.329   1.535   7.810 -0.2287  0.4734 -0.0476
 1497SOL    HW115950   3.354   1.444   7.798  1.7385  1.0700 -0.4280
 1497SOL    HW215951   3.394   1.587   7.762 -0.4653  0.6993 -0.1281
 1498SOL     OW15952   3.444   4.568   1.772  0.3409 -0.0449  0.2406
 1498SOL    HW115953   3.481   4.496   1.720 -2.0961 -1.2160  0.1349
 1498SOL    HW215954   3.420   4.631   1.704  1.6239 -0.5598 -0.6986
 1499SOL     OW15955   2.623   0.232   0.814  0.3383 -0.4473  0.2303
 1499SOL    HW115956   2.541   0.268   0.849  0.4204  0.7678 -0.8363
 1499SOL    HW215957   2.606   0.138   0.820 -0.6231 -0.3690 -1.6038
 1500SOL     OW15958   2.134   3.256   0.217 -0.6683  0.0635 -0.5422
 1500SOL    HW115959   2.180   3.175   0.195 -1.8180  0.1734 -3.3207
 1500SOL    HW215960   2.119   3.226   0.307  0.1347  1.4928  0.0698
 1501SOL     OW15961   3.644   3.383   6.532  0.5531  0.2181  0.3252
 1501SOL    HW115962   3.682   3.306   6.491  1.4265 -0.2845  2.0814
 1501SOL    HW215963   3.715   3.414   6.588  1.9732 -2.1267 -0.1662
 1502SOL     OW15964   4.197   4.511   6.477  0.1499  0.5953 -0.2546
 1502SOL    HW115965   4.253   4.513   6.554 -0.3508  0.4019  0.1202
 1502SOL    HW215966   4.161   4.599   6.465  0.0432  0.7246  1.0317
 1503SOL     OW15967   2.646   0.741   2.422 -0.0445 -0.6506  0.2983
 1503SOL    HW115968   2.658   0.780   2.335  2.2000 -2.2368 -0.0951
 1503SOL    HW215969   2.730   0.756   2.465 -0.6392 -1.5227  1.7770
 1504SOL     OW15970   4.002   2.907   4.194 -0.8837 -0.0694 -0.0332
 1504SOL    HW115971   3.968   2.819   4.175  1.4003 -0.8039 -0.8366
 1504SOL    HW215972   4.041   2.887   4.279 -1.3326  0.7446  0.3511
 1505SOL     OW15973   2.304   0.336   0.475  0.0759  0.3876 -0.2755
 1505SOL    HW115974   2.260   0.330   0.390  0.3909 -1.6414 -0.2915
 1505SOL    HW215975   2.335   0.427   0.478  1.0118  0.0083  1.5974
 1506SOL     OW15976   4.172   2.075  12.875  0.1538 -0.4353 -0.3761
 1506SOL    HW115977   4.116   2.097  12.950 -3.1262  0.3050 -3.0113
 1506SOL    HW215978   4.109   2.052  12.807 -1.7805  0.9252  0.9318
 1507SOL     OW15979   1.902   0.943   8.718 -0.5122 -0.2799 -0.2050
 1507SOL    HW115980   1.822   0.902   8.750  0.7018 -3.2818 -0.9808
 1507SOL    HW215981   1.944   0.865   8.682  0.4308 -0.1120  0.5334
 1508SOL     OW15982   3.016   2.484   4.990  0.3138  0.5850 -0.3554
 1508SOL    HW115983   2.951   2.547   5.021  2.4588  3.4382 -1.6748
 1508SOL    HW215984   2.960   2.426   4.938 -0.7659  1.1712  0.1561
 1509SOL     OW15985   3.795   3.427   1.252 -0.2943  0.1149  0.0555
 1509SOL    HW115986   3.749   3.502   1.290 -0.6988 -0.3799  0.5508
 1509SOL    HW215987   3.888   3.441   1.269  0.4044 -0.9951 -2.9468
 1510SOL     OW15988   3.105   3.775  12.814  0.7468  0.4087 -0.0173
 1510SOL    HW115989   3.051   3.696  12.808  1.5314 -0.1795  0.5715
 1510SOL    HW215990   3.048   3.851  12.827  1.1082  1.1993 -3.1046
 1511SOL     OW15991   2.724   1.967  13.147  0.4848  0.3163 -0.1645
 1511SOL    HW115992   2.812   1.992  13.120  0.5654  0.6480  0.4085
 1511SOL    HW215993   2.679   1.941  13.067  1.7300 -0.2763 -0.6639
 1512SOL     OW15994   1.309   0.113   2.582 -0.2682 -0.2197 -0.6593
 1512SOL    HW115995   1.398   0.148   2.574 -0.6028  0.3181 -2.0191
 1512SOL    HW215996   1.264   0.176   2.638 -1.4257 -0.6214 -1.1362
 1513SOL     OW15997   2.202   3.602  10.191 -0.2479  0.2817 -0.2917
 1513SOL    HW115998   2.156   3.674  10.148 -3.2513 -1.4978 -0.1244
 1513SOL    HW215999   2.285   3.647  10.206 -0.2926  0.7666 -1.5089
 1514SOL     OW16000   1.851   1.171   0.565  0.5849  0.1880  0.4677
 1514SOL    HW116001   1.905   1.181   0.486  0.3455 -1.6292  0.0826
 1514SOL    HW216002   1.760   1.192   0.544  0.9823  0.3191 -1.1298
 1515SOL     OW16003   0.029   1.595   5.048  0.4723 -0.1316  0.4965
 1515SOL    HW116004   4.660   1.584   5.025  0.4404 -1.2202  1.1136
 1515SOL    HW216005   0.032   1.585   5.143  2.8711 -1.7840  0.2556
 1516SOL     OW16006   2.836   0.659   4.337 -0.3518  0.0297 -0.2099
 1516SOL    HW116007   2.763   0.624   4.388 -2.5953  1.3161 -2.5499
 1516SOL    HW216008   2.785   0.663   4.256  1.4151 -0.5326 -1.3329
 1517SOL     OW16009   3.845   0.831   5.108 -0.2421 -0.5406  0.8248
 1517SOL    HW116010   3.776   0.836   5.041  0.4788 -2.7966 -0.0656
 1517SOL    HW216011   3.904   0.894   5.065  1.3958 -2.3425  0.4728
 1518SOL     OW16012   3.855   3.599   7.204  0.0975 -0.5012 -0.0976
 1518SOL    HW116013   3.877   3.620   7.113  1.2795  0.1889  0.3468
 1518SOL    HW216014   3.801   3.522   7.188  2.0508 -1.7464 -0.6091
 1519SOL     OW16015   2.964   2.213   6.270  0.4786 -0.4219 -0.3019
 1519SOL    HW116016   2.923   2.130   6.245  3.4756 -1.2664 -2.4572
 1519SOL    HW216017   2.902   2.278   6.236 -0.5704 -0.4578  1.5202
 1520SOL     OW16018   0.859   1.530  12.258  0.4366  0.6474 -0.0998
 1520SOL    HW116019   0.908   1.570  12.186  1.8690 -0.2912  0.3576
 1520SOL    HW216020   0.903   1.561  12.337 -0.5926  1.0209  0.3222
 1521SOL     OW16021   1.411   2.035  15.671  0.0805 -0.4518 -0.1733
 1521SOL    HW116022   1.379   1.947  15.693 -0.9568 -0.2436 -0.8177
 1521SOL    HW216023   1.334   2.087  15.692 -0.7908 -0.9157 -2.1598
 1522SOL     OW16024   2.211   0.659   5.452  0.5186  0.0225 -0.0059
 1522SOL    HW116025   2.289   0.616   5.486  1.3504 -1.4555 -3.7516
 1522SOL    HW216026   2.153   0.584   5.440  3.6916 -2.4138 -0.1047
 1523SOL     OW16027   1.011   1.945   3.117  0.7033  0.2150  0.4453
 1523SOL    HW116028   0.986   2.038   3.113 -0.2025 -0.0641 -0.2851
 1523SOL    HW216029   0.993   1.924   3.026 -0.8920  0.1866  0.7565
 1524SOL     OW16030   1.368   4.692   4.159 -0.2385  0.0712 -0.5457
 1524SOL    HW116031   1.369   0.064   4.154  0.7833  0.0877  0.0052
 1524SOL    HW216032   1.375   4.679   4.253  0.5913  0.1647 -0.5910
 1525SOL     OW16033   2.191   1.518  12.179 -0.1464 -0.8037  0.6066
 1525SOL    HW116034   2.229   1.574  12.247 -2.0192  0.2488  0.7702
 1525SOL    HW216035   2.145   1.584  12.128  0.6855 -0.7478 -0.0691
 1526SOL     OW16036   1.868   1.294   6.820  0.0873 -0.0289 -0.3192
 1526SOL    HW116037   1.890   1.240   6.896  0.3738 -0.2923 -0.5896
 1526SOL    HW216038   1.891   1.233   6.750 -0.7048 -0.2536 -0.3864
 1527SOL     OW16039   0.646   4.008   2.451 -0.2179  0.0388 -0.2175
 1527SOL    HW116040   0.605   3.922   2.450  0.8276 -0.4224 -3.1883
 1527SOL    HW216041   0.589   4.043   2.382  0.1573  1.0232 -0.0241
 1528SOL     OW16042   1.035   3.675   7.599  0.0690 -0.5865  0.3728
 1528SOL    HW116043   0.976   3.737   7.557  0.4480 -0.6906 -0.3130
 1528SOL    HW216044   1.025   3.715   7.685 -1.6149  1.5516 -0.8201
 1529SOL     OW16045   2.966   2.904   7.331  0.0610 -0.0270  0.1570
 1529SOL    HW116046   2.955   2.940   7.419  0.0802  1.0169 -0.2676
 1529SOL    HW216047   3.057   2.922   7.310 -0.7204  1.7503 -1.6997
 1530SOL     OW16048   1.187   1.789   3.464 -0.0475  0.2008 -0.3532
 1530SOL    HW116049   1.217   1.799   3.373  2.9596  0.1190  0.6406
 1530SOL    HW216050   1.224   1.706   3.492  0.1527  0.3592 -0.1454
 1531SOL     OW16051   1.971   2.765  10.642 -0.1714 -0.1067  0.2491
 1531SOL    HW116052   1.982   2.761  10.547 -2.7952  1.8040 -0.1248
 1531SOL    HW216053   1.940   2.854  10.656 -1.3578 -0.1704 -2.0436
 1532SOL     OW16054   1.775   3.983   4.839  0.4761  0.2114 -0.5601
 1532SOL    HW116055   1.859   3.938   4.842  1.3463  1.9406  0.7681
 1532SOL    HW216056   1.804   4.073   4.855 -0.4341 -0.0245  2.5365
 1533SOL     OW16057   1.980   2.863   6.248 -0.2309  0.3604  0.3361
 1533SOL    HW116058   1.998   2.827   6.335 -2.8727 -1.4231  0.1529
 1533SOL    HW216059   2.060   2.827   6.211  0.1394  0.4583  1.0299
 1534SOL     OW16060   1.231   1.717   5.337  0.0984  0.3356  0.5410
 1534SOL    HW116061   1.267   1.629   5.343  0.8244  0.4445 -2.0499
 1534SOL    HW216062   1.277   1.764   5.407  3.3367 -0.7419 -0.8504
 1535SOL     OW16063   0.186   1.844  16.729 -0.0805  0.3829 -0.1552
 1535SOL    HW116064   0.206   1.752  16.750 -2.1140 -0.4137 -1.7007
 1535SOL    HW216065   0.269   1.889  16.745  0.3934  0.7425 -3.5930
 1536SOL     OW16066   1.551   1.554   3.254 -0.3827  0.6718  0.1395
 1536SOL    HW116067   1.556   1.607   3.333 -0.9851  1.0145 -0.0524
 1536SOL    HW216068   1.470   1.506   3.267 -1.1330  1.9703  0.2760
 1537SOL     OW16069   3.547   1.855  15.323  0.0161  0.0577 -0.3801
 1537SOL    HW116070   3.609   1.857  15.250 -0.4066  1.5491 -0.6891
 1537SOL    HW216071   3.462   1.865  15.281  0.0339 -1.6425 -0.8414
 1538SOL     OW16072   4.488   4.469  17.371  0.0475 -0.0268  0.4913
 1538SOL    HW116073   4.573   4.510  17.386 -0.5130  2.0519 -2.0209
 1538SOL    HW216074   4.433   4.539  17.406  1.7496  2.7645 -2.3785
 1539SOL     OW16075   2.188   1.941  12.613 -0.0890 -0.4117 -0.4278
 1539SOL    HW116076   2.187   1.925  12.707  1.8318  1.8242 -0.0472
 1539SOL    HW216077   2.255   1.876  12.592  0.8765  0.4161  0.1323
 1540SOL     OW16078   4.528   1.928  11.465 -0.1438  0.4761 -0.7530
 1540SOL    HW116079   4.541   1.907  11.373  1.0839 -2.1559  0.0209
 1540SOL    HW216080   4.617   1.908  11.493 -0.5460 -1.5105 -0.9001
 1541SOL     OW16081   0.074   0.580   9.024 -0.2741 -0.2477 -0.1709
 1541SOL    HW116082   0.072   0.630   8.942  1.5011 -0.3917 -0.3134
 1541SOL    HW216083   0.085   0.649   9.090 -0.1467 -1.5227  1.1290
 1542SOL     OW16084   3.670   0.069   5.238 -0.1131 -0.0389  0.1792
 1542SOL    HW116085   3.627   0.015   5.304  1.5462 -1.0982  0.4010
 1542SOL    HW216086   3.751   0.078   5.288 -0.2537  0.9389  0.2261
 1543SOL     OW16087   1.474   3.861   2.859  0.3784  0.4227  0.7156
 1543SOL    HW116088   1.381   3.881   2.869 -0.0944 -0.1706 -2.6653
 1543SOL    HW216089   1.494   3.768   2.848  0.3222  0.4228  0.6127
 1544SOL     OW16090   0.155   0.668   5.915  0.3144  0.1166  0.5130
 1544SOL    HW116091   0.115   0.737   5.969 -1.3290  1.7707 -2.7833
 1544SOL    HW216092   0.127   0.586   5.956 -0.1559  0.2181  0.4010
 1545SOL     OW16093   1.772   1.898  13.905 -0.0147  0.1958  0.5175
 1545SOL    HW116094   1.816   1.863  13.828  2.9081  2.7242  1.0371
 1545SOL    HW216095   1.700   1.943  13.862  0.4416 -1.3125 -1.8038
 1546SOL     OW16096   2.712   4.153  11.644  0.3551  0.3546  0.0745
 1546SOL    HW116097   2.639   4.117  11.594  0.4369 -0.5278  0.5932
 1546SOL    HW216098   2.705   4.243  11.613  0.9529  0.5646  0.5678
 1547SOL     OW16099   0.143   3.939   1.186 -0.4142  0.0563 -0.0605
 1547SOL    HW116100   0.059   3.904   1.214 -0.4672  0.2056 -0.0358
 1547SOL    HW216101   0.125   4.031   1.207 -0.6360 -0.0513  0.2209
 1548SOL     OW16102   2.457   2.060   7.203 -0.3561 -0.1221 -0.1287
 1548SOL    HW116103   2.378   2.021   7.239 -0.8189  0.5271 -0.4281
 1548SOL    HW216104   2.488   1.996   7.139  0.6917  1.0484 -0.7997
 1549SOL     OW16105   1.844   2.808   7.756  0.0825 -0.0581 -0.0437
 1549SOL    HW116106   1.760   2.810   7.800 -1.4258  0.5192 -2.9712
 1549SOL    HW216107   1.827   2.759   7.675  2.2844  0.4124 -0.7900
 1550SOL     OW16108   0.525   0.065  11.158 -0.8247 -0.4095  0.4044
 1550SOL    HW116109   0.535   0.153  11.192  2.7078 -0.2835 -1.0010
 1550SOL    HW216110   0.580   0.012  11.215  1.2170 -1.5049 -2.5693
 1551SOL     OW16111   2.790   0.757   8.136 -0.6713 -0.5259 -0.1937
 1551SOL    HW116112   2.753   0.827   8.188  2.3223  1.1874 -0.3684
 1551SOL    HW216113   2.885   0.771   8.142 -0.5646 -0.6929 -1.3795
 1552SOL     OW16114   4.307   1.191   3.197 -0.1928  0.2229  0.9153
 1552SOL    HW116115   4.212   1.185   3.181 -0.4047  1.0439  1.8573
 1552SOL    HW216116   4.338   1.190   3.107  0.4596  0.6031  1.1396
 1553SOL     OW16117   0.372   4.470   7.143  0.0324  0.1028  0.0406
 1553SOL    HW116118   0.335   4.398   7.194  1.6047  1.9136  3.7518
 1553SOL    HW216119   0.306   4.539   7.152  1.8782  1.7283  1.1094
 1554SOL     OW16120   3.734   3.779  11.782 -0.4995  0.0427  0.6744
 1554SOL    HW116121   3.700   3.758  11.869 -0.0788 -0.6822  0.6661
 1554SOL    HW216122   3.728   3.688  11.752 -0.4312  0.1230  0.4189
 1555SOL     OW16123   0.203   3.177  14.834  0.0649 -0.3381  0.1890
 1555SOL    HW116124   0.296   3.198  14.838  0.6679 -3.2575  1.5178
 1555SOL    HW216125   0.170   3.230  14.761  0.2519  1.4245  1.3983
 1556SOL     OW16126   4.203   3.783   8.089  1.1069  0.4642  0.1296
 1556SOL    HW116127   4.206   3.703   8.140 -0.4196 -0.8777 -1.8749
 1556SOL    HW216128   4.140   3.830   8.144 -0.1094 -1.6486  0.5372
 1557SOL     OW16129   4.255   0.281   1.789  0.2466 -0.6213 -0.3783
 1557SOL    HW116130   4.314   0.288   1.864 -2.2529  2.5162  1.3346
 1557SOL    HW216131   4.304   0.225   1.729  0.2152 -0.3495 -0.6612
 1558SOL     OW16132   3.214   1.071   3.872  0.4709  0.0188  0.2790
 1558SOL    HW116133   3.247   1.113   3.951  1.1878  1.1539 -0.6472
 1558SOL    HW216134   3.282   1.089   3.807 -0.7983  2.2308 -0.4443
 1559SOL     OW16135   3.602   3.763   7.010  0.2178  0.0351 -0.5842
 1559SOL    HW116136   3.603   3.761   7.105 -2.8735 -3.8497 -0.6455
 1559SOL    HW216137   3.696   3.755   6.996  0.6034 -2.9057  3.6750
 1560SOL     OW16138   1.306   3.660   9.208  0.2178 -0.0733 -0.1329
 1560SOL    HW116139   1.296   3.570   9.177  0.0097 -0.2618  0.4703
 1560SOL    HW216140   1.249   3.664   9.285 -0.6364 -2.0594 -0.6600
 1561SOL     OW16141   0.827   4.522   8.054  0.9371 -0.1909  0.1967
 1561SOL    HW116142   0.837   4.468   8.133 -0.3118 -2.5631 -1.2527
 1561SOL    HW216143   0.910   4.504   8.011  1.6520  0.9177  1.0983
 1562SOL     OW16144   3.576   3.780  16.436 -0.0858 -0.2846 -0.0004
 1562SOL    HW116145   3.509   3.832  16.391 -1.3675 -1.3873  0.6454
 1562SOL    HW216146   3.529   3.726  16.499 -0.9533 -0.8916 -1.1717
 1563SOL     OW16147   0.948   0.704   7.192  0.5067  0.3787  0.5202
 1563SOL    HW116148   0.957   0.626   7.247 -0.9749  0.2112  0.5109
 1563SOL    HW216149   1.041   0.727   7.184  0.3113  0.5152 -1.2400
 1564SOL     OW16150   3.621   2.594   2.711  0.6417  0.0289  0.0855
 1564SOL    HW116151   3.709   2.612   2.745  1.0128 -1.6493  0.0374
 1564SOL    HW216152   3.638   2.630   2.624 -0.4379  3.6492  1.3945
 1565SOL     OW16153   0.374   1.586  12.394  0.1117  0.4537  0.5967
 1565SOL    HW116154   0.442   1.582  12.327 -0.4990  3.3393 -0.1787
 1565SOL    HW216155   0.317   1.657  12.364  0.8604  0.3377 -1.0802
 1566SOL     OW16156   1.708   3.573   0.108  0.4960 -0.0112  0.3041
 1566SOL    HW116157   1.706   3.641   0.040  1.0177  0.3050  0.6072
 1566SOL    HW216158   1.617   3.584   0.137  0.5296 -1.4551  0.9772
 1567SOL     OW16159   0.941   1.560   2.866 -0.2371  0.0603 -0.3810
 1567SOL    HW116160   0.863   1.542   2.813  0.0534 -2.3962  0.0461
 1567SOL    HW216161   0.970   1.643   2.827 -0.4164  0.3343  0.0633
 1568SOL     OW16162   1.173   3.684   5.421 -0.7292 -0.1659 -0.3486
 1568SOL    HW116163   1.188   3.748   5.351 -2.8389 -0.0764 -0.7399
 1568SOL    HW216164   1.235   3.616   5.397  1.5767  1.4298  1.1437
 1569SOL     OW16165   1.903   0.442   7.548 -0.2266  0.1647  0.4187
 1569SOL    HW116166   1.883   0.354   7.516 -1.5329  0.4562  0.4100
 1569SOL    HW216167   1.836   0.501   7.513 -1.5538  0.4066  3.4376
 1570SOL     OW16168   4.116   0.336   7.142 -0.2360  0.2548 -0.1405
 1570SOL    HW116169   4.110   0.431   7.145  1.6368  0.3253  0.9370
 1570SOL    HW216170   4.040   0.301   7.190 -1.7181  1.7407 -1.3848
 1571SOL     OW16171   4.200   3.020  16.551  0.2547  0.2612 -0.1984
 1571SOL    HW116172   4.184   2.939  16.599 -1.0644  0.9722  0.5616
 1571SOL    HW216173   4.188   2.984  16.463  1.8625  1.6701 -1.0004
 1572SOL     OW16174   3.417   2.362  15.332  0.1060  0.2257 -0.5506
 1572SOL    HW116175   3.334   2.362  15.285 -0.8326 -0.8633  1.1113
 1572SOL    HW216176   3.463   2.436  15.293  0.0746 -0.4406 -1.8547
 1573SOL     OW16177   0.261   2.237   5.819  0.0393  0.0698  0.6744
 1573SOL    HW116178   0.301   2.191   5.745  0.4810 -1.7386  2.0440
 1573SOL    HW216179   0.337   2.259   5.873  1.5214 -0.3784 -1.2149
 1574SOL     OW16180   1.453   2.091   8.248 -0.5436 -0.3068 -0.3187
 1574SOL    HW116181   1.545   2.110   8.232 -1.1185  1.9374 -0.8840
 1574SOL    HW216182   1.447   2.065   8.340  1.6953 -1.9888 -0.6456
 1575SOL     OW16183   4.596   4.057   3.945  0.1998  0.3777  0.0497
 1575SOL    HW116184   4.562   4.044   3.856  0.9076  0.2088 -0.1979
 1575SOL    HW216185   4.594   3.963   3.961 -1.8466  0.5228  0.6382
 1576SOL     OW16186   3.676   3.526   3.908  0.1628  0.0013 -0.2075
 1576SOL    HW116187   3.676   3.490   3.819  2.8927 -1.2777  0.3092
 1576SOL    HW216188   3.596   3.487   3.943  0.2958 -1.5341 -1.6159
 1577SOL     OW16189   2.880   3.125  14.610  0.0780 -0.2661 -0.6178
 1577SOL    HW116190   2.842   3.039  14.628 -0.5473  0.1084 -0.1516
 1577SOL    HW216191   2.960   3.104  14.561  1.3274 -1.0607  1.7643
 1578SOL     OW16192   1.211   2.687   5.660 -0.1284 -0.2476 -0.0380
 1578SOL    HW116193   1.305   2.701   5.650  0.2127 -2.5637 -0.0843
 1578SOL    HW216194   1.172   2.719   5.579  1.4669  2.0361  0.0933
 1579SOL     OW16195   3.845   1.962   1.865  0.0400  0.2950 -0.1363
 1579SOL    HW116196   3.917   1.993   1.920  0.3226 -2.7697  1.2387
 1579SOL    HW216197   3.857   1.870   1.889  1.7721 -0.0140 -2.1815
 1580SOL     OW16198   1.459   0.970   7.171 -0.8266  0.0219 -0.1155
 1580SOL    HW116199   1.430   0.955   7.261 -0.2002  1.0562  0.2606
 1580SOL    HW216200   1.516   0.895   7.161  0.6648  1.4274 -2.1841
 1581SOL     OW16201   4.476   4.047   4.667 -0.3395 -0.0625  0.0206
 1581SOL    HW116202   4.559   4.001   4.657  0.1028  0.7454 -0.0974
 1581SOL    HW216203   4.505   4.138   4.661  1.8711 -0.7851 -0.3170
 1582SOL     OW16204   0.705   2.433   3.670  0.7459  0.0003  0.5369
 1582SOL    HW116205   0.750   2.464   3.749  0.4812  0.7596  0.3877
 1582SOL    HW216206   0.778   2.409   3.613 -1.1203 -1.7596 -1.0614
 1583SOL     OW16207   3.957   1.746   5.412 -0.0912 -0.0168 -0.5183
 1583SOL    HW116208   3.999   1.831   5.427 -2.9024  1.1869  0.5982
 1583SOL    HW216209   4.026   1.702   5.362 -0.3742 -0.4802 -0.4986
 1584SOL     OW16210   0.728   1.216  12.663  0.0103 -0.0454  0.0377
 1584SOL    HW116211   0.703   1.303  12.696  2.2263  1.3582 -1.9549
 1584SOL    HW216212   0.671   1.206  12.588  0.0168  0.8554 -0.0874
 1585SOL     OW16213   4.114   2.534   8.000  0.5301  0.1457  0.3848
 1585SOL    HW116214   4.090   2.601   8.065 -1.5682 -1.2164  1.0281
 1585SOL    HW216215   4.096   2.460   8.057 -0.9220 -1.5185 -2.2408
 1586SOL     OW16216   0.630   2.565   7.995 -0.7323  0.0947 -0.0179
 1586SOL    HW116217   0.608   2.522   8.077 -1.1592  0.0140 -0.1750
 1586SOL    HW216218   0.542   2.594   7.970 -0.9759 -1.2502 -0.7187
 1587SOL     OW16219   1.470   3.049   6.808 -0.5856 -0.4077  0.4798
 1587SOL    HW116220   1.439   3.079   6.722 -1.7468  0.2729  1.1295
 1587SOL    HW216221   1.474   3.130   6.858 -0.9837 -0.5116  0.6847
 1588SOL     OW16222   1.549   3.705  15.982 -0.0585 -0.1019  0.9047
 1588SOL    HW116223   1.512   3.772  16.039 -0.2492 -0.0747  0.7458
 1588SOL    HW216224   1.601   3.650  16.041  0.7892 -0.3709 -0.1109
 1589SOL     OW16225   3.853   1.592  10.307 -0.4345  0.2558  0.0842
 1589SOL    HW116226   3.824   1.571  10.218  0.6064 -1.0810  0.0567
 1589SOL    HW216227   3.853   1.499  10.331 -2.4049  0.1349 -0.4318
 1590SOL     OW16228   0.494   0.065   7.272 -0.3001  0.1791  0.3801
 1590SOL    HW116229   0.524   4.703   7.305  0.2912  0.7780  1.4011
 1590SOL    HW216230   0.404   0.040   7.252 -0.8683  0.9839  1.9958
 1591SOL     OW16231   0.311   3.524  10.075 -0.2756  0.4179 -0.1597
 1591SOL    HW116232   0.235   3.478  10.110 -2.3856  3.3446 -0.8778
 1591SOL    HW216233   0.284   3.530   9.983 -1.1537 -0.2780  0.0591
 1592SOL     OW16234   4.362   2.580   6.884  0.0358 -0.4751  0.3880
 1592SOL    HW116235   4.370   2.507   6.822 -1.5150 -0.3758  0.0817
 1592SOL    HW216236   4.346   2.533   6.966 -0.9199 -1.7421 -0.5220
 1593SOL     OW16237   0.257   1.549   2.301 -0.2459  0.4168 -0.7626
 1593SOL    HW116238   0.348   1.539   2.272 -1.1584  0.5084 -3.5892
 1593SOL    HW216239   0.212   1.575   2.221 -1.6037 -0.4092 -0.2680
 1594SOL     OW16240   4.389   0.072   3.917  0.4926  0.1671 -0.5182
 1594SOL    HW116241   4.456   0.013   3.883  1.2163  1.6270 -1.6698
 1594SOL    HW216242   4.390   0.135   3.845  1.9428  1.4655  0.6357
 1595SOL     OW16243   2.811   1.724  16.809 -0.5447 -1.1098 -0.4102
 1595SOL    HW116244   2.809   1.630  16.827 -1.8223 -1.3181 -1.5918
 1595SOL    HW216245   2.898   1.748  16.841  0.0111 -1.1685 -1.8965
 1596SOL     OW16246   1.241   3.707   0.363 -0.3727  0.0080  0.1955
 1596SOL    HW116247   1.169   3.663   0.408  1.2030 -2.2160  0.5432
 1596SOL    HW216248   1.193   3.778   0.322 -1.0986  0.5627  2.0093
 1597SOL     OW16249   0.617   0.687  15.753  0.4530 -0.2001 -0.1373
 1597SOL    HW116250   0.574   0.763  15.714 -0.1571  0.5514  2.0100
 1597SOL    HW216251   0.566   0.673  15.832 -0.8569 -1.4767 -1.1903
 1598SOL     OW16252   1.608   2.555   2.551  0.0327  0.0258 -0.2694
 1598SOL    HW116253   1.593   2.607   2.630  0.5805  0.9119 -0.7440
 1598SOL    HW216254   1.678   2.498   2.584  0.8203  1.4506  0.5440
 1599SOL     OW16255   4.649   2.271  16.766  0.4163  0.2219  0.4364
 1599SOL    HW116256   4.623   2.193  16.815 -1.4288  1.5087  1.5122
 1599SOL    HW216257   0.019   2.280  16.786  0.7644  0.3649 -1.2389
 1600SOL     OW16258   1.307   2.554   4.322  0.0460 -0.6129 -0.0444
 1600SOL    HW116259   1.222   2.548   4.278 -0.0290  0.1791 -0.0174
 1600SOL    HW216260   1.315   2.461   4.342  1.4009 -0.3490  0.6256
 1601SOL     OW16261   0.864   4.181  11.767 -0.7186 -0.9571  0.1265
 1601SOL    HW116262   0.772   4.206  11.776  0.1903  1.9145  1.2713
 1601SOL    HW216263   0.914   4.257  11.738 -1.4480  0.6811  3.1991
 1602SOL     OW16264   0.724   1.249   6.046  0.5648 -0.5623 -0.3674
 1602SOL    HW116265   0.643   1.262   5.998 -0.9983  1.4802  2.8400
 1602SOL    HW216266   0.754   1.167   6.006 -0.1123 -0.9267 -0.1258
 1603SOL     OW16267   2.964   0.684   6.922  0.3346  0.8455 -0.3678
 1603SOL    HW116268   2.986   0.651   7.009  0.8508  1.3370 -0.3132
 1603SOL    HW216269   2.889   0.739   6.945 -0.3348  0.1003 -0.7594
 1604SOL     OW16270   4.210   3.931   3.270  0.3229 -0.2369 -0.1610
 1604SOL    HW116271   4.130   3.912   3.318  0.5455 -3.1303 -0.9628
 1604SOL    HW216272   4.182   4.017   3.238 -1.1382 -1.2399 -1.5615
 1605SOL     OW16273   3.145   4.436  15.151 -0.4438  0.2068 -0.2634
 1605SOL    HW116274   3.204   4.379  15.199  1.1450  2.1563  0.1260
 1605SOL    HW216275   3.101   4.363  15.107 -1.1830  0.7340 -0.4083
 1606SOL     OW16276   4.048   1.724   6.125 -0.7225 -0.6695  0.9691
 1606SOL    HW116277   4.055   1.634   6.093  2.6975 -0.0964  0.0271
 1606SOL    HW216278   4.101   1.763   6.056 -2.1798 -2.6328 -1.2648
 1607SOL     OW16279   0.631   1.153   9.191  0.2534  0.5600 -0.0075
 1607SOL    HW116280   0.613   1.230   9.245 -0.4087  0.7182 -0.4564
 1607SOL    HW216281   0.717   1.169   9.150  1.2148 -0.0913  1.7648
 1608SOL     OW16282   0.862   4.338   7.182 -0.4944 -0.2806 -0.4201
 1608SOL    HW116283   0.807   4.316   7.107 -0.1641 -0.4852 -0.5989
 1608SOL    HW216284   0.819   4.416   7.219 -1.3997 -1.7031  1.5066
 1609SOL     OW16285   3.311   3.871   4.401  0.2068 -0.3843  1.0092
 1609SOL    HW116286   3.390   3.904   4.358  0.7341 -2.2999  0.5250
 1609SOL    HW216287   3.289   3.944   4.459 -0.1671 -0.0272  0.4258
 1610SOL     OW16288   1.603   4.500   7.202  0.0632  0.3730  0.4877
 1610SOL    HW116289   1.577   4.537   7.286  0.6719  2.4599 -0.2679
 1610SOL    HW216290   1.674   4.440   7.223 -0.6820  0.5858  3.5819
 1611SOL     OW16291   1.362   1.349  13.027 -1.2562  0.0525  0.3229
 1611SOL    HW116292   1.318   1.416  13.079  0.7013  0.1843  1.8222
 1611SOL    HW216293   1.292   1.339  12.962 -0.1615  0.3443 -0.8970
 1612SOL     OW16294   3.757   2.429  10.323  0.1992 -0.2391  0.4138
 1612SOL    HW116295   3.677   2.461  10.366 -0.9962 -1.0447 -1.1747
 1612SOL    HW216296   3.758   2.483  10.244  2.0047 -1.2222 -0.2421
 1613SOL     OW16297   0.432   2.850   2.951 -0.6807 -0.0346  0.3416
 1613SOL    HW116298   0.378   2.772   2.936 -1.1572  0.4398 -0.3954
 1613SOL    HW216299   0.359   2.911   2.955 -2.0733 -1.7044  0.3343
 1614SOL     OW16300   0.816   3.300   7.034  0.7193  0.0651  0.0856
 1614SOL    HW116301   0.777   3.372   6.984  0.3654 -0.3563 -0.2549
 1614SOL    HW216302   0.803   3.222   6.979  0.7351 -0.0546  0.2539
 1615SOL     OW16303   2.718   3.550  15.510 -0.3527  0.0606 -0.4089
 1615SOL    HW116304   2.652   3.606  15.553 -1.9093 -0.0569 -2.6493
 1615SOL    HW216305   2.688   3.549  15.419  0.0303  0.9626 -0.5388
 1616SOL     OW16306   1.692   2.856  10.266 -0.6252  0.1424  0.2851
 1616SOL    HW116307   1.717   2.767  10.239  2.6197  1.8195 -2.2146
 1616SOL    HW216308   1.600   2.830  10.276 -0.2519 -1.3805 -0.2534
 1617SOL     OW16309   2.465   3.947  14.386 -0.0815  0.2128  0.2682
 1617SOL    HW116310   2.434   3.975  14.472  0.9828  1.4124  0.2605
 1617SOL    HW216311   2.381   3.943  14.339  0.3535  1.5562 -0.6145
 1618SOL     OW16312   0.196   0.757   2.079  0.6094  0.3680  0.1742
 1618SOL    HW116313   0.101   0.749   2.068  0.4871  1.0180  0.7674
 1618SOL    HW216314   0.206   0.717   2.165 -0.5246 -0.2422  0.0358
 1619SOL     OW16315   3.818   2.476   9.244 -0.6621  0.0786  0.8818
 1619SOL    HW116316   3.836   2.445   9.155  1.9408  2.1139  0.6949
 1619SOL    HW216317   3.880   2.549   9.247  0.3627 -0.7038 -1.1997
 1620SOL     OW16318   0.137   1.369   7.879 -0.1744 -0.2090  0.1629
 1620SOL    HW116319   0.118   1.294   7.822 -1.7843  0.0077  0.4242
 1620SOL    HW216320   0.049   1.397   7.902 -0.5044 -0.3623 -0.8750
 1621SOL     OW16321   1.728   2.846   5.786 -0.0307  0.5020  0.0141
 1621SOL    HW116322   1.757   2.759   5.759  0.4823  1.3492 -2.1450
 1621SOL    HW216323   1.809   2.866   5.834  0.1040  1.1515 -0.4846
 1622SOL     OW16324   2.709   0.395   1.322 -0.4343  0.0823  0.0841
 1622SOL    HW116325   2.786   0.340   1.307 -2.0791 -2.2390  0.3134
 1622SOL    HW216326   2.737   0.468   1.266  0.7915  0.1639  0.7901
 1623SOL     OW16327   1.741   4.705  10.244  0.6477  0.1285  0.2039
 1623SOL    HW116328   1.814   0.014  10.190 -0.4573  0.3021 -1.2066
 1623SOL    HW216329   1.735   4.614  10.215  1.1595  0.4083 -0.7973
 1624SOL     OW16330   0.929   0.316   2.545  0.5128 -0.3128  0.3719
 1624SOL    HW116331   1.016   0.323   2.585  0.7519  1.0977 -0.3765
 1624SOL    HW216332   0.880   0.262   2.607 -1.2553  0.5609 -0.2607
 1625SOL     OW16333   3.719   4.245  13.006 -0.1280  0.2278  0.2926
 1625SOL    HW116334   3.654   4.181  13.037  0.2636  0.0613  0.7804
 1625SOL    HW216335   3.675   4.284  12.931 -0.3644 -1.7474 -0.5967
 1626SOL     OW16336   0.161   2.800   6.534 -0.0054  0.8612 -0.3765
 1626SOL    HW116337   0.120   2.761   6.611 -0.1828 -0.5937 -1.2219
 1626SOL    HW216338   0.161   2.893   6.558  0.5930  1.4498 -2.6723
 1627SOL     OW16339   3.357   2.533  15.986 -0.4208 -0.0450  0.6037
 1627SOL    HW116340   3.338   2.459  16.045 -2.8863 -0.6388 -0.9217
 1627SOL    HW216341   3.428   2.498  15.933  0.1512  2.1048 -0.0257
 1628SOL     OW16342   4.562   0.647   6.841  0.3693  0.2758  0.7588
 1628SOL    HW116343   4.651   0.660   6.809  1.2287 -3.6359  1.4598
 1628SOL    HW216344   4.568   0.579   6.909 -0.9376 -0.7775 -0.1867
 1629SOL     OW16345   2.800   1.416   7.662  0.5160 -0.2480 -0.2821
 1629SOL    HW116346   2.881   1.410   7.713  0.0706  1.4387  0.6173
 1629SOL    HW216347   2.820   1.334   7.616 -0.3137 -0.5237 -0.1539
 1630SOL     OW16348   2.075   1.113   2.484 -0.8167  0.0865  0.3601
 1630SOL    HW116349   2.031   1.192   2.515 -0.1219  0.3879  0.5762
 1630SOL    HW216350   2.123   1.152   2.410  1.6690 -2.3821  0.6877
 1631SOL     OW16351   0.220   3.244   9.105  0.1119 -0.0804 -0.1616
 1631SOL    HW116352   0.314   3.239   9.122  0.2474 -0.2696 -1.0089
 1631SOL    HW216353   0.202   3.337   9.125 -0.7441 -0.1098 -0.7911
 1632SOL     OW16354   1.527   0.096   0.780 -0.2747  0.1706 -0.2865
 1632SOL    HW116355   1.622   0.101   0.792 -0.7148  0.7073  3.1036
 1632SOL    HW216356   1.497   0.152   0.852  1.6598  1.9404 -0.8847
 1633SOL     OW16357   2.012   2.999   2.666 -0.6044 -0.3031 -0.4506
 1633SOL    HW116358   1.952   2.924   2.664 -1.7305  0.5446  2.1709
 1633SOL    HW216359   2.064   2.967   2.740 -1.4406  0.8144  0.6096
 1634SOL     OW16360   1.642   2.373  11.611 -0.3419  0.4646 -0.1878
 1634SOL    HW116361   1.690   2.333  11.684 -0.4487  3.5767  1.5743
 1634SOL    HW216362   1.565   2.375  11.668 -1.1609 -1.9774 -1.2165
 1635SOL     OW16363   0.370   1.286   2.797  0.7742 -0.0168  0.0720
 1635SOL    HW116364   0.363   1.318   2.888 -2.3094  1.8098 -0.7986
 1635SOL    HW216365   0.282   1.250   2.782  0.0497  1.2600  1.1986
 1636SOL     OW16366   0.293   4.135   7.767 -0.6055 -0.0549 -0.9272
 1636SOL    HW116367   0.386   4.111   7.773 -0.0118  2.2865 -0.6303
 1636SOL    HW216368   0.261   4.124   7.857 -1.0706 -1.7223 -1.3006
 1637SOL     OW16369   1.698   4.688  11.735  0.2337 -0.6721 -0.0848
 1637SOL    HW116370   1.630   4.716  11.674  0.8574 -0.7003 -0.7913
 1637SOL    HW216371   1.663   4.607  11.773  0.6618 -0.1961  1.3452
 1638SOL     OW16372   0.471   0.647   4.114  0.1077 -0.1024 -0.2702
 1638SOL    HW116373   0.461   0.656   4.209 -0.7874 -0.1848 -0.3533
 1638SOL    HW216374   0.462   0.737   4.082  2.7144  0.0801 -0.4829
 1639SOL     OW16375   0.355   1.887  12.967  0.3528  0.5643 -0.4292
 1639SOL    HW116376   0.290   1.949  13.001  0.4624  1.7833 -2.4244
 1639SOL    HW216377   0.418   1.888  13.039 -0.8225  1.4990  0.5881
 1640SOL     OW16378   1.375   3.268   0.299  0.8337 -0.2723 -0.2274
 1640SOL    HW116379   1.285   3.244   0.324  0.9765  0.6252  1.1726
 1640SOL    HW216380   1.371   3.364   0.293 -1.9702 -0.1919  2.5678
 1641SOL     OW16381   4.284   4.500   9.862  0.3996 -0.4885 -0.4142
 1641SOL    HW116382   4.248   4.429   9.809 -0.7951  0.1843 -0.4926
 1641SOL    HW216383   4.373   4.512   9.830  0.5568  1.2465  0.6204
 1642SOL     OW16384   0.288   3.290  16.204  0.3169 -0.1374 -0.2830
 1642SOL    HW116385   0.329   3.303  16.118  1.8246  0.2894  0.5078
 1642SOL    HW216386   0.246   3.376  16.211  0.3916 -0.2621  1.5995
 1643SOL     OW16387   1.923   0.262  11.386  0.0918  0.3760  0.1645
 1643SOL    HW116388   1.892   0.352  11.379 -3.0657 -0.9191 -2.5365
 1643SOL    HW216389   1.847   0.223  11.430 -0.9714 -0.7201 -2.6596
 1644SOL     OW16390   2.820   4.009  14.930 -0.3556  0.2951 -0.0505
 1644SOL    HW116391   2.764   4.078  14.895  0.4905  1.6180  1.1906
 1644SOL    HW216392   2.754   3.941  14.943 -0.5112  0.4120 -0.2372
 1645SOL     OW16393   3.898   0.740  12.840  0.4903  0.0703 -0.4222
 1645SOL    HW116394   3.940   0.659  12.869  1.0830  0.9141  1.1152
 1645SOL    HW216395   3.920   0.804  12.908 -0.5107  0.9397 -0.9029
 1646SOL     OW16396   0.009   3.885   0.337  0.0869 -0.0888  0.2128
 1646SOL    HW116397   4.691   3.866   0.422 -0.6779 -0.0868 -0.1595
 1646SOL    HW216398   4.679   3.834   0.275 -3.6517 -0.2966  3.6004
 1647SOL     OW16399   2.818   1.000   6.675 -0.5246  0.1586 -0.2555
 1647SOL    HW116400   2.909   0.970   6.669 -0.3915  0.3061  1.1084
 1647SOL    HW216401   2.787   0.983   6.586  2.2190  0.1214 -1.2202
 1648SOL     OW16402   0.353   0.886  15.784 -0.0743  0.4417 -0.6301
 1648SOL    HW116403   0.409   0.952  15.826  0.7804  0.2436 -1.4394
 1648SOL    HW216404   0.389   0.882  15.695  1.1292  3.4331 -0.2832
 1649SOL     OW16405   4.605   3.162  15.245 -0.0572  0.3662 -0.3661
 1649SOL    HW116406   4.624   3.071  15.225  0.2727  0.3462  0.0382
 1649SOL    HW216407   4.587   3.194  15.157 -1.1271 -0.4771 -0.4550
 1650SOL     OW16408   2.076   3.599   4.649 -0.5418  0.0311  0.1947
 1650SOL    HW116409   2.012   3.618   4.717  1.1536 -0.8823  2.0681
 1650SOL    HW216410   2.134   3.674   4.637  0.2797 -0.6136  0.0919
 1651SOL     OW16411   2.883   0.119   7.482  0.4023 -0.1361 -0.0487
 1651SOL    HW116412   2.893   0.136   7.575 -1.3008 -0.5948  0.2171
 1651SOL    HW216413   2.872   0.024   7.476  0.3674 -0.0177 -1.9397
 1652SOL     OW16414   1.394   4.041  10.972  0.0960 -0.5800 -0.1461
 1652SOL    HW116415   1.469   4.000  10.930  1.8376  2.0714  0.3863
 1652SOL    HW216416   1.318   3.982  10.965 -0.3988  0.1506 -0.8913
 1653SOL     OW16417   1.497   3.703   3.909  0.1408 -0.1480 -0.3122
 1653SOL    HW116418   1.412   3.663   3.929  0.8021 -1.1481  0.5048
 1653SOL    HW216419   1.519   3.746   3.991  0.6167 -1.6346  0.3364
 1654SOL     OW16420   0.693   0.962   3.077 -0.0929  0.7099  0.0381
 1654SOL    HW116421   0.750   0.906   3.024 -1.0520  0.6491 -0.9264
 1654SOL    HW216422   0.633   0.998   3.012 -1.1487  0.8336  1.0968
 1655SOL     OW16423   3.128   4.600   8.325 -0.2179 -0.0156 -0.2176
 1655SOL    HW116424   3.036   4.627   8.320 -0.0387  0.8138  1.0730
 1655SOL    HW216425   3.158   4.629   8.238 -0.4022  0.1978 -0.2113
 1656SOL     OW16426   0.591   2.278  11.596  0.0617 -0.1281 -0.6360
 1656SOL    HW116427   0.550   2.356  11.560  0.4817  0.4677  0.1593
 1656SOL    HW216428   0.538   2.253  11.672 -0.8932  0.2284 -1.1919
 1657SOL     OW16429   4.134   0.384   2.266 -0.4956 -0.4978  0.4594
 1657SOL    HW116430   4.042   0.379   2.244  0.1185 -0.7136 -1.9834
 1657SOL    HW216431   4.166   0.450   2.206 -1.1724  1.0463  1.8095
 1658SOL     OW16432   3.144   2.703   3.353 -0.2522  0.7634 -0.3080
 1658SOL    HW116433   3.153   2.654   3.271  0.6241 -0.2627  0.3969
 1658SOL    HW216434   3.218   2.668   3.402 -0.2726  0.5725 -0.4141
 1659SOL     OW16435   4.095   0.869  10.620  0.0421 -0.7581  0.1638
 1659SOL    HW116436   4.144   0.834  10.695  0.3873  3.2999  1.8375
 1659SOL    HW216437   4.035   0.794  10.615 -0.5396 -0.2786  0.0642
 1660SOL     OW16438   0.545   1.879   5.566  0.7160 -0.1318  0.1138
 1660SOL    HW116439   0.536   1.784   5.555  1.3880 -0.3198  1.2024
 1660SOL    HW216440   0.576   1.896   5.477 -1.8324  0.8296 -0.5815
 1661SOL     OW16441   0.447   3.942   3.078  0.3040 -0.5206 -0.1262
 1661SOL    HW116442   0.509   3.869   3.071  2.6722  1.6725 -2.4301
 1661SOL    HW216443   0.396   3.919   3.001 -0.6970 -1.1042  0.7271
 1662SOL     OW16444   2.381   4.637  15.713 -0.2964  0.4396 -0.4538
 1662SOL    HW116445   2.454   4.608  15.767 -1.3100 -0.0935  0.6340
 1662SOL    HW216446   2.310   4.592  15.760  0.1433 -1.2234 -1.3724
 1663SOL     OW16447   0.597   1.423  13.258  0.2109  0.3733 -0.2131
 1663SOL    HW116448   0.574   1.483  13.329  0.1657  2.1058 -1.6907
 1663SOL    HW216449   0.510   1.386  13.240  1.0135 -0.7076 -1.8931
 1664SOL     OW16450   1.093   1.086   5.899 -0.4989 -0.7868  0.2201
 1664SOL    HW116451   1.007   1.049   5.918 -0.4884 -0.5149  0.8022
 1664SOL    HW216452   1.135   1.013   5.853 -1.8927 -1.8595  0.6497
 1665SOL     OW16453   4.488   0.298   0.677 -0.0997 -0.0195 -0.8112
 1665SOL    HW116454   4.493   0.228   0.612  2.1988 -2.5669  2.1020
 1665SOL    HW216455   4.424   0.357   0.637  1.0102  2.5240  1.1779
 1666SOL     OW16456   1.272   2.477   6.679 -0.1091 -0.0976  0.1462
 1666SOL    HW116457   1.285   2.548   6.743  1.8402  1.1712 -1.6661
 1666SOL    HW216458   1.347   2.492   6.621  1.1184  0.5838  1.8754
 1667SOL     OW16459   1.392   4.236   9.770 -0.0984 -0.5251  0.1356
 1667SOL    HW116460   1.431   4.307   9.822 -4.0609 -0.5836  3.2265
 1667SOL    HW216461   1.311   4.237   9.822 -0.5112  0.5115 -0.5410
 1668SOL     OW16462   0.182   3.761  15.966 -0.6788  0.4403  0.6442
 1668SOL    HW116463   0.182   3.669  15.940 -2.7487  0.8419 -0.8384
 1668SOL    HW216464   0.088   3.781  15.974 -1.1213 -1.1567 -0.5187
 1669SOL     OW16465   4.091   3.632   3.948  0.6223  0.2612 -0.1613
 1669SOL    HW116466   4.047   3.595   3.872 -0.0702 -0.0509  0.3882
 1669SOL    HW216467   4.050   3.718   3.959  1.5670  0.7894 -0.8409
 1670SOL     OW16468   1.732   1.879  11.989  0.2368  0.1480 -0.0688
 1670SOL    HW116469   1.777   1.917  12.064 -0.7195  1.9547 -0.4022
 1670SOL    HW216470   1.672   1.810  12.018 -1.5746  1.3079 -1.0483
 1671SOL     OW16471   1.483   2.774   5.710  0.1758  0.5526 -0.1434
 1671SOL    HW116472   1.505   2.697   5.764 -1.9175  1.8144  2.5237
 1671SOL    HW216473   1.566   2.815   5.732  0.0314  1.7120 -1.8443
 1672SOL     OW16474   0.114   2.335  15.013 -0.1027  0.3256  0.0671
 1672SOL    HW116475   0.098   2.280  14.936 -3.0078 -0.1514  1.0198
 1672SOL    HW216476   0.030   2.380  15.015  0.4760  1.3188  1.4966
 1673SOL     OW16477   4.406   0.343  11.980 -0.5345  0.1219 -0.7533
 1673SOL    HW116478   4.441   0.281  11.916  0.6799 -0.2693  0.2829
 1673SOL    HW216479   4.488   0.357  12.028 -1.2843 -0.0917  0.6000
 1674SOL     OW16480   1.073   3.359   8.684  0.0404 -0.1336 -0.1909
 1674SOL    HW116481   1.160   3.342   8.650  0.8682  0.5483  1.5893
 1674SOL    HW216482   1.076   3.296   8.757  1.1695 -1.4135 -1.3594
 1675SOL     OW16483   1.490   4.122   1.410 -0.8362 -0.9705  0.1698
 1675SOL    HW116484   1.446   4.062   1.350  0.9441 -1.1559 -0.9450
 1675SOL    HW216485   1.409   4.151   1.454 -0.8824 -0.9502  0.0705
 1676SOL     OW16486   1.149   3.938   0.251 -0.1368  0.1528 -0.8203
 1676SOL    HW116487   1.113   4.017   0.293 -1.5847  0.0896 -1.9535
 1676SOL    HW216488   1.242   3.962   0.253 -0.2689  0.5599  0.5090
 1677SOL     OW16489   2.748   3.107  15.258 -0.0369 -1.0076  0.3339
 1677SOL    HW116490   2.680   3.167  15.287  0.2255  0.8640 -2.9004
 1677SOL    HW216491   2.806   3.160  15.202 -0.1700 -1.6119 -0.3820
 1678SOL     OW16492   1.795   1.213   7.994 -0.0927  0.0359 -0.1233
 1678SOL    HW116493   1.733   1.186   8.062  0.3169  3.7970  1.7714
 1678SOL    HW216494   1.797   1.127   7.953  1.9822  1.1883 -2.3892
 1679SOL     OW16495   1.741   2.249  12.090  0.0902 -0.5389  0.2511
 1679SOL    HW116496   1.745   2.326  12.147  1.8786 -0.5023  0.0944
 1679SOL    HW216497   1.803   2.193  12.137  2.6150  0.7993 -1.4682
 1680SOL     OW16498   4.462   3.156   3.991  0.2799  0.2636 -0.8087
 1680SOL    HW116499   4.385   3.100   3.998  0.9716 -0.6822 -0.8612
 1680SOL    HW216500   4.442   3.227   4.052  0.9308 -1.3328  1.2521
 1681SOL     OW16501   4.190   3.241   5.765  0.0831  0.4631  0.0378
 1681SOL    HW116502   4.241   3.316   5.736  0.2199 -0.0392 -1.0159
 1681SOL    HW216503   4.258   3.178   5.789 -1.6555 -1.2496  0.5323
 1682SOL     OW16504   2.904   2.264  15.148  0.0660 -0.5765 -0.6432
 1682SOL    HW116505   2.901   2.179  15.104  0.7064 -0.9082 -0.0386
 1682SOL    HW216506   2.882   2.238  15.237 -0.8359  0.2683 -0.6131
 1683SOL     OW16507   0.694   2.412   2.487  0.0371  0.2271 -0.4318
 1683SOL    HW116508   0.730   2.333   2.527 -2.0397 -1.3884 -1.7919
 1683SOL    HW216509   0.762   2.455   2.434  1.5586 -0.2323  1.1464
 1684SOL     OW16510   2.452   2.893   8.950 -0.0092 -0.5048 -0.0177
 1684SOL    HW116511   2.374   2.918   8.999  0.1363  0.8416 -0.4528
 1684SOL    HW216512   2.435   2.814   8.899  3.0533 -1.8075  0.9780
 1685SOL     OW16513   2.569   4.474   7.609  0.3901  0.4152  0.3633
 1685SOL    HW116514   2.619   4.471   7.690 -0.7222  0.1583  1.0337
 1685SOL    HW216515   2.548   4.567   7.610 -0.0843  0.3037  0.8997
 1686SOL     OW16516   3.061   1.850   7.041 -0.5136 -0.3895  0.6489
 1686SOL    HW116517   3.056   1.754   7.043  0.0263 -0.4948 -2.9502
 1686SOL    HW216518   2.970   1.878   7.053 -0.6699 -1.0039  0.9307
 1687SOL     OW16519   2.831   1.119   4.954  0.6311 -0.9454 -0.3548
 1687SOL    HW116520   2.838   1.025   4.975  0.5431 -1.0510 -0.8070
 1687SOL    HW216521   2.922   1.149   4.950  0.9935 -2.0423 -0.4873
 1688SOL     OW16522   0.231   1.449   9.328  0.2817  0.7087  0.8941
 1688SOL    HW116523   0.142   1.479   9.312 -0.3513 -1.0012  1.2684
 1688SOL    HW216524   0.262   1.536   9.353 -0.0369  1.1477 -0.2502
 1689SOL     OW16525   0.199   0.653   0.208 -0.2223 -0.0406 -0.4481
 1689SOL    HW116526   0.126   0.666   0.268 -1.5052 -2.9924 -1.3353
 1689SOL    HW216527   0.276   0.673   0.260 -0.6302  1.6669 -0.5142
 1690SOL     OW16528   0.243   1.714   7.938  0.0448 -0.5081  0.1723
 1690SOL    HW116529   0.250   1.790   7.880 -0.6504 -1.4170 -1.1000
 1690SOL    HW216530   0.224   1.766   8.016  0.3114 -1.3278  0.7852
 1691SOL     OW16531   3.550   0.678  16.240 -0.2991  0.5315  0.0740
 1691SOL    HW116532   3.487   0.744  16.269 -0.5384 -0.3287  1.5119
 1691SOL    HW216533   3.602   0.673  16.321 -1.0347  1.1676  0.5879
 1692SOL     OW16534   2.455   0.792   6.207 -0.6056 -0.0171 -0.1382
 1692SOL    HW116535   2.548   0.815   6.209 -0.8419  0.9198  0.2656
 1692SOL    HW216536   2.443   0.782   6.112 -1.3620  0.7034 -0.1143
 1693SOL     OW16537   2.179   3.721   7.414 -0.3744 -0.0132 -0.5323
 1693SOL    HW116538   2.165   3.657   7.344 -0.0867  0.9850 -1.5070
 1693SOL    HW216539   2.153   3.672   7.491 -2.1193 -0.3878 -1.3433
 1694SOL     OW16540   3.204   1.225   5.813  0.1540 -0.8032  0.3521
 1694SOL    HW116541   3.286   1.190   5.847 -0.7982 -1.8426  1.5394
 1694SOL    HW216542   3.242   1.280   5.744  0.3752 -0.1786  0.9762
 1695SOL     OW16543   1.935   3.844   7.053 -0.1312  0.2862 -0.6477
 1695SOL    HW116544   2.017   3.829   7.005 -0.4705 -0.1411 -1.0911
 1695SOL    HW216545   1.903   3.924   7.011 -0.4522 -0.1953 -1.3272
 1696SOL     OW16546   2.720   0.355  13.831  0.3865  0.1344 -0.4151
 1696SOL    HW116547   2.632   0.340  13.864  0.1015  1.0129 -0.7934
 1696SOL    HW216548   2.776   0.304  13.890 -0.5735 -1.2271 -0.6655
 1697SOL     OW16549   2.822   0.114  14.849 -0.1521  0.4031  0.4595
 1697SOL    HW116550   2.915   0.131  14.836 -0.2279 -0.4330 -1.1725
 1697SOL    HW216551   2.827   0.025  14.884  1.6111  1.2691  2.4287
 1698SOL     OW16552   3.332   3.641  12.731 -0.0146 -0.3848  1.0373
 1698SOL    HW116553   3.327   3.580  12.805  0.1606 -1.4266  0.1846
 1698SOL    HW216554   3.263   3.705  12.750  0.1045 -0.7157  2.6217
 1699SOL     OW16555   3.617   2.189   9.636  0.0113  0.3418 -0.0598
 1699SOL    HW116556   3.566   2.262   9.602 -2.0895  0.0474  2.4457
 1699SOL    HW216557   3.698   2.233   9.662  1.0631 -0.5333 -1.8645
 1700SOL     OW16558   0.689   0.454   2.748 -0.2958 -0.1660  0.3519
 1700SOL    HW116559   0.721   0.509   2.820  0.5642 -3.3438  2.3522
 1700SOL    HW216560   0.755   0.474   2.682 -1.9254  0.8716 -0.9847
 1701SOL     OW16561   2.525   3.771  11.447 -0.0147 -0.5499 -0.7086
 1701SOL    HW116562   2.539   3.745  11.538 -2.4641 -0.9833 -0.4444
 1701SOL    HW216563   2.532   3.866  11.456 -1.7995 -0.5722  0.9818
 1702SOL     OW16564   2.521   4.245  16.390  0.3415  0.1597  0.5798
 1702SOL    HW116565   2.560   4.163  16.419 -1.1433 -0.3832  0.9980
 1702SOL    HW216566   2.546   4.293  16.469 -0.3741  1.6435 -0.0952
 1703SOL     OW16567   2.512   3.552   2.558  0.1357  0.6458  0.0530
 1703SOL    HW116568   2.465   3.615   2.503 -2.0410  0.7988  2.1055
 1703SOL    HW216569   2.538   3.600   2.637 -1.3989  5.4963 -2.3800
 1704SOL     OW16570   3.506   3.939  13.646  0.0581  0.0891  0.2912
 1704SOL    HW116571   3.473   3.950  13.735  0.4756  1.1460  0.3133
 1704SOL    HW216572   3.534   4.030  13.633  1.3642 -0.3789 -0.0914
 1705SOL     OW16573   1.402   3.481   7.869 -0.3345  0.4250  0.6494
 1705SOL    HW116574   1.345   3.475   7.793 -1.7669 -0.9372  1.8393
 1705SOL    HW216575   1.464   3.539   7.825  0.9801  0.1228  2.1029
 1706SOL     OW16576   1.657   1.916   6.097  0.5622 -0.1100 -0.4709
 1706SOL    HW116577   1.718   1.974   6.142 -0.1047 -0.3177  0.7193
 1706SOL    HW216578   1.575   1.953   6.131  1.2080  0.1743  0.7775
 1707SOL     OW16579   4.511   0.376  17.654 -0.0974  0.0522  0.0540
 1707SOL    HW116580   4.593   0.353  17.610 -0.4710 -0.3818 -0.4138
 1707SOL    HW216581   4.547   0.445   0.015  0.0256  1.0168 -1.2348
 1708SOL     OW16582   3.809   2.584   8.639  0.3970  0.0301 -0.2049
 1708SOL    HW116583   3.847   2.508   8.681 -0.7782 -1.2585 -1.4701
 1708SOL    HW216584   3.781   2.546   8.556 -0.4455 -0.6626  0.3992
 1709SOL     OW16585   4.461   1.517   3.508  0.2391 -0.1465 -0.5452
 1709SOL    HW116586   4.494   1.448   3.452  1.5043 -0.4878  0.6224
 1709SOL    HW216587   4.429   1.587   3.451 -1.5326 -0.1171  0.4811
 1710SOL     OW16588   3.976   3.061   5.745 -0.6883 -0.1406  0.1607
 1710SOL    HW116589   4.026   2.990   5.705 -2.8397 -0.4660 -1.9029
 1710SOL    HW216590   4.037   3.133   5.731  1.7396 -2.0929  0.5489
 1711SOL     OW16591   0.220   0.984  14.208  0.1084  0.8083  0.0800
 1711SOL    HW116592   0.186   0.979  14.297  1.0163 -0.1483  0.3636
 1711SOL    HW216593   0.307   1.015  14.231  0.3215  0.9127 -0.8350
 1712SOL     OW16594   4.131   1.847  13.273  0.6978 -0.1627 -0.2904
 1712SOL    HW116595   4.071   1.914  13.241 -0.7207  0.0285  2.8699
 1712SOL    HW216596   4.128   1.854  13.368 -1.2480 -0.1350 -0.3642
 1713SOL     OW16597   2.283   1.704  12.372  0.8140  0.3562 -0.1763
 1713SOL    HW116598   2.290   1.698  12.467 -0.4731 -1.2650 -0.1844
 1713SOL    HW216599   2.374   1.709  12.341  1.4597  0.8044  1.8123
 1714SOL     OW16600   1.184   3.158   9.703 -0.2119  0.5331  0.4427
 1714SOL    HW116601   1.266   3.206   9.694  0.9395 -1.3799  0.6568
 1714SOL    HW216602   1.203   3.091   9.768 -0.0826 -1.2762 -1.4480
 1715SOL     OW16603   1.917   1.641   5.283 -0.3475  0.0302 -0.2171
 1715SOL    HW116604   1.975   1.626   5.209 -0.2449 -1.2136  0.1089
 1715SOL    HW216605   1.893   1.550   5.303  1.8125 -0.2168  1.2912
 1716SOL     OW16606   2.302   4.103   8.593 -0.1522 -0.5402 -0.6154
 1716SOL    HW116607   2.333   4.152   8.517  1.4889 -1.4333 -0.5258
 1716SOL    HW216608   2.265   4.031   8.542  1.2800 -1.2252 -0.7074
 1717SOL     OW16609   2.227   1.587  11.581 -0.0756  0.0585  0.8547
 1717SOL    HW116610   2.203   1.536  11.504 -1.3096 -0.1769  1.4079
 1717SOL    HW216611   2.202   1.527  11.651 -0.0693 -1.0112 -0.0550
 1718SOL     OW16612   1.846   2.532   4.539  0.1602  0.1188 -0.7468
 1718SOL    HW116613   1.843   2.580   4.457  0.3431  1.4778  0.0321
 1718SOL    HW216614   1.851   2.609   4.595  1.0160  0.6951 -1.6334
 1719SOL     OW16615   2.075   4.020  16.169 -0.1923 -0.2540  0.6936
 1719SOL    HW116616   2.116   4.095  16.212  1.3847 -0.5478 -0.2897
 1719SOL    HW216617   2.146   3.956  16.172  0.3038  0.2288 -0.6770
 1720SOL     OW16618   0.920   0.806   0.841 -0.1703  0.0711  0.3345
 1720SOL    HW116619   0.982   0.778   0.908  0.1354  0.3534  0.1702
 1720SOL    HW216620   0.872   0.870   0.892 -0.0179 -0.3385  0.9941
 1721SOL     OW16621   1.724   3.389   4.591  0.1370  0.2393  0.2216
 1721SOL    HW116622   1.749   3.480   4.573  3.4575 -0.5627  0.8127
 1721SOL    HW216623   1.644   3.409   4.640 -0.2992 -0.1023 -0.3540
 1722SOL     OW16624   2.161   2.044   7.242 -0.2714  0.2226 -0.0169
 1722SOL    HW116625   2.101   2.091   7.300 -0.0517 -0.5236  0.8078
 1722SOL    HW216626   2.108   1.971   7.211 -1.6927  0.9173  0.7782
 1723SOL     OW16627   0.412   0.967   7.421 -0.4448 -0.0558  0.4456
 1723SOL    HW116628   0.352   1.026   7.376  0.7930  0.0281 -1.1024
 1723SOL    HW216629   0.467   1.030   7.467  0.9401 -0.7039 -0.3293
 1724SOL     OW16630   2.408   2.885   1.301 -0.2324  0.3895  0.2343
 1724SOL    HW116631   2.331   2.835   1.326 -1.4659  1.0891 -2.2435
 1724SOL    HW216632   2.372   2.971   1.280 -2.2025 -0.3854  0.5059
 1725SOL     OW16633   2.142   2.218   3.393  0.5510 -0.5429 -0.4298
 1725SOL    HW116634   2.180   2.154   3.334  0.6653 -1.0739  0.2164
 1725SOL    HW216635   2.221   2.247   3.439 -0.1575  0.5705  0.0886
 1726SOL     OW16636   3.949   2.709   0.889 -0.1894  0.1875 -0.4951
 1726SOL    HW116637   4.026   2.678   0.841  0.1007  1.1894 -0.6680
 1726SOL    HW216638   3.890   2.697   0.814 -0.3070 -3.7469  0.2123
 1727SOL     OW16639   0.225   0.961   8.448 -0.3820  0.3311  0.5509
 1727SOL    HW116640   0.172   0.883   8.429  1.7587 -0.5918 -1.6619
 1727SOL    HW216641   0.169   1.029   8.411  0.1244  0.2527 -0.3749
 1728SOL     OW16642   1.033   3.576  13.439  0.0992 -0.3590  0.7200
 1728SOL    HW116643   1.028   3.658  13.389 -0.4758 -0.7710  0.0862
 1728SOL    HW216644   1.128   3.579  13.444  0.1641 -2.9459  0.6563
 1729SOL     OW16645   4.326   3.116   1.683 -0.5995  0.0423 -0.2337
 1729SOL    HW116646   4.327   3.160   1.768  2.1591 -1.9690  0.7802
 1729SOL    HW216647   4.396   3.052   1.695 -0.0068  0.8181  0.4138
 1730SOL     OW16648   3.223   3.554   3.808  0.0728 -0.2725  0.2647
 1730SOL    HW116649   3.157   3.500   3.850 -1.1634 -1.8626 -3.7348
 1730SOL    HW216650   3.185   3.642   3.811  1.9241  0.5988 -1.1562
 1731SOL     OW16651   2.087   1.761   2.675  0.2381  0.0976 -0.7005
 1731SOL    HW116652   2.144   1.750   2.599  0.0383  0.0726 -0.8465
 1731SOL    HW216653   2.132   1.823   2.732  3.3230 -1.3037 -1.5920
 1732SOL     OW16654   2.836   0.784  15.693 -0.0572 -0.6823 -0.1809
 1732SOL    HW116655   2.764   0.737  15.651  0.6082  1.4923 -3.6831
 1732SOL    HW216656   2.888   0.807  15.616 -1.1495 -2.0379 -1.3066
 1733SOL     OW16657   2.540   0.008   7.680 -0.2866 -0.5101  0.4913
 1733SOL    HW116658   2.459   0.027   7.726  0.2943 -1.2179  1.8123
 1733SOL    HW216659   2.547   0.087   7.626  1.3005 -1.6543 -0.9905
 1734SOL     OW16660   0.263   1.608   8.650  0.3602 -0.3911  0.1803
 1734SOL    HW116661   0.282   1.557   8.571  1.2822 -1.5746  1.1610
 1734SOL    HW216662   0.303   1.691   8.624  0.1182 -0.0117  1.0245
 1735SOL     OW16663   4.394   2.855   6.925 -0.1241 -0.0806 -0.0968
 1735SOL    HW116664   4.416   2.762   6.915 -0.1102 -0.2157  1.1603
 1735SOL    HW216665   4.338   2.860   7.003 -0.2750  0.1826 -0.2232
 1736SOL     OW16666   0.812   3.945  11.951  0.0772  0.0012  0.1388
 1736SOL    HW116667   0.718   3.937  11.932  0.2598 -0.6670 -0.4849
 1736SOL    HW216668   0.820   4.037  11.926  0.3031 -0.3069 -0.9148
 1737SOL     OW16669   0.622   0.668   7.361 -0.0130 -0.0386 -0.2114
 1737SOL    HW116670   0.648   0.720   7.285  0.6269 -0.8861 -0.5727
 1737SOL    HW216671   0.527   0.683   7.365  0.1823  1.6692 -1.9942
 1738SOL     OW16672   1.609   0.612   4.820  0.6752  0.0569 -0.3124
 1738SOL    HW116673   1.696   0.599   4.781 -1.3487 -1.7992 -4.1493
 1738SOL    HW216674   1.574   0.694   4.785  0.5408  0.7915  1.5197
 1739SOL     OW16675   0.432   2.141   9.821  0.9903 -0.5151  0.3549
 1739SOL    HW116676   0.445   2.110   9.911  0.6147 -1.6707  0.0099
 1739SOL    HW216677   0.488   2.081   9.772  0.3058 -1.3930  0.6605
 1740SOL     OW16678   1.767   0.559   1.826  0.2346  0.5013  0.8691
 1740SOL    HW116679   1.789   0.480   1.777  2.9058  2.1837 -0.6638
 1740SOL    HW216680   1.758   0.626   1.758  0.9001 -0.2769  0.0293
 1741SOL     OW16681   3.381   0.882   5.058  0.1934  0.1109 -0.0207
 1741SOL    HW116682   3.329   0.962   5.046  0.5456  0.1871 -0.9747
 1741SOL    HW216683   3.438   0.918   5.127  0.9064 -1.7316  0.3503
 1742SOL     OW16684   1.109   0.001   5.759 -0.1472 -0.9559  0.3745
 1742SOL    HW116685   1.109   4.713   5.854 -1.3167 -1.8751  0.2614
 1742SOL    HW216686   1.085   4.639   5.723  2.9338 -1.1452 -1.2583
 1743SOL     OW16687   2.054   0.983   8.950  0.3153 -0.6560 -0.4507
 1743SOL    HW116688   2.140   0.946   8.970  0.9526  0.4016 -1.2592
 1743SOL    HW216689   2.055   0.947   8.861  0.6983 -2.0705  0.1183
 1744SOL     OW16690   3.561   0.477   2.537  0.7808  0.0850 -0.4506
 1744SOL    HW116691   3.624   0.510   2.601  1.5178  0.0513 -1.1591
 1744SOL    HW216692   3.523   0.397   2.575 -0.4783  0.5920 -0.6374
 1745SOL     OW16693   4.605   3.767  11.674 -0.2149 -0.9579 -0.3347
 1745SOL    HW116694   4.607   3.687  11.621  0.3162 -0.4028 -1.1596
 1745SOL    HW216695   4.602   3.729  11.761  2.5224 -0.4124  0.0138
 1746SOL     OW16696   1.476   2.598   9.023 -0.1451  0.1072 -0.2860
 1746SOL    HW116697   1.527   2.679   9.022  1.2123 -0.7421  1.0045
 1746SOL    HW216698   1.497   2.563   9.109 -0.4387 -1.8422 -1.0141
 1747SOL     OW16699   3.564   1.333   3.840  0.5893 -0.3150  0.1783
 1747SOL    HW116700   3.606   1.397   3.898 -1.0128  1.5133 -0.6889
 1747SOL    HW216701   3.549   1.258   3.898  2.0379 -0.5335  0.2663
 1748SOL     OW16702   1.884   2.461  15.491  0.2124 -0.4865  0.1898
 1748SOL    HW116703   1.972   2.434  15.520 -0.2041 -0.5347  1.4047
 1748SOL    HW216704   1.858   2.518  15.563  1.9792 -0.7494  1.0517
 1749SOL     OW16705   1.541   4.061   4.956  0.6011 -0.0576 -0.1431
 1749SOL    HW116706   1.576   4.096   5.038  1.4960  0.9870 -0.9740
 1749SOL    HW216707   1.617   4.014   4.921 -0.1139 -1.7958  0.6953
 1750SOL     OW16708   4.449   0.306   7.291 -0.1514 -0.3365  0.4433
 1750SOL    HW116709   4.406   0.250   7.227 -1.9188 -0.4138  1.7089
 1750SOL    HW216710   4.486   0.377   7.238  0.7019 -0.6756  0.5872
 1751SOL     OW16711   1.839   2.046  11.568 -0.1606  0.5237  0.1214
 1751SOL    HW116712   1.808   2.096  11.643 -0.4879 -1.6759  1.4347
 1751SOL    HW216713   1.892   2.106  11.516 -0.5827  2.3313  1.7889
 1752SOL     OW16714   0.549   2.014   8.455 -0.1864 -0.1968  0.0587
 1752SOL    HW116715   0.555   2.101   8.496 -0.3737  0.8529 -2.1235
 1752SOL    HW216716   0.627   1.967   8.484  0.8744  1.7470  0.3747
 1753SOL     OW16717   4.713   0.740  15.584  0.0881  0.3476 -0.0993
 1753SOL    HW116718   4.680   0.654  15.610 -0.0022  0.2869 -0.4133
 1753SOL    HW216719   0.013   0.720  15.493  0.9212  0.1065  0.1623
 1754SOL     OW16720   2.189   1.209  12.501 -0.2188 -0.4961 -0.3036
 1754SOL    HW116721   2.106   1.193  12.546  0.0924  1.2659  0.9270
 1754SOL    HW216722   2.247   1.240  12.571 -0.6460 -0.6324  0.1073
 1755SOL     OW16723   3.146   4.622  14.727  0.4322  0.6184 -0.5051
 1755SOL    HW116724   3.164   4.683  14.799  3.1755 -0.6421 -0.1389
 1755SOL    HW216725   3.053   4.606  14.744  0.7140 -0.7842 -0.3317
 1756SOL     OW16726   3.713   0.061   9.509 -0.1787  0.2717 -0.2691
 1756SOL    HW116727   3.675   0.136   9.464  1.5985 -0.8676 -3.6454
 1756SOL    HW216728   3.683   0.072   9.599 -4.0617 -1.0942 -1.4003
 1757SOL     OW16729   1.248   3.956   2.682  0.4242 -0.5168 -0.3797
 1757SOL    HW116730   1.260   3.932   2.590  3.6432  1.0408 -0.3722
 1757SOL    HW216731   1.166   3.915   2.710 -0.1129  0.0414 -1.1256
 1758SOL     OW16732   0.142   1.528   2.020 -0.2116 -0.4350 -0.4252
 1758SOL    HW116733   0.122   1.545   1.928  0.8957  0.9394 -0.4221
 1758SOL    HW216734   0.178   1.440   2.011 -0.7816 -0.7601  0.4501
 1759SOL     OW16735   4.395   0.449   4.267  0.0795  0.1373 -0.3423
 1759SOL    HW116736   4.432   0.537   4.262 -0.2899  0.2987 -0.1937
 1759SOL    HW216737   4.405   0.406   4.182  2.1506 -0.7912  0.3628
 1760SOL     OW16738   0.664   3.760   5.998  0.3668  0.3419  0.1335
 1760SOL    HW116739   0.632   3.850   5.992  0.5686  0.4381  0.5481
 1760SOL    HW216740   0.724   3.767   5.924  0.2073 -2.5622 -0.2767
 1761SOL     OW16741   3.843   1.615   5.637 -0.2254 -0.4998 -0.0708
 1761SOL    HW116742   3.845   1.686   5.701 -1.2960 -0.6683  0.1505
 1761SOL    HW216743   3.873   1.660   5.558 -0.1029 -1.6799 -0.6940
 1762SOL     OW16744   2.498   4.372   4.707  0.0182 -0.4652  0.1014
 1762SOL    HW116745   2.491   4.326   4.624 -1.7869 -0.4993  0.2674
 1762SOL    HW216746   2.411   4.409   4.724  0.0990 -0.1426 -0.1886
 1763SOL     OW16747   2.788   4.590   9.036  0.4070 -0.2266 -0.2308
 1763SOL    HW116748   2.780   4.538   9.116  0.0392  0.2611  0.0485
 1763SOL    HW216749   2.716   4.653   9.029  0.8525  0.2651 -0.4296
 1764SOL     OW16750   2.061   0.415  10.805 -0.5037 -0.0518 -0.0779
 1764SOL    HW116751   2.080   0.321  10.794  2.1699  0.4955 -0.1256
 1764SOL    HW216752   2.079   0.432  10.897  1.1885 -0.9699 -0.2264
 1765SOL     OW16753   2.647   2.676  10.144 -0.1676 -1.1391  0.2132
 1765SOL    HW116754   2.672   2.683  10.052  1.0993  1.9814  0.8110
 1765SOL    HW216755   2.727   2.641  10.183  0.7526 -1.0013 -1.5696
 1766SOL     OW16756   4.390   1.092   5.480 -1.1521  0.1467 -0.3056
 1766SOL    HW116757   4.400   1.000   5.455 -0.0850 -0.1589  1.2567
 1766SOL    HW216758   4.406   1.149   5.406 -1.0615  1.2834  0.5928
 1767SOL     OW16759   2.137   4.552   6.710  0.0122 -0.1902 -0.1251
 1767SOL    HW116760   2.136   4.607   6.788 -0.1389  2.2017 -1.8295
 1767SOL    HW216761   2.229   4.523   6.707  0.2857  0.7687 -1.3442
 1768SOL     OW16762   3.176   4.226   2.432 -0.1019  0.4252 -0.0755
 1768SOL    HW116763   3.205   4.140   2.404 -1.5224  0.3134 -1.1765
 1768SOL    HW216764   3.256   4.257   2.474  0.9979 -2.4875 -0.0579
 1769SOL     OW16765   4.376   2.343   8.237  0.0823 -0.3896 -0.6204
 1769SOL    HW116766   4.386   2.404   8.164 -0.3421  0.0350 -0.3239
 1769SOL    HW216767   4.406   2.400   8.308 -2.7068  0.2708  0.0450
 1770SOL     OW16768   0.965   0.447   4.167  0.2317 -0.0227 -0.0138
 1770SOL    HW116769   0.949   0.361   4.206  1.2717 -0.0057  0.4393
 1770SOL    HW216770   0.898   0.498   4.211  0.6690  0.6353 -0.1088
 1771SOL     OW16771   0.125   0.525   5.558  0.0200  0.1277  0.7346
 1771SOL    HW116772   0.087   0.482   5.482 -1.8360 -0.4703  1.9981
 1771SOL    HW216773   0.070   0.474   5.618 -1.5636 -0.0470 -0.8872
 1772SOL     OW16774   4.427   2.918   7.911  0.2544  0.3861 -0.3669
 1772SOL    HW116775   4.423   2.928   7.816 -2.4707  0.2229 -0.2882
 1772SOL    HW216776   4.353   2.857   7.920 -0.3186  1.1430  0.0615
 1773SOL     OW16777   1.428   1.256  16.369 -0.2138  0.1267 -0.2872
 1773SOL    HW116778   1.370   1.180  16.371  0.2844 -0.2760 -1.0361
 1773SOL    HW216779   1.512   1.211  16.368  0.2182  0.9635 -1.6482
 1774SOL     OW16780   2.996   4.360   6.374  0.1205  0.2962 -0.0358
 1774SOL    HW116781   3.063   4.307   6.416  1.9522  3.0045  0.4547
 1774SOL    HW216782   3.021   4.352   6.282 -0.1227 -0.4244 -0.0345
 1775SOL     OW16783   4.600   0.404  12.172 -0.1042  0.1338  0.1731
 1775SOL    HW116784   4.606   0.327  12.229  1.7207  0.8346  0.9180
 1775SOL    HW216785   4.574   0.467  12.239  2.4715  0.6720  0.6570
 1776SOL     OW16786   1.209   3.575   8.431  0.1869 -0.0705  0.1930
 1776SOL    HW116787   1.165   3.519   8.367 -0.1665  1.2613 -0.7427
 1776SOL    HW216788   1.284   3.602   8.378 -0.0009 -1.1231 -0.6183
 1777SOL     OW16789   2.094   3.455  13.978 -0.0013 -0.5076  0.2835
 1777SOL    HW116790   2.074   3.383  14.037  2.0170 -1.6510 -0.4485
 1777SOL    HW216791   2.011   3.502  13.966  0.6470  0.6238  0.1977
 1778SOL     OW16792   2.058   3.529   9.910  0.2367 -0.1253  0.3250
 1778SOL    HW116793   1.998   3.602   9.894  1.6607  1.5219  2.4070
 1778SOL    HW216794   2.142   3.572   9.896 -0.2470 -0.0085 -2.2742
 1779SOL     OW16795   3.030   3.580  15.142 -0.0707 -0.2123  0.1609
 1779SOL    HW116796   3.070   3.526  15.210 -0.9339 -1.6253 -0.4609
 1779SOL    HW216797   3.048   3.668  15.175 -2.8655  1.6220 -3.0963
 1780SOL     OW16798   0.552   3.793   8.194  0.1046 -0.1128  0.2259
 1780SOL    HW116799   0.512   3.718   8.239  0.2074 -0.3324 -0.0512
 1780SOL    HW216800   0.614   3.746   8.140 -0.9525  0.8553 -1.8445
 1781SOL     OW16801   3.200   1.872   4.663 -0.4164  0.3262 -0.1832
 1781SOL    HW116802   3.190   1.943   4.727  1.4125 -0.4839  1.0245
 1781SOL    HW216803   3.194   1.800   4.725 -2.7475  0.4586 -0.2765
 1782SOL     OW16804   1.626   2.877   0.521 -0.0975 -0.0059 -0.5258
 1782SOL    HW116805   1.631   2.965   0.485  0.9106  1.0893  2.2597
 1782SOL    HW216806   1.532   2.872   0.540 -0.2802  0.8557 -1.2230
 1783SOL     OW16807   1.554   4.656  12.593 -0.2139  0.0196  0.0680
 1783SOL    HW116808   1.606   4.579  12.572  0.0977 -0.2928  2.0568
 1783SOL    HW216809   1.609   0.000  12.551 -1.3550  1.7359  1.3188
 1784SOL     OW16810   2.616   3.344   2.949  0.0947  0.1014 -0.0348
 1784SOL    HW116811   2.616   3.433   2.983  1.5098 -0.4969  1.5608
 1784SOL    HW216812   2.679   3.314   3.015  0.8475  1.3969 -0.1722
 1785SOL     OW16813   4.316   2.468   4.266  0.2858 -0.5622  0.3549
 1785SOL    HW116814   4.246   2.415   4.304 -1.9811  2.9637  1.1581
 1785SOL    HW216815   4.364   2.475   4.348 -0.2634  1.8748  0.4803
 1786SOL     OW16816   3.099   4.508   7.310 -0.2293 -0.0823  0.5441
 1786SOL    HW116817   3.129   4.551   7.230 -0.9169  0.3721  0.5310
 1786SOL    HW216818   3.073   4.423   7.275  0.5841 -0.6744  1.3629
 1787SOL     OW16819   0.662   1.268   7.114  0.8087 -0.2805 -0.1709
 1787SOL    HW116820   0.581   1.316   7.097 -0.1207 -1.5689  0.5646
 1787SOL    HW216821   0.658   1.209   7.038  0.5630  1.0460 -1.1914
 1788SOL     OW16822   1.519   4.621  13.469  0.1805 -0.2480  0.4671
 1788SOL    HW116823   1.471   4.638  13.388  1.0407  0.2199  0.0620
 1788SOL    HW216824   1.447   4.596  13.528  0.8690 -0.4718  1.2121
 1789SOL     OW16825   0.688   1.088   6.904 -0.0798  0.4223 -0.2744
 1789SOL    HW116826   0.782   1.073   6.893 -0.2244 -0.2165 -0.6556
 1789SOL    HW216827   0.658   1.047   6.822 -0.1185  0.0021 -0.0510
 1790SOL     OW16828   1.468   0.136   9.493  0.1244 -0.4223  0.0421
 1790SOL    HW116829   1.417   0.175   9.423  0.3174 -0.2153  0.0159
 1790SOL    HW216830   1.538   0.201   9.503 -0.2424 -0.0225  0.0369
 1791SOL     OW16831   0.769   0.185   2.753  0.1133 -0.1916 -0.1787
 1791SOL    HW116832   0.746   0.147   2.838 -0.3472  0.0902 -0.1782
 1791SOL    HW216833   0.745   0.277   2.759  0.6497 -0.1734  1.5084
 1792SOL     OW16834   1.890   3.790   6.215  0.4304  0.3781 -0.1856
 1792SOL    HW116835   1.921   3.700   6.205  1.8929  0.7897  0.7307
 1792SOL    HW216836   1.952   3.844   6.167  3.0131 -2.4222  0.0201
 1793SOL     OW16837   2.374   3.556   6.238  0.8607  0.1867 -0.2558
 1793SOL    HW116838   2.361   3.620   6.307  0.1957  0.4197 -0.5984
 1793SOL    HW216839   2.452   3.510   6.268  2.0788  2.2055 -0.3211
 1794SOL     OW16840   1.766   1.216   9.314 -0.1324 -0.4105  0.2175
 1794SOL    HW116841   1.820   1.206   9.236  0.1661  0.6913  0.2916
 1794SOL    HW216842   1.678   1.241   9.284 -0.8446 -0.4229  2.2405
 1795SOL     OW16843   3.196   4.588  14.226 -0.0197 -0.1461  0.1555
 1795SOL    HW116844   3.194   4.567  14.320  0.7269  0.3186  0.2754
 1795SOL    HW216845   3.204   4.501  14.188 -0.1564  0.6490 -1.6594
 1796SOL     OW16846   0.277   0.524  11.255 -0.1478 -0.0666  0.0641
 1796SOL    HW116847   0.267   0.489  11.166 -1.9944 -0.3111  0.3719
 1796SOL    HW216848   0.290   0.439  11.297 -2.0420  0.3877  1.5344
 1797SOL     OW16849   1.445   3.970   8.730  0.1040  0.2908  0.4162
 1797SOL    HW116850   1.502   3.902   8.693 -0.0792  0.5551 -0.3463
 1797SOL    HW216851   1.399   3.919   8.797 -1.7703  1.3223 -0.0808
 1798SOL     OW16852   0.540   0.771  14.677 -0.3542 -0.0925  0.5924
 1798SOL    HW116853   0.624   0.731  14.654 -0.3472  0.2784 -0.0017
 1798SOL    HW216854   0.509   0.721  14.753 -2.8305  1.5324  0.6226
 1799SOL     OW16855   3.195   4.701   7.143 -0.1966 -0.0836  0.3179
 1799SOL    HW116856   3.125   0.005   7.084  0.0638 -1.0702 -0.4368
 1799SOL    HW216857   3.255   4.673   7.074  0.4815  1.1591  0.4095
 1800SOL     OW16858   4.522   0.579   2.992 -0.3022  0.1273  0.2412
 1800SOL    HW116859   4.612   0.578   3.025 -0.8005 -1.7780  1.5428
 1800SOL    HW216860   4.524   0.503   2.933 -0.5064 -0.1863  0.6367
 1801SOL     OW16861   3.252   4.606   8.079 -0.1460  0.2843  0.4275
 1801SOL    HW116862   3.316   4.539   8.101 -1.0570 -0.1507  1.7380
 1801SOL    HW216863   3.274   4.609   7.986 -0.9547  0.9907  0.2560
 1802SOL     OW16864   4.597   1.563   5.590  0.0647 -0.2103 -0.3171
 1802SOL    HW116865   4.534   1.601   5.651  1.2085  0.9653  0.1153
 1802SOL    HW216866   4.655   1.513   5.647 -0.5847  0.3028  0.7820
 1803SOL     OW16867   4.070   0.034  12.383 -0.2318 -0.8738  0.1572
 1803SOL    HW116868   4.144   0.004  12.330 -1.1104 -2.0058 -0.4207
 1803SOL    HW216869   4.029   4.671  12.392 -0.2515 -0.8615  0.1883
 1804SOL     OW16870   2.543   4.303   9.949 -0.7928 -0.1547 -0.0135
 1804SOL    HW116871   2.593   4.291  10.030  1.5075  0.2142 -1.3645
 1804SOL    HW216872   2.618   4.300   9.890  0.8024  3.6029  1.8049
 1805SOL     OW16873   1.716   2.375   7.869 -0.4444 -0.3603  0.5243
 1805SOL    HW116874   1.808   2.394   7.853 -0.5569  0.2991  0.6741
 1805SOL    HW216875   1.684   2.438   7.805 -0.1326  0.0383  0.7628
 1806SOL     OW16876   4.459   4.069   9.719  0.2422  0.1887 -0.0289
 1806SOL    HW116877   4.368   4.042   9.719  0.6520 -1.1914  0.3586
 1806SOL    HW216878   4.496   4.006   9.781  0.8717 -0.4150 -1.0121
 1807SOL     OW16879   2.465   1.451   2.874 -0.4094 -0.0943 -0.1939
 1807SOL    HW116880   2.394   1.471   2.814 -0.1884  1.3162  0.0118
 1807SOL    HW216881   2.457   1.533   2.923 -1.4315 -0.6734  0.6036
 1808SOL     OW16882   1.323   3.428   2.046 -0.4317 -0.1495  0.2218
 1808SOL    HW116883   1.310   3.505   1.991 -1.7631 -2.0611 -2.1412
 1808SOL    HW216884   1.393   3.462   2.101  0.2306  1.4482 -1.5962
 1809SOL     OW16885   1.783   2.474   3.457  0.0115 -0.0129 -0.6517
 1809SOL    HW116886   1.775   2.403   3.393  0.0837  0.2200 -0.9195
 1809SOL    HW216887   1.712   2.535   3.433  0.2949  1.1723  1.4898
 1810SOL     OW16888   2.629   1.107  15.585  0.4297  0.1742  0.2151
 1810SOL    HW116889   2.656   1.052  15.511  0.0714  1.4177 -0.8465
 1810SOL    HW216890   2.551   1.061  15.614  0.3047  0.3678  0.1829
 1811SOL     OW16891   1.841   3.474   2.559 -0.0960  0.0428  0.1948
 1811SOL    HW116892   1.788   3.403   2.523  2.1775 -2.5608  1.9229
 1811SOL    HW216893   1.790   3.505   2.633  2.7088  1.0831  1.7067
 1812SOL     OW16894   0.906   4.696   9.289 -0.3520 -0.0446 -0.0686
 1812SOL    HW116895   0.846   0.041   9.320  0.8727  0.1001  1.9836
 1812SOL    HW216896   0.981   4.707   9.347 -0.2224 -0.2653 -0.1953
 1813SOL     OW16897   2.693   4.118   2.079  0.0101 -0.0401 -0.5325
 1813SOL    HW116898   2.763   4.091   2.020  0.9306 -0.1750  0.6133
 1813SOL    HW216899   2.734   4.172   2.146 -2.2527  0.5435  0.3906
 1814SOL     OW16900   3.723   1.481   9.752 -0.4103  0.0710  0.3965
 1814SOL    HW116901   3.736   1.576   9.748 -0.3878  0.0317 -0.5059
 1814SOL    HW216902   3.635   1.472   9.714 -0.3462 -0.4901  0.3805
 1815SOL     OW16903   4.644   3.838  16.108  0.2842 -0.2529 -0.6791
 1815SOL    HW116904   4.586   3.888  16.050  0.8955  0.2103 -0.8882
 1815SOL    HW216905   4.578   3.774  16.135  1.5685 -1.2046  0.1417
 1816SOL     OW16906   4.155   4.378   3.100 -0.3555  0.0518  0.1760
 1816SOL    HW116907   4.221   4.387   3.168 -0.0187  1.2930 -0.3162
 1816SOL    HW216908   4.093   4.448   3.119  0.0233  0.8226 -1.4442
 1817SOL     OW16909   3.005   3.737  11.033  0.0791 -0.7071 -1.0010
 1817SOL    HW116910   2.975   3.757  10.945  1.7365  1.0442 -1.1588
 1817SOL    HW216911   2.987   3.643  11.039 -1.0269 -0.4207  0.1900
 1818SOL     OW16912   1.643   2.313   5.324 -0.1041 -0.1730 -0.6368
 1818SOL    HW116913   1.695   2.251   5.273 -1.2854 -1.3626 -0.4027
 1818SOL    HW216914   1.554   2.300   5.289 -0.3959  1.2404 -0.4025
 1819SOL     OW16915   3.919   3.651   3.167  0.1868 -0.3933  0.0777
 1819SOL    HW116916   3.840   3.705   3.164  0.4674  0.1060  1.6208
 1819SOL    HW216917   3.952   3.661   3.078 -0.3160 -0.6597 -0.1348
 1820SOL     OW16918   0.480   0.621  14.919  0.0305 -0.8072 -0.3264
 1820SOL    HW116919   0.484   0.572  15.001  0.8480 -2.0913 -1.1299
 1820SOL    HW216920   0.388   0.644  14.910  0.8376  1.8352 -1.6713
 1821SOL     OW16921   2.233   3.624   2.688  0.3106  0.3749 -0.3395
 1821SOL    HW116922   2.284   3.585   2.617 -1.4479 -1.1906 -0.7559
 1821SOL    HW216923   2.174   3.676   2.633  0.4263  1.4776  0.5718
 1822SOL     OW16924   3.792   4.656   7.843 -0.4776 -0.0830  0.1000
 1822SOL    HW116925   3.828   4.653   7.754 -2.1537 -1.3451 -0.5322
 1822SOL    HW216926   3.798   0.027   7.861 -2.5118 -0.2598  1.6649
 1823SOL     OW16927   3.633   0.090   7.201 -0.0049  0.0855 -0.1935
 1823SOL    HW116928   3.607   4.721   7.193 -0.3372  0.2937 -1.6335
 1823SOL    HW216929   3.627   0.115   7.293 -2.7720  1.5589 -0.7837
 1824SOL     OW16930   1.435   2.606   1.704  0.0605 -0.2692  0.4134
 1824SOL    HW116931   1.489   2.634   1.778 -0.9286 -0.8515  1.3567
 1824SOL    HW216932   1.475   2.519   1.701  1.9744  0.5983  0.8461
 1825SOL     OW16933   0.497   2.601   6.821  0.1440  0.1733  0.2362
 1825SOL    HW116934   0.579   2.590   6.869 -0.7091  0.1863  1.7114
 1825SOL    HW216935   0.508   2.537   6.751 -3.4177  0.3887 -0.5489
 1826SOL     OW16936   1.275   2.904   3.219 -0.0787  0.4279 -0.0244
 1826SOL    HW116937   1.319   2.883   3.301 -0.1931 -0.8018 -0.2788
 1826SOL    HW216938   1.313   2.992   3.217 -1.4290  1.0482  2.3406
 1827SOL     OW16939   2.860   3.014   2.943 -0.2659  0.0936  0.2951
 1827SOL    HW116940   2.779   3.064   2.958 -0.7187 -0.2388 -1.0716
 1827SOL    HW216941   2.824   2.926   2.953 -0.3964 -0.0530 -1.5668
 1828SOL     OW16942   2.609   4.409   8.344 -0.4066  0.0738  0.2586
 1828SOL    HW116943   2.674   4.340   8.361  1.4501  2.5039  2.9313
 1828SOL    HW216944   2.623   4.471   8.416  2.3833  0.6036 -0.7367
 1829SOL     OW16945   1.276   2.053  13.765 -0.6245  0.5804  0.4999
 1829SOL    HW116946   1.367   2.078  13.753 -0.0931 -0.9564  1.3396
 1829SOL    HW216947   1.236   2.125  13.716 -1.5240 -0.6941 -0.6817
 1830SOL     OW16948   2.425   3.156   9.104  0.2005 -0.2143 -0.4622
 1830SOL    HW116949   2.501   3.138   9.159  0.8362  1.0827 -0.9174
 1830SOL    HW216950   2.399   3.068   9.078  0.7084 -0.9037  1.3365
 1831SOL     OW16951   3.223   2.695   8.209  0.4659  0.4083  0.0015
 1831SOL    HW116952   3.282   2.637   8.160  0.4874  0.4318 -0.0002
 1831SOL    HW216953   3.182   2.639   8.275 -2.1308  0.3217 -1.7024
 1832SOL     OW16954   1.739   2.561   1.520 -0.3828 -0.6186  0.4878
 1832SOL    HW116955   1.712   2.479   1.479  2.1535 -2.8327  3.2819
 1832SOL    HW216956   1.666   2.619   1.496  1.5695  0.7843 -2.0540
 1833SOL     OW16957   0.524   4.574   6.914  0.2426  0.3222  0.1565
 1833SOL    HW116958   0.474   4.561   6.995  0.7317  1.7458  0.6849
 1833SOL    HW216959   0.569   4.653   6.943 -3.7511  1.9149  2.0102
 1834SOL     OW16960   2.079   1.603   8.681  0.2008  0.4542  0.3500
 1834SOL    HW116961   1.992   1.562   8.679  0.7847 -0.7648  0.1040
 1834SOL    HW216962   2.105   1.604   8.589  3.1748 -0.9910  1.1793
 1835SOL     OW16963   1.017   4.703   8.813  0.0690  0.2048 -0.3011
 1835SOL    HW116964   1.013   4.717   8.908  0.2163  2.2222 -0.5852
 1835SOL    HW216965   1.095   4.650   8.800  0.9292  1.2826  0.4079
 1836SOL     OW16966   3.320   2.258   8.273  0.1668 -0.0794  0.7823
 1836SOL    HW116967   3.246   2.228   8.326  1.4117 -3.5154  0.5946
 1836SOL    HW216968   3.283   2.273   8.186 -1.1027 -0.7479  1.2118
 1837SOL     OW16969   2.445   0.874   3.170 -0.0788 -0.4616  0.6652
 1837SOL    HW116970   2.396   0.912   3.242 -0.3248  1.4875 -0.5206
 1837SOL    HW216971   2.474   0.947   3.116  1.5542 -2.2004 -0.8246
 1838SOL     OW16972   1.004   0.619   7.982  0.2211 -0.0577  0.4865
 1838SOL    HW116973   1.031   0.709   7.960  0.9664 -0.3134  0.3658
 1838SOL    HW216974   0.932   0.613   7.920  1.3447 -0.3777 -0.7734
 1839SOL     OW16975   0.380   3.016   5.390 -0.3087 -0.3275  0.6939
 1839SOL    HW116976   0.344   3.047   5.307  1.5596  0.3990  0.1572
 1839SOL    HW216977   0.355   3.087   5.448 -1.3329 -1.6082  1.8320
 1840SOL     OW16978   2.807   0.080   9.602 -0.3088  0.6372 -0.4123
 1840SOL    HW116979   2.772   0.082   9.691 -2.5947 -1.5598 -1.2933
 1840SOL    HW216980   2.801   0.176   9.599  0.4515  0.7162  0.5822
 1841SOL     OW16981   2.608   3.485  11.193  0.4111 -0.4946 -0.2532
 1841SOL    HW116982   2.601   3.426  11.117 -1.4418 -0.3766 -0.1667
 1841SOL    HW216983   2.515   3.506  11.202  0.9612  0.7934  2.1640
 1842SOL     OW16984   2.048   2.492   5.970  0.4190  0.1623 -0.4596
 1842SOL    HW116985   2.019   2.501   6.060 -0.8486 -2.0831 -0.6709
 1842SOL    HW216986   1.998   2.418   5.938  0.6740  0.6978 -2.1285
 1843SOL     OW16987   4.629   2.283   5.241  0.4210  0.1492 -0.5024
 1843SOL    HW116988   4.561   2.267   5.176  0.8286  2.2541 -1.4335
 1843SOL    HW216989   4.605   2.370   5.272 -2.4168 -0.1856 -1.8055
 1844SOL     OW16990   2.584   1.207   2.908  0.3129  0.6717  0.0161
 1844SOL    HW116991   2.619   1.250   2.987 -0.8374 -0.6443  1.2476
 1844SOL    HW216992   2.526   1.275   2.873 -2.0987 -0.1682  2.3801
 1845SOL     OW16993   0.387   4.713   6.729 -0.1247  0.0290  0.0134
 1845SOL    HW116994   0.447   4.698   6.802  0.8743 -1.0335 -1.0169
 1845SOL    HW216995   0.325   0.039   6.783  0.2247 -0.2914  0.7198
 1846SOL     OW16996   0.915   3.909   7.873 -0.1311 -0.2031 -0.1682
 1846SOL    HW116997   0.994   3.864   7.902  0.9357  2.2977  0.8068
 1846SOL    HW216998   0.915   3.981   7.936  0.9060  0.1821 -0.6052
 1847SOL     OW16999   1.045   2.158   5.725 -0.0653 -0.0001  0.1072
 1847SOL    HW117000   1.075   2.155   5.816 -0.7378  1.8112  0.3976
 1847SOL    HW217001   1.126   2.124   5.687 -0.2940  0.2863 -0.6162
 1848SOL     OW17002   0.497   1.708  15.042 -0.2428 -0.9147 -0.0820
 1848SOL    HW117003   0.454   1.790  15.019 -0.7743 -1.0554  0.4376
 1848SOL    HW217004   0.478   1.709  15.136  0.2170  0.7066 -0.0176
 1849SOL     OW17005   1.652   2.735  17.495  0.5135  0.0430 -0.0572
 1849SOL    HW117006   1.610   2.798  17.554  1.1699 -0.3175  0.7848
 1849SOL    HW217007   1.596   2.658  17.504  1.6260 -0.5860  1.3789
 1850SOL     OW17008   1.833   0.898   6.766  0.4415 -0.3986  0.2741
 1850SOL    HW117009   1.744   0.933   6.757 -0.2074 -2.0844  0.0367
 1850SOL    HW217010   1.884   0.968   6.726  1.5171 -0.9661  0.6573
 1851SOL     OW17011   0.667   0.971   5.006 -0.9864  0.0227  0.2915
 1851SOL    HW117012   0.638   0.892   4.961  2.1643 -1.7569  1.4003
 1851SOL    HW217013   0.643   0.950   5.096  1.6659 -0.0083  0.9783
 1852SOL     OW17014   3.402   2.568  12.738  0.3762  0.2723 -0.3502
 1852SOL    HW117015   3.409   2.564  12.834 -1.5261  1.8355 -0.1527
 1852SOL    HW217016   3.312   2.538  12.723  0.8228 -1.0838 -0.3710
 1853SOL     OW17017   1.587   4.492   2.486 -0.3784 -0.1048  0.1869
 1853SOL    HW117018   1.636   4.561   2.532  0.6200  0.2179 -1.3534
 1853SOL    HW217019   1.556   4.545   2.412  1.6549  0.0921 -0.5227
 1854SOL     OW17020   2.181   1.095   0.605  0.0495  0.1593 -0.4562
 1854SOL    HW117021   2.127   1.019   0.630 -1.0193  2.4791  4.4063
 1854SOL    HW217022   2.107   1.136   0.560 -0.5618  0.2620  0.6176
 1855SOL     OW17023   2.939   2.036  13.370  0.2466 -0.2912  0.0927
 1855SOL    HW117024   2.849   2.014  13.349  0.0902  0.1127  0.3352
 1855SOL    HW217025   2.958   1.994  13.453 -1.6732  0.3408  0.8462
 1856SOL     OW17026   1.562   2.477   8.699 -0.1589  0.0464  0.0178
 1856SOL    HW117027   1.575   2.554   8.754  0.2204 -0.8804  1.2265
 1856SOL    HW217028   1.602   2.401   8.742  0.4835 -0.2095 -1.0252
 1857SOL     OW17029   0.780   2.767  12.362  0.1144  0.3696  0.2108
 1857SOL    HW117030   0.689   2.787  12.381  0.2332 -2.2102  3.4629
 1857SOL    HW217031   0.787   2.799  12.272 -0.4206 -0.6875 -0.1989
 1858SOL     OW17032   0.521   3.748   3.436  0.2513  0.0784  0.7578
 1858SOL    HW117033   0.570   3.690   3.495 -0.2254 -0.8469  0.2457
 1858SOL    HW217034   0.464   3.786   3.504 -0.2984 -0.2776  0.4918
 1859SOL     OW17035   0.880   4.570   8.426  0.0176  0.6860  0.1649
 1859SOL    HW117036   0.806   4.604   8.376 -0.9513  2.2117  2.6181
 1859SOL    HW217037   0.910   4.506   8.362  1.9918 -0.1043  1.8631
 1860SOL     OW17038   4.249   2.820   6.141 -0.3159  0.1156  0.0264
 1860SOL    HW117039   4.162   2.857   6.151 -0.5040  0.2846 -2.1583
 1860SOL    HW217040   4.289   2.811   6.228 -3.0938 -0.7118  1.2026
 1861SOL     OW17041   2.027   1.148   6.407 -0.2569 -0.0874  0.1907
 1861SOL    HW117042   2.107   1.187   6.370 -0.1009 -0.9971 -0.4215
 1861SOL    HW217043   1.980   1.133   6.325 -1.3509 -0.1499  0.8349
 1862SOL     OW17044   2.599   2.274   1.865 -0.5011 -0.2306  0.7335
 1862SOL    HW117045   2.553   2.221   1.800 -2.7070 -0.4109  2.4156
 1862SOL    HW217046   2.686   2.238   1.851  0.0305  0.6706  1.7437
 1863SOL     OW17047   4.186   3.265   8.696  0.2200  0.3327 -0.0886
 1863SOL    HW117048   4.281   3.277   8.706  0.2438  0.7232 -0.7913
 1863SOL    HW217049   4.145   3.307   8.771 -0.7279  1.6877 -1.3573
 1864SOL     OW17050   3.787   3.655   6.309 -0.1127  0.2494  0.4190
 1864SOL    HW117051   3.865   3.627   6.356  0.7602 -0.0330 -1.1915
 1864SOL    HW217052   3.754   3.722   6.370 -1.1242  1.5540 -1.5612
 1865SOL     OW17053   1.722   4.523   3.734 -0.1269 -0.1881  0.2753
 1865SOL    HW117054   1.718   4.530   3.830 -0.1160  0.4868  0.2323
 1865SOL    HW217055   1.645   4.474   3.706  1.9282 -2.7265 -0.8318
 1866SOL     OW17056   0.523   2.552  17.166  0.0226  0.2980 -0.2104
 1866SOL    HW117057   0.589   2.576  17.100  0.5524 -1.5154 -0.3487
 1866SOL    HW217058   0.497   2.638  17.199  0.3029 -0.6546  2.4625
 1867SOL     OW17059   3.359   2.328  12.079 -0.2917 -0.3357  0.1095
 1867SOL    HW117060   3.329   2.262  12.017 -0.5254  0.9116 -1.1050
 1867SOL    HW217061   3.454   2.321  12.065 -0.2183  1.0847 -0.1412
 1868SOL     OW17062   3.765   2.973   8.766 -0.5993  0.0277  0.0475
 1868SOL    HW117063   3.809   3.004   8.845 -1.7296  3.2230 -0.5702
 1868SOL    HW217064   3.692   3.035   8.764  0.1349  0.8471 -0.9860
 1869SOL     OW17065   1.837   1.812  10.370 -0.0622  0.0682  0.3821
 1869SOL    HW117066   1.805   1.740  10.315  1.8003  0.0622 -0.6591
 1869SOL    HW217067   1.760   1.855  10.407  0.4148  0.3398  1.0525
 1870SOL     OW17068   3.003   3.433  16.457  0.3284  0.2155  0.2952
 1870SOL    HW117069   3.024   3.383  16.379  0.5154 -3.5652  2.7636
 1870SOL    HW217070   2.958   3.510  16.422  0.3392  0.0964  0.0216
 1871SOL     OW17071   0.772   2.662  14.883  0.4642 -0.4646 -0.3831
 1871SOL    HW117072   0.737   2.651  14.972 -0.6696 -0.4782 -0.8384
 1871SOL    HW217073   0.688   2.671  14.839 -0.7911 -0.3012  2.0004
 1872SOL     OW17074   3.948   3.368   2.598  0.8854 -0.1302  0.0684
 1872SOL    HW117075   3.969   3.307   2.527  1.4460  1.0809 -0.7967
 1872SOL    HW217076   3.975   3.454   2.565  0.8110 -0.5228 -1.0041
 1873SOL     OW17077   2.581   2.815   4.144  0.1755 -0.8993 -0.0650
 1873SOL    HW117078   2.508   2.776   4.193  0.4005 -0.4512  0.6249
 1873SOL    HW217079   2.536   2.841   4.063  0.3311  1.6239  0.6524
 1874SOL     OW17080   3.511   4.143   0.980  0.0797 -0.3362 -0.1017
 1874SOL    HW117081   3.434   4.160   0.926  0.4373  3.0161  0.4123
 1874SOL    HW217082   3.469   4.114   1.061 -0.4275 -0.2521 -0.3335
 1875SOL     OW17083   3.414   1.063   2.902 -0.8097  0.5285 -0.6987
 1875SOL    HW117084   3.494   1.010   2.899 -2.6715 -2.3809  0.5681
 1875SOL    HW217085   3.378   1.054   2.814 -2.1630 -3.3097  0.2283
 1876SOL     OW17086   0.913   1.651   3.174  0.2865  0.6316 -0.1840
 1876SOL    HW117087   0.906   1.604   3.256 -0.2045  0.3253 -0.4043
 1876SOL    HW217088   0.917   1.576   3.114 -0.3784  1.0269 -0.7175
 1877SOL     OW17089   0.087   2.401   5.065 -0.4573  0.2062  0.1549
 1877SOL    HW117090   0.087   2.306   5.076 -1.4952  0.2199  0.1948
 1877SOL    HW217091   0.178   2.426   5.046 -0.2234  0.5867  1.8466
 1878SOL     OW17092   1.899   3.639   4.853 -0.3968  0.1436 -0.3615
 1878SOL    HW117093   1.884   3.725   4.892  1.3957  0.3467 -0.1113
 1878SOL    HW217094   1.902   3.585   4.932 -0.6688 -2.8663 -2.4020
 1879SOL     OW17095   1.163   1.860  12.752  0.1013 -0.1500 -0.3780
 1879SOL    HW117096   1.249   1.850  12.793  0.4081 -0.6187 -1.1300
 1879SOL    HW217097   1.185   1.849  12.659 -0.3662  0.1164 -0.5221
 1880SOL     OW17098   2.568   2.453   4.227  0.3245 -0.0183  0.3343
 1880SOL    HW117099   2.521   2.536   4.229  1.2889  0.5212  0.8738
 1880SOL    HW217100   2.562   2.432   4.134 -3.0794 -0.4911  0.6728
 1881SOL     OW17101   3.622   2.770   2.477 -0.0265  0.0536 -0.0692
 1881SOL    HW117102   3.664   2.709   2.416  0.4413  0.2166  0.0949
 1881SOL    HW217103   3.693   2.831   2.494  0.4257 -1.3438  3.0906
 1882SOL     OW17104   4.529   3.557   9.110 -0.5435 -0.0015  0.0920
 1882SOL    HW117105   4.606   3.568   9.166  0.3145  1.3594 -1.3697
 1882SOL    HW217106   4.558   3.498   9.040 -0.9182  1.1256 -0.9958
 1883SOL     OW17107   3.642   2.122   8.435 -0.1266 -0.0967  0.0490
 1883SOL    HW117108   3.614   2.088   8.520 -0.9937 -1.3095 -0.7091
 1883SOL    HW217109   3.574   2.189   8.435  1.2257  1.2519  0.4563
 1884SOL     OW17110   2.230   1.308   3.853  0.0414  0.1356 -0.6031
 1884SOL    HW117111   2.251   1.400   3.835 -1.7859  0.4884 -0.9290
 1884SOL    HW217112   2.156   1.311   3.913  0.7352  1.0244  0.2178
 1885SOL     OW17113   4.468   4.068  12.606 -0.1239 -0.4895 -0.3357
 1885SOL    HW117114   4.435   4.122  12.534  1.2783  0.8831  0.0657
 1885SOL    HW217115   4.436   3.985  12.571  0.3079 -1.6803  2.0867
 1886SOL     OW17116   0.873   1.165  13.571  0.7280  0.2451 -0.0103
 1886SOL    HW117117   0.806   1.135  13.509  0.9222  2.6073 -1.3410
 1886SOL    HW217118   0.846   1.131  13.656 -0.6619  0.3595 -0.4063
 1887SOL     OW17119   1.351   2.953   7.714 -0.3924  0.2494 -0.1091
 1887SOL    HW117120   1.288   3.003   7.663  0.7543  1.2957 -0.5123
 1887SOL    HW217121   1.398   3.020   7.763 -0.5301 -0.9341  1.6257
 1888SOL     OW17122   1.844   2.292   3.222  0.7728  0.4231 -0.5554
 1888SOL    HW117123   1.926   2.288   3.172  0.2211  1.5415 -1.5503
 1888SOL    HW217124   1.780   2.311   3.153 -1.3304 -0.3523  1.1915
 1889SOL     OW17125   1.441   0.539   5.435  0.4104 -0.3289 -0.4528
 1889SOL    HW117126   1.529   0.520   5.468  0.8310  2.2046 -0.0744
 1889SOL    HW217127   1.468   0.594   5.361  0.4589 -0.3568 -0.4561
 1890SOL     OW17128   1.320   4.426  12.825 -0.2121 -0.1412  0.0082
 1890SOL    HW117129   1.348   4.345  12.782  0.9117 -0.4403  1.3397
 1890SOL    HW217130   1.306   4.477  12.744 -1.1877 -1.0753 -0.4189
 1891SOL     OW17131   1.769   1.421   4.350  0.6572 -0.4112 -0.1165
 1891SOL    HW117132   1.791   1.514   4.357 -1.8264  0.1389  0.5349
 1891SOL    HW217133   1.740   1.407   4.440 -0.7297 -1.6011 -0.7430
 1892SOL     OW17134   3.861   3.519  11.770  0.4155  0.2914 -0.5185
 1892SOL    HW117135   3.956   3.528  11.776  0.2452  1.4444  0.3712
 1892SOL    HW217136   3.841   3.536  11.678 -2.1892 -1.3393 -0.2583
 1893SOL     OW17137   4.622   2.567  16.695  0.6256  0.1308 -0.7331
 1893SOL    HW117138   4.638   2.486  16.743  0.9290  1.3560  1.2386
 1893SOL    HW217139   4.656   2.533  16.613  2.2914 -0.4176  0.1769
 1894SOL     OW17140   1.483   3.588   8.743 -0.1131  0.7542  0.0130
 1894SOL    HW117141   1.423   3.577   8.816  0.6736 -0.2064  0.5059
 1894SOL    HW217142   1.570   3.593   8.781 -0.3750 -2.5423  1.0339
 1895SOL     OW17143   2.832   3.112   1.939  0.2085  0.2658  0.5404
 1895SOL    HW117144   2.774   3.071   1.874  1.7354 -1.7739  0.4667
 1895SOL    HW217145   2.787   3.189   1.974 -0.8273  0.7174 -1.7485
 1896SOL     OW17146   1.257   4.281  10.830 -0.0369  0.3740  0.3914
 1896SOL    HW117147   1.304   4.211  10.875 -0.7161 -0.2319  0.1456
 1896SOL    HW217148   1.276   4.354  10.890  1.4294  0.1749  0.1737
 1897SOL     OW17149   2.971   1.629   1.791  0.6368  0.0835 -0.6996
 1897SOL    HW117150   2.944   1.578   1.868 -0.8647 -1.8473 -2.4874
 1897SOL    HW217151   2.881   1.645   1.760  1.4576  3.5332 -1.3329
 1898SOL     OW17152   2.605   3.410   6.278  0.2536 -0.1411 -0.3198
 1898SOL    HW117153   2.644   3.324   6.266  0.4366 -0.1076  0.0541
 1898SOL    HW217154   2.678   3.466   6.303 -1.2340  1.2933  0.8356
 1899SOL     OW17155   1.592   3.923   5.483  1.2551 -0.8417  0.4151
 1899SOL    HW117156   1.550   3.905   5.399  0.8491  0.4394  0.3270
 1899SOL    HW217157   1.541   3.873   5.547 -0.3990  1.7779  1.1575
 1900SOL     OW17158   4.501   1.320   2.987 -0.3490  0.6329 -0.4098
 1900SOL    HW117159   4.576   1.273   2.950 -1.6721  0.5338 -2.9632
 1900SOL    HW217160   4.468   1.365   2.909 -0.2982 -1.2431 -1.5257
 1901SOL     OW17161   2.736   1.498   4.525 -0.8620 -0.6042 -0.2537
 1901SOL    HW117162   2.811   1.512   4.582 -0.8634 -0.8652 -0.1878
 1901SOL    HW217163   2.744   1.560   4.453  1.0558 -0.3136  0.2189
 1902SOL     OW17164   4.550   4.105   6.549 -0.0549  0.2840  0.2459
 1902SOL    HW117165   4.563   4.098   6.455  0.5444  0.3248  0.3213
 1902SOL    HW217166   4.483   4.038   6.560  1.2220 -1.3266 -1.9073
 1903SOL     OW17167   4.050   0.997   5.032 -0.4250  0.6368  0.1863
 1903SOL    HW117168   4.111   0.923   5.032  0.9060  1.7196  0.6640
 1903SOL    HW217169   4.093   1.045   4.960  2.5294 -1.9196  0.2352
 1904SOL     OW17170   2.172   4.593   0.193 -0.7576 -0.1105 -0.1833
 1904SOL    HW117171   2.234   4.541   0.141 -1.0750 -2.3880  1.7363
 1904SOL    HW217172   2.225   4.631   0.263  0.4661 -1.8831 -0.1387
 1905SOL     OW17173   2.315   2.093   0.886  0.4261  0.1331  0.4808
 1905SOL    HW117174   2.265   2.096   0.805 -0.0967 -1.4527  0.7578
 1905SOL    HW217175   2.375   2.167   0.874  1.3474 -0.9166 -1.3420
 1906SOL     OW17176   2.591   0.715   0.336  0.2060 -0.3263 -0.3075
 1906SOL    HW117177   2.549   0.800   0.330 -0.7066 -0.5580  2.4696
 1906SOL    HW217178   2.637   0.696   0.254 -1.6753  0.9911 -1.6590
 1907SOL     OW17179   3.114   3.390  14.577 -0.3434 -0.0816 -0.1152
 1907SOL    HW117180   3.077   3.435  14.501  0.6695  0.0098 -0.5560
 1907SOL    HW217181   3.185   3.344  14.531  0.0897  0.8401 -0.3829
 1908SOL     OW17182   0.485   3.204   8.303  0.4775 -0.8411 -0.4531
 1908SOL    HW117183   0.453   3.144   8.370  0.2724 -0.9556 -0.6520
 1908SOL    HW217184   0.468   3.153   8.223 -0.3571  1.1518 -1.5565
 1909SOL     OW17185   0.617   0.239   8.663 -0.4469  0.3285  0.2755
 1909SOL    HW117186   0.623   0.320   8.713 -0.3916  0.1865  0.4971
 1909SOL    HW217187   0.706   0.206   8.648 -0.4987  0.4329 -0.2670
 1910SOL     OW17188   0.782   4.423  12.896  0.6336 -0.2603  0.2232
 1910SOL    HW117189   0.714   4.455  12.836 -0.1650  0.5357  1.5430
 1910SOL    HW217190   0.861   4.449  12.848  0.9956 -1.5448  0.1150
 1911SOL     OW17191   2.369   2.006  10.285  0.0699  0.2150  0.4136
 1911SOL    HW117192   2.306   1.940  10.254  0.4771 -1.2508  2.7286
 1911SOL    HW217193   2.334   2.024  10.372  2.5574  1.3581  1.1757
 1912SOL     OW17194   0.031   3.875   8.271  0.1174  0.3461 -0.5253
 1912SOL    HW117195   0.080   3.892   8.351  1.6546 -0.4271 -1.2954
 1912SOL    HW217196   0.023   3.780   8.270 -2.8259  0.5813 -0.4978
 1913SOL     OW17197   0.198   2.462   6.114 -0.0374  0.1372 -0.5771
 1913SOL    HW117198   0.204   2.546   6.160 -1.1613  0.0103 -0.1803
 1913SOL    HW217199   0.287   2.448   6.085  0.5982  1.5380  0.6793
 1914SOL     OW17200   3.493   1.338   8.020  0.6321  0.1811 -0.4097
 1914SOL    HW117201   3.471   1.431   8.018 -0.0073  0.0405  0.2887
 1914SOL    HW217202   3.403   1.307   8.034  0.5093  0.7067 -0.0419
 1915SOL     OW17203   2.245   2.589   1.023  0.4875  0.0107 -0.7262
 1915SOL    HW117204   2.208   2.639   1.095  0.7753  0.6305 -1.0084
 1915SOL    HW217205   2.234   2.498   1.052  2.1667 -0.1858 -0.6789
 1916SOL     OW17206   4.698   2.896  11.556  0.2354  0.1340 -0.7401
 1916SOL    HW117207   4.659   2.846  11.628 -2.2084  0.0314 -2.1548
 1916SOL    HW217208   0.054   2.846  11.535  1.4115  1.1398  1.2829
 1917SOL     OW17209   4.611   0.466   5.910 -0.0988 -0.6016 -0.5459
 1917SOL    HW117210   4.604   0.560   5.889 -1.8034 -0.7141 -0.4182
 1917SOL    HW217211   4.654   0.464   5.995  1.2337 -0.1251 -1.1996
 1918SOL     OW17212   3.901   0.817   4.418 -0.2306  0.2179 -1.0158
 1918SOL    HW117213   3.879   0.760   4.491  1.2643  0.3250 -0.5021
 1918SOL    HW217214   3.994   0.797   4.416 -0.2439 -0.1069  2.2775
 1919SOL     OW17215   1.716   0.493   7.944  0.3124  0.6577 -0.0807
 1919SOL    HW117216   1.621   0.482   7.947  0.2767  0.5681 -1.5212
 1919SOL    HW217217   1.723   0.561   7.877 -3.1708  0.0264 -1.1058
 1920SOL     OW17218   0.330   3.022  10.588 -0.0077  0.2258 -0.3728
 1920SOL    HW117219   0.294   3.061  10.668  1.9593  0.2374  0.5168
 1920SOL    HW217220   0.422   3.051  10.589 -0.0039  0.1946  0.6480
 1921SOL     OW17221   2.842   3.518  10.959  0.1308  0.7198  0.4131
 1921SOL    HW117222   2.849   3.546  10.868  0.7642 -0.6685  0.0379
 1921SOL    HW217223   2.784   3.445  10.939  1.1156  0.3269 -1.0396
 1922SOL     OW17224   4.200   4.107  16.874  0.4174  0.3740 -0.0542
 1922SOL    HW117225   4.130   4.054  16.836  1.4827  0.2194 -1.8188
 1922SOL    HW217226   4.194   4.067  16.960  0.6221 -0.3946 -0.3933
 1923SOL     OW17227   0.060   4.478  16.544 -0.2676 -0.2910  0.5058
 1923SOL    HW117228   0.084   4.399  16.593 -0.1075 -1.1964 -1.0274
 1923SOL    HW217229   0.074   4.536  16.619 -1.0001  2.1837 -1.2636
 1924SOL     OW17230   1.478   1.771   3.748 -0.9433 -0.1211 -0.2364
 1924SOL    HW117231   1.466   1.837   3.817 -3.0019 -0.4780 -0.2580
 1924SOL    HW217232   1.416   1.707   3.784  0.3813 -0.9937  0.4830
 1925SOL     OW17233   1.781   1.595   7.420  0.5967 -0.4196  0.3781
 1925SOL    HW117234   1.781   1.502   7.396 -0.5058 -1.0435  2.7983
 1925SOL    HW217235   1.799   1.576   7.512 -0.8232 -2.2485  0.2869
 1926SOL     OW17236   0.820   1.785   3.900  1.1213 -0.5243  0.8172
 1926SOL    HW117237   0.802   1.854   3.963  2.6829  1.3883 -0.8364
 1926SOL    HW217238   0.895   1.807   3.845 -0.5300 -1.3995 -1.7851
 1927SOL     OW17239   1.445   2.995   7.370 -0.9433 -0.1387  0.0574
 1927SOL    HW117240   1.356   3.027   7.388 -0.5988  0.6608  0.3259
 1927SOL    HW217241   1.493   3.044   7.437 -2.1965  0.2852  0.6414
 1928SOL     OW17242   3.344   4.113   4.532  0.0055  0.8737  0.1064
 1928SOL    HW117243   3.438   4.124   4.517  0.4504 -2.5070  0.4423
 1928SOL    HW217244   3.339   4.076   4.620 -0.5868  0.8096  0.0503
 1929SOL     OW17245   3.590   0.952  11.021  0.3422  0.5076 -0.0932
 1929SOL    HW117246   3.677   0.990  11.036 -0.9257  1.9775  3.6387
 1929SOL    HW217247   3.574   0.895  11.097  1.1870 -0.1959 -0.4464
 1930SOL     OW17248   1.092   0.193   6.088 -0.5257 -0.2912  0.1582
 1930SOL    HW117249   1.059   0.103   6.089 -2.4675  0.4378  0.3501
 1930SOL    HW217250   1.016   0.246   6.065  1.9560  2.4889 -1.7062
 1931SOL     OW17251   4.314   1.891   6.487  0.0600  0.0942  0.7545
 1931SOL    HW117252   4.226   1.895   6.527 -0.7901  0.3489 -1.1552
 1931SOL    HW217253   4.320   1.799   6.461  0.8565 -0.2902  2.3182
 1932SOL     OW17254   1.608   3.398  12.972 -0.4983  0.0247  0.0415
 1932SOL    HW117255   1.581   3.311  13.001  0.4956 -0.8670 -1.7369
 1932SOL    HW217256   1.601   3.390  12.877  1.6496  1.5788 -0.2654
 1933SOL     OW17257   1.705   3.535   6.341 -0.8772  0.3944 -0.2686
 1933SOL    HW117258   1.750   3.596   6.400  0.0117  0.0406 -0.5858
 1933SOL    HW217259   1.629   3.594   6.338  0.1004  1.6155 -0.9137
 1934SOL     OW17260   1.719   0.878   0.578  0.2153  0.2587 -0.1989
 1934SOL    HW117261   1.758   0.957   0.540  0.1178  0.2291 -0.3615
 1934SOL    HW217262   1.802   0.830   0.574  1.3292  2.2565 -1.3253
 1935SOL     OW17263   0.573   2.601   8.840 -0.2280  0.6357 -0.5882
 1935SOL    HW117264   0.507   2.663   8.871 -1.7723 -1.0110 -0.5812
 1935SOL    HW217265   0.634   2.619   8.912 -1.3465  0.4187  0.4109
 1936SOL     OW17266   1.593   4.495   0.042  0.4066  0.8360  0.1428
 1936SOL    HW117267   1.535   4.428   0.079  0.0647  0.9086 -0.2614
 1936SOL    HW217268   1.589   4.565   0.107  0.6419  0.6957  0.3093
 1937SOL     OW17269   1.520   0.754  13.898  0.2283  0.3824  0.1151
 1937SOL    HW117270   1.599   0.789  13.858  0.2703  2.9001  2.4270
 1937SOL    HW217271   1.531   0.787  13.987 -0.1068 -2.0189  1.0668
 1938SOL     OW17272   0.992   0.838   3.286 -0.2494  0.3177 -0.3605
 1938SOL    HW117273   0.944   0.890   3.222 -2.1429  0.0085  0.7792
 1938SOL    HW217274   1.057   0.787   3.238 -0.7125 -0.6481  0.0200
 1939SOL     OW17275   1.436   4.004   6.342  0.0329 -0.2682 -0.7880
 1939SOL    HW117276   1.467   3.982   6.430 -0.4538  1.1018 -0.2701
 1939SOL    HW217277   1.453   4.098   6.338  1.0333 -0.3597  1.3295
 1940SOL     OW17278   4.362   1.635   6.403  0.7773  0.3196 -0.5691
 1940SOL    HW117279   4.305   1.561   6.383  1.8480 -0.8671  0.8335
 1940SOL    HW217280   4.430   1.617   6.338 -0.4660  2.4083 -2.4484
 1941SOL     OW17281   0.039   0.931  13.774  0.4398 -0.1040  0.2736
 1941SOL    HW117282   0.093   0.954  13.698  1.6942 -0.8427  0.9521
 1941SOL    HW217283   0.026   0.838  13.758  0.5504  0.1185 -1.0741
 1942SOL     OW17284   0.537   1.140   7.857 -0.3532  0.3193  0.0072
 1942SOL    HW117285   0.572   1.057   7.824  0.5053  0.7743 -0.2334
 1942SOL    HW217286   0.511   1.180   7.774  2.3587  2.9840  0.4417
 1943SOL     OW17287   4.032   2.521   2.529 -0.1926  0.1215  0.2996
 1943SOL    HW117288   4.096   2.557   2.590 -1.8693 -1.4357  2.9878
 1943SOL    HW217289   4.026   2.588   2.462  1.0915 -0.9926 -0.9271
 1944SOL     OW17290   3.181   0.480  14.836 -0.5781 -0.3475 -0.2264
 1944SOL    HW117291   3.088   0.465  14.852 -0.9608  0.2713 -1.8376
 1944SOL    HW217292   3.181   0.542  14.763 -1.8575  0.9668  0.9033
 1945SOL     OW17293   3.371   0.630  13.133 -0.2483 -0.2439 -0.2415
 1945SOL    HW117294   3.355   0.556  13.193 -0.1958  0.3775  0.5464
 1945SOL    HW217295   3.384   0.692  13.205 -0.8605 -0.2492 -0.1202
 1946SOL     OW17296   0.303   4.144  10.964  0.0709  0.2078  0.5842
 1946SOL    HW117297   0.239   4.121  10.897 -0.2104  1.6389  0.3629
 1946SOL    HW217298   0.253   4.202  11.021 -1.4213  1.7203 -2.2313
 1947SOL     OW17299   4.346   2.479   5.749  0.3064 -0.3993  0.0262
 1947SOL    HW117300   4.259   2.460   5.714 -0.2192  2.1294 -0.0709
 1947SOL    HW217301   4.371   2.550   5.689  0.2488 -0.2533  0.1734
 1948SOL     OW17302   3.627   3.520   7.379 -0.2744  0.1755  0.1169
 1948SOL    HW117303   3.686   3.481   7.444  0.5078  0.6041 -0.3430
 1948SOL    HW217304   3.648   3.460   7.307  2.6128 -0.6031  1.6445
 1949SOL     OW17305   1.403   4.662   1.859 -0.3664  0.4581  0.6139
 1949SOL    HW117306   1.418   4.691   1.769  1.5679  0.0990  0.8314
 1949SOL    HW217307   1.421   4.568   1.861  0.0638  0.5654  1.8563
 1950SOL     OW17308   3.293   3.095  17.641 -0.1548  0.2242 -0.2347
 1950SOL    HW117309   3.211   3.139  17.663 -2.0537 -1.9675 -2.9017
 1950SOL    HW217310   3.329   3.073   0.033  0.7220  1.2165 -0.3638
 1951SOL     OW17311   4.479   3.822   3.376  0.8921 -0.8047 -0.2782
 1951SOL    HW117312   4.558   3.850   3.330  1.2048 -1.6614 -0.2511
 1951SOL    HW217313   4.410   3.871   3.332 -1.1883 -2.5567  1.0342
 1952SOL     OW17314   2.592   3.399  12.563  0.4302 -0.1252 -0.4022
 1952SOL    HW117315   2.681   3.433  12.556  0.2768  0.7194  1.7579
 1952SOL    HW217316   2.598   3.334  12.493 -1.3215 -0.7630  0.0519
 1953SOL     OW17317   3.730   4.115   1.131  0.3585  0.5886 -0.2756
 1953SOL    HW117318   3.749   4.091   1.040 -1.1584  1.1487 -0.7324
 1953SOL    HW217319   3.636   4.098   1.132 -0.0800  3.1041  1.8998
 1954SOL     OW17320   1.259   1.388   4.603 -0.2725  0.4533 -0.2529
 1954SOL    HW117321   1.268   1.294   4.586 -3.4280  0.0337  0.5111
 1954SOL    HW217322   1.336   1.421   4.556  0.4061  0.5449  0.9219
 1955SOL     OW17323   0.415   4.512   4.812  0.4365  0.2632 -0.4279
 1955SOL    HW117324   0.476   4.576   4.775  1.4746  0.0033  0.8596
 1955SOL    HW217325   0.366   4.483   4.734 -0.8082  3.4319 -0.8291
 1956SOL     OW17326   1.260   3.441   4.815 -0.3533 -0.5455 -0.0604
 1956SOL    HW117327   1.273   3.536   4.820  0.6841 -0.6699 -0.3599
 1956SOL    HW217328   1.166   3.439   4.796 -0.3652  0.3062 -0.0962
 1957SOL     OW17329   1.207   4.668  10.758 -0.1099 -0.1906  0.2019
 1957SOL    HW117330   1.234   0.018  10.702  1.7765  0.0511  1.4318
 1957SOL    HW217331   1.200   4.715  10.841  1.2727 -0.1180  0.2697
 1958SOL     OW17332   1.685   3.858   2.204 -0.0912  0.0400 -0.1587
 1958SOL    HW117333   1.750   3.927   2.206 -0.7427  0.6323  0.7575
 1958SOL    HW217334   1.728   3.800   2.266 -1.8238  0.2239  1.2305
 1959SOL     OW17335   2.635   0.045  13.810 -0.0081  0.3575 -0.1443
 1959SOL    HW117336   2.712   0.002  13.846  0.5259  0.7997 -0.7710
 1959SOL    HW217337   2.570   0.038  13.881  0.2565 -0.2988  0.0288
 1960SOL     OW17338   0.119   0.403   7.946  0.0678 -0.0362 -0.2079
 1960SOL    HW117339   0.068   0.422   8.025  1.1650  0.3525  0.3982
 1960SOL    HW217340   0.175   0.329   7.969  1.0746  0.6235 -0.5416
 1961SOL     OW17341   4.435   1.355  14.148  0.4812  0.1501  0.1228
 1961SOL    HW117342   4.521   1.387  14.175  0.4413  0.6925 -0.4066
 1961SOL    HW217343   4.392   1.407  14.217  0.6677  2.4096 -1.4806
 1962SOL     OW17344   0.775   4.359  13.503 -0.0406  0.3710 -0.4444
 1962SOL    HW117345   0.829   4.279  13.505 -0.5006  0.0704  0.0743
 1962SOL    HW217346   0.838   4.428  13.523  1.6061 -0.8518 -1.3692
 1963SOL     OW17347   3.979   0.512   0.634  0.6520 -0.2465  0.3216
 1963SOL    HW117348   4.006   0.469   0.715  3.8847 -1.6617 -1.5023
 1963SOL    HW217349   3.915   0.448   0.604 -1.6977  2.3176 -0.2149
 1964SOL     OW17350   3.485   3.895   4.976 -0.0848 -0.0252  0.2899
 1964SOL    HW117351   3.507   3.954   5.048  0.6305  1.0863 -0.8222
 1964SOL    HW217352   3.521   3.814   5.013  0.8622  0.1807 -0.1745
 1965SOL     OW17353   2.202   0.921   6.769  0.0342  0.3571  0.1210
 1965SOL    HW117354   2.169   0.879   6.848 -1.3193 -1.8120 -1.6058
 1965SOL    HW217355   2.296   0.931   6.785  0.1468 -0.7071  0.0851
 1966SOL     OW17356   4.238   1.727   0.898  0.0338  0.8888  0.1360
 1966SOL    HW117357   4.232   1.656   0.834 -0.6157 -2.1054  3.5932
 1966SOL    HW217358   4.145   1.751   0.904 -0.2836 -0.1557 -0.6418
 1967SOL     OW17359   2.450   2.507  10.130  0.6244  0.2772  0.4278
 1967SOL    HW117360   2.516   2.570  10.158  1.3087  0.4299 -1.6023
 1967SOL    HW217361   2.390   2.508  10.205  0.8871  0.4598  0.6315
 1968SOL     OW17362   4.076   2.772   8.855  0.2708  0.2014 -0.5930
 1968SOL    HW117363   4.002   2.729   8.897 -0.3933  1.7790 -0.1509
 1968SOL    HW217364   4.141   2.751   8.922 -1.1790 -0.6369  0.5396
 1969SOL     OW17365   1.409   0.412   7.642 -0.4115  0.2963 -0.1563
 1969SOL    HW117366   1.433   0.473   7.712 -0.7877 -0.9080  1.0323
 1969SOL    HW217367   1.315   0.428   7.633 -0.1781  0.8545 -1.6108
 1970SOL     OW17368   1.977   4.120   7.484  0.2679 -0.1297 -0.5013
 1970SOL    HW117369   2.059   4.073   7.470  1.2278  1.8918 -1.7011
 1970SOL    HW217370   1.994   4.146   7.575  3.3117 -2.2664 -0.4819
 1971SOL     OW17371   0.885   1.917  12.966  0.1740  0.8621 -0.1463
 1971SOL    HW117372   0.815   1.966  12.925 -0.6368 -1.1798 -1.1944
 1971SOL    HW217373   0.859   1.929  13.058 -0.5769  0.2902 -0.2813
 1972SOL     OW17374   0.795   3.457   2.649 -0.0329  0.1886  0.2651
 1972SOL    HW117375   0.792   3.363   2.665  1.9344  0.5912  3.0744
 1972SOL    HW217376   0.705   3.482   2.626  0.1805  0.1931 -0.5525
 1973SOL     OW17377   2.435   0.758   5.929  0.2991  0.0404  0.3839
 1973SOL    HW117378   2.356   0.774   5.878 -0.3698  1.2077  1.7886
 1973SOL    HW217379   2.471   0.694   5.868 -2.0389 -1.6793  0.8071
 1974SOL     OW17380   3.749   3.398   5.622 -0.4101 -0.7385  0.4177
 1974SOL    HW117381   3.780   3.410   5.712 -0.4787 -0.5108  0.4112
 1974SOL    HW217382   3.757   3.487   5.589  0.2866 -0.5668  1.0423
 1975SOL     OW17383   1.018   3.748   3.954 -0.2989  0.0400  0.5055
 1975SOL    HW117384   1.063   3.832   3.961 -1.2996  0.5922  0.3342
 1975SOL    HW217385   0.929   3.771   3.982 -0.9838 -1.9762  0.0455
 1976SOL     OW17386   2.435   0.072   6.707  0.2205  0.0029 -0.0601
 1976SOL    HW117387   2.384   0.107   6.634  0.9187 -0.3616 -0.7233
 1976SOL    HW217388   2.519   0.062   6.663  1.5109  0.4455  2.3440
 1977SOL     OW17389   3.389   4.713   7.361  0.2790 -0.3110  0.3685
 1977SOL    HW117390   3.320   4.705   7.295 -0.1354  0.7830  0.6643
 1977SOL    HW217391   3.340   0.031   7.433 -1.6400 -1.4019 -0.3299
 1978SOL     OW17392   1.599   3.221   1.411  0.0718 -0.1596  0.4985
 1978SOL    HW117393   1.581   3.135   1.374 -2.3020  0.2091  0.7612
 1978SOL    HW217394   1.506   3.240   1.420  0.4923  2.5046 -0.8196
 1979SOL     OW17395   4.647   3.753  12.486  0.6060  0.6195 -0.4649
 1979SOL    HW117396   4.654   3.666  12.525  0.2712  0.2808 -1.1577
 1979SOL    HW217397   0.008   3.769  12.442  0.5319  2.4452  0.0676
 1980SOL     OW17398   1.249   2.513   7.337  0.4120  0.3752 -0.4953
 1980SOL    HW117399   1.167   2.488   7.296 -0.4625  0.9431  0.9263
 1980SOL    HW217400   1.294   2.431   7.312 -0.4566  0.1081 -1.1873
 1981SOL     OW17401   3.360   0.409  10.303  0.3324 -0.1290  0.5960
 1981SOL    HW117402   3.447   0.437  10.275 -0.9750  0.3426 -2.9785
 1981SOL    HW217403   3.379   0.382  10.393  0.0476  2.0323  1.3274
 1982SOL     OW17404   2.441   0.956   8.475 -0.2732 -0.4928  0.1106
 1982SOL    HW117405   2.440   0.876   8.527 -0.0423 -1.2915 -1.1136
 1982SOL    HW217406   2.398   1.023   8.529  0.4662  1.1745 -1.3643
 1983SOL     OW17407   1.172   3.742   0.857 -0.0528  0.2796  0.2381
 1983SOL    HW117408   1.176   3.647   0.845 -0.9876  0.3964 -0.9571
 1983SOL    HW217409   1.133   3.769   0.774 -0.7524 -0.1875  0.4179
 1984SOL     OW17410   1.393   0.545   3.621  0.0094  0.0408 -0.3041
 1984SOL    HW117411   1.389   0.493   3.702 -0.6223 -0.9676 -0.9846
 1984SOL    HW217412   1.302   0.573   3.612  0.7261  2.3841 -0.1721
 1985SOL     OW17413   1.547   3.964   6.601 -0.0255 -0.2439 -0.4916
 1985SOL    HW117414   1.486   3.918   6.659  0.0372 -0.4350 -0.5757
 1985SOL    HW217415   1.589   4.010   6.674  0.0039 -1.3035  0.1693
 1986SOL     OW17416   2.700   1.351   9.077 -0.3377  0.3512 -0.4580
 1986SOL    HW117417   2.791   1.339   9.050 -0.5447  1.2049 -1.5524
 1986SOL    HW217418   2.661   1.322   8.995 -1.2536  1.1105 -0.2866
 1987SOL     OW17419   4.656   4.501  17.616 -0.7503  0.5396  0.0156
 1987SOL    HW117420   4.698   4.424  17.655 -0.9188  0.9538  1.0072
 1987SOL    HW217421   4.721   4.568  17.637 -0.8106  0.2558  1.0953
 1988SOL     OW17422   1.233   1.788   7.553 -0.0497 -0.4308 -0.2329
 1988SOL    HW117423   1.188   1.714   7.592  2.1578 -1.6432  0.0508
 1988SOL    HW217424   1.324   1.758   7.556 -0.0725 -0.5285 -0.5156
 1989SOL     OW17425   3.047   2.721   5.881 -0.0742  0.0821 -0.0670
 1989SOL    HW117426   3.091   2.647   5.839  2.7502  0.7760  1.7440
 1989SOL    HW217427   2.958   2.705   5.848  0.0788  1.0831 -0.9769
 1990SOL     OW17428   1.986   3.148   0.440 -0.1877  0.1454 -0.4611
 1990SOL    HW117429   2.029   3.146   0.526  0.0329  1.3825 -0.5382
 1990SOL    HW217430   1.945   3.062   0.438 -0.7192  0.4250 -2.0791
 1991SOL     OW17431   4.070   4.697   7.077  0.0686  0.1276  0.3380
 1991SOL    HW117432   4.055   0.022   6.995 -0.9018  1.5243  1.3238
 1991SOL    HW217433   4.062   4.605   7.052  0.6056 -0.1413  1.1861
 1992SOL     OW17434   2.206   2.696   1.344 -0.5137 -0.0546 -0.1590
 1992SOL    HW117435   2.128   2.735   1.384 -0.7177  0.5901 -1.1584
 1992SOL    HW217436   2.194   2.609   1.383 -1.5942 -0.4483 -1.3472
 1993SOL     OW17437   3.852   3.642  13.813 -0.1609 -0.3659 -0.0286
 1993SOL    HW117438   3.866   3.682  13.899 -0.7275 -0.7337  0.2351
 1993SOL    HW217439   3.843   3.548  13.831  0.0556 -0.5743 -0.9520
 1994SOL     OW17440   3.845   2.061   3.572  0.0351  0.0378 -0.0735
 1994SOL    HW117441   3.817   1.970   3.563  0.9524 -0.0538 -2.0181
 1994SOL    HW217442   3.851   2.080   3.478  0.0641  0.4468  0.0148
 1995SOL     OW17443   1.029   2.926   5.781 -0.1559 -0.2365  0.8801
 1995SOL    HW117444   0.968   2.997   5.759  0.4719  0.0141 -0.0497
 1995SOL    HW217445   0.988   2.851   5.737 -2.3129  0.2084  2.1554
 1996SOL     OW17446   0.548   1.870   8.046 -0.8689 -0.0322 -0.2732
 1996SOL    HW117447   0.490   1.806   8.006 -1.2999 -0.8605  1.6725
 1996SOL    HW217448   0.528   1.857   8.139 -0.8376  1.3374 -0.0690
 1997SOL     OW17449   3.995   1.457   7.487  0.0105 -0.3094  0.0643
 1997SOL    HW117450   3.916   1.425   7.531  0.0246  0.6419  0.7680
 1997SOL    HW217451   3.987   1.543   7.528  0.8875 -1.5179  2.7596
 1998SOL     OW17452   1.783   2.393   5.541  0.3464  0.5695 -0.1941
 1998SOL    HW117453   1.737   2.346   5.472 -0.5994 -1.1462  1.5929
 1998SOL    HW217454   1.862   2.343   5.557  0.1260 -0.9196 -3.7995
 1999SOL     OW17455   0.571   2.127   7.816 -0.3359 -0.2269 -0.0568
 1999SOL    HW117456   0.613   2.203   7.775  0.0622 -0.8937 -0.8895
 1999SOL    HW217457   0.559   2.155   7.906  2.6869  2.8079 -0.5990
 2000SOL     OW17458   0.978   4.475   6.745 -0.0813 -0.1888  0.2349
 2000SOL    HW117459   0.943   4.556   6.783 -0.6712 -1.4121  2.2791
 2000SOL    HW217460   0.936   4.404   6.793  1.2445  0.9023  3.0507
 2001SOL     OW17461   0.099   1.446  14.407  0.0858 -0.4770 -0.7767
 2001SOL    HW117462   0.112   1.357  14.374  1.9764 -0.2460 -0.6559
 2001SOL    HW217463   0.046   1.479  14.335 -0.0776 -0.8218 -0.8155
 2002SOL     OW17464   1.175   0.613   6.433 -0.2717 -0.4771  0.3564
 2002SOL    HW117465   1.090   0.648   6.406 -0.8227 -3.2954 -1.6002
 2002SOL    HW217466   1.223   0.695   6.440 -1.7270  0.1661  3.1384
 2003SOL     OW17467   3.186   2.411   4.758 -0.4770 -0.3784  0.3902
 2003SOL    HW117468   3.126   2.423   4.832 -0.7771  1.5379 -0.1704
 2003SOL    HW217469   3.164   2.480   4.696 -0.5832 -0.2936  0.5200
 2004SOL     OW17470   0.038   1.446   3.016  0.2614 -0.0963 -0.0767
 2004SOL    HW117471   0.041   1.482   2.927  1.2245 -2.1712 -0.8849
 2004SOL    HW217472   0.011   1.356   2.997 -0.0431 -0.1043  0.3976
 2005SOL     OW17473   4.216   0.065  10.048 -0.1742  0.1484 -0.4013
 2005SOL    HW117474   4.244   4.706  10.088  1.2759  1.4622  1.2906
 2005SOL    HW217475   4.277   0.129  10.085 -0.1318 -0.8298  1.1932
 2006SOL     OW17476   0.746   0.610   3.055 -0.1354  0.7446  0.0452
 2006SOL    HW117477   0.753   0.685   2.995  0.8135 -0.4075 -1.2760
 2006SOL    HW217478   0.823   0.565   3.019 -0.1869 -0.1071  0.9905
 2007SOL     OW17479   1.582   0.082   8.312  0.1129  0.1599  0.2761
 2007SOL    HW117480   1.567   4.713   8.289 -0.0005  0.8214 -2.2294
 2007SOL    HW217481   1.501   0.098   8.362 -0.8457 -0.9710 -0.8979
 2008SOL     OW17482   1.987   1.363   2.043 -0.1042  0.5503  0.4463
 2008SOL    HW117483   2.018   1.381   1.954 -1.3258 -1.2515 -0.3517
 2008SOL    HW217484   2.068   1.340   2.088 -0.9016 -1.0497  1.0768
 2009SOL     OW17485   0.521   0.433   4.924 -0.2305  0.1293  0.0463
 2009SOL    HW117486   0.462   0.360   4.940 -2.8578  2.2485  0.1900
 2009SOL    HW217487   0.484   0.495   4.861 -0.4948 -1.5286 -1.4115
 2010SOL     OW17488   0.462   4.276   9.821 -0.4628 -0.6393  0.0564
 2010SOL    HW117489   0.372   4.303   9.837  0.0184  0.9362  0.1369
 2010SOL    HW217490   0.493   4.260   9.910 -0.4785  1.3009  0.4220
 2011SOL     OW17491   1.634   1.156   3.096 -0.8188  0.7787  0.1477
 2011SOL    HW117492   1.649   1.246   3.067 -0.2724  0.2879 -1.1126
 2011SOL    HW217493   1.567   1.156   3.163 -0.7319 -0.4599  0.2429
 2012SOL     OW17494   2.793   1.685  10.227 -0.2879 -0.0050  0.0610
 2012SOL    HW117495   2.772   1.702  10.136  1.1247  1.6236  0.0245
 2012SOL    HW217496   2.888   1.677  10.215 -0.5876 -0.0829 -2.1180
 2013SOL     OW17497   2.707   2.013  15.603  0.0925  0.0121 -0.4056
 2013SOL    HW117498   2.784   1.957  15.601 -0.7020 -1.0766 -0.3290
 2013SOL    HW217499   2.741   2.102  15.608 -0.9524  0.4102 -0.2699
 2014SOL     OW17500   3.211   1.198   7.227 -0.1066 -0.2690 -0.1436
 2014SOL    HW117501   3.193   1.148   7.307 -0.5281 -1.1412 -0.7825
 2014SOL    HW217502   3.144   1.168   7.165  0.4925 -1.0545 -0.4089
 2015SOL     OW17503   2.711   0.459   7.461 -0.1390  0.5663 -0.1260
 2015SOL    HW117504   2.799   0.427   7.440 -0.4111 -0.6287  0.5388
 2015SOL    HW217505   2.732   0.549   7.486 -3.1203  1.0408  0.7512
 2016SOL     OW17506   1.040   1.800   1.519 -0.2412  0.2602  0.1486
 2016SOL    HW117507   1.079   1.873   1.567  0.3762  0.2817 -0.3862
 2016SOL    HW217508   1.063   1.720   1.566 -0.1835 -0.8064 -1.6917
 2017SOL     OW17509   0.222   1.841   7.652  0.6089 -0.3762 -0.6157
 2017SOL    HW117510   0.288   1.901   7.684 -1.5284  0.9961  1.2504
 2017SOL    HW217511   0.276   1.787   7.595  0.4799 -2.6064  1.3768
 2018SOL     OW17512   1.879   3.401   7.902  0.5099  0.1482 -0.4924
 2018SOL    HW117513   1.863   3.362   7.816 -1.1741 -0.4077  0.0587
 2018SOL    HW217514   1.969   3.375   7.918 -0.3732 -1.6056  1.6249
 2019SOL     OW17515   4.357   1.456  17.283 -0.6242  0.6105  0.4826
 2019SOL    HW117516   4.398   1.494  17.360 -1.9690  0.2319  1.3723
 2019SOL    HW217517   4.391   1.367  17.276 -0.8842  0.5818 -0.4461
 2020SOL     OW17518   2.045   4.436  14.890  0.2497  0.0387 -0.0770
 2020SOL    HW117519   1.993   4.469  14.817  1.2562 -2.7997 -2.0687
 2020SOL    HW217520   2.106   4.374  14.850 -1.1242 -1.6913  0.5113
 2021SOL     OW17521   3.605   2.132   7.447 -0.3055 -0.4160 -0.4584
 2021SOL    HW117522   3.556   2.213   7.435  2.7868  1.8730  2.5862
 2021SOL    HW217523   3.666   2.166   7.512 -0.4721 -0.3674 -0.3282
 2022SOL     OW17524   1.350   2.165   1.836 -0.4998 -0.4167 -0.5143
 2022SOL    HW117525   1.263   2.204   1.838 -0.9241 -1.2843 -1.4995
 2022SOL    HW217526   1.356   2.156   1.931 -0.4801  1.1656 -0.3665
 2023SOL     OW17527   4.444   0.028  16.020 -0.0697 -0.2880 -0.0572
 2023SOL    HW117528   4.352   0.002  16.023 -0.0420 -0.2144  1.6186
 2023SOL    HW217529   4.498   4.688  16.068  0.5058  0.1816 -0.0806
 2024SOL     OW17530   2.761   3.264   9.720  0.3280  0.2784  0.1724
 2024SOL    HW117531   2.748   3.212   9.799 -0.5356  0.5266  0.2014
 2024SOL    HW217532   2.724   3.345   9.757 -0.0432 -0.2394  0.9234
 2025SOL     OW17533   4.619   1.304   8.199  0.1961 -0.3397 -0.4731
 2025SOL    HW117534   4.594   1.279   8.110  0.0990 -2.1145  0.0712
 2025SOL    HW217535   4.535   1.325   8.241  0.1899  0.2133 -0.7566
 2026SOL     OW17536   1.004   0.370   1.718 -0.2570  0.2429  0.4830
 2026SOL    HW117537   0.939   0.302   1.702  2.3167 -2.0009 -0.4625
 2026SOL    HW217538   0.964   0.431   1.780  0.8993 -0.7146  2.1782
 2027SOL     OW17539   2.030   0.761  10.438  0.3256 -0.1453 -0.1379
 2027SOL    HW117540   2.064   0.847  10.460 -1.0226  0.3231  0.1358
 2027SOL    HW217541   2.011   0.724  10.525 -0.3396 -1.8569 -1.0050
 2028SOL     OW17542   2.263   3.496   0.271  0.0104  0.0467  0.3043
 2028SOL    HW117543   2.347   3.462   0.240 -1.6039 -2.6925 -0.9734
 2028SOL    HW217544   2.207   3.422   0.250  2.2527 -1.3937 -0.5959
 2029SOL     OW17545   4.649   2.719  13.533  0.4638 -0.1129  0.2513
 2029SOL    HW117546   4.705   2.733  13.609  0.7996 -1.6496  0.2897
 2029SOL    HW217547   4.580   2.775  13.569  0.5402 -0.0720  0.3341
 2030SOL     OW17548   4.315   3.049   3.203 -0.3276 -0.0184  0.0999
 2030SOL    HW117549   4.305   2.973   3.147  1.6614 -1.2871  1.4656
 2030SOL    HW217550   4.333   3.118   3.139  0.7789 -0.5219 -0.1279
 2031SOL     OW17551   2.123   2.882   4.039 -0.3855  0.0291  0.3532
 2031SOL    HW117552   2.063   2.810   4.020  0.4307 -0.1293 -1.5672
 2031SOL    HW217553   2.156   2.901   3.952 -3.8244 -1.3320 -1.2371
 2032SOL     OW17554   2.752   2.608   7.070  0.1071 -0.3685 -0.2136
 2032SOL    HW117555   2.687   2.575   7.132  1.4772 -0.6963  1.0458
 2032SOL    HW217556   2.837   2.604   7.113  0.3308  2.6433 -0.3551
 2033SOL     OW17557   2.879   1.054  16.300 -0.2335  0.4170  0.1404
 2033SOL    HW117558   2.851   1.001  16.226 -1.2663 -0.4725  1.1689
 2033SOL    HW217559   2.816   1.126  16.309 -0.3963  0.1175  1.4791
 2034SOL     OW17560   3.978   3.468   2.135  0.5075 -0.5438  0.2541
 2034SOL    HW117561   3.923   3.425   2.070 -0.6358  0.8260  0.3045
 2034SOL    HW217562   3.935   3.438   2.215  2.2015 -1.1267  0.9443
 2035SOL     OW17563   4.721   0.870   6.063 -1.0863 -0.1718  0.0784
 2035SOL    HW117564   4.700   0.863   6.157  1.6749  0.3614  0.7395
 2035SOL    HW217565   0.044   0.954   6.064 -1.8553  0.2353  1.8307
 2036SOL     OW17566   1.399   0.103   7.249 -0.4140  0.4554 -0.0702
 2036SOL    HW117567   1.420   0.066   7.163 -0.8280 -1.7693  0.7766
 2036SOL    HW217568   1.400   0.018   7.294  4.4148 -0.0932 -1.2115
 2037SOL     OW17569   2.498   0.989   2.240 -1.0276  0.0255 -0.8425
 2037SOL    HW117570   2.446   1.057   2.283 -2.9602 -1.9438 -0.0549
 2037SOL    HW217571   2.472   0.918   2.297  1.3187 -1.1365 -1.2426
 2038SOL     OW17572   2.283   3.080   4.641 -0.3935  0.1041 -0.1546
 2038SOL    HW117573   2.308   3.172   4.632  0.1125 -0.1273 -1.0064
 2038SOL    HW217574   2.363   3.033   4.620 -0.5323  0.3894 -1.3426
 2039SOL     OW17575   4.664   0.420   4.347 -0.1391 -0.2160  0.2097
 2039SOL    HW117576   4.642   0.498   4.399  2.3053  0.3644  0.3968
 2039SOL    HW217577   4.608   0.445   4.274  0.5251  0.0197 -0.2162
 2040SOL     OW17578   3.615   1.051   7.728  0.7400 -0.0368  0.0348
 2040SOL    HW117579   3.652   0.969   7.761 -0.3884 -0.4945  0.1695
 2040SOL    HW217580   3.643   1.101   7.805 -2.1407 -1.3976  1.9857
 2041SOL     OW17581   0.016   0.751   3.996  0.1801 -0.2241  0.0662
 2041SOL    HW117582   0.089   0.793   4.041  1.3465 -0.9159 -1.1852
 2041SOL    HW217583   0.052   0.744   3.908  0.7333 -0.9233  0.3477
 2042SOL     OW17584   2.595   4.420  14.317 -0.0646 -0.5207  0.2793
 2042SOL    HW117585   2.540   4.422  14.395 -0.3158  1.2009  0.0580
 2042SOL    HW217586   2.559   4.351  14.262  1.1302 -1.4973  0.7271
 2043SOL     OW17587   2.930   4.058  16.170  0.1404  0.2640  0.3204
 2043SOL    HW117588   2.894   4.113  16.100 -1.0397 -0.5257  0.3066
 2043SOL    HW217589   2.959   3.976  16.129 -2.4682 -0.0140 -1.0239
 2044SOL     OW17590   2.339   2.108  14.459  0.0726 -0.3775  0.4203
 2044SOL    HW117591   2.376   2.020  14.458  0.2349 -0.3001 -1.5840
 2044SOL    HW217592   2.394   2.152  14.394  0.4346  0.0419  1.0193
 2045SOL     OW17593   2.041   1.474   6.677 -0.5208  0.1433 -0.1100
 2045SOL    HW117594   1.992   1.423   6.742 -2.1775  0.4643 -1.1204
 2045SOL    HW217595   1.985   1.477   6.600 -0.4352  0.4556 -0.1598
 2046SOL     OW17596   1.239   2.514  15.070 -0.7728 -0.1454 -0.0669
 2046SOL    HW117597   1.327   2.509  15.032 -0.1746  2.2020  1.0095
 2046SOL    HW217598   1.254   2.596  15.117  1.3170  0.1722 -1.2532
 2047SOL     OW17599   4.569   2.224   3.325  0.0081 -0.1741 -0.1441
 2047SOL    HW117600   4.488   2.273   3.339 -0.6953 -1.3928  0.0615
 2047SOL    HW217601   4.562   2.149   3.383 -1.0887 -0.5323 -0.7364
 2048SOL     OW17602   3.524   0.958   5.303  0.2859 -0.8482 -0.2842
 2048SOL    HW117603   3.479   0.935   5.384 -0.7038 -0.0705 -0.6098
 2048SOL    HW217604   3.615   0.956   5.333  0.4885 -2.4867 -1.0167
 2049SOL     OW17605   0.657   3.104   5.926 -0.2037  0.0092  0.5143
 2049SOL    HW117606   0.732   3.059   5.963  0.2177 -0.1627 -0.5542
 2049SOL    HW217607   0.622   3.034   5.871 -0.2711  1.1294 -0.8754
 2050SOL     OW17608   3.856   0.635   8.806 -0.4147 -0.4341  0.2319
 2050SOL    HW117609   3.864   0.728   8.786  1.2527 -0.4923  0.6143
 2050SOL    HW217610   3.764   0.613   8.796 -0.5150  0.5575 -0.9891
 2051SOL     OW17611   3.876   2.428  11.529  0.1000 -0.3601 -0.4477
 2051SOL    HW117612   3.801   2.411  11.585  0.5058 -4.5251 -1.1532
 2051SOL    HW217613   3.945   2.404  11.591  0.6313  0.7380 -0.6070
 2052SOL     OW17614   1.913   4.145   3.867  0.4469  0.1208 -0.2456
 2052SOL    HW117615   1.983   4.209   3.882  0.5081 -0.1610  0.6910
 2052SOL    HW217616   1.866   4.188   3.796  0.9054  1.1958  0.1030
 2053SOL     OW17617   4.181   2.132   5.878  0.2200  0.0658  0.1984
 2053SOL    HW117618   4.216   2.173   5.957  0.2506  1.4649 -0.5302
 2053SOL    HW217619   4.098   2.097   5.909  1.0012 -0.4000  1.7431
 2054SOL     OW17620   3.622   4.248   5.659 -0.5684 -0.7853 -0.0555
 2054SOL    HW117621   3.625   4.267   5.565 -0.3995  0.8743  0.2835
 2054SOL    HW217622   3.627   4.152   5.663  0.5393 -0.6734  1.0558
 2055SOL     OW17623   0.776   1.739  14.255  0.1581 -0.1465  0.4809
 2055SOL    HW117624   0.766   1.760  14.163 -1.5755  0.4292  0.7967
 2055SOL    HW217625   0.842   1.806  14.271 -0.4109  0.6827 -0.6373
 2056SOL     OW17626   2.120   3.183   5.555 -0.0178  0.1171  0.0808
 2056SOL    HW117627   2.153   3.142   5.635 -0.7875  1.0561  0.8670
 2056SOL    HW217628   2.029   3.161   5.573  0.4651 -2.3767 -0.4500
 2057SOL     OW17629   0.578   0.407   7.936  0.0667  0.3798 -0.3633
 2057SOL    HW117630   0.506   0.426   7.875 -1.4574  0.2630  1.4163
 2057SOL    HW217631   0.530   0.422   8.017  0.9208 -1.3867  0.4788
 2058SOL     OW17632   2.381   4.718   0.349 -0.5988 -0.1204  0.2655
 2058SOL    HW117633   2.426   0.041   0.278 -2.1151  0.4334 -0.3359
 2058SOL    HW217634   2.453   4.668   0.388 -0.0422  0.5990  0.1622
 2059SOL     OW17635   4.200   2.733  16.181  0.1240 -0.7055 -0.5719
 2059SOL    HW117636   4.198   2.828  16.192 -0.5211 -1.0167  1.8771
 2059SOL    HW217637   4.134   2.732  16.112 -0.6108  0.2265  0.1181
 2060SOL     OW17638   3.540   1.121   4.312 -0.7766  0.4719  0.0740
 2060SOL    HW117639   3.597   1.191   4.344  1.4320 -0.6649 -1.3878
 2060SOL    HW217640   3.539   1.063   4.388  1.3114  1.8268  1.1266
 2061SOL     OW17641   3.728   1.419   6.559 -0.6339  0.1082 -0.1795
 2061SOL    HW117642   3.744   1.495   6.615  0.7514 -0.0334 -0.3616
 2061SOL    HW217643   3.784   1.440   6.484 -3.1803  0.5592 -1.9239
 2062SOL     OW17644   2.698   0.149   6.225  0.3554 -0.2083  0.0764
 2062SOL    HW117645   2.657   0.138   6.139  0.2653  0.4851  0.0294
 2062SOL    HW217646   2.621   0.184   6.270  0.1978  2.4471 -2.2777
 2063SOL     OW17647   2.482   1.757  15.050 -0.3200  0.1673  0.0419
 2063SOL    HW117648   2.536   1.691  15.093  0.2470  0.5078 -0.1638
 2063SOL    HW217649   2.421   1.693  15.011 -0.3633  1.2657 -1.6708
 2064SOL     OW17650   2.254   0.343   1.228  0.5600  0.1811 -0.2226
 2064SOL    HW117651   2.182   0.375   1.282  1.8254  0.9026  1.0366
 2064SOL    HW217652   2.326   0.350   1.291  1.7575  1.0103 -1.6690
 2065SOL     OW17653   4.687   3.920   7.618 -0.3553 -0.6051 -0.5097
 2065SOL    HW117654   0.056   3.905   7.599 -0.3653  0.6489 -1.5402
 2065SOL    HW217655   4.664   3.846   7.676 -0.0562 -0.6682 -0.4745
 2066SOL     OW17656   0.230   0.346  10.287 -0.2483  0.0990  0.4708
 2066SOL    HW117657   0.255   0.255  10.307  2.2610  1.1153  1.8876
 2066SOL    HW217658   0.185   0.357  10.371 -0.0898 -1.8764  0.8121
 2067SOL     OW17659   1.230   3.695   5.974  0.1935  0.3454 -0.3562
 2067SOL    HW117660   1.227   3.782   5.936 -1.7987  0.4217 -0.0100
 2067SOL    HW217661   1.155   3.706   6.032  1.2739 -1.5637  1.4041
 2068SOL     OW17662   4.146   1.912   6.738 -0.2323  0.1075 -0.4248
 2068SOL    HW117663   4.180   1.963   6.812 -0.2296 -0.7534  0.1816
 2068SOL    HW217664   4.084   1.965   6.690  2.1959  1.1670 -2.3941
 2069SOL     OW17665   0.070   1.400   0.815  0.1146 -0.4586 -0.4409
 2069SOL    HW117666   0.147   1.393   0.872 -1.2211  0.1741  1.4491
 2069SOL    HW217667   0.002   1.400   0.882  1.5203 -1.2199  1.0156
 2070SOL     OW17668   0.307   2.493   7.416  0.7718  0.5459  0.2264
 2070SOL    HW117669   0.233   2.545   7.444  0.7533  0.5109  0.2422
 2070SOL    HW217670   0.289   2.489   7.322  1.6749  0.6215  0.0412
 2071SOL     OW17671   1.617   0.383   9.502 -1.1336  0.1637  0.1654
 2071SOL    HW117672   1.622   0.465   9.551 -1.5488  0.4970 -0.3388
 2071SOL    HW217673   1.571   0.416   9.424 -0.0941  1.4457  0.0975
 2072SOL     OW17674   0.740   4.564   5.618  0.6428  0.0832  0.0091
 2072SOL    HW117675   0.753   4.645   5.667  2.2507 -0.0101 -0.2796
 2072SOL    HW217676   0.644   4.558   5.624  0.5609  0.6907 -0.7766
 2073SOL     OW17677   3.765   0.954   7.203  0.1113 -0.6928 -0.7725
 2073SOL    HW117678   3.729   0.970   7.290  0.8000 -0.8043 -0.4655
 2073SOL    HW217679   3.690   0.927   7.151 -0.8111  1.1262 -0.4104
 2074SOL     OW17680   0.660   1.226  15.202  0.1095  0.0708 -0.6293
 2074SOL    HW117681   0.671   1.139  15.241  0.7001  0.7418  0.6920
 2074SOL    HW217682   0.663   1.272  15.286 -0.7021  1.1738 -1.2013
 2075SOL     OW17683   4.079   1.198   8.492  0.5236  0.1392 -0.0260
 2075SOL    HW117684   4.044   1.113   8.522 -2.5208  0.5133 -2.5670
 2075SOL    HW217685   4.033   1.251   8.557  2.6004  2.3858 -0.4250
 2076SOL     OW17686   0.126   3.524  15.844 -0.0502 -0.0382 -0.3703
 2076SOL    HW117687   0.175   3.510  15.763  2.1545  1.0758  0.7822
 2076SOL    HW217688   0.041   3.481  15.833 -1.2593  2.2967 -0.1020
 2077SOL     OW17689   1.323   0.432   3.892 -0.5457  0.3520 -0.1638
 2077SOL    HW117690   1.245   0.397   3.934 -0.6422 -0.2363 -0.8408
 2077SOL    HW217691   1.378   0.354   3.899  0.6505  1.1545 -0.4653
 2078SOL     OW17692   3.066   0.964   2.592  0.2666  0.5145 -0.5994
 2078SOL    HW117693   3.066   0.893   2.656  1.0712 -1.4840 -2.8265
 2078SOL    HW217694   2.979   0.947   2.556  0.2438 -1.5774  0.4289
 2079SOL     OW17695   3.241   2.866   8.769  0.2025  0.4012 -0.7180
 2079SOL    HW117696   3.216   2.956   8.787  0.0384 -0.3486  2.8994
 2079SOL    HW217697   3.208   2.861   8.680  0.5395  2.3874 -0.9563
 2080SOL     OW17698   0.480   4.684   4.176 -0.1973 -0.0703  0.0257
 2080SOL    HW117699   0.483   4.612   4.238  0.0303 -2.1273 -2.3571
 2080SOL    HW217700   0.406   4.663   4.119 -0.6387 -0.4471  0.7404
 2081SOL     OW17701   2.492   2.851   4.617 -0.6992 -0.1352 -0.3779
 2081SOL    HW117702   2.560   2.807   4.566  2.0770  0.9708  2.3626
 2081SOL    HW217703   2.425   2.786   4.636  0.2024 -0.5047  1.5091
 2082SOL     OW17704   0.202   2.185   1.704 -0.2254  0.9285  0.3260
 2082SOL    HW117705   0.177   2.115   1.765 -1.1107  1.0727  0.1332
 2082SOL    HW217706   0.119   2.232   1.700 -0.8582 -0.3150 -1.0244
 2083SOL     OW17707   0.967   2.171  14.865  0.1735 -0.0946  0.2237
 2083SOL    HW117708   0.871   2.175  14.864  0.2688  1.8666 -1.2702
 2083SOL    HW217709   0.987   2.105  14.799  3.3307  0.2748  0.8540
 2084SOL     OW17710   0.592   2.418  15.222 -0.5177  0.0260 -0.0174
 2084SOL    HW117711   0.588   2.355  15.150 -1.5436  0.4152 -0.2968
 2084SOL    HW217712   0.519   2.391  15.278 -0.6518  2.0505  0.7877
 2085SOL     OW17713   2.569   3.873   9.618  0.3270 -0.0046 -0.1696
 2085SOL    HW117714   2.627   3.904   9.687  0.4017  1.1404 -0.7370
 2085SOL    HW217715   2.632   3.842   9.554  0.4409 -1.5253  0.6926
 2086SOL     OW17716   4.557   1.485  13.415 -0.3289  0.0477  0.3322
 2086SOL    HW117717   4.498   1.481  13.491 -0.4186 -2.5696  0.1364
 2086SOL    HW217718   4.644   1.473  13.453 -0.6143 -0.3173  0.8851
 2087SOL     OW17719   1.498   0.016   1.103 -0.0709  0.8044 -0.0776
 2087SOL    HW117720   1.565   0.080   1.127  0.2345  0.6118 -0.4129
 2087SOL    HW217721   1.430   0.081   1.090  0.2562  0.9934 -0.8550
 2088SOL     OW17722   2.922   3.975   6.998  0.4902 -0.3652 -0.0977
 2088SOL    HW117723   2.849   4.036   6.994 -0.7998 -1.8138  1.5373
 2088SOL    HW217724   2.966   4.010   6.920  0.0996 -2.3221 -1.2054
 2089SOL     OW17725   4.059   3.837  13.746  0.4619  0.0288 -0.2657
 2089SOL    HW117726   4.008   3.917  13.734  2.0526  1.1612  0.4579
 2089SOL    HW217727   3.991   3.770  13.747 -0.0071  0.5167  0.1004
 2090SOL     OW17728   0.385   4.301   5.955  0.2534 -0.2081 -0.3785
 2090SOL    HW117729   0.328   4.329   5.883 -0.9390  1.5414  1.2292
 2090SOL    HW217730   0.468   4.336   5.925 -0.0675  2.2346  1.5352
 2091SOL     OW17731   2.698   1.320  15.412  0.2602 -0.5499  0.2182
 2091SOL    HW117732   2.635   1.391  15.420 -0.6651 -1.5265  1.5111
 2091SOL    HW217733   2.660   1.260  15.476 -1.3627 -0.0330 -0.2676
 2092SOL     OW17734   1.187   1.161   1.987 -0.6238 -0.4978  0.8115
 2092SOL    HW117735   1.143   1.081   2.016 -0.0846 -0.7537  0.9268
 2092SOL    HW217736   1.264   1.161   2.045  0.3097 -3.7063 -0.4056
 2093SOL     OW17737   3.748   1.745   9.773 -0.1108  0.3317  0.1526
 2093SOL    HW117738   3.822   1.802   9.788  0.0634  0.5083 -1.4665
 2093SOL    HW217739   3.679   1.811   9.769 -1.1299 -0.8579 -1.9787
 2094SOL     OW17740   4.175   2.577   9.087  0.3715 -0.7652  0.2852
 2094SOL    HW117741   4.197   2.486   9.106 -1.8212 -1.2206  0.6570
 2094SOL    HW217742   4.126   2.593   9.168  0.2923  0.9676 -0.1085
 2095SOL     OW17743   0.377   3.763   4.089 -0.5080 -0.0945 -0.2069
 2095SOL    HW117744   0.316   3.836   4.085 -1.1938 -0.6388  0.2660
 2095SOL    HW217745   0.438   3.797   4.154 -2.7134  1.9775  0.7616
 2096SOL     OW17746   1.230   4.167   1.537 -0.2213  0.2217 -0.7227
 2096SOL    HW117747   1.164   4.235   1.548  0.4711  0.9313 -0.9038
 2096SOL    HW217748   1.280   4.168   1.619  0.9229  2.1963 -1.4194
 2097SOL     OW17749   0.750   1.221   7.577 -0.0615 -0.6041  0.1356
 2097SOL    HW117750   0.658   1.241   7.594  0.2603  0.0290  1.1376
 2097SOL    HW217751   0.785   1.297   7.623 -0.5619 -0.4994  0.3471
 2098SOL     OW17752   1.629   3.681   3.538  0.0926 -0.1910  0.0710
 2098SOL    HW117753   1.564   3.613   3.555 -1.3573  2.0571  3.5531
 2098SOL    HW217754   1.645   3.667   3.444 -1.3699  0.5915 -0.2861
 2099SOL     OW17755   4.495   0.497   9.704  0.0965  0.1215  0.5376
 2099SOL    HW117756   4.565   0.537   9.653 -0.5855  1.7936  0.9190
 2099SOL    HW217757   4.498   0.410   9.665  0.1385  0.3896 -0.0569
 2100SOL     OW17758   0.921   2.510   3.129 -0.2767  0.9205  0.2257
 2100SOL    HW117759   0.975   2.580   3.093 -2.1802  2.1064 -0.3290
 2100SOL    HW217760   0.854   2.504   3.061 -2.1751 -0.2378  2.2155
 2101SOL     OW17761   1.023   3.558   9.324 -0.0127 -0.9544 -0.5772
 2101SOL    HW117762   1.051   3.466   9.322  1.0013 -0.6481 -0.4337
 2101SOL    HW217763   0.928   3.544   9.315 -0.2029 -1.1818  1.8073
 2102SOL     OW17764   0.197   3.020   3.017 -0.7077  0.3122  0.3749
 2102SOL    HW117765   0.203   3.103   3.066  1.2954  1.5654 -2.0343
 2102SOL    HW217766   0.108   3.030   2.983 -1.4636 -2.2599  1.6056
 2103SOL     OW17767   3.552   0.861  12.422 -0.1647  0.5470  0.1748
 2103SOL    HW117768   3.485   0.907  12.472  0.1434  1.1255  0.0480
 2103SOL    HW217769   3.624   0.835  12.480  0.0887  1.9414  0.4797
 2104SOL     OW17770   3.102   1.125   8.208 -0.3127 -0.5973  0.2503
 2104SOL    HW117771   3.007   1.129   8.222 -0.4180 -0.6965 -0.4447
 2104SOL    HW217772   3.137   1.156   8.291  1.5277 -1.4859 -0.1980
 2105SOL     OW17773   0.711   3.841  13.143 -0.4687 -0.4292  0.0675
 2105SOL    HW117774   0.778   3.774  13.128 -0.2962  0.0082 -1.0937
 2105SOL    HW217775   0.770   3.912  13.171 -0.0697 -0.9049  0.4271
 2106SOL     OW17776   1.918   0.000   5.246 -0.5498 -0.4616  0.2133
 2106SOL    HW117777   1.952   0.078   5.202 -0.3119 -0.5854  0.1811
 2106SOL    HW217778   1.962   4.659   5.191 -0.1840  0.9026 -1.0804
 2107SOL     OW17779   4.593   1.730   6.605 -0.0316 -1.3083  0.9842
 2107SOL    HW117780   4.522   1.734   6.542  1.2955 -1.0183 -0.4929
 2107SOL    HW217781   4.662   1.760   6.546 -0.8747 -2.3173 -0.5158
 2108SOL     OW17782   0.988   2.066  12.446  0.3056 -0.0924  0.0511
 2108SOL    HW117783   1.048   1.997  12.418  0.3387 -0.5461  1.2637
 2108SOL    HW217784   0.999   2.072  12.541  1.4627  1.9787 -0.2112
 2109SOL     OW17785   0.449   1.652   1.946 -0.0271  0.0827 -0.3875
 2109SOL    HW117786   0.433   1.588   2.015  0.2760 -0.0726 -0.4635
 2109SOL    HW217787   0.521   1.606   1.903 -1.2854 -1.8898 -0.3800
 2110SOL     OW17788   0.152   3.440  14.171  0.0173  0.4848  0.1403
 2110SOL    HW117789   0.167   3.531  14.144 -1.7883  1.2341  1.6394
 2110SOL    HW217790   0.097   3.444  14.249  2.3085  2.9607  1.6540
 2111SOL     OW17791   1.272   0.448   5.988  0.0301  0.1971  0.8644
 2111SOL    HW117792   1.199   0.386   5.989 -0.8966  1.2698  0.4220
 2111SOL    HW217793   1.247   0.524   5.935 -0.0333 -0.9706 -0.8200
 2112SOL     OW17794   1.337   3.741   7.588 -0.0746  0.7737  0.4106
 2112SOL    HW117795   1.260   3.777   7.631 -0.7722 -0.4296  0.1525
 2112SOL    HW217796   1.327   3.781   7.502 -1.3703  1.3133  0.8205
 2113SOL     OW17797   4.337   4.248  12.403  0.5115 -0.5289  0.1609
 2113SOL    HW117798   4.372   4.328  12.364 -0.0934  1.0139  2.7714
 2113SOL    HW217799   4.251   4.279  12.431  0.6383 -1.1776  1.2272
 2114SOL     OW17800   4.417   2.056   9.364  0.6676  0.5800  0.3062
 2114SOL    HW117801   4.433   2.125   9.299  0.1574  1.2762  0.9198
 2114SOL    HW217802   4.466   2.087   9.440  0.6534 -2.3491  1.5236
 2115SOL     OW17803   4.699   3.622   7.348  0.6079  0.0091  0.3432
 2115SOL    HW117804   4.647   3.697   7.375 -0.8525  0.2517 -3.1258
 2115SOL    HW217805   4.632   3.555   7.332  1.7504 -0.6792 -1.6244
 2116SOL     OW17806   4.219   0.383  16.576 -0.6757  0.0018  0.2408
 2116SOL    HW117807   4.133   0.398  16.614  0.2360  1.9312  1.5292
 2116SOL    HW217808   4.271   0.329  16.636  1.0217  1.3256 -0.0236
 2117SOL     OW17809   2.026   3.336   4.560  0.8792  0.7650 -0.3961
 2117SOL    HW117810   2.038   3.305   4.650 -0.6425  3.2169  0.6667
 2117SOL    HW217811   2.029   3.432   4.565 -1.4781  0.8384 -0.4250
 2118SOL     OW17812   2.732   0.491   4.624 -0.8175 -0.1364 -0.2752
 2118SOL    HW117813   2.738   0.409   4.674  3.3824  0.4032  0.1243
 2118SOL    HW217814   2.807   0.487   4.564  0.1686  0.8681  0.8894
 2119SOL     OW17815   4.111   3.383   4.477  0.3886  0.0097  0.2893
 2119SOL    HW117816   4.052   3.363   4.405 -1.0797 -1.6002  1.9313
 2119SOL    HW217817   4.192   3.407   4.431  0.2882 -1.7481 -0.8130
 2120SOL     OW17818   2.276   0.317   4.606 -0.0015 -0.6852  1.0962
 2120SOL    HW117819   2.276   0.225   4.632  1.6664 -0.9549  0.2048
 2120SOL    HW217820   2.356   0.318   4.552  0.8879  2.2125  2.5061
 2121SOL     OW17821   3.846   4.242   5.144 -0.0435 -0.5038  1.1888
 2121SOL    HW117822   3.903   4.176   5.104 -0.6404 -1.7755  2.4492
 2121SOL    HW217823   3.813   4.292   5.069  1.5061  2.0853  2.2422
 2122SOL     OW17824   1.569   4.259   0.181  0.0539  0.0719  0.4659
 2122SOL    HW117825   1.645   4.222   0.137  0.4066  1.3575 -0.0121
 2122SOL    HW217826   1.593   4.265   0.273  0.4644  1.2398  0.2784
 2123SOL     OW17827   0.275   3.215   5.865 -0.2071 -0.8322  0.7612
 2123SOL    HW117828   0.279   3.256   5.952  1.3343  0.0404  0.2698
 2123SOL    HW217829   0.183   3.188   5.861 -0.2277 -0.7345  0.5942
 2124SOL     OW17830   4.289   4.478   7.244  0.0531 -0.7079 -0.4190
 2124SOL    HW117831   4.250   4.422   7.311 -0.6427 -0.8448 -0.9453
 2124SOL    HW217832   4.353   4.529   7.293 -4.0481  1.7293  2.3619
 2125SOL     OW17833   3.006   3.973  13.317 -0.6192 -0.5215 -0.3519
 2125SOL    HW117834   3.050   4.049  13.278  0.0121 -0.1327  1.1244
 2125SOL    HW217835   3.035   3.904  13.257 -2.0754 -2.0894  0.7596
 2126SOL     OW17836   1.906   2.568   0.047 -0.3663  0.1560  0.6668
 2126SOL    HW117837   1.924   2.610  17.657  1.0940  0.6899  1.2544
 2126SOL    HW217838   1.893   2.640   0.109  0.1640  1.0668 -0.2814
 2127SOL     OW17839   1.999   3.471   5.033  0.2765 -0.9558  0.0443
 2127SOL    HW117840   2.076   3.452   5.087 -0.6753  0.3043  1.8202
 2127SOL    HW217841   1.934   3.434   5.092 -0.5017  1.5414  0.7504
 2128SOL     OW17842   2.561   4.513   4.337 -0.1201  0.4244 -0.1357
 2128SOL    HW117843   2.647   4.519   4.379 -0.3984  2.1541  0.1780
 2128SOL    HW217844   2.564   4.427   4.294  1.8124  0.5573 -0.2818
 2129SOL     OW17845   2.698   3.062  14.318  0.0987 -0.0633 -0.1658
 2129SOL    HW117846   2.683   3.124  14.389 -0.5727  0.1849 -0.5224
 2129SOL    HW217847   2.607   3.042  14.295 -0.1707  1.1650 -0.1500
 2130SOL     OW17848   3.376   0.316   9.266  0.1611 -0.1700 -0.2420
 2130SOL    HW117849   3.445   0.328   9.331 -0.6804  0.8447  0.4756
 2130SOL    HW217850   3.387   0.227   9.233 -2.0087 -0.6271  0.2705
 2131SOL     OW17851   1.767   0.919   2.131  0.0708 -0.0848 -0.5612
 2131SOL    HW117852   1.834   0.919   2.063 -0.8070 -0.3783 -1.4397
 2131SOL    HW217853   1.775   1.009   2.164  0.8302 -0.5774  0.5842
 2132SOL     OW17854   2.017   3.156  11.619 -0.4383  0.2465  0.6673
 2132SOL    HW117855   1.977   3.082  11.572  0.1012  0.6828 -0.4637
 2132SOL    HW217856   1.973   3.233  11.582 -2.7878 -1.2018  0.4015
 2133SOL     OW17857   3.880   0.437   9.377  0.1206 -0.1646  0.5365
 2133SOL    HW117858   3.857   0.511   9.320 -0.4744  0.5366  1.6882
 2133SOL    HW217859   3.813   0.377   9.346  0.7949 -2.2223  3.0257
 2134SOL     OW17860   3.065   4.607   2.170 -0.0525  0.1133 -0.3349
 2134SOL    HW117861   3.152   4.641   2.192 -0.7818  1.3782  0.6136
 2134SOL    HW217862   3.054   4.648   2.085 -2.4493  0.9642  0.4033
 2135SOL     OW17863   2.377   0.072  17.664 -0.2202 -0.2321  0.0451
 2135SOL    HW117864   2.342   4.708  17.679  1.3178 -0.4436  2.4283
 2135SOL    HW217865   2.449   0.077   0.034  0.6022 -0.7597 -0.8376
 2136SOL     OW17866   1.716   2.064   3.854  0.1955 -0.5309 -0.2278
 2136SOL    HW117867   1.641   2.033   3.904  0.1644  0.1839  0.1555
 2136SOL    HW217868   1.692   2.037   3.765 -1.4889  0.3486 -0.0333
 2137SOL     OW17869   2.151   3.919   6.214 -0.5256  0.4201 -0.2411
 2137SOL    HW117870   2.191   3.896   6.130  0.9934 -1.0420  0.8725
 2137SOL    HW217871   2.218   3.878   6.268  0.5127  1.4747 -0.7313
 2138SOL     OW17872   2.779   1.571  15.962 -0.1562  0.2490 -0.1258
 2138SOL    HW117873   2.738   1.486  15.946  1.2836 -0.6888  1.1373
 2138SOL    HW217874   2.864   1.552  15.924  0.5735  1.4895  0.8967
 2139SOL     OW17875   0.142   1.915   8.469  0.3535  0.5589 -0.4146
 2139SOL    HW117876   0.078   1.947   8.533  0.1591 -1.9060  0.6254
 2139SOL    HW217877   0.185   1.995   8.439  0.4723 -0.0300 -1.7865
 2140SOL     OW17878   1.397   2.228   6.789  0.5133  0.2216 -0.3102
 2140SOL    HW117879   1.328   2.161   6.788  0.2599  0.4840 -0.2632
 2140SOL    HW217880   1.348   2.310   6.800  0.6033  0.3046 -0.5381
 2141SOL     OW17881   1.172   3.917  16.635  0.5905  0.4835 -0.2748
 2141SOL    HW117882   1.193   3.927  16.728  0.2583 -2.6365  0.1186
 2141SOL    HW217883   1.263   3.925  16.605  0.8031  1.5606  0.6267
 2142SOL     OW17884   2.243   1.392   6.838  0.5356 -0.0847  0.1162
 2142SOL    HW117885   2.181   1.448   6.790  0.4818 -0.9057 -0.7759
 2142SOL    HW217886   2.326   1.423   6.802  1.1930 -0.0193  1.6761
 2143SOL     OW17887   1.203   0.224   2.346 -0.2446  0.7767  0.2861
 2143SOL    HW117888   1.227   0.153   2.405 -0.2292  0.8716  0.3938
 2143SOL    HW217889   1.280   0.280   2.360 -1.5853  3.0642 -1.4802
 2144SOL     OW17890   2.584   1.769   2.178 -0.2505 -0.3086 -0.1523
 2144SOL    HW117891   2.593   1.750   2.085  0.6469  2.2805 -0.5717
 2144SOL    HW217892   2.498   1.727   2.188 -0.4537 -0.0991 -1.0934
 2145SOL     OW17893   2.550   1.568  15.450 -0.0167  0.6755 -0.3916
 2145SOL    HW117894   2.555   1.654  15.492 -2.2980  0.8111 -0.3699
 2145SOL    HW217895   2.457   1.572  15.427  0.2907  0.6752 -1.6117
 2146SOL     OW17896   3.761   0.057   6.572  0.3024 -0.0604  0.4784
 2146SOL    HW117897   3.852   0.038   6.553  0.5809  0.4357  1.3543
 2146SOL    HW217898   3.759   0.027   6.663  1.3357  0.6650  0.7343
 2147SOL     OW17899   2.295   3.261  12.542  0.5615  0.2698 -0.2105
 2147SOL    HW117900   2.366   3.324  12.553  1.9784 -1.3179 -0.2200
 2147SOL    HW217901   2.227   3.325  12.522  0.9773  0.5441 -0.7780
 2148SOL     OW17902   4.669   1.072   0.668  0.5113 -0.3848 -0.3833
 2148SOL    HW117903   0.032   1.090   0.629  0.5398  1.2635  0.4350
 2148SOL    HW217904   4.694   1.072   0.760  0.6743 -1.6126 -0.4284
 2149SOL     OW17905   1.923   1.922   4.588  0.4752 -0.1641  0.6041
 2149SOL    HW117906   2.005   1.968   4.607 -0.0204  0.7538  0.5153
 2149SOL    HW217907   1.948   1.841   4.633  2.7321 -0.2941 -0.8534
 2150SOL     OW17908   1.874   4.334   9.157  0.8439  0.5614 -0.1428
 2150SOL    HW117909   1.780   4.322   9.167  0.6187  3.3510  0.9110
 2150SOL    HW217910   1.884   4.395   9.230  0.7464 -2.7605  2.6382
 2151SOL     OW17911   1.898   1.209   9.054 -0.3265  0.8390  0.3300
 2151SOL    HW117912   1.919   1.118   9.036  0.1216  0.4332  2.9529
 2151SOL    HW217913   1.872   1.233   8.964 -1.3348 -0.8105  0.1842
 2152SOL     OW17914   1.052   1.608   5.112  0.5682 -0.0829 -0.2731
 2152SOL    HW117915   1.108   1.561   5.173  1.8889  1.1290 -0.5666
 2152SOL    HW217916   0.990   1.542   5.078  0.7743 -0.0482 -0.7188
 2153SOL     OW17917   1.047   4.331   2.875 -0.8729  0.6597 -0.6243
 2153SOL    HW117918   1.131   4.287   2.889 -0.9471  0.6549 -0.1954
 2153SOL    HW217919   0.984   4.275   2.920 -1.9642  1.0370 -1.6614
 2154SOL     OW17920   0.655   1.803   8.601  0.4256 -0.0804 -0.5004
 2154SOL    HW117921   0.560   1.814   8.591  0.1405 -1.2869  0.8441
 2154SOL    HW217922   0.663   1.832   8.692  0.5534  1.3708 -0.9779
 2155SOL     OW17923   4.549   4.495   3.876  1.2454 -0.4080  0.2663
 2155SOL    HW117924   4.579   4.467   3.789 -1.5201 -0.0590 -0.7889
 2155SOL    HW217925   4.494   4.420   3.897  1.0248 -0.3288 -0.0340
 2156SOL     OW17926   1.328   1.412   3.246  0.2147 -0.3168  0.2905
 2156SOL    HW117927   1.344   1.389   3.154  0.4115  1.3273 -0.0870
 2156SOL    HW217928   1.245   1.365   3.258 -0.8949  1.3824 -0.7242
 2157SOL     OW17929   0.003   4.423   8.023 -0.4312 -0.3126 -0.2220
 2157SOL    HW117930   0.067   4.477   7.977  1.7436 -1.2590  1.7242
 2157SOL    HW217931   0.024   4.445   8.113  2.2175  0.3751 -1.0177
 2158SOL     OW17932   3.680   2.936   9.244 -0.4463  0.5586  0.1291
 2158SOL    HW117933   3.723   2.998   9.303  1.9521 -1.5046  0.5547
 2158SOL    HW217934   3.712   2.852   9.276  0.0284  2.0031  3.4258
 2159SOL     OW17935   1.853   1.237  13.523 -0.1654 -0.0111 -0.3913
 2159SOL    HW117936   1.893   1.203  13.443  0.7168 -1.3786  0.6326
 2159SOL    HW217937   1.772   1.187  13.529  0.7489 -1.7068 -2.1963
 2160SOL     OW17938   1.592   0.995  16.246  0.6422  0.3335  0.0972
 2160SOL    HW117939   1.584   1.011  16.340  1.0847 -0.8256  0.3314
 2160SOL    HW217940   1.643   0.914  16.253  1.8933  1.1120  0.0044
 2161SOL     OW17941   0.566   2.212   7.413 -0.5078  0.0758 -0.4506
 2161SOL    HW117942   0.520   2.295   7.402 -0.0285  0.5709  1.2667
 2161SOL    HW217943   0.562   2.194   7.507  0.4014 -1.3379 -0.6780
 2162SOL     OW17944   0.986   3.481   6.072  0.4356  0.1097 -0.5562
 2162SOL    HW117945   1.002   3.573   6.093 -1.9355  0.3178  0.3533
 2162SOL    HW217946   0.934   3.489   5.992 -1.1889 -2.9389  0.1689
 2163SOL     OW17947   3.653   0.367   5.223 -0.6481  0.0888 -0.1010
 2163SOL    HW117948   3.638   0.428   5.295 -2.8410 -1.3393  0.6563
 2163SOL    HW217949   3.651   0.277   5.255  2.3047 -0.5744 -1.7598
 2164SOL     OW17950   2.809   4.365   5.777  0.6024  0.0931 -0.2242
 2164SOL    HW117951   2.902   4.352   5.797  1.3159  2.4119 -2.0738
 2164SOL    HW217952   2.793   4.447   5.823  1.5433  0.0970  0.1022
 2165SOL     OW17953   2.649   1.611   8.746  0.1078 -0.4357 -0.1862
 2165SOL    HW117954   2.568   1.645   8.785  0.0809 -1.5137  0.6918
 2165SOL    HW217955   2.613   1.582   8.662 -0.2367  1.2081 -0.6100
 2166SOL     OW17956   0.072   1.960   4.478 -0.2944 -0.5482 -0.5047
 2166SOL    HW117957   0.130   2.009   4.535 -2.1470  1.4582 -0.3714
 2166SOL    HW217958   4.720   1.948   4.537  0.9910  0.2119  1.2653
 2167SOL     OW17959   2.452   1.191   4.842  0.4244  0.5056 -0.5268
 2167SOL    HW117960   2.430   1.276   4.803  0.3919  0.2366 -1.0889
 2167SOL    HW217961   2.455   1.206   4.937 -1.9230  0.5126 -0.4346
 2168SOL     OW17962   1.139   3.513   9.591 -0.3161  0.3602 -0.0541
 2168SOL    HW117963   1.215   3.486   9.539  2.1430  3.3550  1.9698
 2168SOL    HW217964   1.089   3.544   9.515  0.0236  0.5096 -0.2161
 2169SOL     OW17965   2.596   0.563   8.114 -0.5685  0.7562 -0.3607
 2169SOL    HW117966   2.677   0.614   8.120  0.8461 -1.5114 -0.0079
 2169SOL    HW217967   2.630   0.484   8.073 -1.8598 -0.4022  0.7923
 2170SOL     OW17968   2.049   3.304   7.155  0.4061 -0.3407 -0.4438
 2170SOL    HW117969   2.042   3.209   7.156 -3.2824 -0.0801 -0.9939
 2170SOL    HW217970   2.109   3.319   7.082  2.2756  0.8906  1.3427
 2171SOL     OW17971   1.656   0.934   3.589  0.0278 -0.3799 -0.3973
 2171SOL    HW117972   1.681   0.998   3.523 -0.3753 -1.6969 -1.8304
 2171SOL    HW217973   1.644   0.849   3.546 -1.3341  0.6043 -1.9249
 2172SOL     OW17974   1.679   0.071   1.652  0.5273  0.5276 -0.2086
 2172SOL    HW117975   1.731   0.119   1.588  0.9746  0.4832  0.1202
 2172SOL    HW217976   1.590   0.077   1.616  0.2860 -0.8090  0.1541
 2173SOL     OW17977   1.506   0.315   0.923 -0.0024 -0.1966 -0.4832
 2173SOL    HW117978   1.435   0.278   0.977  0.1166 -0.0461 -0.2222
 2173SOL    HW217979   1.498   0.405   0.955  0.0666 -1.0862  2.0727
 2174SOL     OW17980   4.385   0.294   5.654  0.0035 -0.3074  0.6948
 2174SOL    HW117981   4.413   0.385   5.665  2.3839 -1.1019  1.0498
 2174SOL    HW217982   4.451   0.248   5.602 -0.7077 -1.5099  0.8710
 2175SOL     OW17983   2.015   3.252   9.965 -0.0729  0.0418  0.0155
 2175SOL    HW117984   2.076   3.222   9.899  0.0619 -0.8838  0.5619
 2175SOL    HW217985   2.044   3.339   9.990  0.1583 -0.2222  0.6805
 2176SOL     OW17986   1.204   0.366  15.219 -0.3395  0.2585  0.3754
 2176SOL    HW117987   1.186   0.278  15.253 -0.0573 -0.3553 -1.0716
 2176SOL    HW217988   1.180   0.405  15.303 -2.5155  1.3224 -0.7404
 2177SOL     OW17989   3.156   4.309   3.876  0.0516 -0.1625  0.2329
 2177SOL    HW117990   3.198   4.254   3.942 -1.0355 -1.0089  0.2185
 2177SOL    HW217991   3.069   4.317   3.915  0.4254  0.6085  0.9093
 2178SOL     OW17992   2.211   4.008   7.437 -0.7637  0.5131  0.0862
 2178SOL    HW117993   2.281   4.005   7.501 -1.0794 -0.6860  0.3718
 2178SOL    HW217994   2.193   3.917   7.415  2.8278 -0.2582  0.3931
 2179SOL     OW17995   1.005   3.032  11.956  0.0630 -0.5063  0.2361
 2179SOL    HW117996   1.077   3.080  11.916  0.1484 -0.2970  0.6524
 2179SOL    HW217997   1.042   2.945  11.938 -0.3411 -0.9678  1.6675
 2180SOL     OW17998   2.704   2.637  14.825 -0.4430 -0.3429  0.3499
 2180SOL    HW117999   2.747   2.561  14.863  0.4436 -0.7355 -1.4346
 2180SOL    HW218000   2.681   2.598  14.741 -0.4273  0.0279  0.1709
 2181SOL     OW18001   1.656   4.368  10.129 -0.3573  0.4720  0.2335
 2181SOL    HW118002   1.742   4.392  10.165  0.1298 -0.2648 -0.4469
 2181SOL    HW218003   1.661   4.277  10.101 -1.1416  0.9679 -1.4986
 2182SOL     OW18004   4.562   2.521   8.926  0.1819  0.4841 -0.1290
 2182SOL    HW118005   4.581   2.562   8.842  2.4455  0.9438  0.5976
 2182SOL    HW218006   4.500   2.580   8.967 -0.2794  1.3876 -2.1269
 2183SOL     OW18007   0.202   1.565   6.568 -0.6176 -0.0835 -0.3996
 2183SOL    HW118008   0.248   1.520   6.498 -2.1935 -1.8960 -0.2705
 2183SOL    HW218009   0.156   1.628   6.513  1.4090  2.9508  1.3956
 2184SOL     OW18010   0.309   3.384   3.769  0.0063  0.2305  0.1469
 2184SOL    HW118011   0.268   3.359   3.851 -0.3711 -1.5395 -0.5681
 2184SOL    HW218012   0.359   3.463   3.788 -0.4453  0.8423 -1.1944
 2185SOL     OW18013   2.209   1.802   8.808  1.0172  0.6822  0.5459
 2185SOL    HW118014   2.146   1.729   8.808  1.9913 -0.1579  1.0519
 2185SOL    HW218015   2.164   1.861   8.868 -0.0606 -0.8692  1.2932
 2186SOL     OW18016   0.587   1.585   4.333  0.2516 -0.0420  0.1458
 2186SOL    HW118017   0.537   1.583   4.415 -0.6620  0.1176 -0.4021
 2186SOL    HW218018   0.602   1.490   4.328  1.5283  0.1906 -0.2847
 2187SOL     OW18019   1.418   1.840   7.875 -0.3023  0.1998  0.1817
 2187SOL    HW118020   1.500   1.860   7.920  0.7618 -0.4229 -1.4990
 2187SOL    HW218021   1.453   1.800   7.796 -0.8537 -0.1437  0.1117
 2188SOL     OW18022   2.828   2.472   2.601  0.7829  0.1419  0.2952
 2188SOL    HW118023   2.887   2.531   2.555 -1.9493  2.5760 -0.0987
 2188SOL    HW218024   2.864   2.434   2.681 -0.5319  0.6333  1.1209
 2189SOL     OW18025   2.241   0.471   2.826  0.1689 -0.5385 -0.2184
 2189SOL    HW118026   2.326   0.497   2.861 -0.8102  2.4106  0.0062
 2189SOL    HW218027   2.234   0.538   2.759  1.0889  1.2997  1.5160
 2190SOL     OW18028   2.925   1.803  15.497 -0.5462 -0.2112 -0.1492
 2190SOL    HW118029   3.018   1.798  15.518 -0.1894 -3.1671 -2.4397
 2190SOL    HW218030   2.900   1.716  15.528 -1.4943  0.4786  1.0739
 2191SOL     OW18031   4.544   3.785   7.137 -0.3192 -0.1093 -0.6519
 2191SOL    HW118032   4.631   3.747   7.139 -0.2337  0.0726 -0.8548
 2191SOL    HW218033   4.540   3.839   7.216  2.4733  0.8462 -1.1588
 2192SOL     OW18034   3.712   1.882  16.874 -0.0836 -0.0429  0.7863
 2192SOL    HW118035   3.618   1.895  16.865 -0.2489 -3.1705 -1.8169
 2192SOL    HW218036   3.755   1.885  16.789 -0.2606 -0.0723  0.6958
 2193SOL     OW18037   1.924   1.592   6.910  0.3261  0.2634  0.0801
 2193SOL    HW118038   1.879   1.508   6.912 -1.9367  1.4841  0.5355
 2193SOL    HW218039   1.938   1.610   7.003 -1.3908 -0.7561  0.5364
 2194SOL     OW18040   2.983   3.847  17.505  0.0136 -0.2091 -0.2890
 2194SOL    HW118041   2.903   3.801  17.530  0.2728  0.5559  1.9008
 2194SOL    HW218042   2.941   3.920  17.459 -0.7847  0.5214  1.5936
 2195SOL     OW18043   2.571   2.183   3.514  0.1770  0.0911  0.0294
 2195SOL    HW118044   2.499   2.232   3.555  3.5007  5.3730 -0.3921
 2195SOL    HW218045   2.521   2.120   3.462  1.8025 -1.4778  0.3874
 2196SOL     OW18046   1.934   2.724  17.530 -0.0207  0.1173  0.5847
 2196SOL    HW118047   1.971   2.651  17.480 -0.5197 -1.4762  2.5757
 2196SOL    HW218048   1.843   2.728  17.501  0.8940 -1.5369 -2.5335
 2197SOL     OW18049   4.722   2.757   6.755  0.2829  0.0231 -0.5146
 2197SOL    HW118050   0.071   2.775   6.815  1.6489 -3.0929 -1.2339
 2197SOL    HW218051   0.004   2.661   6.759 -0.6320  0.1332  3.0041
 2198SOL     OW18052   2.706   2.640   5.197 -0.3396  0.6432 -0.4181
 2198SOL    HW118053   2.664   2.705   5.141  2.6328  2.8938 -0.0163
 2198SOL    HW218054   2.789   2.681   5.220  0.7896 -0.7622 -1.9737
 2199SOL     OW18055   0.309   0.221   8.028  0.3415 -0.6887 -0.8322
 2199SOL    HW118056   0.344   0.160   7.963 -0.2123 -0.6215 -1.1847
 2199SOL    HW218057   0.356   0.186   8.104 -0.5096 -0.6055 -0.2638
 2200SOL     OW18058   0.432   3.398  14.529 -0.2360  0.2104 -0.5753
 2200SOL    HW118059   0.459   3.356  14.611 -2.8313 -0.5027 -0.0982
 2200SOL    HW218060   0.519   3.433  14.509 -0.6043  0.6558 -1.3503
 2201SOL     OW18061   3.105   3.585   3.526  0.4195 -0.3973  0.1221
 2201SOL    HW118062   3.024   3.603   3.574  0.4311  1.3582 -0.5436
 2201SOL    HW218063   3.147   3.521   3.584 -0.1021 -0.0520  0.8712
 2202SOL     OW18064   0.087   3.434   3.344 -0.4390  0.3883 -0.5382
 2202SOL    HW118065   0.077   3.339   3.346 -0.5060  0.3768 -1.2800
 2202SOL    HW218066   0.070   3.455   3.252  3.2130 -1.6316 -1.6769
 2203SOL     OW18067   2.540   2.701   5.490 -0.1739  0.1803 -0.4459
 2203SOL    HW118068   2.588   2.772   5.532  1.5231 -1.1919 -0.0479
 2203SOL    HW218069   2.609   2.643   5.458 -3.2419 -1.6781 -3.7525
 2204SOL     OW18070   2.262   2.947   9.118 -0.7332  0.2094 -0.4841
 2204SOL    HW118071   2.170   2.920   9.120 -0.3473 -1.3526 -3.0687
 2204SOL    HW218072   2.292   2.902   9.196 -1.2770  1.2262  0.3047
 2205SOL     OW18073   3.805   4.407   3.333 -0.1917 -0.1922  0.0656
 2205SOL    HW118074   3.750   4.337   3.300 -0.5739  0.3926 -0.5459
 2205SOL    HW218075   3.853   4.358   3.400  0.5070  0.3774 -0.0115
 2206SOL     OW18076   1.114   4.366   8.618 -0.0074 -0.2867 -0.2859
 2206SOL    HW118077   1.143   4.417   8.694  0.1010 -0.7772  0.0007
 2206SOL    HW218078   1.172   4.291   8.614  1.0061  0.5530 -1.2089
 2207SOL     OW18079   3.596   2.038   9.395  0.1327  0.7313  0.1704
 2207SOL    HW118080   3.678   2.083   9.375  1.1630 -0.4559  1.6897
 2207SOL    HW218081   3.584   2.067   9.486  0.8743 -0.1232  0.5450
 2208SOL     OW18082   0.867   1.902   0.661  0.0921 -0.0245 -0.2109
 2208SOL    HW118083   0.956   1.910   0.627  0.0264  1.1214 -0.1215
 2208SOL    HW218084   0.809   1.902   0.584 -1.3945  0.7788  0.8980
 2209SOL     OW18085   0.793   0.039   4.770 -0.2741  0.1054  0.3189
 2209SOL    HW118086   0.744   0.108   4.725  1.8699 -0.5927 -3.0531
 2209SOL    HW218087   0.741   4.687   4.740 -2.9337  1.7183  0.9169
 2210SOL     OW18088   0.666   0.409   6.864  0.1282  0.0188 -0.0394
 2210SOL    HW118089   0.693   0.317   6.864 -1.4441 -0.4661 -1.3970
 2210SOL    HW218090   0.684   0.429   6.955 -1.5511  0.6735  0.1506
 2211SOL     OW18091   3.277   0.937  14.700 -0.0388  0.4504  0.1082
 2211SOL    HW118092   3.246   0.997  14.768 -0.1351 -0.7427  1.1298
 2211SOL    HW218093   3.347   0.984  14.654  0.0245  0.9900  0.7553
 2212SOL     OW18094   4.084   2.838  17.692 -0.3800  0.1873 -0.2259
 2212SOL    HW118095   4.140   2.899   0.047 -0.2082 -0.0537 -0.1273
 2212SOL    HW218096   4.033   2.803   0.071  0.1212  0.0265  0.0388
 2213SOL     OW18097   4.271   2.364   7.605  0.2751 -0.3689  0.4463
 2213SOL    HW118098   4.310   2.451   7.602 -2.2407  0.6675 -1.3962
 2213SOL    HW218099   4.346   2.314   7.639  0.2011 -1.2230 -0.6797
 2214SOL     OW18100   0.712   4.705  10.580  0.3445 -0.1886  0.5596
 2214SOL    HW118101   0.794   4.693  10.628  1.4609  1.8061 -0.8240
 2214SOL    HW218102   0.742   0.051  10.520 -1.4636 -0.6707 -0.8636
 2215SOL     OW18103   2.649   3.830   6.472 -0.0164 -0.3639 -0.1697
 2215SOL    HW118104   2.739   3.845   6.502  0.2032 -3.8798  0.8842
 2215SOL    HW218105   2.641   3.879   6.390  0.1147 -0.7565 -0.4144
 2216SOL     OW18106   1.498   1.950   3.371 -0.3370  0.1605 -0.2330
 2216SOL    HW118107   1.407   1.929   3.350 -0.9225  2.7709 -0.2066
 2216SOL    HW218108   1.535   1.861   3.366 -0.7260  0.0991 -1.9307
 2217SOL     OW18109   0.701   4.584   7.769 -0.0842  0.2754  0.9938
 2217SOL    HW118110   0.695   4.637   7.849  1.1536 -0.0071  1.2754
 2217SOL    HW218111   0.730   4.501   7.809  2.9136 -1.1593 -4.1538
 2218SOL     OW18112   1.645   4.037   8.135  0.0183  0.0571  0.4690
 2218SOL    HW118113   1.728   4.083   8.122  0.6452 -1.4521 -0.9057
 2218SOL    HW218114   1.581   4.105   8.119  0.7359  0.6414  0.0854
 2219SOL     OW18115   2.689   2.670   6.817 -0.2121  0.2351 -0.0569
 2219SOL    HW118116   2.637   2.590   6.820  0.3715 -0.1182  0.8277
 2219SOL    HW218117   2.713   2.671   6.910 -2.1394  0.2079  0.4272
 2220SOL     OW18118   0.144   1.304  11.099 -0.7087  0.4809 -0.2210
 2220SOL    HW118119   0.082   1.328  11.030 -1.1043  0.3857  0.1037
 2220SOL    HW218120   0.108   1.359  11.168 -0.4600 -1.1705  1.2185
 2221SOL     OW18121   0.230   3.317  13.265  0.0636  0.3735 -0.4101
 2221SOL    HW118122   0.308   3.319  13.321 -0.0705 -1.2111 -0.1548
 2221SOL    HW218123   0.201   3.408  13.263  1.3127  0.7562 -1.0457
 2222SOL     OW18124   1.973   0.191   3.883 -0.5938 -0.1515  0.4032
 2222SOL    HW118125   2.047   0.222   3.830 -1.6905 -0.5156 -1.3229
 2222SOL    HW218126   1.975   0.254   3.954 -0.7891  1.1930 -0.7792
 2223SOL     OW18127   2.725   4.422   5.180  0.0727 -0.2283  0.4338
 2223SOL    HW118128   2.773   4.343   5.157  1.7451  0.3266  2.0644
 2223SOL    HW218129   2.733   4.478   5.102  1.2289  1.7499  1.9946
 2224SOL     OW18130   3.959   3.621   7.444 -0.5415 -0.0463  0.4627
 2224SOL    HW118131   3.905   3.604   7.367  0.3480 -0.1623 -0.1402
 2224SOL    HW218132   4.043   3.659   7.417 -1.1979  1.5491  0.6458
 2225SOL     OW18133   3.921   2.418  12.129  0.5391  0.5717 -0.2417
 2225SOL    HW118134   4.001   2.389  12.085  0.3677 -0.0203 -0.1706
 2225SOL    HW218135   3.951   2.449  12.215  0.4152 -2.0695  0.7658
 2226SOL     OW18136   3.942   1.536   3.052  0.1683 -0.4684  0.2291
 2226SOL    HW118137   3.937   1.460   3.109 -2.0181 -1.6674 -1.5679
 2226SOL    HW218138   3.863   1.585   3.073 -1.0390 -2.0973 -0.4997
 2227SOL     OW18139   0.614   4.373   4.073  0.2522 -0.4768 -0.1525
 2227SOL    HW118140   0.532   4.416   4.048 -0.0475 -0.0744  1.5191
 2227SOL    HW218141   0.677   4.440   4.048  0.9597 -0.9621  0.3433
 2228SOL     OW18142   4.261   2.947   3.742 -0.4614  0.0555 -0.8647
 2228SOL    HW118143   4.183   2.948   3.687 -1.0364 -0.7174 -0.0582
 2228SOL    HW218144   4.323   2.977   3.675  1.0344 -0.9180  0.0955
 2229SOL     OW18145   2.618   2.034   5.345 -0.7114  0.2146  0.2460
 2229SOL    HW118146   2.674   2.016   5.270  1.6417  3.1933  1.2797
 2229SOL    HW218147   2.685   2.048   5.412  0.3646 -0.8717 -0.5937
 2230SOL     OW18148   1.316   0.045   4.434 -0.0118  0.3846 -0.0743
 2230SOL    HW118149   1.325   4.713   4.511  0.4879 -0.4616 -0.7402
 2230SOL    HW218150   1.253   0.114   4.456 -1.3270 -0.9164  0.2343
 2231SOL     OW18151   0.294   4.689   1.898  0.5571  0.1336  0.3243
 2231SOL    HW118152   0.295   4.701   1.803 -0.0953 -0.7398  0.2030
 2231SOL    HW218153   0.386   4.665   1.908 -0.0354 -2.1925  0.1795
 2232SOL     OW18154   1.235   0.838  11.090  0.2337  0.7493  0.0923
 2232SOL    HW118155   1.241   0.867  10.999 -2.4646  0.0193 -0.3079
 2232SOL    HW218156   1.215   0.921  11.132  2.1114  0.3832  1.6973
 2233SOL     OW18157   0.061   0.761   3.351 -0.1108 -0.0053 -0.0744
 2233SOL    HW118158   0.018   0.797   3.430  0.1256  0.8154 -0.3137
 2233SOL    HW218159   0.135   0.714   3.388  1.3504  0.9713 -1.7417
 2234SOL     OW18160   1.520   1.748   7.634 -0.5752 -0.6603  0.7819
 2234SOL    HW118161   1.586   1.818   7.641 -0.2435 -0.8965  0.0195
 2234SOL    HW218162   1.569   1.667   7.650 -1.8300 -1.5915 -0.2011
 2235SOL     OW18163   0.895   1.378   6.193 -0.5021  0.2109  0.2300
 2235SOL    HW118164   0.828   1.361   6.127 -1.4872  1.9230  0.8152
 2235SOL    HW218165   0.861   1.330   6.268 -0.8051  1.0564  0.6347
 2236SOL     OW18166   1.223   3.442   4.440 -0.0651  0.6136  0.5669
 2236SOL    HW118167   1.296   3.490   4.478 -0.3686  0.7752  0.9478
 2236SOL    HW218168   1.257   3.436   4.351  1.9375 -0.9608  1.4359
 2237SOL     OW18169   2.127   2.217  16.460 -0.5689  0.1999  0.1981
 2237SOL    HW118170   2.071   2.167  16.518  0.0476  0.7429  1.2521
 2237SOL    HW218171   2.167   2.276  16.524 -1.5398  2.3432 -1.1450
 2238SOL     OW18172   4.532   1.237   6.845  0.0261  0.3236 -0.5292
 2238SOL    HW118173   4.498   1.315   6.888  0.3679  0.8314 -1.1791
 2238SOL    HW218174   4.469   1.166   6.853 -0.4929  0.7833 -0.5296
 2239SOL     OW18175   3.736   1.646  13.724 -0.2326 -0.0391 -0.1538
 2239SOL    HW118176   3.737   1.552  13.704  1.0916  0.7002 -3.6116
 2239SOL    HW218177   3.778   1.670  13.641 -1.3997  1.4448 -0.3233
 2240SOL     OW18178   0.935   1.636   9.678  0.3380  0.1239  0.4137
 2240SOL    HW118179   0.983   1.701   9.730 -0.8270  0.1977  1.3873
 2240SOL    HW218180   0.996   1.603   9.612 -1.7156 -1.3374 -0.7620
 2241SOL     OW18181   2.810   4.720   2.241  0.6137  0.0339  0.3360
 2241SOL    HW118182   2.890   4.668   2.237  0.0137 -0.7738 -1.4859
 2241SOL    HW218183   2.828   0.070   2.181 -1.9638  1.6187  1.4803
 2242SOL     OW18184   4.579   0.213   5.467  0.0114 -0.2056 -0.2733
 2242SOL    HW118185   4.566   0.123   5.437 -0.2348  0.1015 -1.0968
 2242SOL    HW218186   4.522   0.269   5.414 -0.8685 -1.4602 -0.6347
 2243SOL     OW18187   3.301   0.159   6.464  0.1041  0.1614 -0.0433
 2243SOL    HW118188   3.356   0.216   6.517  1.7254  0.7455 -2.3458
 2243SOL    HW218189   3.349   0.114   6.394  0.7585  0.2370  0.3565
 2244SOL     OW18190   3.604   2.347   2.140 -0.2498 -0.1201  0.1867
 2244SOL    HW118191   3.602   2.290   2.217 -0.9313 -3.1413 -2.0760
 2244SOL    HW218192   3.625   2.284   2.071 -1.2669  2.4092 -2.4529
 2245SOL     OW18193   2.542   3.693   2.802  0.4031 -0.8032  0.0843
 2245SOL    HW118194   2.460   3.711   2.847  0.8143 -0.1146  0.5552
 2245SOL    HW218195   2.586   3.645   2.873 -0.3030  1.0168  1.7645
 2246SOL     OW18196   2.820   2.433   1.541 -0.2700 -0.5077 -0.4507
 2246SOL    HW118197   2.731   2.467   1.550  0.0009 -0.2933  1.3928
 2246SOL    HW218198   2.862   2.509   1.503 -0.4121  0.3192  1.0385
 2247SOL     OW18199   2.683   4.120  13.657 -0.0147  0.5556  0.1928
 2247SOL    HW118200   2.742   4.052  13.625  0.4644  1.2240 -0.3261
 2247SOL    HW218201   2.724   4.199  13.625  0.4619  0.8525  1.5452
 2248SOL     OW18202   0.600   3.126  15.066  0.1408 -0.2371  0.6960
 2248SOL    HW118203   0.590   3.042  15.022  0.9231  0.0871 -0.0888
 2248SOL    HW218204   0.526   3.118  15.126  1.0960  0.8977  2.0243
 2249SOL     OW18205   3.089   3.934   2.090  0.3947 -0.1727  0.1474
 2249SOL    HW118206   3.010   3.891   2.125 -0.4113  0.5539 -0.7836
 2249SOL    HW218207   3.150   3.861   2.078  1.2217  0.5334  0.0892
 2250SOL     OW18208   3.057   4.058  11.382  0.0717 -0.3523  0.4004
 2250SOL    HW118209   2.998   4.037  11.310  0.2807 -0.1512  0.1714
 2250SOL    HW218210   3.093   3.971  11.398  3.2267  1.0882  1.0826
 2251SOL     OW18211   3.802   3.269  11.500 -0.2497 -0.1061 -0.2321
 2251SOL    HW118212   3.727   3.211  11.515  0.6899 -1.5527 -1.1904
 2251SOL    HW218213   3.762   3.352  11.525  2.3667  0.6632  1.4063
 2252SOL     OW18214   0.216   2.736   7.175  0.1047  0.1561  0.2648
 2252SOL    HW118215   0.217   2.733   7.079 -1.9053 -0.4955  0.2641
 2252SOL    HW218216   0.198   2.829   7.190  0.0094 -0.3215  3.0086
 2253SOL     OW18217   3.866   4.535   1.356 -0.3529  0.3072  0.6330
 2253SOL    HW118218   3.949   4.498   1.388  0.3842  0.8716 -0.6060
 2253SOL    HW218219   3.854   4.489   1.273  0.4563 -0.2550  0.8249
 2254SOL     OW18220   3.008   1.424   6.579  0.1653 -0.0986  0.5747
 2254SOL    HW118221   3.067   1.388   6.513 -1.1173 -0.5046 -0.3425
 2254SOL    HW218222   3.048   1.506   6.609  1.1241  0.0116 -1.0013
 2255SOL     OW18223   3.335   0.187   7.573  0.1634  0.2019 -0.4877
 2255SOL    HW118224   3.381   0.244   7.512  0.0498  0.4402 -0.3501
 2255SOL    HW218225   3.328   0.237   7.655 -0.8454 -1.7731  0.6543
 2256SOL     OW18226   4.124   0.490   5.590 -0.0114 -0.1605  0.1004
 2256SOL    HW118227   4.203   0.542   5.606 -0.7442  1.1024 -0.3272
 2256SOL    HW218228   4.171   0.412   5.561  1.4366  0.0823  1.8175
 2257SOL     OW18229   2.027   3.663   0.212 -0.2544  1.1753  0.0512
 2257SOL    HW118230   1.983   3.579   0.220  0.8785  0.4211 -1.7169
 2257SOL    HW218231   2.119   3.638   0.220 -0.9070 -0.9298  1.0094
 2258SOL     OW18232   2.842   1.221   5.433  0.6313  0.5902  0.5668
 2258SOL    HW118233   2.821   1.252   5.345  0.0224  1.2497  0.9424
 2258SOL    HW218234   2.919   1.274   5.454  0.5563  1.5677 -1.6394
 2259SOL     OW18235   2.514   0.314   1.727  0.3011  0.6798  0.1199
 2259SOL    HW118236   2.463   0.301   1.807  2.0543 -0.7318  1.0223
 2259SOL    HW218237   2.538   0.406   1.720 -1.0276  0.9842 -0.4446
 2260SOL     OW18238   3.530   4.219   3.852 -0.2270 -0.3036  0.4064
 2260SOL    HW118239   3.545   4.154   3.921  0.9171  1.4558  1.8038
 2260SOL    HW218240   3.549   4.305   3.890  2.0706  0.1753 -1.8298
 2261SOL     OW18241   1.791   3.824   0.251 -0.0511  0.7495 -0.6931
 2261SOL    HW118242   1.880   3.791   0.257  0.3276  1.9158  0.1758
 2261SOL    HW218243   1.735   3.747   0.260 -1.6816  1.9227 -0.5899
 2262SOL     OW18244   3.662   3.232  14.746  0.3333  0.8144  0.0017
 2262SOL    HW118245   3.717   3.195  14.677  1.1279  2.0296 -0.0108
 2262SOL    HW218246   3.705   3.211  14.828  1.3956  0.2171 -0.7082
 2263SOL     OW18247   2.947   0.359   1.990 -0.5523 -0.3280 -0.1398
 2263SOL    HW118248   2.915   0.269   1.981 -1.7024  0.0026  0.7415
 2263SOL    HW218249   3.021   0.359   1.929 -0.9356 -4.1426 -0.6189
 2264SOL     OW18250   2.938   0.350   4.447 -0.5206  0.4961 -0.0096
 2264SOL    HW118251   2.998   0.322   4.378 -0.2971 -1.3803  0.9719
 2264SOL    HW218252   2.860   0.308   4.411 -1.5255  1.1374  1.4067
 2265SOL     OW18253   0.555   0.732   0.149  0.4029  0.4128 -0.1026
 2265SOL    HW118254   0.613   0.682   0.206 -0.2267 -1.4014 -1.0809
 2265SOL    HW218255   0.515   0.793   0.212  0.7470 -0.7917  1.2852
 2266SOL     OW18256   0.764   1.826  14.585 -0.0492  0.0691 -0.6368
 2266SOL    HW118257   0.749   1.872  14.668  0.0906  1.0297 -1.1373
 2266SOL    HW218258   0.705   1.751  14.588  1.9366 -1.2871  3.5888
 2267SOL     OW18259   3.955   2.567   7.168 -0.0987 -0.1147  0.4158
 2267SOL    HW118260   4.019   2.512   7.213  1.6400  0.8606 -0.8526
 2267SOL    HW218261   3.956   2.536   7.077 -1.7060 -2.0490  1.0644
 2268SOL     OW18262   1.976   4.461   7.883  0.1407 -0.0942 -0.4067
 2268SOL    HW118263   1.886   4.430   7.878 -0.1084  0.8614 -1.7699
 2268SOL    HW218264   2.002   4.455   7.975 -1.5290 -0.5052  0.0399
 2269SOL     OW18265   2.168   0.875  15.801  0.1849 -1.6484 -0.2780
 2269SOL    HW118266   2.192   0.911  15.887 -0.7647 -2.4314  0.3098
 2269SOL    HW218267   2.105   0.812  15.835  0.0465 -1.2683  0.1660
 2270SOL     OW18268   0.344   3.024  11.823  0.2756 -0.3000  0.8578
 2270SOL    HW118269   0.411   3.091  11.812  0.9723 -1.1378 -0.0201
 2270SOL    HW218270   0.267   3.058  11.778  1.3654 -0.0759 -0.8402
 2271SOL     OW18271   3.799   0.000   8.215 -0.0715  0.1757 -0.4019
 2271SOL    HW118272   3.893   4.722   8.228  0.0814  0.0328 -1.5009
 2271SOL    HW218273   3.774   0.083   8.255 -1.7357 -1.4706  1.9286
 2272SOL     OW18274   2.600   3.271   7.581 -0.2700  0.4175  0.4858
 2272SOL    HW118275   2.680   3.276   7.530 -0.2498  0.9536  0.5791
 2272SOL    HW218276   2.597   3.364   7.600  1.1030  0.7799 -1.1756
 2273SOL     OW18277   0.865   0.001  16.534 -0.4659 -0.1904 -0.3730
 2273SOL    HW118278   0.850   4.659  16.465 -2.9496 -0.7270  0.6666
 2273SOL    HW218279   0.957   4.714  16.557 -0.3088  0.3158 -0.7705
 2274SOL     OW18280   3.714   3.640  10.583 -0.1251  0.4179  0.0853
 2274SOL    HW118281   3.630   3.674  10.612 -0.1976  1.4834 -1.4089
 2274SOL    HW218282   3.741   3.713  10.528  0.0264  0.0958 -0.2757
 2275SOL     OW18283   1.758   3.669   4.280 -0.3076 -0.2023 -0.5121
 2275SOL    HW118284   1.775   3.673   4.186 -3.6442  0.4805 -1.1158
 2275SOL    HW218285   1.817   3.599   4.307  4.1277  3.1197 -1.6500
 2276SOL     OW18286   0.716   2.064  13.142  0.1969 -0.2315 -0.4764
 2276SOL    HW118287   0.635   2.039  13.185 -0.0822  1.1285 -0.2259
 2276SOL    HW218288   0.763   2.111  13.211  0.2479  0.1246 -0.7543
 2277SOL     OW18289   1.552   4.273   8.747  0.0373  0.5079 -0.2251
 2277SOL    HW118290   1.550   4.177   8.738 -1.3844  0.4140  1.0223
 2277SOL    HW218291   1.602   4.301   8.670  0.1855 -1.8347 -1.0094
 2278SOL     OW18292   3.180   2.004  13.281  0.1213  0.6873  0.1507
 2278SOL    HW118293   3.205   2.085  13.238  1.0889  0.7704  0.8496
 2278SOL    HW218294   3.086   2.005  13.297  0.4195 -1.5275  2.1769
 2279SOL     OW18295   3.513   1.763   2.252 -0.2276 -0.5846 -0.0067
 2279SOL    HW118296   3.523   1.769   2.347  2.2941 -0.2968 -0.2989
 2279SOL    HW218297   3.588   1.816   2.227 -0.6447  0.2761  0.5752
 2280SOL     OW18298   3.667   2.418   6.999  0.2758  0.2845 -0.1353
 2280SOL    HW118299   3.680   2.345   7.059 -2.1503 -0.3370 -0.3525
 2280SOL    HW218300   3.671   2.493   7.058  1.1414 -0.7810  1.1594
 2281SOL     OW18301   2.219   4.239   3.121 -0.2043  0.3455 -0.1187
 2281SOL    HW118302   2.146   4.297   3.145  0.0636  0.1221  1.2510
 2281SOL    HW218303   2.202   4.224   3.028 -2.0730 -2.9315  0.7375
 2282SOL     OW18304   1.615   2.807   9.952  0.2877  0.0327  0.0759
 2282SOL    HW118305   1.577   2.784  10.036  1.7018  0.5361  0.8547
 2282SOL    HW218306   1.687   2.744   9.944  1.4717  1.1428  1.9667
 2283SOL     OW18307   3.353   3.822   6.667 -0.0137 -0.0042  0.7524
 2283SOL    HW118308   3.331   3.874   6.590 -0.8115 -1.2917  0.1028
 2283SOL    HW218309   3.270   3.787   6.701  1.3586 -1.3187  2.7312
 2284SOL     OW18310   1.886   0.559   3.257 -0.1094  0.3124  0.0769
 2284SOL    HW118311   1.920   0.587   3.172  1.4677  2.0956  1.3031
 2284SOL    HW218312   1.958   0.573   3.319 -1.8934  2.8045  1.5912
 2285SOL     OW18313   4.441   1.217   1.183 -0.4579  0.3305  0.0368
 2285SOL    HW118314   4.349   1.219   1.212  0.3645 -3.1371  2.9405
 2285SOL    HW218315   4.423   1.188   1.093 -0.0152  0.0582  0.0405
 2286SOL     OW18316   3.385   1.466   1.440  0.5426  0.0181 -0.2215
 2286SOL    HW118317   3.467   1.472   1.489  1.1629 -2.9643 -0.8862
 2286SOL    HW218318   3.394   1.371   1.432 -0.0242 -0.0646  0.1242
 2287SOL     OW18319   3.959   2.771   8.455 -0.0773 -0.1197  0.4534
 2287SOL    HW118320   3.985   2.848   8.505 -0.4636  0.1468  0.2461
 2287SOL    HW218321   3.908   2.726   8.522 -1.5584  0.1533 -0.4625
 2288SOL     OW18322   0.941   2.195   8.529  0.3377 -0.4867 -0.4698
 2288SOL    HW118323   0.963   2.132   8.597 -2.5214  0.6574  1.5378
 2288SOL    HW218324   1.026   2.235   8.514  0.2908 -0.4613 -0.6689
 2289SOL     OW18325   3.479   1.899  14.105  0.4197  0.0272  0.0268
 2289SOL    HW118326   3.467   1.993  14.098  1.9558  0.3585  2.0032
 2289SOL    HW218327   3.409   1.867  14.048 -0.6667  1.0634  0.7780
 2290SOL     OW18328   3.290   3.129   2.471  0.0086 -0.1796 -0.7075
 2290SOL    HW118329   3.340   3.142   2.390 -1.5570  0.6621 -1.5337
 2290SOL    HW218330   3.233   3.061   2.436  0.3174 -0.9235  0.2272
 2291SOL     OW18331   1.776   3.572   7.393  0.1120 -0.2881  0.5821
 2291SOL    HW118332   1.741   3.554   7.305  0.4189  0.6641  0.2687
 2291SOL    HW218333   1.824   3.652   7.373 -0.3557 -0.1040  0.1680
 2292SOL     OW18334   0.920   0.799  14.795 -0.3307 -0.0593  0.1656
 2292SOL    HW118335   0.994   0.859  14.780  0.7687 -1.9250 -1.9356
 2292SOL    HW218336   0.871   0.841  14.865 -2.7735 -0.0855 -1.5269
 2293SOL     OW18337   1.226   3.849   2.433 -0.7658 -0.3864 -0.2310
 2293SOL    HW118338   1.224   3.942   2.407 -0.0357 -0.9674 -2.4056
 2293SOL    HW218339   1.180   3.810   2.359  0.9442  0.0124 -1.5050
 2294SOL     OW18340   4.203   3.457   1.715 -0.5247 -0.2753 -0.4432
 2294SOL    HW118341   4.148   3.535   1.719  0.2826  0.2518  0.2725
 2294SOL    HW218342   4.155   3.406   1.781 -0.2273  0.6970  0.5266
 2295SOL     OW18343   1.520   4.578   3.371 -0.2500  0.3811 -0.2652
 2295SOL    HW118344   1.581   4.506   3.352 -1.0579 -0.6614  1.1382
 2295SOL    HW218345   1.554   4.662   3.338  1.0807 -0.3721 -0.8219
 2296SOL     OW18346   1.576   1.999  13.745  0.5706 -0.4257 -0.1730
 2296SOL    HW118347   1.561   2.006  13.651 -1.4760 -0.7189  0.1204
 2296SOL    HW218348   1.524   1.923  13.772  1.7026 -1.8214 -1.9191
 2297SOL     OW18349   3.083   1.281   6.295 -0.0986 -0.6182  0.2163
 2297SOL    HW118350   3.148   1.213   6.313  0.3495 -0.8261 -2.2433
 2297SOL    HW218351   3.111   1.307   6.207 -4.1214  2.8101 -0.0308
 2298SOL     OW18352   4.223   0.517   4.548 -0.3228 -0.3340  0.0702
 2298SOL    HW118353   4.223   0.604   4.588  1.1598  0.3753 -1.5105
 2298SOL    HW218354   4.315   0.491   4.556  0.1838  1.8308  1.2331
 2299SOL     OW18355   4.473   4.440   8.508  0.5467 -0.1786 -0.1897
 2299SOL    HW118356   4.414   4.508   8.542  1.8059  0.1534  1.3604
 2299SOL    HW218357   4.522   4.487   8.441 -0.2295 -0.4447 -0.9334
 2300SOL     OW18358   0.968   2.402   7.738 -0.6393  0.0864  0.5866
 2300SOL    HW118359   0.940   2.385   7.828  1.2258 -0.9129  0.9731
 2300SOL    HW218360   1.047   2.456   7.745 -0.4175 -0.1620  0.0080
 2301SOL     OW18361   0.433   4.185   4.184  0.5205 -0.5202 -0.3073
 2301SOL    HW118362   0.432   4.108   4.127 -2.8605 -1.6394  1.2289
 2301SOL    HW218363   0.497   4.241   4.141 -0.4941  1.3629  0.6297
 2302SOL     OW18364   1.632   1.966  15.551 -0.3275 -0.4101 -0.2862
 2302SOL    HW118365   1.559   1.966  15.613  0.5703 -0.5366  0.7706
 2302SOL    HW218366   1.640   2.060  15.535  2.2069 -1.0003 -2.5195
 2303SOL     OW18367   2.914   3.036   0.105  0.3858 -0.1772  0.4922
 2303SOL    HW118368   2.935   3.122   0.069 -1.3626  0.4834  1.0121
 2303SOL    HW218369   2.881   3.074   0.186  0.5814 -1.7015  1.2966
 2304SOL     OW18370   3.647   2.287   4.874  0.0275  0.5065  0.0924
 2304SOL    HW118371   3.573   2.334   4.836  1.4842  1.1566 -1.9180
 2304SOL    HW218372   3.601   2.207   4.897  0.5967  0.6003  1.6054
 2305SOL     OW18373   1.705   4.483  14.984  0.4088  0.9926  0.1193
 2305SOL    HW118374   1.791   4.444  14.994 -0.9274 -2.4609 -1.7845
 2305SOL    HW218375   1.708   4.556  15.046  2.2794  2.0310 -1.2333
 2306SOL     OW18376   2.497   3.105   5.540  0.5453 -0.0988 -0.4307
 2306SOL    HW118377   2.450   3.026   5.512  1.4201 -0.0737 -1.9705
 2306SOL    HW218378   2.548   3.064   5.610 -1.5937 -1.4859  0.3373
 2307SOL     OW18379   0.483   4.432  12.809  0.1459 -0.1875 -0.1724
 2307SOL    HW118380   0.431   4.512  12.814  0.9428  0.0827  4.3422
 2307SOL    HW218381   0.507   4.423  12.901  0.1136  1.4356 -0.0003
 2308SOL     OW18382   2.202   1.455   5.039  0.3814 -0.6165  0.4886
 2308SOL    HW118383   2.219   1.547   5.059  2.1678 -1.2991  2.0345
 2308SOL    HW218384   2.138   1.468   4.968  2.4457 -2.1172 -1.6527
 2309SOL     OW18385   1.045   2.779   9.060 -0.1054 -0.5743 -0.6110
 2309SOL    HW118386   0.978   2.724   9.021 -0.4823 -0.5725  0.0298
 2309SOL    HW218387   1.088   2.707   9.107  0.5295  0.4084  0.3240
 2310SOL     OW18388   1.511   2.580   5.285 -0.2338  0.3994  0.2761
 2310SOL    HW118389   1.491   2.674   5.282 -2.0588  0.0348  1.6856
 2310SOL    HW218390   1.423   2.544   5.287 -0.5124  0.9392 -1.5180
 2311SOL     OW18391   4.476   4.243   3.412 -0.3487 -0.1247 -0.3904
 2311SOL    HW118392   4.407   4.288   3.362 -0.4024 -0.5990 -0.7414
 2311SOL    HW218393   4.548   4.232   3.350  0.5219  0.4207  0.5287
 2312SOL     OW18394   0.219   2.285   8.875  0.2702  0.0444 -0.9512
 2312SOL    HW118395   0.201   2.370   8.835  1.3013  0.2378 -0.9991
 2312SOL    HW218396   0.164   2.296   8.952 -0.3161 -1.5638 -1.1252
 2313SOL     OW18397   1.067   3.987   9.050 -0.1682  0.2357  0.3625
 2313SOL    HW118398   1.088   3.900   9.017 -1.1765  0.3856 -0.6585
 2313SOL    HW218399   1.003   3.962   9.118 -0.2339 -1.1326 -0.2155
 2314SOL     OW18400   1.381   4.714   8.539  0.2019  0.8051 -0.0338
 2314SOL    HW118401   1.333   0.041   8.604 -1.3090  1.7849 -1.9018
 2314SOL    HW218402   1.306   4.686   8.485  0.9531  0.2441 -0.7826
 2315SOL     OW18403   4.017   4.424   6.998  0.4473 -0.0698 -0.3174
 2315SOL    HW118404   4.083   4.367   6.957 -0.7347 -2.6320  1.3143
 2315SOL    HW218405   4.007   4.374   7.080 -1.7971  1.7551  0.4937
 2316SOL     OW18406   4.050   1.054   5.315 -0.3286 -0.5198  0.5419
 2316SOL    HW118407   4.079   1.141   5.288 -1.5870 -0.6742 -1.3566
 2316SOL    HW218408   4.020   1.022   5.229 -2.1111 -1.2007  1.4001
 2317SOL     OW18409   3.130   2.605   8.450  0.2845  0.1224 -0.2618
 2317SOL    HW118410   3.125   2.552   8.530 -0.4650  2.3209  1.1565
 2317SOL    HW218411   3.146   2.691   8.490  0.2686 -0.5983  1.3216
 2318SOL     OW18412   1.287   1.619   9.848  0.0430 -1.0451 -0.2835
 2318SOL    HW118413   1.233   1.662   9.782 -0.5732 -1.9767 -0.3824
 2318SOL    HW218414   1.325   1.699   9.882 -1.7015 -1.4306  2.5652
 2319SOL     OW18415   0.009   2.451  16.446 -0.4118  0.2600 -0.2268
 2319SOL    HW118416   0.047   2.505  16.377 -0.6463 -0.3647 -0.8431
 2319SOL    HW218417   0.047   2.367  16.422  0.0971  0.8136 -1.3278
 2320SOL     OW18418   4.588   1.333   7.884 -0.4293  0.6584 -0.4935
 2320SOL    HW118419   4.521   1.323   7.952  0.2897 -2.0872 -0.1935
 2320SOL    HW218420   4.625   1.245   7.878  0.9814  1.1965  0.2320
 2321SOL     OW18421   3.632   3.239   2.694 -0.0777 -0.1199 -0.2495
 2321SOL    HW118422   3.552   3.188   2.704 -0.7410  0.6208 -1.8231
 2321SOL    HW218423   3.636   3.239   2.598 -0.2489  1.3368 -0.2612
 2322SOL     OW18424   0.005   0.754   2.711 -0.6880 -0.2106  0.2404
 2322SOL    HW118425   0.060   0.752   2.633  0.5596  0.4550  1.0895
 2322SOL    HW218426   4.646   0.709   2.688 -0.5520 -0.8040  0.8852
 2323SOL     OW18427   3.096   4.117  11.945 -0.0428  0.5670  0.2201
 2323SOL    HW118428   3.045   4.156  12.016  0.1190 -0.9316  1.1540
 2323SOL    HW218429   3.058   4.030  11.943  2.2068 -0.4527  2.2985
 2324SOL     OW18430   4.076   3.873  13.264  0.3044  0.0049  0.8118
 2324SOL    HW118431   4.156   3.844  13.221 -0.5037  1.0475 -1.3893
 2324SOL    HW218432   4.009   3.843  13.202 -0.4857 -1.4583  2.3796
 2325SOL     OW18433   4.458   3.411   4.817 -0.5546  0.6091  0.3640
 2325SOL    HW118434   4.459   3.330   4.767  1.1962 -0.0905  1.5422
 2325SOL    HW218435   4.514   3.467   4.763  1.3640 -0.6184  1.0955
 2326SOL     OW18436   0.177   1.025   6.517 -0.0540 -0.2584  0.1291
 2326SOL    HW118437   0.104   0.988   6.467  0.9664  1.2358 -2.4599
 2326SOL    HW218438   0.170   0.951   6.576  0.9680  0.1510  0.7617
 2327SOL     OW18439   1.540   4.313  16.140 -0.0696  0.4999 -0.6214
 2327SOL    HW118440   1.541   4.270  16.055 -0.7039  0.5912 -0.6758
 2327SOL    HW218441   1.553   4.403  16.111 -0.1253  0.5518 -0.4872
 2328SOL     OW18442   0.921   2.190   4.292 -0.1188  0.3205  0.1970
 2328SOL    HW118443   0.869   2.121   4.253 -0.2164  0.2747  0.4058
 2328SOL    HW218444   1.001   2.137   4.296 -0.2176  0.3877  3.4632
 2329SOL     OW18445   0.225   4.386   2.585  0.3143  0.4444 -0.1445
 2329SOL    HW118446   0.276   4.307   2.568 -1.6063 -1.1308  1.3921
 2329SOL    HW218447   0.280   4.451   2.541 -0.4864  0.7494 -0.6918
 2330SOL     OW18448   2.726   1.527  17.496 -0.4838 -0.3679  0.5238
 2330SOL    HW118449   2.721   1.445  17.447  1.8836 -0.8200  1.0301
 2330SOL    HW218450   2.750   1.507  17.586 -0.7132  3.5720  1.4425
 2331SOL     OW18451   0.975   0.567   4.839 -0.0583  0.3462  0.3854
 2331SOL    HW118452   0.915   0.579   4.765 -1.3188  1.4389  1.6050
 2331SOL    HW218453   0.910   0.564   4.909 -0.6540  0.0104 -0.1788
 2332SOL     OW18454   2.102   2.523  15.255  0.3217 -0.1062  0.0595
 2332SOL    HW118455   2.167   2.503  15.188 -1.7987 -0.9752 -1.7437
 2332SOL    HW218456   2.098   2.437  15.298 -1.2096  0.3883  0.8942
 2333SOL     OW18457   3.089   3.875  15.088  0.2691  0.1838  0.0232
 2333SOL    HW118458   3.153   3.941  15.114  1.5083 -1.1808  0.4565
 2333SOL    HW218459   3.004   3.907  15.116 -0.1467 -0.5729 -0.3742
 2334SOL     OW18460   0.518   1.424   9.976 -0.2738  0.2876 -0.0517
 2334SOL    HW118461   0.589   1.362   9.991 -2.0743 -1.3837  1.4178
 2334SOL    HW218462   0.510   1.426   9.881 -0.3783 -0.7378 -0.0614
 2335SOL     OW18463   4.284   1.139   3.979 -0.0983  0.0018 -0.0869
 2335SOL    HW118464   4.256   1.163   4.067 -1.2534 -0.7695 -0.2445
 2335SOL    HW218465   4.290   1.044   3.986  0.0607  0.1537  1.7422
 2336SOL     OW18466   1.617   3.132   2.729  0.0722 -0.3845  0.4589
 2336SOL    HW118467   1.551   3.063   2.739  1.1285 -1.2415  1.4334
 2336SOL    HW218468   1.677   3.113   2.800  1.0114 -0.5378 -0.3779
 2337SOL     OW18469   1.795   3.192   8.294 -1.1477 -0.1055 -0.2762
 2337SOL    HW118470   1.771   3.251   8.223  2.5231  2.4907  0.6319
 2337SOL    HW218471   1.883   3.225   8.313 -1.8668  0.5597  1.9100
 2338SOL     OW18472   2.796   4.545   6.392  0.3134  0.0255 -0.3462
 2338SOL    HW118473   2.849   4.476   6.353 -0.1585 -2.0848  2.7477
 2338SOL    HW218474   2.864   4.612   6.382 -0.2703  0.9268  1.8532
 2339SOL     OW18475   3.908   0.202   7.307  0.1939  0.4653 -0.3245
 2339SOL    HW118476   3.860   0.166   7.232  0.2401  1.1624 -0.6870
 2339SOL    HW218477   3.837   0.204   7.371 -0.2843  1.6848 -0.9020
 2340SOL     OW18478   4.023   1.338   4.041 -0.5024 -0.0841  0.4445
 2340SOL    HW118479   4.072   1.305   4.116 -1.6106 -2.4071  0.1515
 2340SOL    HW218480   4.033   1.265   3.980  0.3064  0.1005  0.3520
 2341SOL     OW18481   0.740   2.911   6.608  0.2973 -0.0084  0.4068
 2341SOL    HW118482   0.769   2.937   6.521 -0.7835  1.0888  0.3762
 2341SOL    HW218483   0.648   2.894   6.589  0.7727  0.3302 -2.1327
 2342SOL     OW18484   0.825   0.780   8.399  0.2278  0.2850  0.1218
 2342SOL    HW118485   0.824   0.851   8.335 -2.8822  1.4243  1.4259
 2342SOL    HW218486   0.859   0.824   8.477 -0.7422  1.5782 -0.1795
 2343SOL     OW18487   1.617   1.034   2.842  0.1190 -0.6940 -0.1453
 2343SOL    HW118488   1.627   1.089   2.920 -1.1972  0.4128 -0.7615
 2343SOL    HW218489   1.555   0.969   2.875 -1.2068 -0.6184 -2.4877
 2344SOL     OW18490   2.413   3.518   5.977  0.0178 -0.1519 -0.5947
 2344SOL    HW118491   2.507   3.518   5.993 -0.0520 -0.8079 -0.1885
 2344SOL    HW218492   2.395   3.554   6.064 -1.8028 -2.5507  0.0250
 2345SOL     OW18493   3.583   1.460   7.552  0.4750  0.3188 -0.4086
 2345SOL    HW118494   3.633   1.483   7.631 -1.2139  0.0843  0.7335
 2345SOL    HW218495   3.646   1.495   7.489  1.5818 -0.2432  0.3920
 2346SOL     OW18496   4.449   1.446   4.369  0.3131 -0.1251 -0.5619
 2346SOL    HW118497   4.457   1.508   4.296  0.0294 -0.5670 -0.9729
 2346SOL    HW218498   4.354   1.438   4.380  0.7445 -1.1298  2.3784
 2347SOL     OW18499   3.124   2.723   4.139  0.5615  0.5104  0.1354
 2347SOL    HW118500   3.058   2.781   4.175  0.1604 -1.5165  2.6734
 2347SOL    HW218501   3.156   2.775   4.066  0.5415  1.0333  0.4996
 2348SOL     OW18502   4.719   4.449   7.069 -0.0689 -0.0664 -0.2828
 2348SOL    HW118503   4.650   4.384   7.053  0.9773 -1.1803 -0.3478
 2348SOL    HW218504   0.062   4.389   7.105  0.3346  0.7023  0.2421
 2349SOL     OW18505   1.942   4.539  11.621 -0.4313 -0.1087 -0.0937
 2349SOL    HW118506   1.970   4.614  11.567  0.4651 -2.4166 -2.8235
 2349SOL    HW218507   1.860   4.580  11.647 -0.3207  0.4374 -0.5987
 2350SOL     OW18508   0.590   3.846   9.972  0.4868 -0.0327  0.2341
 2350SOL    HW118509   0.582   3.892  10.056 -2.7659 -1.6465  0.8003
 2350SOL    HW218510   0.683   3.828   9.984  0.2267 -0.9153  0.8578
 2351SOL     OW18511   1.208   3.397   5.095 -0.5211 -0.0026 -0.4566
 2351SOL    HW118512   1.120   3.414   5.126  0.5569  0.5537  2.3200
 2351SOL    HW218513   1.193   3.416   5.002  1.8805 -0.0808 -0.8809
 2352SOL     OW18514   1.313   1.913   8.698  0.0194  0.0042 -0.0274
 2352SOL    HW118515   1.278   1.834   8.658  0.6760  1.5200 -3.5689
 2352SOL    HW218516   1.365   1.870   8.767 -0.6244  1.3627  1.3035
 2353SOL     OW18517   1.832   3.701   5.885 -0.1137 -0.1014 -0.0383
 2353SOL    HW118518   1.795   3.622   5.925  0.3021 -0.7348 -0.9034
 2353SOL    HW218519   1.923   3.695   5.913 -0.2423 -3.2556 -0.2968
 2354SOL     OW18520   0.266   1.535  12.641 -0.0453  0.1432  0.0329
 2354SOL    HW118521   0.299   1.535  12.551  2.0969 -3.4901  0.7924
 2354SOL    HW218522   0.329   1.595  12.682 -1.0840  0.0100  1.8168
 2355SOL     OW18523   3.646   2.225   5.839  0.0636  0.5808  0.8097
 2355SOL    HW118524   3.651   2.223   5.934 -1.0627  0.7448  0.8670
 2355SOL    HW218525   3.739   2.224   5.814  0.7506  0.3651  3.3395
 2356SOL     OW18526   2.504   3.877  14.072  0.2007 -0.2301  0.5132
 2356SOL    HW118527   2.588   3.860  14.028 -0.5202 -0.5486 -0.7530
 2356SOL    HW218528   2.480   3.786  14.088  0.5057 -0.3136  0.4914
 2357SOL     OW18529   0.333   1.686   1.451  0.2866 -0.0906  0.6378
 2357SOL    HW118530   0.415   1.693   1.402 -1.1577  3.4109 -1.2780
 2357SOL    HW218531   0.311   1.601   1.415  1.1933 -0.4998  1.0492
 2358SOL     OW18532   2.277   0.156   4.915  0.2035  0.1330  0.2137
 2358SOL    HW118533   2.321   0.075   4.940 -1.6735 -0.5965  1.1423
 2358SOL    HW218534   2.355   0.211   4.906  0.9637 -1.3106 -2.0641
 2359SOL     OW18535   1.162   4.546   7.179 -0.0225 -0.2326 -0.2043
 2359SOL    HW118536   1.164   4.549   7.083 -0.5808  0.5767 -0.1908
 2359SOL    HW218537   1.185   4.456   7.203  0.1568 -0.0596  0.2722
 2360SOL     OW18538   3.478   1.725   4.867 -0.9576  0.2244 -0.7242
 2360SOL    HW118539   3.558   1.673   4.864 -1.0906  0.0350 -1.0645
 2360SOL    HW218540   3.445   1.693   4.783  0.8065  0.0235 -1.3439
 2361SOL     OW18541   2.043   0.223   1.882 -0.4099  0.1844 -0.1741
 2361SOL    HW118542   1.973   0.219   1.948  0.7477  2.2187  1.1765
 2361SOL    HW218543   2.092   0.150   1.919  1.6017  0.8625 -1.4657
 2362SOL     OW18544   2.065   4.312  11.668 -0.2383  0.2485  0.3121
 2362SOL    HW118545   2.004   4.248  11.631  0.0080 -0.1603  0.6011
 2362SOL    HW218546   2.027   4.396  11.644  1.3754  0.9323  0.1910
 2363SOL     OW18547   2.620   4.679  10.366  0.2044  0.0238  0.5719
 2363SOL    HW118548   2.662   4.598  10.396 -1.0651 -0.3220  1.3946
 2363SOL    HW218549   2.545   4.687  10.424 -0.3473  0.3950 -0.1916
 2364SOL     OW18550   1.719   2.739   7.479  0.6348  0.2050  0.0612
 2364SOL    HW118551   1.735   2.658   7.431  1.3962  0.6517 -0.4306
 2364SOL    HW218552   1.628   2.723   7.506  0.9264  0.4003  1.1264
 2365SOL     OW18553   0.488   1.565  16.639  0.2091 -0.8375  0.4766
 2365SOL    HW118554   0.396   1.549  16.662  0.0815 -1.1748 -0.2605
 2365SOL    HW218555   0.491   1.661  16.641  2.2523 -0.8676 -1.1832
 2366SOL     OW18556   0.887   2.372  11.598  0.4918 -0.0600 -0.0140
 2366SOL    HW118557   0.799   2.354  11.564  0.1766  3.8763 -1.3526
 2366SOL    HW218558   0.926   2.365  11.510  0.1102 -2.7935  0.0498
 2367SOL     OW18559   0.466   2.694   9.827  0.2168 -0.5961 -0.6764
 2367SOL    HW118560   0.375   2.697   9.797  0.2821 -1.0216 -0.9262
 2367SOL    HW218561   0.470   2.616   9.882  0.8338 -1.2697 -1.6497
 2368SOL     OW18562   1.056   1.799  17.331  0.7391 -0.2187  0.1694
 2368SOL    HW118563   1.107   1.718  17.325 -0.3653 -1.0499  1.7844
 2368SOL    HW218564   1.092   1.854  17.262  0.4110 -0.8734 -0.5222
 2369SOL     OW18565   4.718   0.222   4.002 -0.0992 -0.0476 -0.6515
 2369SOL    HW118566   0.063   0.236   4.068 -0.2862 -0.1361 -0.4414
 2369SOL    HW218567   0.027   0.139   3.964  1.1429  1.1463 -2.2338
 2370SOL     OW18568   0.177   4.390   3.037 -0.5664  0.3138 -0.3304
 2370SOL    HW118569   0.161   4.472   2.990  1.5616  1.0862  0.3102
 2370SOL    HW218570   0.123   4.410   3.113 -0.3873  1.0607 -0.3977
 2371SOL     OW18571   4.364   2.834  13.482 -0.3203  0.1554 -0.5196
 2371SOL    HW118572   4.330   2.745  13.494 -0.2123 -0.0115 -1.4209
 2371SOL    HW218573   4.361   2.870  13.570 -0.2409 -0.1842 -0.3784
 2372SOL     OW18574   2.691   3.784   4.067  0.5816 -0.3701  0.1600
 2372SOL    HW118575   2.740   3.707   4.037  0.5397 -0.3275 -0.0126
 2372SOL    HW218576   2.738   3.793   4.150 -0.4937 -1.4276  0.8857
 2373SOL     OW18577   3.454   0.016   1.988  0.5218 -0.4296  0.3689
 2373SOL    HW118578   3.504   4.675   2.040 -1.7814  0.6589  3.9620
 2373SOL    HW218579   3.437   4.675   1.919 -1.0359  0.2831  0.1091
 2374SOL     OW18580   4.486   2.843  16.524  0.2298 -0.0516 -0.2801
 2374SOL    HW118581   4.432   2.847  16.602  1.3128  0.1404  0.4592
 2374SOL    HW218582   4.477   2.932  16.490  1.3110  1.0801  2.4170
 2375SOL     OW18583   0.100   3.445  11.785  0.3940 -0.3919 -0.0012
 2375SOL    HW118584   0.091   3.353  11.759  0.6555 -0.7642  1.2034
 2375SOL    HW218585   0.065   3.444  11.874  1.3946  2.4657  0.4260
 2376SOL     OW18586   3.226   1.780   4.925  0.7289  0.1098  0.5490
 2376SOL    HW118587   3.318   1.765   4.902  0.0505  0.3042 -2.3004
 2376SOL    HW218588   3.232   1.721   5.000  0.6638  1.2108  1.4193
 2377SOL     OW18589   1.402   2.363  13.111  0.2983  0.2346  0.9541
 2377SOL    HW118590   1.492   2.380  13.083  0.3306 -0.2929  0.7357
 2377SOL    HW218591   1.349   2.422  13.057  2.3780 -0.3335 -1.7245
 2378SOL     OW18592   2.418   2.633   8.193  0.1170  0.1387 -0.8205
 2378SOL    HW118593   2.506   2.599   8.180  0.0346  0.1126 -1.3440
 2378SOL    HW218594   2.367   2.570   8.142  2.6462 -0.7979 -2.1811
 2379SOL     OW18595   0.151   0.395   6.082 -0.5420 -0.6897 -0.0138
 2379SOL    HW118596   0.161   0.300   6.083  1.9464 -0.4350  0.6930
 2379SOL    HW218597   0.243   0.417   6.069 -0.9149 -0.1395 -1.7059
 2380SOL     OW18598   4.119   2.176   0.801  0.1828 -0.0274  0.1989
 2380SOL    HW118599   4.083   2.130   0.726  1.7322 -1.1142  0.1377
 2380SOL    HW218600   4.127   2.111   0.871 -0.6080  1.4499  1.6818
 2381SOL     OW18601   2.033   2.716   6.900 -0.3747  0.9363 -0.2423
 2381SOL    HW118602   1.966   2.784   6.890 -0.7579  0.6107  0.0837
 2381SOL    HW218603   2.015   2.649   6.834 -2.2895  1.1999 -0.0004
 2382SOL     OW18604   3.053   3.344   4.329 -0.2752 -0.0947  0.8133
 2382SOL    HW118605   2.977   3.375   4.281  1.0685  4.2904  1.4004
 2382SOL    HW218606   3.112   3.326   4.256  0.7593 -0.2502  1.6732
 2383SOL     OW18607   0.459   2.122   1.710  0.1607  0.6446  0.0887
 2383SOL    HW118608   0.458   2.028   1.690 -1.0745  0.6552  0.0844
 2383SOL    HW218609   0.364   2.127   1.712  0.1520  0.4049  0.2981
 2384SOL     OW18610   2.321   0.158   7.354  0.5653 -0.5423  0.2668
 2384SOL    HW118611   2.367   0.232   7.394 -0.3416  0.6161 -0.8299
 2384SOL    HW218612   2.243   0.208   7.329  0.3865 -2.0362 -2.1455
 2385SOL     OW18613   2.062   2.666   0.832 -0.0657 -0.3414 -0.4765
 2385SOL    HW118614   2.053   2.588   0.778 -1.1282  0.6896 -1.7718
 2385SOL    HW218615   2.109   2.642   0.912 -0.6446  0.9582  0.2472
 2386SOL     OW18616   0.081   4.281   0.615  0.3604  0.4314  0.1378
 2386SOL    HW118617   0.090   4.188   0.596 -0.3129  0.3528  0.1911
 2386SOL    HW218618   4.709   4.288   0.603  0.3399 -0.3550 -0.1169
 2387SOL     OW18619   1.373   0.822   3.746 -0.2303  0.3114  0.3681
 2387SOL    HW118620   1.401   0.741   3.704 -3.4796  0.3665 -1.9257
 2387SOL    HW218621   1.334   0.802   3.831  0.1925  0.7951  0.6765
 2388SOL     OW18622   4.392   3.964  15.674  0.4157  0.9721 -0.3954
 2388SOL    HW118623   4.357   3.911  15.602 -0.2404 -0.7099  1.1493
 2388SOL    HW218624   4.428   4.041  15.630 -2.0222  0.9550 -2.3647
 2389SOL     OW18625   4.051   4.021   4.360 -0.1065 -0.1633 -0.2979
 2389SOL    HW118626   4.048   4.115   4.375 -1.2170 -0.1156 -0.8533
 2389SOL    HW218627   4.118   3.988   4.420 -2.4812 -0.4556  2.2072
 2390SOL     OW18628   2.506   1.509  12.671 -0.4217  0.1333  0.3664
 2390SOL    HW118629   2.564   1.526  12.745  0.3861 -0.8705 -0.0408
 2390SOL    HW218630   2.561   1.501  12.594  0.3976 -3.4318  1.3426
 2391SOL     OW18631   4.025   4.652   9.763 -0.1436  0.0772  0.2994
 2391SOL    HW118632   4.103   4.705   9.779 -0.2565  0.2536  0.2631
 2391SOL    HW218633   4.027   4.648   9.667 -0.3600 -2.2962  0.3942
 2392SOL     OW18634   3.695   2.266   8.806  0.7009 -0.1422 -0.5451
 2392SOL    HW118635   3.649   2.322   8.743 -0.7507 -1.0169 -0.2907
 2392SOL    HW218636   3.626   2.216   8.850  2.7699 -2.2796  0.2635
 2393SOL     OW18637   4.562   3.578  16.101 -0.4071 -0.4159 -0.1489
 2393SOL    HW118638   4.617   3.567  16.024 -0.7699  0.9475 -0.5946
 2393SOL    HW218639   4.594   3.506  16.156 -1.7413 -2.2415 -1.7759
 2394SOL     OW18640   1.559   1.211   5.448 -0.7308 -0.2767  0.7984
 2394SOL    HW118641   1.481   1.186   5.497  0.2160 -1.4822  1.6824
 2394SOL    HW218642   1.628   1.200   5.513  0.7285  1.5002 -0.4125
 2395SOL     OW18643   0.149   3.660   2.368 -0.3596  0.0566 -0.3205
 2395SOL    HW118644   0.062   3.660   2.328  0.0801  0.0913 -1.2774
 2395SOL    HW218645   0.203   3.683   2.292 -0.3452  0.4961 -0.1760
 2396SOL     OW18646   4.169   4.344  17.626 -0.4453  0.7158 -0.3011
 2396SOL    HW118647   4.255   4.313  17.600 -0.2420  0.2666  0.9174
 2396SOL    HW218648   4.132   4.359  17.538  1.1557  1.7665 -0.7898
 2397SOL     OW18649   1.444   3.673   2.460 -0.2515  0.4423 -0.1428
 2397SOL    HW118650   1.506   3.722   2.514 -3.8896  4.7769  0.1091
 2397SOL    HW218651   1.410   3.744   2.406  0.2369  1.7905  1.3100
 2398SOL     OW18652   0.028   2.376  12.434 -0.2240 -0.2100  0.2004
 2398SOL    HW118653   0.107   2.419  12.402 -1.2853  2.0763  0.7223
 2398SOL    HW218654   0.064   2.331  12.510 -2.0487 -0.0075  1.1933
 2399SOL     OW18655   2.172   3.559  11.014 -0.2620 -0.5370  0.5370
 2399SOL    HW118656   2.209   3.471  11.023  0.0394 -0.4475  0.1735
 2399SOL    HW218657   2.257   3.602  11.014 -0.2072 -0.6462  1.1171
 2400SOL     OW18658   1.711   4.291   6.609 -0.1431 -0.0190 -0.1803
 2400SOL    HW118659   1.788   4.344   6.590  0.3454  0.0774  2.0548
 2400SOL    HW218660   1.705   4.300   6.704  0.5410 -0.1694 -0.1245
 2401SOL     OW18661   4.490   2.544   5.106  0.1087  0.3052  0.0552
 2401SOL    HW118662   4.430   2.505   5.042  1.3039 -0.1742 -0.7683
 2401SOL    HW218663   4.437   2.582   5.176  1.0733 -0.0916  0.9941
 2402SOL     OW18664   2.745   1.568   3.555 -0.2148 -0.0031  0.4679
 2402SOL    HW118665   2.680   1.539   3.491  0.9017  0.8950 -1.0767
 2402SOL    HW218666   2.731   1.663   3.556  0.2888  0.0967 -1.5932
 2403SOL     OW18667   2.712   0.400   0.385 -0.0282 -0.4781 -0.0386
 2403SOL    HW118668   2.698   0.399   0.480  3.4326  0.3700  0.4967
 2403SOL    HW218669   2.783   0.464   0.377 -0.8508  0.4495 -0.0063
 2404SOL     OW18670   3.009   4.696   5.958  0.4609  0.3166  0.0241
 2404SOL    HW118671   2.916   4.684   5.978  0.6035 -1.3267 -0.2308
 2404SOL    HW218672   3.043   4.712   6.046 -1.6567 -1.1850  1.1152
 2405SOL     OW18673   2.508   4.273  14.614  0.0109  0.1410 -0.3016
 2405SOL    HW118674   2.428   4.311  14.651  1.1338  0.9814  1.3150
 2405SOL    HW218675   2.483   4.181  14.625  1.9957 -0.3004  0.5723
 2406SOL     OW18676   0.187   3.644   2.682 -0.1268 -0.3322 -0.2486
 2406SOL    HW118677   0.210   3.705   2.612  0.5954 -1.7391 -1.2275
 2406SOL    HW218678   0.252   3.575   2.674 -0.6885 -0.5679 -2.8607
 2407SOL     OW18679   0.781   1.118   6.289  0.1195  0.3605  0.0777
 2407SOL    HW118680   0.762   1.169   6.211 -1.3345 -0.3105 -0.0065
 2407SOL    HW218681   0.869   1.082   6.279 -0.3368 -0.7835  0.1249
 2408SOL     OW18682   2.857   4.077   3.872  0.3092  0.3090 -0.8673
 2408SOL    HW118683   2.894   3.990   3.859 -0.5740 -0.5098  2.2089
 2408SOL    HW218684   2.894   4.122   3.796  0.8773  0.2036 -0.6564
 2409SOL     OW18685   3.160   1.269  12.847  0.2014 -0.0489 -0.8202
 2409SOL    HW118686   3.190   1.183  12.817  2.3332  0.0890  0.8591
 2409SOL    HW218687   3.244   1.315  12.843 -0.6468  1.5640 -0.0123
 2410SOL     OW18688   1.415   3.312   0.699  0.6325 -0.1511 -0.1424
 2410SOL    HW118689   1.341   3.272   0.654  1.0517  2.3814 -3.1015
 2410SOL    HW218690   1.477   3.308   0.626  0.8659 -0.1904  0.0593
 2411SOL     OW18691   3.088   2.868   4.947  0.7719  0.3805 -0.1230
 2411SOL    HW118692   3.065   2.908   4.863  1.7535  2.2764  0.5206
 2411SOL    HW218693   3.072   2.938   5.011  1.7482  0.3072  0.1998
 2412SOL     OW18694   3.006   3.414   7.240  0.5049  0.4260 -1.2377
 2412SOL    HW118695   3.101   3.405   7.252 -0.3342 -3.2854  2.6461
 2412SOL    HW218696   2.959   3.373   7.313  0.6621  0.7891 -0.9292
 2413SOL     OW18697   3.936   2.808   7.748 -0.4756  0.1591  0.4494
 2413SOL    HW118698   3.903   2.817   7.838  0.7634  1.9630  0.7455
 2413SOL    HW218699   3.875   2.858   7.694 -0.9171  1.4106  2.1075
 2414SOL     OW18700   1.845   0.416   6.655  0.2269  0.0783 -0.4601
 2414SOL    HW118701   1.869   0.373   6.737 -3.8245 -0.2668  0.5537
 2414SOL    HW218702   1.793   0.491   6.685 -0.2072  0.2819 -1.7402
 2415SOL     OW18703   1.520   0.764   7.606  0.1217  0.0290  0.5789
 2415SOL    HW118704   1.430   0.767   7.637  0.4647  1.3279  1.4631
 2415SOL    HW218705   1.531   0.853   7.574 -1.9036  0.2632  0.5537
 2416SOL     OW18706   0.241   4.604   5.283 -0.0861 -0.2453  0.1831
 2416SOL    HW118707   0.255   4.510   5.271  1.4700  0.0436 -0.3546
 2416SOL    HW218708   0.308   4.629   5.218 -1.3183  0.2123 -0.9166
 2417SOL     OW18709   0.240   0.314   7.435 -0.0972  0.3071 -0.4608
 2417SOL    HW118710   0.164   0.285   7.486 -0.0524  0.3667 -0.3600
 2417SOL    HW218711   0.259   0.244   7.373 -1.3979 -0.9812  0.5798
 2418SOL     OW18712   2.099   2.999  10.857  0.4144  0.4181 -0.5441
 2418SOL    HW118713   2.100   3.077  10.801 -0.9054  1.2564  0.5987
 2418SOL    HW218714   2.016   3.006  10.904  0.1758  2.6573 -1.3207
 2419SOL     OW18715   0.264   0.200   8.701  0.2771 -0.2619 -0.0400
 2419SOL    HW118716   0.204   0.192   8.627  1.5346 -0.5772 -1.0177
 2419SOL    HW218717   0.342   0.153   8.674  1.5204  1.9059 -0.2513
 2420SOL     OW18718   4.386   1.439   2.763  0.5516  0.0932  0.4108
 2420SOL    HW118719   4.292   1.426   2.771  0.5113 -1.4370 -2.5092
 2420SOL    HW218720   4.403   1.526   2.799 -0.7553  0.8685 -0.9050
 2421SOL     OW18721   1.343   1.445   8.342  0.0566 -0.1854 -0.2232
 2421SOL    HW118722   1.428   1.478   8.372  0.0840 -1.0230  0.6131
 2421SOL    HW218723   1.302   1.528   8.317 -3.2709 -1.5673  0.6954
 2422SOL     OW18724   0.554   1.118   5.275 -0.4007  0.0986  1.1199
 2422SOL    HW118725   0.517   1.106   5.188 -1.8670  1.5628  1.5553
 2422SOL    HW218726   0.474   1.141   5.321 -0.8302  0.8841 -0.0341
 2423SOL     OW18727   2.371   1.817   4.490 -0.1299 -0.0131  0.0939
 2423SOL    HW118728   2.456   1.847   4.522 -0.6561 -0.3385  1.8096
 2423SOL    HW218729   2.393   1.728   4.461  1.2196  0.8175 -1.4250
 2424SOL     OW18730   0.813   4.576   9.916  0.6994 -0.1758 -0.2209
 2424SOL    HW118731   0.764   4.529   9.984 -0.8560 -0.4072 -1.5093
 2424SOL    HW218732   0.743   4.592   9.853  0.6802  2.6451  0.4963
 2425SOL     OW18733   0.441   3.170   6.537  0.3602  0.0703 -0.3179
 2425SOL    HW118734   0.377   3.152   6.469 -1.1704  2.0390  0.5998
 2425SOL    HW218735   0.396   3.139   6.615 -2.1949 -2.1473 -2.6872
 2426SOL     OW18736   1.172   3.067   2.657  0.4112  0.2234 -0.2169
 2426SOL    HW118737   1.078   3.047   2.658  0.5585 -0.2785  2.5171
 2426SOL    HW218738   1.174   3.158   2.684  2.5342  0.6378 -1.8370
 2427SOL     OW18739   4.113   0.903  14.796 -0.2488  0.4281  0.0303
 2427SOL    HW118740   4.177   0.924  14.728 -0.6400  0.4201 -0.3389
 2427SOL    HW218741   4.179   0.903  14.865 -1.0706  0.5470  0.8191
 2428SOL     OW18742   1.115   0.039   3.827 -0.3468 -0.1590 -0.3951
 2428SOL    HW118743   1.203   0.022   3.792  1.0646  1.0366  2.5725
 2428SOL    HW218744   1.083   0.105   3.765 -1.3516  0.5980  0.9188
 2429SOL     OW18745   1.434   1.971   0.793 -0.0110  0.1795 -0.0709
 2429SOL    HW118746   1.493   1.992   0.866 -0.2051  1.5486 -0.2998
 2429SOL    HW218747   1.474   2.026   0.725 -0.2303  0.0934 -0.2675
 2430SOL     OW18748   3.196   2.816   1.034  0.2952  0.3981 -0.0027
 2430SOL    HW118749   3.211   2.747   0.970 -0.5174  0.0317  0.2100
 2430SOL    HW218750   3.281   2.823   1.078 -0.7124  0.3764  1.9430
 2431SOL     OW18751   1.335   4.383   2.349  0.2523 -0.5875 -0.1046
 2431SOL    HW118752   1.250   4.416   2.379  0.0088 -1.6151  0.3486
 2431SOL    HW218753   1.376   4.464   2.320 -0.5777  0.5311  1.8355
 2432SOL     OW18754   0.028   1.302   3.678  0.0516  0.3336  0.4104
 2432SOL    HW118755   0.095   1.275   3.741  0.9219 -1.1462 -1.1691
 2432SOL    HW218756   4.698   1.364   3.728  0.9457  0.7159  0.8883
 2433SOL     OW18757   3.609   3.908   4.285 -0.0826  0.0520  0.0675
 2433SOL    HW118758   3.628   3.972   4.353 -0.3116  0.5698 -0.3600
 2433SOL    HW218759   3.692   3.859   4.284 -0.8459 -1.2314 -0.6690
 2434SOL     OW18760   1.557   3.934   1.217 -0.4265  0.7950 -0.3301
 2434SOL    HW118761   1.639   3.980   1.203  0.3069 -0.9068 -1.6325
 2434SOL    HW218762   1.594   3.859   1.169  0.1909  1.3102 -0.6612
 2435SOL     OW18763   1.902   0.161   9.784 -0.0485 -0.2640 -0.0346
 2435SOL    HW118764   1.875   0.247   9.817 -1.0854 -0.3770 -0.5827
 2435SOL    HW218765   1.992   0.176   9.812  0.3049 -0.9589 -0.8027
 2436SOL     OW18766   3.357   4.603   5.086 -0.4698 -0.0436 -0.8211
 2436SOL    HW118767   3.309   4.654   5.152 -1.1820 -3.0030  0.9331
 2436SOL    HW218768   3.420   4.669   5.057 -2.1305  2.4535  1.2676
 2437SOL     OW18769   1.299   0.217   8.056 -0.6900  0.5821  0.0175
 2437SOL    HW118770   1.220   0.264   8.032 -1.6558 -1.9595 -1.7730
 2437SOL    HW218771   1.350   0.278   8.110 -1.5809  0.7192  0.7050
 2438SOL     OW18772   1.937   2.061   7.855 -0.9187 -0.1993  0.1234
 2438SOL    HW118773   1.925   2.145   7.811 -0.3267 -1.2804 -2.0758
 2438SOL    HW218774   1.892   2.083   7.937  1.3408 -0.5775  1.4599
 2439SOL     OW18775   2.339   2.350   3.544 -0.1532  0.0959  0.2477
 2439SOL    HW118776   2.362   2.441   3.526 -2.9184  0.7188 -0.1131
 2439SOL    HW218777   2.302   2.368   3.630 -0.6350  2.3708 -0.4419
 2440SOL     OW18778   4.534   1.022  14.874 -0.0187 -0.3128  0.0665
 2440SOL    HW118779   4.516   1.094  14.813 -1.8381  1.3688  2.5873
 2440SOL    HW218780   4.470   1.030  14.945  1.0963 -1.0474  1.1401
 2441SOL     OW18781   0.839   2.535   5.450 -0.0991 -0.3534 -0.4477
 2441SOL    HW118782   0.783   2.458   5.448 -0.9663  0.1749  3.1901
 2441SOL    HW218783   0.832   2.562   5.358  2.7678 -2.3772 -1.2587
 2442SOL     OW18784   2.981   4.139   3.614  0.3628 -0.0959 -0.4418
 2442SOL    HW118785   2.971   4.079   3.540  0.0926 -1.8437  1.0137
 2442SOL    HW218786   3.070   4.118   3.643  0.5821 -0.9875 -1.7634
 2443SOL     OW18787   1.315   1.549   6.579  0.1163  0.2861  0.2596
 2443SOL    HW118788   1.242   1.563   6.640 -0.0467 -2.3313  0.6552
 2443SOL    HW218789   1.345   1.476   6.633  2.1897  0.8312 -0.1698
 2444SOL     OW18790   1.204   4.433  16.654  0.3807 -0.0069 -0.3518
 2444SOL    HW118791   1.149   4.417  16.578  1.5644 -1.4840 -0.8971
 2444SOL    HW218792   1.137   4.481  16.703  0.6637 -0.6875  0.6834
 2445SOL     OW18793   4.329   1.843   9.011 -0.4980  0.7545  0.0638
 2445SOL    HW118794   4.273   1.766   9.023 -1.3302  1.2033 -0.9111
 2445SOL    HW218795   4.291   1.905   9.072 -0.8183  0.9064 -0.2904
 2446SOL     OW18796   0.052   2.830   5.698  0.4905 -0.3394 -0.1585
 2446SOL    HW118797   0.024   2.777   5.623 -1.1039 -1.4151  1.1983
 2446SOL    HW218798   4.691   2.815   5.742 -0.2946  2.8349 -0.5725
 2447SOL     OW18799   0.664   1.057   1.372 -0.0287  0.0437  0.4963
 2447SOL    HW118800   0.661   1.075   1.466  0.3573 -0.5988  0.6297
 2447SOL    HW218801   0.571   1.053   1.347  0.1855 -0.7893 -0.1516
 2448SOL     OW18802   4.014   1.878   4.305 -0.1248  0.4922  0.2718
 2448SOL    HW118803   3.919   1.888   4.313 -0.1343  1.7329 -1.1820
 2448SOL    HW218804   4.047   1.965   4.285  0.6760  0.2721  0.6575
 2449SOL     OW18805   4.403   3.698  12.178  0.9903  0.6605  0.1921
 2449SOL    HW118806   4.437   3.608  12.187  1.2611  0.7700  0.2764
 2449SOL    HW218807   4.338   3.702  12.248  1.6750 -0.4530  0.8917
 2450SOL     OW18808   4.410   2.094   3.656 -0.1910 -0.2766  0.2784
 2450SOL    HW118809   4.470   2.064   3.587  0.2902  1.7149 -0.1872
 2450SOL    HW218810   4.433   2.186   3.670 -3.4458  0.4262  0.8732
 2451SOL     OW18811   3.200   3.601   0.768  0.6925 -0.4284 -0.0308
 2451SOL    HW118812   3.168   3.514   0.793 -0.3180  0.0497  0.3732
 2451SOL    HW218813   3.165   3.645   0.846  0.1261 -1.8299  0.4920
 2452SOL     OW18814   0.597   2.017   2.246  0.1998  0.5406 -0.4941
 2452SOL    HW118815   0.590   1.969   2.163 -1.5101 -2.4067  1.3855
 2452SOL    HW218816   0.548   2.097   2.230 -0.1588  0.6244  1.0560
 2453SOL     OW18817   2.869   1.525   1.468 -0.4490 -0.6366  0.1124
 2453SOL    HW118818   2.902   1.492   1.385 -0.1976 -0.6242  0.2063
 2453SOL    HW218819   2.850   1.446   1.519  1.1803 -0.5985  0.7877
 2454SOL     OW18820   3.583   1.589  15.753 -0.4392  0.2728  0.6817
 2454SOL    HW118821   3.599   1.611  15.661 -4.3681  1.3716  0.2582
 2454SOL    HW218822   3.523   1.663  15.766  0.2654  1.0093 -0.2222
 2455SOL     OW18823   0.817   2.095   5.388  0.4419  0.9539  0.6621
 2455SOL    HW118824   0.759   2.021   5.368  0.6457  1.0447 -0.2494
 2455SOL    HW218825   0.894   2.045   5.361 -0.6198 -1.7415  2.5834
 2456SOL     OW18826   4.625   2.335   7.908  0.4289 -0.6926 -0.3078
 2456SOL    HW118827   4.640   2.338   8.002 -2.1063  1.8131  0.0152
 2456SOL    HW218828   4.529   2.340   7.902  0.4238 -1.2890 -0.7933
 2457SOL     OW18829   2.027   2.315   4.540 -0.6092 -0.3055  0.4589
 2457SOL    HW118830   1.958   2.379   4.557 -2.3418 -2.3414  1.0690
 2457SOL    HW218831   1.980   2.275   4.467 -1.2197  0.1541  0.6003
 2458SOL     OW18832   1.874   4.429   4.146 -0.1542  0.0523 -0.2063
 2458SOL    HW118833   1.934   4.502   4.132  0.2506 -1.0989 -4.3859
 2458SOL    HW218834   1.883   4.413   4.240  1.8923  1.1302 -0.2275
 2459SOL     OW18835   1.814   4.347  10.379  0.0743 -0.2203  0.2019
 2459SOL    HW118836   1.852   4.435  10.386  0.2421 -0.2485 -0.3172
 2459SOL    HW218837   1.722   4.351  10.403 -0.3972  0.6572 -1.7264
 2460SOL     OW18838   0.197   1.746   4.921 -0.1205 -0.1487  0.2113
 2460SOL    HW118839   0.142   1.682   4.966  0.4366 -0.4215  0.5071
 2460SOL    HW218840   0.258   1.774   4.989  0.7733 -0.7037 -0.3608
 2461SOL     OW18841   4.595   0.220   2.594 -0.0864  0.7894 -0.1603
 2461SOL    HW118842   4.667   0.185   2.542 -1.1218 -0.4897 -0.7430
 2461SOL    HW218843   4.518   0.220   2.537 -0.5053  1.0111  0.4087
 2462SOL     OW18844   0.775   0.509   5.017 -0.4581  0.4204  0.3022
 2462SOL    HW118845   0.682   0.500   4.994  0.9168 -1.6206 -4.5803
 2462SOL    HW218846   0.789   0.441   5.083 -1.4958  1.6878  1.8369
 2463SOL     OW18847   3.489   2.923  14.043 -0.0154 -0.3369 -0.1601
 2463SOL    HW118848   3.460   2.838  14.077  0.6326  0.1631  1.6152
 2463SOL    HW218849   3.484   2.974  14.124 -0.9685 -0.9731  0.1828
 2464SOL     OW18850   2.325   3.293   7.717  0.3890 -0.2919 -0.6061
 2464SOL    HW118851   2.347   3.201   7.731 -1.4706 -0.4343  1.3508
 2464SOL    HW218852   2.412   3.330   7.724 -0.2468  0.9024  0.9610
 2465SOL     OW18853   2.380   3.588  17.300  0.1798  0.3391 -0.4414
 2465SOL    HW118854   2.397   3.535  17.378 -1.4639  0.2547 -0.1561
 2465SOL    HW218855   2.441   3.661  17.315  1.9327 -1.3497  0.6684
 2466SOL     OW18856   2.742   4.131   1.663 -0.1220 -0.0273 -0.0607
 2466SOL    HW118857   2.717   4.043   1.691 -0.7138  0.1461 -0.0463
 2466SOL    HW218858   2.683   4.126   1.588  0.7218  0.1457 -0.7411
 2467SOL     OW18859   1.260   4.155  10.068 -0.5775 -0.3006 -0.1956
 2467SOL    HW118860   1.295   4.199  10.145 -0.0121 -0.7823 -0.1810
 2467SOL    HW218861   1.202   4.222  10.031 -2.4341 -1.3597  0.7557
 2468SOL     OW18862   4.488   3.111  13.911 -0.1984 -0.3976  0.4047
 2468SOL    HW118863   4.411   3.158  13.944 -0.0702 -1.4227  2.1666
 2468SOL    HW218864   4.555   3.177  13.927 -0.5701  0.3370 -1.0195
 2469SOL     OW18865   3.063   1.047   7.452  0.3057 -0.5558  0.1540
 2469SOL    HW118866   3.107   1.024   7.534  2.2632 -0.0461 -0.7620
 2469SOL    HW218867   2.989   1.099   7.483 -0.9342 -0.6014 -2.7259
 2470SOL     OW18868   3.923   3.794   3.786  0.0294 -0.1170 -0.0534
 2470SOL    HW118869   3.848   3.831   3.834 -0.1023  0.2848 -0.5663
 2470SOL    HW218870   3.881   3.740   3.718  0.4682 -0.0619 -0.3661
 2471SOL     OW18871   0.571   4.551   9.779  0.2383 -0.4937  0.3109
 2471SOL    HW118872   0.500   4.567   9.717  0.7634  2.3008  0.4407
 2471SOL    HW218873   0.539   4.465   9.809  1.5116 -1.2949 -0.6007
 2472SOL     OW18874   1.058   2.935   6.858 -0.0833 -0.1000  0.4062
 2472SOL    HW118875   1.115   2.901   6.927  0.8387 -1.3237 -0.9274
 2472SOL    HW218876   1.097   3.022   6.860 -0.9264  0.2842  0.0310
 2473SOL     OW18877   2.205   1.685   6.900  0.1226 -0.1698  0.5372
 2473SOL    HW118878   2.148   1.761   6.914 -0.3582 -0.0545 -2.1106
 2473SOL    HW218879   2.133   1.630   6.871 -0.8667  0.3052  2.1141
 2474SOL     OW18880   3.898   2.827  12.452  0.0056 -0.1258  0.6753
 2474SOL    HW118881   3.980   2.872  12.430 -0.1026 -0.0893  0.3508
 2474SOL    HW218882   3.912   2.808  12.545  0.5584  0.5101  0.7209
 2475SOL     OW18883   1.293   0.864   6.026  0.3827 -0.7092  0.1211
 2475SOL    HW118884   1.220   0.807   6.000 -1.9064  0.8576  3.1026
 2475SOL    HW218885   1.273   0.882   6.118 -1.8324 -1.6508 -0.1567
 2476SOL     OW18886   1.899   4.595   2.990  0.2525  0.2771  0.0226
 2476SOL    HW118887   1.923   4.583   2.898 -0.1564  1.3047 -0.2088
 2476SOL    HW218888   1.806   4.613   2.978  0.2883 -0.6168 -1.6159
 2477SOL     OW18889   2.347   4.331   7.242 -0.3980 -0.0909 -0.3456
 2477SOL    HW118890   2.256   4.301   7.238  0.1309 -1.5053 -1.8035
 2477SOL    HW218891   2.373   4.330   7.150  1.2318 -0.7965  0.1179
 2478SOL     OW18892   2.254   0.941   8.239 -0.3991 -0.3125  0.3602
 2478SOL    HW118893   2.311   0.949   8.315 -0.8048 -1.5272  0.7767
 2478SOL    HW218894   2.321   0.951   8.171  2.6510  1.4871  3.6130
 2479SOL     OW18895   1.361   4.191  12.528  0.0658  0.1233  0.2906
 2479SOL    HW118896   1.433   4.219  12.472 -1.4002  0.7969 -1.2844
 2479SOL    HW218897   1.404   4.171  12.611  1.2795  0.8605 -0.1558
 2480SOL     OW18898   0.300   2.110   4.654 -0.4274 -0.1494  0.2023
 2480SOL    HW118899   0.333   2.033   4.699  1.7094  1.1188  0.7960
 2480SOL    HW218900   0.384   2.153   4.638 -0.3059  0.2076  1.7965
 2481SOL     OW18901   1.483   1.756  15.095 -0.3332 -0.4830 -0.0550
 2481SOL    HW118902   1.491   1.667  15.131 -2.1061 -0.4165  0.5194
 2481SOL    HW218903   1.522   1.806  15.167  0.3658 -1.9752  0.6101
 2482SOL     OW18904   3.700   3.165  16.320  0.0447  0.4515  0.4579
 2482SOL    HW118905   3.792   3.168  16.293 -0.5100 -1.5521 -1.6796
 2482SOL    HW218906   3.679   3.080  16.282  0.3341  0.0435  1.2235
 2483SOL     OW18907   4.627   2.937   3.528 -0.4642  0.3266 -0.0094
 2483SOL    HW118908   4.648   2.844   3.522 -0.7199  0.1818  1.3854
 2483SOL    HW218909   4.534   2.930   3.507 -0.1817  0.1661 -1.1998
 2484SOL     OW18910   2.341   3.768   0.255  0.3074 -0.6253 -0.1189
 2484SOL    HW118911   2.321   3.674   0.260  0.8770 -0.8770 -3.0019
 2484SOL    HW218912   2.437   3.767   0.264  0.2730 -0.4317  0.3033
 2485SOL     OW18913   3.515   0.012   9.286 -0.3134 -0.1675  0.5991
 2485SOL    HW118914   3.555   0.098   9.267 -0.9378  0.1968  0.9653
 2485SOL    HW218915   3.434   0.015   9.236  0.1411 -1.4681 -0.2005
 2486SOL     OW18916   2.102   3.924   0.428 -0.0913  0.1507  0.0234
 2486SOL    HW118917   2.114   4.001   0.372 -1.5546  0.4206  0.0789
 2486SOL    HW218918   2.167   3.863   0.392 -0.1325  0.5174 -0.6731
 2487SOL     OW18919   0.589   0.298  11.280  0.4456  0.0336  0.4682
 2487SOL    HW118920   0.565   0.358  11.351  1.8894 -0.7096  1.5630
 2487SOL    HW218921   0.567   0.367  11.216  1.4002 -0.2580 -0.1709
 2488SOL     OW18922   2.722   3.464  17.482 -0.0069  0.2109 -0.2370
 2488SOL    HW118923   2.790   3.422  17.428 -0.4182  0.2427 -0.7751
 2488SOL    HW218924   2.751   3.555  17.495 -0.9931  0.3471  1.0126
 2489SOL     OW18925   3.207   1.936   3.033 -0.7334  0.7146 -0.0141
 2489SOL    HW118926   3.243   1.848   3.027 -1.2050  0.5609 -0.5144
 2489SOL    HW218927   3.274   1.995   2.997 -0.9574 -0.7355 -2.7783
 2490SOL     OW18928   1.840   2.179   7.616  0.4644 -0.4578 -0.3515
 2490SOL    HW118929   1.751   2.213   7.613  0.4494 -0.4944 -0.3249
 2490SOL    HW218930   1.899   2.243   7.577  0.6565 -0.7723 -0.5844
 2491SOL     OW18931   2.911   3.030   8.568  0.0121  0.6233  0.5256
 2491SOL    HW118932   2.872   3.088   8.502 -0.3291 -0.7078 -0.4258
 2491SOL    HW218933   2.829   2.996   8.602  1.1752 -2.4724  0.2578
 2492SOL     OW18934   4.429   0.339   0.305 -0.1866  0.6982 -0.0054
 2492SOL    HW118935   4.484   0.275   0.260 -1.0484  0.5087 -0.8019
 2492SOL    HW218936   4.474   0.420   0.281  0.4884  1.5374  4.1261
 2493SOL     OW18937   4.307   2.079   6.934 -0.1739 -0.3139  0.0541
 2493SOL    HW118938   4.362   2.029   6.994  0.1636  1.5700  1.3157
 2493SOL    HW218939   4.256   2.121   7.003  0.6804  0.4332  0.2327
 2494SOL     OW18940   1.664   4.345   3.367 -0.1603 -0.4539  0.9235
 2494SOL    HW118941   1.755   4.350   3.395  0.3840 -0.2898 -0.8892
 2494SOL    HW218942   1.616   4.298   3.436 -0.7209 -0.2864  0.6521
 2495SOL     OW18943   3.045   4.274   7.185 -0.1780  0.5566  0.1975
 2495SOL    HW118944   3.083   4.197   7.143 -1.9476 -0.2193  0.0211
 2495SOL    HW218945   2.983   4.231   7.243 -0.3429 -0.3950 -0.6952
 2496SOL     OW18946   2.441   3.333  15.592 -0.9177  0.1521  0.6692
 2496SOL    HW118947   2.384   3.264  15.626  0.6746 -2.0817 -1.1787
 2496SOL    HW218948   2.377   3.403  15.584 -1.0465  0.0753  1.0370
 2497SOL     OW18949   4.322   0.578   8.902 -0.2778 -0.1783  0.0801
 2497SOL    HW118950   4.279   0.659   8.873 -2.0492 -0.7866  1.0049
 2497SOL    HW218951   4.357   0.609   8.985 -0.8592  1.8120 -0.4229
 2498SOL     OW18952   3.242   0.518   7.288  0.1140  1.0664  0.6173
 2498SOL    HW118953   3.300   0.450   7.323 -1.1754 -1.1864 -1.7031
 2498SOL    HW218954   3.157   0.478   7.305  0.5348 -0.2778 -0.4716
 2499SOL     OW18955   0.305   2.785   5.840 -0.2782  0.5490  0.2114
 2499SOL    HW118956   0.241   2.816   5.776  1.3216 -0.8625 -2.0846
 2499SOL    HW218957   0.385   2.814   5.798 -1.9544  1.0517 -2.5993
 2500SOL     OW18958   4.422   2.902   5.239 -0.4012 -0.2363 -0.2956
 2500SOL    HW118959   4.381   2.816   5.237 -4.1407  1.5422  0.0352
 2500SOL    HW218960   4.357   2.932   5.303 -1.2772  1.0975 -1.8123
 2501SOL     OW18961   3.304   0.214   3.086 -0.0654  0.9521  0.0676
 2501SOL    HW118962   3.346   0.292   3.122 -1.3161  0.8499  1.7221
 2501SOL    HW218963   3.367   0.144   3.098 -0.0287  1.0023  0.1641
 2502SOL     OW18964   4.644   2.574   1.004 -0.4938 -0.5503 -0.5418
 2502SOL    HW118965   0.006   2.547   1.040 -0.7327 -0.9582 -0.2828
 2502SOL    HW218966   4.592   2.614   1.073 -0.4399  0.0825 -0.8739
 2503SOL     OW18967   3.006   4.351   3.329  0.4622  0.7026  0.0418
 2503SOL    HW118968   3.004   4.428   3.385 -2.2395 -0.6213  1.7872
 2503SOL    HW218969   2.923   4.308   3.351  1.1116 -0.0993  0.9273
 2504SOL     OW18970   2.510   2.315   2.800 -0.1774 -0.2777  0.5123
 2504SOL    HW118971   2.493   2.404   2.771  0.7586 -0.0403  0.6780
 2504SOL    HW218972   2.604   2.312   2.820 -0.0280  0.5157 -0.0736
 2505SOL     OW18973   2.234   2.131   6.567  0.4962  0.3651  0.5588
 2505SOL    HW118974   2.251   2.115   6.659  0.9491  1.6788  0.7049
 2505SOL    HW218975   2.223   2.041   6.537  0.3108  1.1346 -1.7037
 2506SOL     OW18976   0.543   3.622   5.285  0.1296 -0.2889  0.0459
 2506SOL    HW118977   0.592   3.671   5.352 -0.3783  1.4267 -0.8295
 2506SOL    HW218978   0.510   3.543   5.327 -0.1755  0.1495  0.6204
 2507SOL     OW18979   1.605   3.308   2.535 -1.0252 -0.3419 -0.3345
 2507SOL    HW118980   1.626   3.255   2.458 -0.6671  2.4743 -2.1411
 2507SOL    HW218981   1.587   3.246   2.607  1.0118  0.0518  0.5284
 2508SOL     OW18982   0.945   3.811   9.208 -0.0637 -0.0703 -0.0040
 2508SOL    HW118983   0.956   3.728   9.255  1.6705 -1.2224 -2.4132
 2508SOL    HW218984   0.877   3.794   9.143 -1.9943  2.2856  1.4301
 2509SOL     OW18985   0.183   3.790  12.813  0.5843  0.1309 -0.9506
 2509SOL    HW118986   0.251   3.842  12.770  1.4065  0.0876  0.3227
 2509SOL    HW218987   0.103   3.824  12.773  0.5889 -1.4356 -2.2914
 2510SOL     OW18988   2.141   0.025   1.171 -0.0820 -0.4583  0.4129
 2510SOL    HW118989   2.176   0.115   1.176  0.6559 -0.7410  0.3474
 2510SOL    HW218990   2.094   0.031   1.254  1.2836 -1.0668  1.2260
 2511SOL     OW18991   2.649   3.465   1.062 -0.1548 -0.5107  0.1061
 2511SOL    HW118992   2.602   3.549   1.059  2.1452  0.7528 -0.8343
 2511SOL    HW218993   2.611   3.426   0.984 -2.2908  2.5692 -0.3984
 2512SOL     OW18994   4.400   0.423   7.677 -0.1604 -0.2233  0.0972
 2512SOL    HW118995   4.412   0.375   7.759 -2.1840 -0.2553  0.3705
 2512SOL    HW218996   4.381   0.347   7.622 -0.7716  0.8531 -1.1750
 2513SOL     OW18997   1.508   4.473  12.312 -0.0486  0.1630  0.5748
 2513SOL    HW118998   1.595   4.480  12.353  0.4990 -2.3025 -0.1793
 2513SOL    HW218999   1.516   4.548  12.253  0.2563 -0.8328 -0.6413
 2514SOL     OW19000   1.926   2.019   0.525  0.1450  0.1358  0.1921
 2514SOL    HW119001   1.875   1.978   0.595  0.6053  1.1574  1.1398
 2514SOL    HW219002   1.913   1.967   0.446  1.1603 -0.3373  0.3371
 2515SOL     OW19003   3.155   2.375   5.210  0.0246 -0.4207  1.0311
 2515SOL    HW119004   3.102   2.296   5.222  0.7856 -1.1479 -0.4750
 2515SOL    HW219005   3.126   2.416   5.129 -0.6310 -2.1969  0.3612
 2516SOL     OW19006   2.770   4.242  16.032  0.1247  0.1993  0.6302
 2516SOL    HW119007   2.835   4.305  16.064  1.6188 -0.5915 -0.8861
 2516SOL    HW219008   2.698   4.300  16.058 -0.9952 -1.3878  1.0947
 2517SOL     OW19009   1.734   4.680   2.654  0.7416 -0.4347  0.2744
 2517SOL    HW119010   1.698   4.679   2.743  0.9962  0.2969  0.3878
 2517SOL    HW219011   1.828   4.668   2.672  1.1404  0.9675 -0.8682
 2518SOL     OW19012   3.600   3.318   6.918 -0.1195  0.0716 -0.4730
 2518SOL    HW119013   3.560   3.238   6.884 -0.0063 -0.5500  0.8596
 2518SOL    HW219014   3.555   3.381   6.862 -1.3271 -2.4541 -2.3663
 2519SOL     OW19015   1.664   0.146   8.681  0.6056  0.5110  0.3229
 2519SOL    HW119016   1.627   0.065   8.646  1.4102  1.0483 -1.7916
 2519SOL    HW219017   1.723   0.120   8.752  0.5740 -2.8448 -0.8712
 2520SOL     OW19018   3.747   0.024   3.294 -0.1374 -0.3697  0.5245
 2520SOL    HW119019   3.747   0.095   3.359 -0.9116  0.3427 -0.2610
 2520SOL    HW219020   3.696   0.070   3.228 -0.0387 -0.9981  0.0183
 2521SOL     OW19021   2.901   3.224   2.455 -0.6545  0.1334 -0.4234
 2521SOL    HW119022   2.917   3.300   2.511 -1.4911  0.7883 -1.0689
 2521SOL    HW219023   2.842   3.170   2.509 -0.4978 -1.8626 -2.2609
 2522SOL     OW19024   0.648   4.234   3.444  0.1721 -0.3446 -0.2346
 2522SOL    HW119025   0.717   4.211   3.507 -1.0576  1.1212  1.6776
 2522SOL    HW219026   0.650   4.156   3.389  0.1367  0.0149 -0.7488
 2523SOL     OW19027   0.538   1.444   4.744  0.0727  0.1594  0.3997
 2523SOL    HW119028   0.631   1.468   4.750  0.8878 -3.2364  1.9141
 2523SOL    HW219029   0.511   1.531   4.717  2.0340  0.7441  0.3008
 2524SOL     OW19030   3.009   3.774  13.721  0.1256 -0.2111  0.1165
 2524SOL    HW119031   2.988   3.857  13.679  1.2542  0.4858  0.9274
 2524SOL    HW219032   3.029   3.717  13.647  0.2415 -1.0223  0.7684
 2525SOL     OW19033   3.708   1.970   5.502 -0.1089  0.3069 -0.5882
 2525SOL    HW119034   3.719   1.947   5.594 -2.0355 -0.2519 -0.5045
 2525SOL    HW219035   3.667   2.056   5.500  1.0970  0.8985  0.2877
 2526SOL     OW19036   3.225   3.093  13.877  0.2390  0.3209 -0.0035
 2526SOL    HW119037   3.237   3.001  13.853 -0.7580 -0.0012  0.7158
 2526SOL    HW219038   3.260   3.135  13.799  0.8593 -0.4143 -0.1204
 2527SOL     OW19039   1.252   0.804   6.892  0.1915 -0.1919 -0.0913
 2527SOL    HW119040   1.252   0.744   6.817 -0.8075 -1.9331  1.2963
 2527SOL    HW219041   1.340   0.785   6.925 -0.4393 -1.6055  0.7918
 2528SOL     OW19042   4.439   4.277  17.553 -0.0307  0.1341  0.3694
 2528SOL    HW119043   4.454   4.356  17.501  1.3028 -0.1042  0.3854
 2528SOL    HW219044   4.516   4.226  17.528  0.7942  1.6163 -0.0876
 2529SOL     OW19045   4.203   4.040   2.280 -0.5240 -0.2073 -0.5211
 2529SOL    HW119046   4.167   4.080   2.201  0.0332  1.2767 -0.0188
 2529SOL    HW219047   4.273   4.101   2.301  1.6583 -3.3315  1.2809
 2530SOL     OW19048   4.576   2.980  11.873 -0.0889 -0.5250  0.1802
 2530SOL    HW119049   4.535   2.902  11.910 -2.0720 -0.4432 -1.8581
 2530SOL    HW219050   4.560   2.968  11.780  0.1832 -0.6182  0.1460
 2531SOL     OW19051   0.780   2.905   4.422  0.0517 -0.5799 -0.1011
 2531SOL    HW119052   0.712   2.922   4.487 -1.5935 -2.1958 -1.4040
 2531SOL    HW219053   0.830   2.839   4.470  0.1417 -1.8925 -1.9743
 2532SOL     OW19054   4.565   1.022   2.594  0.1822 -0.0441 -0.2947
 2532SOL    HW119055   4.552   1.116   2.584 -1.6549 -0.4279 -1.4917
 2532SOL    HW219056   4.660   1.026   2.604  0.0481  3.5218 -0.4245
 2533SOL     OW19057   3.014   3.467   5.810 -0.6392 -0.0995  0.3310
 2533SOL    HW119058   3.103   3.438   5.789 -0.1826  1.2479  0.4041
 2533SOL    HW219059   3.027   3.513   5.892 -0.0771  1.5025 -0.6518
 2534SOL     OW19060   0.195   0.931  13.565 -0.0554 -0.0750 -0.0426
 2534SOL    HW119061   0.249   0.867  13.518  1.1865  0.4066  0.7123
 2534SOL    HW219062   0.247   1.011  13.552 -0.2748  0.3597  1.6896
 2535SOL     OW19063   3.048   1.378  14.354  0.3733 -0.0902  0.3014
 2535SOL    HW119064   3.077   1.468  14.366 -0.8038  0.6431 -2.4466
 2535SOL    HW219065   2.958   1.393  14.326 -0.0965  0.7503  2.2821
 2536SOL     OW19066   2.408   4.098   1.129 -0.5170 -0.1013  0.1968
 2536SOL    HW119067   2.395   4.015   1.084  1.4472  0.5203 -1.5085
 2536SOL    HW219068   2.396   4.162   1.059 -1.3684  1.8052  2.0464
 2537SOL     OW19069   3.345   0.383   4.280  0.4193 -0.1818 -0.2552
 2537SOL    HW119070   3.412   0.367   4.213  0.3161 -2.4339  0.1886
 2537SOL    HW219071   3.338   0.479   4.278  3.4208  0.0512  0.5625
 2538SOL     OW19072   3.563   3.666   3.452  0.0711 -0.5527 -0.7172
 2538SOL    HW119073   3.515   3.583   3.462  0.8931 -0.8630  0.6326
 2538SOL    HW219074   3.512   3.726   3.505 -0.6204 -1.7904  0.0179
 2539SOL     OW19075   2.724   0.095   3.180 -0.0866  0.1078  0.1367
 2539SOL    HW119076   2.713   0.187   3.204 -1.5039 -0.5092  1.8764
 2539SOL    HW219077   2.745   0.059   3.267  0.2209 -1.4592 -0.5801
 2540SOL     OW19078   2.046   3.443   1.811 -0.0914  0.8049  0.2620
 2540SOL    HW119079   2.121   3.499   1.828  1.4324 -1.6437  1.6200
 2540SOL    HW219080   2.085   3.368   1.856 -0.6895  0.6928  0.5964
 2541SOL     OW19081   3.449   1.932   6.838  0.0185  0.3084  0.1660
 2541SOL    HW119082   3.389   1.935   6.763 -1.1553  1.1887  1.1526
 2541SOL    HW219083   3.411   1.857   6.883 -0.4163 -0.9671 -2.2922
 2542SOL     OW19084   0.920   3.913   3.206  0.3852  0.2189  1.1618
 2542SOL    HW119085   0.828   3.934   3.190  0.5615  0.8198  0.9318
 2542SOL    HW219086   0.943   3.938   3.296 -0.1178 -0.7371  1.5580
 2543SOL     OW19087   3.878   3.932  12.807  0.1296  0.5802 -0.5454
 2543SOL    HW119088   3.895   3.894  12.893  1.4887 -0.0954 -1.1067
 2543SOL    HW219089   3.804   3.881  12.773  0.9089  0.6777 -2.3919
 2544SOL     OW19090   1.402   2.407   4.006  0.2833  0.0595  0.4214
 2544SOL    HW119091   1.478   2.364   3.964  0.0962 -0.0856  0.2296
 2544SOL    HW219092   1.447   2.458   4.073 -0.5570  0.5554  0.5989
 2545SOL     OW19093   2.917   1.238   2.650  0.2043 -0.1859 -0.0911
 2545SOL    HW119094   2.868   1.293   2.712  0.0817  0.0346 -0.3836
 2545SOL    HW219095   2.968   1.175   2.700  2.0941  1.3299 -0.0874
 2546SOL     OW19096   2.211   3.875  14.307  0.1057  0.2771 -0.3597
 2546SOL    HW119097   2.203   3.848  14.399 -1.6397 -0.1431 -0.6392
 2546SOL    HW219098   2.151   3.811  14.270 -2.2757  1.0243  2.2261
 2547SOL     OW19099   3.696   0.948  12.223  0.3119 -0.1657 -0.5197
 2547SOL    HW119100   3.736   0.870  12.185 -0.8870 -0.4037 -1.2946
 2547SOL    HW219101   3.631   0.910  12.282 -0.2748  0.8474 -0.5153
 2548SOL     OW19102   1.777   3.687   1.016 -0.3688  0.1049 -0.6722
 2548SOL    HW119103   1.710   3.645   1.070  0.5375 -0.2158  0.2084
 2548SOL    HW219104   1.794   3.623   0.946 -2.1541 -1.1491  0.0240
 2549SOL     OW19105   3.600   4.635   6.805  0.1652  0.4942 -0.5792
 2549SOL    HW119106   3.543   4.567   6.768  0.7114 -0.1394 -0.2532
 2549SOL    HW219107   3.634   4.591   6.882 -0.8945  0.2269 -0.2607
 2550SOL     OW19108   0.543   3.218   3.726  0.1809 -0.2658  0.5945
 2550SOL    HW119109   0.550   3.190   3.817  0.5545  0.6010  0.8296
 2550SOL    HW219110   0.483   3.291   3.714 -2.2608 -2.2744  0.6473
 2551SOL     OW19111   3.699   1.656  17.251  0.0031  0.2058 -0.1102
 2551SOL    HW119112   3.712   1.742  17.292  1.3378 -1.2013  2.4534
 2551SOL    HW219113   3.625   1.630  17.306 -1.7917  0.7967 -2.2622
 2552SOL     OW19114   2.526   4.686   2.615 -0.6429  0.0963 -0.3266
 2552SOL    HW119115   2.535   0.058   2.607 -0.5492  0.1299  0.1831
 2552SOL    HW219116   2.513   4.672   2.709 -0.0771  1.9577  0.0354
 2553SOL     OW19117   3.046   3.513   0.024  0.1607 -0.2359  0.1107
 2553SOL    HW119118   3.015   3.579   0.086  0.5888  0.9687 -0.9741
 2553SOL    HW219119   3.142   3.514   0.028  0.1518  0.4947 -0.0083
 2554SOL     OW19120   0.142   1.600   3.738 -0.3584  0.5389 -0.3471
 2554SOL    HW119121   0.161   1.606   3.645 -0.2616 -1.8496 -0.4811
 2554SOL    HW219122   0.052   1.566   3.743  0.8622 -2.7083 -0.6160
 2555SOL     OW19123   0.517   2.235  11.295 -0.3111  0.2725  0.0950
 2555SOL    HW119124   0.483   2.315  11.256 -1.1930 -1.0755 -1.8978
 2555SOL    HW219125   0.505   2.180  11.217  2.9630  0.3134 -0.4154
 2556SOL     OW19126   1.790   1.646  10.116 -0.0223  0.2462  0.0020
 2556SOL    HW119127   1.791   1.718  10.052  0.5768 -0.1050 -0.3838
 2556SOL    HW219128   1.845   1.582  10.070  0.6662 -1.8345  3.7564
 2557SOL     OW19129   3.350   3.017  12.043  0.3946  0.1390 -0.0331
 2557SOL    HW119130   3.292   3.015  12.120  0.0494  0.9370 -0.2727
 2557SOL    HW219131   3.422   3.067  12.082 -1.0323  2.0662  0.1819
 2558SOL     OW19132   3.393   0.126   3.621 -0.0027 -0.0216 -0.9384
 2558SOL    HW119133   3.406   0.186   3.548 -3.0569  0.9189 -0.7089
 2558SOL    HW219134   3.311   0.167   3.649  0.0782 -1.6690  1.7529
 2559SOL     OW19135   1.449   1.119  16.031 -0.3628  0.2094  0.6083
 2559SOL    HW119136   1.528   1.113  16.085  0.4172 -1.3828 -0.6749
 2559SOL    HW219137   1.478   1.180  15.963 -0.1928 -0.3264  0.1978
 2560SOL     OW19138   1.808   0.397  11.004  0.3342  0.6638  0.0628
 2560SOL    HW119139   1.776   0.480  11.040 -1.6357  0.0490 -0.2647
 2560SOL    HW219140   1.902   0.404  11.016  0.4144 -4.2381  2.2121
 2561SOL     OW19141   3.793   0.667  13.327 -0.0567  0.0272 -0.1006
 2561SOL    HW119142   3.710   0.625  13.348  0.3037 -0.5633  0.1425
 2561SOL    HW219143   3.822   0.678  13.418  0.2996 -2.6890  0.1050
 2562SOL     OW19144   3.268   1.910   6.277  0.3050  0.1273  0.1331
 2562SOL    HW119145   3.327   1.844   6.242 -1.6806 -1.9444  0.7021
 2562SOL    HW219146   3.215   1.855   6.335  1.8004 -0.7634  0.6410
 2563SOL     OW19147   4.133   4.183  13.138 -0.4767 -0.4254 -0.0571
 2563SOL    HW119148   4.071   4.170  13.067 -0.0196  1.1534 -0.7403
 2563SOL    HW219149   4.216   4.141  13.113 -0.3686 -0.2195 -0.0407
 2564SOL     OW19150   1.788   3.238   6.811 -0.0776  0.1311  0.0731
 2564SOL    HW119151   1.841   3.170   6.768 -0.2138  0.9640 -1.4238
 2564SOL    HW219152   1.788   3.209   6.902 -0.3265 -2.3477 -0.7021
 2565SOL     OW19153   3.839   1.908   9.259  0.2522  0.0589  0.3991
 2565SOL    HW119154   3.857   1.865   9.343  3.0689 -0.7590 -0.6175
 2565SOL    HW219155   3.759   1.860   9.239  1.0666 -0.8817 -0.5723
 2566SOL     OW19156   1.148   4.350   9.898  0.2532 -0.3063  0.7859
 2566SOL    HW119157   1.081   4.312   9.841 -2.1828  1.4078  2.4913
 2566SOL    HW219158   1.095   4.396   9.964  2.3367  1.2913  1.3444
 2567SOL     OW19159   3.028   1.916  10.527 -0.2980  0.7071 -0.4201
 2567SOL    HW119160   2.966   1.925  10.455 -0.0030 -0.2782 -0.8047
 2567SOL    HW219161   3.110   1.895  10.481 -1.1777 -1.6743 -0.8996
 2568SOL     OW19162   3.802   2.423  13.504  0.2185 -0.2530 -0.2707
 2568SOL    HW119163   3.720   2.373  13.513  0.4022 -0.4048  0.5411
 2568SOL    HW219164   3.770   2.512  13.512  0.0619 -0.4456  1.3294
 2569SOL     OW19165   3.064   0.423  17.459  0.0184 -0.0978  0.0408
 2569SOL    HW119166   3.045   0.361  17.388 -1.7376  1.3150 -0.7191
 2569SOL    HW219167   3.071   0.360  17.531 -1.0162  1.5079  1.5548
 2570SOL     OW19168   2.450   2.518   1.793 -0.0459 -0.0534  0.5790
 2570SOL    HW119169   2.364   2.500   1.829 -0.4032  0.9089  0.1945
 2570SOL    HW219170   2.488   2.430   1.799 -0.1294 -0.1482 -0.2276
 2571SOL     OW19171   0.767   3.938   6.237 -0.3793  0.2251 -0.8184
 2571SOL    HW119172   0.679   3.912   6.209  0.6645 -2.2242 -1.8573
 2571SOL    HW219173   0.764   3.931   6.332 -0.8841 -0.8435 -0.9059
 2572SOL     OW19174   3.398   3.380   9.807  0.3499 -0.9567  0.0130
 2572SOL    HW119175   3.487   3.353   9.830  0.6911  1.4957  1.6729
 2572SOL    HW219176   3.352   3.309   9.851 -0.5732  0.9638  2.1708
 2573SOL     OW19177   1.625   0.702   5.972  0.0667 -0.2398 -0.2446
 2573SOL    HW119178   1.611   0.608   5.980 -0.8322 -0.0234  0.6793
 2573SOL    HW219179   1.593   0.732   6.057 -1.2884  0.5492 -1.0334
 2574SOL     OW19180   3.689   2.894  16.207 -0.2534  0.5013 -0.1016
 2574SOL    HW119181   3.707   2.801  16.220  0.0230 -0.0093 -4.4774
 2574SOL    HW219182   3.600   2.882  16.175 -0.0394 -3.2680  0.7184
 2575SOL     OW19183   1.803   3.492   0.424  0.1801 -0.1013  0.3930
 2575SOL    HW119184   1.748   3.552   0.473 -1.0821 -0.0310 -1.1144
 2575SOL    HW219185   1.882   3.510   0.475  0.3584 -2.0094  0.7941
 2576SOL     OW19186   2.999   4.143   3.127 -0.2123  0.4515 -0.4609
 2576SOL    HW119187   3.002   4.224   3.177 -0.8563  0.6431 -0.7325
 2576SOL    HW219188   3.089   4.136   3.094  0.4041 -1.9623  1.7499
 2577SOL     OW19189   0.710   3.937   8.387  0.4183  0.3289  0.2123
 2577SOL    HW119190   0.680   3.899   8.469 -0.0541  2.4341  1.0112
 2577SOL    HW219191   0.643   3.909   8.324 -0.0932 -1.2789  1.4815
 2578SOL     OW19192   2.404   4.132   0.844  0.7156  0.2909 -0.4501
 2578SOL    HW119193   2.364   4.070   0.783  0.1108 -0.0644  0.3024
 2578SOL    HW219194   2.399   4.211   0.790 -0.2223 -0.1080 -0.9540
 2579SOL     OW19195   1.792   3.679   5.635  0.0491  0.5317 -0.4367
 2579SOL    HW119196   1.810   3.669   5.728  3.7075  1.9419 -0.9994
 2579SOL    HW219197   1.707   3.635   5.634  0.4346 -0.3055  2.9331
 2580SOL     OW19198   1.826   2.134   1.879  0.2300  0.0208  0.2297
 2580SOL    HW119199   1.788   2.068   1.821 -0.7546  0.0389  0.8525
 2580SOL    HW219200   1.817   2.216   1.829  0.5394 -1.6263 -2.4965
 2581SOL     OW19201   4.080   1.556   2.028  0.2487 -0.2490  0.2070
 2581SOL    HW119202   4.111   1.584   1.942 -0.3232 -0.5740 -0.1054
 2581SOL    HW219203   4.095   1.642   2.066  1.8074 -1.8706  3.2791
 2582SOL     OW19204   2.347   1.398   5.837  0.6383  0.1641 -0.2805
 2582SOL    HW119205   2.362   1.435   5.751 -0.3145 -2.3376 -1.5184
 2582SOL    HW219206   2.418   1.437   5.887 -0.2116  0.0332  1.0382
 2583SOL     OW19207   1.252   3.595   3.924 -0.0757  0.1069  0.3022
 2583SOL    HW119208   1.244   3.512   3.970 -0.6954  0.8380  1.5224
 2583SOL    HW219209   1.175   3.643   3.954 -0.2590  0.6614 -1.0505
 2584SOL     OW19210   1.928   3.699   7.848 -0.1392 -0.2903  0.2575
 2584SOL    HW119211   1.915   3.610   7.879  1.9043 -0.7811 -0.3528
 2584SOL    HW219212   2.018   3.711   7.877 -0.2153 -0.4741  0.5748
 2585SOL     OW19213   1.726   4.449  12.522 -0.0357 -0.3354  0.6771
 2585SOL    HW119214   1.728   4.364  12.477  1.5817  0.8136 -1.4227
 2585SOL    HW219215   1.806   4.443  12.573  0.0518 -3.7950  0.1624
 2586SOL     OW19216   3.952   2.028   5.165  0.3789 -0.7884 -1.0518
 2586SOL    HW119217   3.948   1.936   5.140  0.5264 -0.7935 -1.0563
 2586SOL    HW219218   3.916   2.076   5.089 -1.2538 -2.3649 -1.2757
 2587SOL     OW19219   2.734   2.909   3.824  0.4883  0.3968 -0.5869
 2587SOL    HW119220   2.796   2.843   3.794 -0.6617 -0.9028 -0.0687
 2587SOL    HW219221   2.777   2.950   3.899 -1.2124  0.7577  0.1880
 2588SOL     OW19222   2.334   0.025   7.870  0.1301  0.1080 -0.0228
 2588SOL    HW119223   2.254   0.077   7.874  0.6728  0.6384  3.9851
 2588SOL    HW219224   2.280   4.673   7.844  1.2772 -1.3378  1.7587
 2589SOL     OW19225   2.828   0.301   5.834  0.6263 -0.3943 -0.1618
 2589SOL    HW119226   2.772   0.366   5.791  0.0090 -1.8048 -1.5089
 2589SOL    HW219227   2.760   0.246   5.874  0.3692  0.4473  0.5564
 2590SOL     OW19228   1.012   2.542  14.813 -0.5415 -0.7028 -0.0751
 2590SOL    HW119229   1.008   2.548  14.718  1.8235 -0.6255 -0.1725
 2590SOL    HW219230   0.937   2.595  14.841  0.6090  0.9367 -0.0826
 2591SOL     OW19231   4.712   3.616   8.305 -0.5382  0.6565  0.1021
 2591SOL    HW119232   0.017   3.552   8.240 -2.0911  0.2225 -0.1501
 2591SOL    HW219233   0.031   3.567   8.376 -0.3961 -0.2155 -0.5860
 2592SOL     OW19234   1.257   0.121  10.967  0.1162 -0.2796 -0.5613
 2592SOL    HW119235   1.308   0.202  10.960  0.1755 -0.3645 -1.1468
 2592SOL    HW219236   1.309   0.071  11.029  1.6135  0.4028 -1.2419
 2593SOL     OW19237   0.535   0.555  16.905  0.1020  0.2017 -0.3571
 2593SOL    HW119238   0.452   0.556  16.857  0.4141  0.4097 -0.8817
 2593SOL    HW219239   0.590   0.503  16.846  1.9693  0.6212  1.0309
 2594SOL     OW19240   0.624   0.925   6.159  0.0850 -0.3474 -0.3958
 2594SOL    HW119241   0.547   0.916   6.215 -0.2460  0.3042 -0.7401
 2594SOL    HW219242   0.679   0.981   6.214  0.8710 -0.3599 -1.1804
 2595SOL     OW19243   1.931   1.766   7.809 -0.2467 -0.4426  0.3134
 2595SOL    HW119244   1.893   1.854   7.816  1.3474  0.1600  1.4699
 2595SOL    HW219245   1.998   1.778   7.741 -0.6102  1.8656  0.3386
 2596SOL     OW19246   0.930   1.381  13.213 -0.2372 -0.1920  0.3301
 2596SOL    HW119247   0.860   1.335  13.167 -0.0331 -1.8298  1.6632
 2596SOL    HW219248   0.998   1.315  13.204 -2.1091 -1.9582 -0.6570
 2597SOL     OW19249   0.361   1.399   5.680 -0.2643  1.3574 -0.2814
 2597SOL    HW119250   0.271   1.365   5.686  0.2940 -0.2076 -0.8735
 2597SOL    HW219251   0.385   1.413   5.772  1.6615 -2.1302 -0.2884
 2598SOL     OW19252   1.836   2.282   6.214  0.3471 -0.1237 -0.0788
 2598SOL    HW119253   1.776   2.225   6.261 -0.0577  1.2764  1.1217
 2598SOL    HW219254   1.918   2.240   6.241  0.2554 -0.5218 -0.4361
 2599SOL     OW19255   0.163   0.601   6.591 -0.5520  0.1594 -0.2661
 2599SOL    HW119256   0.202   0.548   6.661 -0.9406  0.7495  0.3967
 2599SOL    HW219257   0.245   0.615   6.543 -1.2836  2.3615 -0.8697
 2600SOL     OW19258   1.078   2.691   6.270 -0.2434  0.0812  0.0583
 2600SOL    HW119259   1.064   2.635   6.194 -0.8735  0.0082  0.2283
 2600SOL    HW219260   1.170   2.683   6.293 -0.7097 -2.7207  0.9046
 2601SOL     OW19261   0.865   2.586   8.995  0.0900  0.1224  0.8952
 2601SOL    HW119262   0.844   2.523   8.926  1.7930  1.3682 -0.7677
 2601SOL    HW219263   0.846   2.540   9.077 -1.8078 -1.2537 -0.3222
 2602SOL     OW19264   1.894   0.995   4.495  0.0242 -0.0685 -0.0551
 2602SOL    HW119265   1.816   1.010   4.548 -0.8581  0.3163 -1.4507
 2602SOL    HW219266   1.879   1.057   4.423  0.4782 -1.4538 -1.3544
 2603SOL     OW19267   3.115   1.796   3.688  0.1458  0.0609 -0.2680
 2603SOL    HW119268   3.055   1.739   3.736 -0.0330 -0.2646 -0.8684
 2603SOL    HW219269   3.063   1.875   3.702 -0.2447 -0.3064  0.3352
 2604SOL     OW19270   2.431   0.056   3.784  0.2969  0.3501  0.0390
 2604SOL    HW119271   2.397   0.048   3.873 -0.8726  1.0206 -0.3530
 2604SOL    HW219272   2.519   0.022   3.801 -0.4235 -1.5787 -0.1316
 2605SOL     OW19273   3.475   3.726   2.711  0.8030 -1.2027 -0.1721
 2605SOL    HW119274   3.539   3.783   2.668 -0.0582  1.6067  2.2104
 2605SOL    HW219275   3.528   3.699   2.786 -0.2405  0.7567  1.2897
 2606SOL     OW19276   3.873   2.639   2.777  0.1553 -0.0514 -0.2747
 2606SOL    HW119277   3.950   2.670   2.825  1.6734 -0.0361 -2.7135
 2606SOL    HW219278   3.897   2.675   2.692  1.3454  2.7830  1.2293
 2607SOL     OW19279   3.792   0.295   2.053  0.3099 -0.3105 -0.2181
 2607SOL    HW119280   3.700   0.320   2.042  0.3994  0.1129  0.0142
 2607SOL    HW219281   3.818   0.328   1.967 -0.1545 -0.5968 -0.4681
 2608SOL     OW19282   1.647   4.581   3.984  0.0754  0.1061 -0.0137
 2608SOL    HW119283   1.688   4.508   4.030  0.9007  0.9210  0.5394
 2608SOL    HW219284   1.679   4.653   4.038 -0.0513  0.1426  0.0140
 2609SOL     OW19285   4.645   4.390  15.125 -1.0503 -0.3928 -0.0168
 2609SOL    HW119286   4.631   4.450  15.198  0.7741 -0.4479  0.3851
 2609SOL    HW219287   0.004   4.429  15.094 -0.5994 -0.4880  1.0306
 2610SOL     OW19288   3.442   2.221   5.452  0.0453  0.3553 -0.0796
 2610SOL    HW119289   3.491   2.303   5.464  2.7393 -1.3325  0.4800
 2610SOL    HW219290   3.431   2.218   5.357 -2.3804 -1.1429  0.2495
 2611SOL     OW19291   2.434   4.037   8.821 -0.1300  0.0989  0.5094
 2611SOL    HW119292   2.367   4.067   8.882 -2.7474 -1.4417 -1.6205
 2611SOL    HW219293   2.386   4.058   8.740 -0.8274 -1.1828  0.5958
 2612SOL     OW19294   1.635   2.956   3.658  0.1354  0.4485 -0.0011
 2612SOL    HW119295   1.669   3.018   3.593  1.7808 -1.9145 -1.4379
 2612SOL    HW219296   1.601   2.888   3.599  0.5816 -0.7344  1.0944
 2613SOL     OW19297   4.366   2.886   2.282 -0.5163 -0.3269  0.3244
 2613SOL    HW119298   4.427   2.908   2.351 -1.5519 -0.2689  1.2243
 2613SOL    HW219299   4.380   2.792   2.271  1.6994  0.1424 -0.9250
 2614SOL     OW19300   2.387   3.361   2.386 -0.1616  0.8170  0.4677
 2614SOL    HW119301   2.409   3.393   2.298 -2.7947  1.5977  0.0752
 2614SOL    HW219302   2.395   3.444   2.433  1.3900  0.9334  0.0009
 2615SOL     OW19303   0.723   2.382   6.012  0.2695 -0.2212  0.6680
 2615SOL    HW119304   0.767   2.385   5.927 -0.5407 -1.4132  0.2149
 2615SOL    HW219305   0.686   2.469   6.029  2.2812  0.5480  1.0959
 2616SOL     OW19306   3.397   3.480   3.602 -0.2397 -0.3046  0.0740
 2616SOL    HW119307   3.352   3.529   3.672  1.2286  1.9900 -0.5780
 2616SOL    HW219308   3.386   3.390   3.632 -2.5086  0.0264  0.2393
 2617SOL     OW19309   1.624   2.543   7.669 -0.3222  0.4496  0.5506
 2617SOL    HW119310   1.634   2.499   7.585 -2.5554 -1.2364  1.1935
 2617SOL    HW219311   1.555   2.606   7.650  0.1204  1.1687  1.2779
 2618SOL     OW19312   2.977   2.319  10.916  0.2120  0.7673  0.4983
 2618SOL    HW119313   3.062   2.342  10.954  0.9266 -0.8956 -0.1225
 2618SOL    HW219314   2.987   2.228  10.889  0.9444  1.2698 -0.8933
 2619SOL     OW19315   1.187   0.233   4.584 -0.0896 -0.2088 -0.4339
 2619SOL    HW119316   1.176   0.300   4.651 -1.0427  1.6561 -2.4829
 2619SOL    HW219317   1.137   0.164   4.627 -2.2860  1.0505 -0.9851
 2620SOL     OW19318   0.434   3.638   8.950  0.0264 -0.0246 -0.5006
 2620SOL    HW119319   0.522   3.616   8.919  0.4908  0.0177  0.7956
 2620SOL    HW219320   0.397   3.693   8.881 -0.2765  1.5302  0.8886
 2621SOL     OW19321   0.901   2.074  11.669  0.8222  0.8564  0.1838
 2621SOL    HW119322   0.957   2.093  11.745  3.2612  2.2057 -1.9376
 2621SOL    HW219323   0.896   2.165  11.639  2.2073  0.7084 -0.5055
 2622SOL     OW19324   1.641   3.635   0.587 -0.7600 -0.2326  0.1867
 2622SOL    HW119325   1.579   3.652   0.658 -1.6041 -2.7004  0.0338
 2622SOL    HW219326   1.619   3.711   0.532 -0.7690 -0.4378 -0.0925
 2623SOL     OW19327   3.619   3.171   3.297  1.2029 -0.6241  0.3685
 2623SOL    HW119328   3.650   3.186   3.208 -1.3503  4.0324  0.3087
 2623SOL    HW219329   3.706   3.156   3.334  1.8839  1.3022 -0.4668
 2624SOL     OW19330   2.276   2.992   0.025 -0.8670  0.0191 -0.1474
 2624SOL    HW119331   2.222   2.985   0.104  2.1378 -0.6656  1.8180
 2624SOL    HW219332   2.321   2.908   0.021  0.1817  0.5417  0.7573
 2625SOL     OW19333   4.021   2.692  17.471 -0.4463  0.2774 -0.1936
 2625SOL    HW119334   4.031   2.751  17.546  2.5212  0.5353 -0.7947
 2625SOL    HW219335   3.926   2.691  17.460 -0.7497 -1.7987  2.5182
 2626SOL     OW19336   1.230   3.321   6.592 -0.1023  0.9218  0.2697
 2626SOL    HW119337   1.263   3.350   6.677 -1.2392 -0.4092  1.1527
 2626SOL    HW219338   1.293   3.251   6.574 -1.7479 -0.7476  0.9793
 2627SOL     OW19339   1.209   1.940   3.925  0.3288  0.1111  0.0109
 2627SOL    HW119340   1.160   1.911   3.848  1.9874 -1.6109 -0.4008
 2627SOL    HW219341   1.188   1.864   3.979 -3.6060  1.8110  0.8546
 2628SOL     OW19342   1.039   2.848   4.587 -0.5115 -0.2284  0.5942
 2628SOL    HW119343   1.114   2.906   4.580  0.0652 -0.8762  1.3140
 2628SOL    HW219344   1.002   2.864   4.674 -0.3427  0.8838  0.4530
 2629SOL     OW19345   2.338   3.905   5.684  0.1976  0.5269  0.4978
 2629SOL    HW119346   2.317   3.842   5.615 -0.6031  0.7360  0.5409
 2629SOL    HW219347   2.413   3.873   5.733 -1.3775 -2.3991  1.0113
 2630SOL     OW19348   0.713   1.233  10.055  0.0739 -0.7433 -0.3176
 2630SOL    HW119349   0.778   1.288  10.099 -0.7309 -2.4547  2.9839
 2630SOL    HW219350   0.731   1.144  10.084  0.6106 -0.5708 -0.1329
 2631SOL     OW19351   2.294   0.515   8.360  0.0485  0.4548  0.5299
 2631SOL    HW119352   2.295   0.551   8.271 -3.1559  0.4912  0.5071
 2631SOL    HW219353   2.261   0.594   8.404 -1.4732  0.1139 -0.0269
 2632SOL     OW19354   2.776   1.435   8.397 -0.3654  0.5426  0.3301
 2632SOL    HW119355   2.681   1.439   8.392 -0.4482 -1.4912  0.1369
 2632SOL    HW219356   2.811   1.461   8.482  0.3439  0.3387  0.1068
 2633SOL     OW19357   0.346   4.717   7.877 -0.2291 -0.4017  0.4726
 2633SOL    HW119358   0.257   4.695   7.850  0.0680 -0.6620 -0.3048
 2633SOL    HW219359   0.396   4.645   7.838  0.6427  0.3667  0.1728
 2634SOL     OW19360   1.962   3.156  10.667 -0.3139  0.4827  0.1013
 2634SOL    HW119361   1.878   3.115  10.690  0.6301 -2.1667 -1.2669
 2634SOL    HW219362   1.973   3.113  10.582 -0.3156 -2.4356  1.5881
 2635SOL     OW19363   4.637   1.695   9.029  0.0869  0.0206 -0.3615
 2635SOL    HW119364   4.600   1.782   9.049 -1.0339  0.1736 -3.0992
 2635SOL    HW219365   4.720   1.716   8.987 -0.1170  2.4440  0.4156
 2636SOL     OW19366   0.493   0.574   8.894  0.1292 -0.3126  0.1604
 2636SOL    HW119367   0.418   0.515   8.894 -1.2840  1.5017  2.4568
 2636SOL    HW219368   0.460   0.635   8.960  0.1491  0.0156 -0.1348
 2637SOL     OW19369   2.703   2.257  13.591  0.2203 -0.1679 -0.0002
 2637SOL    HW119370   2.687   2.174  13.546 -2.5057 -0.3309  1.2877
 2637SOL    HW219371   2.774   2.224  13.647 -1.3293 -3.6047 -0.0674
 2638SOL     OW19372   3.223   1.723   7.978 -0.5537 -0.0926 -0.4837
 2638SOL    HW119373   3.221   1.641   7.928  1.9171 -0.7281  0.4225
 2638SOL    HW219374   3.213   1.771   7.896 -1.4004 -3.0498 -2.1088
 2639SOL     OW19375   3.719   0.243   3.465  0.2714  0.0408 -0.1023
 2639SOL    HW119376   3.633   0.256   3.426 -0.2806 -0.8803  0.7965
 2639SOL    HW219377   3.733   0.330   3.502 -2.1855 -1.5944  4.6615
 2640SOL     OW19378   2.640   0.277  17.566  0.2359  0.1009 -0.0840
 2640SOL    HW119379   2.592   0.351  17.530  1.6472  1.8958  1.6662
 2640SOL    HW219380   2.628   0.292  17.660 -1.5034  0.3531 -0.3462
 2641SOL     OW19381   1.754   0.648  11.101 -0.5691 -0.2288 -0.2898
 2641SOL    HW119382   1.675   0.701  11.107 -0.7311 -0.5465  0.3601
 2641SOL    HW219383   1.801   0.694  11.031  1.3098 -2.0509 -0.2291
 2642SOL     OW19384   3.810   2.235   9.990 -0.3692  0.1564 -0.7696
 2642SOL    HW119385   3.793   2.266   9.901  1.3634 -0.0305 -1.1606
 2642SOL    HW219386   3.721   2.226  10.023 -0.2578 -0.2875 -0.5920
 2643SOL     OW19387   2.028   1.172  12.959  0.0869  0.5201 -0.9016
 2643SOL    HW119388   1.973   1.110  12.912  0.2912 -1.1919  1.1281
 2643SOL    HW219389   2.080   1.115  13.015  1.6761  1.6775 -1.2192
 2644SOL     OW19390   4.504   3.723  17.333 -0.6575  0.1500  0.3727
 2644SOL    HW119391   4.549   3.680  17.406 -0.2073  0.6687  0.4015
 2644SOL    HW219392   4.450   3.779  17.389 -1.6908 -1.7444  1.2460
 2645SOL     OW19393   4.123   1.725  12.690 -0.0044  0.2495 -0.1774
 2645SOL    HW119394   4.145   1.653  12.631  0.5439 -0.3202  0.7300
 2645SOL    HW219395   4.208   1.740  12.731  0.2000  0.1857 -0.5784
 2646SOL     OW19396   0.264   3.952  11.868  0.2000  0.0094 -0.1043
 2646SOL    HW119397   0.247   3.948  11.774  0.4234 -1.0808 -0.0936
 2646SOL    HW219398   0.184   4.003  11.882  1.1963  0.9229  2.3225
 2647SOL     OW19399   3.534   0.158   4.215 -0.7781  0.0002  0.2857
 2647SOL    HW119400   3.562   0.084   4.161  0.7893 -1.0512  2.5409
 2647SOL    HW219401   3.457   0.182   4.164 -0.3150  0.4292 -0.2138
 2648SOL     OW19402   2.045   0.726  16.653 -0.3037  0.0263 -0.3943
 2648SOL    HW119403   2.047   0.633  16.675 -4.0810  0.4883  1.7519
 2648SOL    HW219404   1.956   0.760  16.663 -0.5275  0.1457 -2.7771
 2649SOL     OW19405   3.336   1.099  14.151  0.3066  0.3422  0.3277
 2649SOL    HW119406   3.298   1.091  14.238  1.2492 -1.1480  0.5939
 2649SOL    HW219407   3.423   1.073  14.178  1.0140  1.8158 -0.5004
 2650SOL     OW19408   4.303   0.527   2.692 -0.9993  0.2494 -0.4270
 2650SOL    HW119409   4.268   0.445   2.658 -0.5854 -0.5318  1.0027
 2650SOL    HW219410   4.375   0.490   2.744  0.8736  1.6819 -2.0142
 2651SOL     OW19411   0.881   4.016  13.282  0.4108  0.1463 -0.7534
 2651SOL    HW119412   0.948   4.077  13.313 -1.1192  2.4800 -2.1035
 2651SOL    HW219413   0.805   4.055  13.325  0.0527  1.2140 -2.3912
 2652SOL     OW19414   0.723   3.470   9.737  0.3951  0.3802  0.5766
 2652SOL    HW119415   0.772   3.552   9.748 -0.3661  0.8290  0.6408
 2652SOL    HW219416   0.793   3.406   9.746 -0.0755  0.2194  3.3087
 2653SOL     OW19417   1.804   3.019   1.762  0.7858  0.5918  0.8110
 2653SOL    HW119418   1.793   3.106   1.723 -0.8710  0.6035  1.3176
 2653SOL    HW219419   1.896   3.003   1.740  0.6567  0.2041  0.5456
 2654SOL     OW19420   2.060   3.647  14.224 -0.1632  0.4014  0.0309
 2654SOL    HW119421   2.011   3.601  14.156  0.1771 -0.2682  0.2388
 2654SOL    HW219422   2.116   3.574  14.251 -1.9830  0.3309  3.6317
 2655SOL     OW19423   2.020   1.505  10.872 -0.4723 -0.0728  0.3145
 2655SOL    HW119424   2.066   1.532  10.952  0.2826  0.0070 -0.1532
 2655SOL    HW219425   1.992   1.590  10.839 -1.4100  0.1948  1.7929
 2656SOL     OW19426   1.806   2.582   5.779  0.0653 -0.1071 -0.0819
 2656SOL    HW119427   1.806   2.502   5.725 -2.6793  1.2548 -2.0849
 2656SOL    HW219428   1.891   2.578   5.823 -0.3524 -3.6395  0.4460
 2657SOL     OW19429   0.896   1.715  12.702 -0.3036 -0.4189 -0.0413
 2657SOL    HW119430   0.933   1.673  12.625 -1.2798  0.5392 -1.0309
 2657SOL    HW219431   0.864   1.797  12.665 -1.7851 -1.6852 -1.5668
 2658SOL     OW19432   2.858   0.715   4.970  0.1706 -0.0675 -0.2534
 2658SOL    HW119433   2.951   0.702   4.950 -0.4251 -2.5886 -1.4726
 2658SOL    HW219434   2.863   0.783   5.036  2.6177 -0.3301 -0.1525
 2659SOL     OW19435   0.497   0.596   1.581  0.1193 -0.0373 -0.5808
 2659SOL    HW119436   0.485   0.517   1.634  4.1205  1.2640  2.3258
 2659SOL    HW219437   0.423   0.652   1.604 -0.3432 -0.4711 -0.9984
 2660SOL     OW19438   1.223   4.458   4.345  0.0960  0.1898 -0.2770
 2660SOL    HW119439   1.214   4.504   4.428 -4.4950 -0.1650 -0.5724
 2660SOL    HW219440   1.145   4.497   4.305 -0.5342 -0.0619  0.6954
 2661SOL     OW19441   1.758   0.426   8.747 -0.4235 -0.0777 -0.4546
 2661SOL    HW119442   1.800   0.395   8.827  0.8542 -0.1404 -1.1442
 2661SOL    HW219443   1.666   0.405   8.761 -0.0576 -1.4466 -0.1172
 2662SOL     OW19444   1.141   4.652   3.452  0.1574 -0.8100  0.7074
 2662SOL    HW119445   1.076   4.596   3.493 -0.3309 -2.9109 -2.9089
 2662SOL    HW219446   1.080   4.716   3.415  1.1129 -0.4427 -0.2435
 2663SOL     OW19447   1.574   3.862  13.591  0.0704  0.2890  0.6803
 2663SOL    HW119448   1.610   3.947  13.615  0.4557  0.0505  0.9369
 2663SOL    HW219449   1.496   3.851  13.645 -2.2361 -2.2560 -3.1777
 2664SOL     OW19450   1.745   0.111  10.954  0.5121  0.1723  0.5639
 2664SOL    HW119451   1.786   0.030  10.983  3.5138  1.8153  0.8264
 2664SOL    HW219452   1.795   0.171  11.009 -2.0411  1.6684  1.2396
 2665SOL     OW19453   0.625   3.795  10.332  0.0968  0.6994 -0.0607
 2665SOL    HW119454   0.683   3.737  10.383  0.7688  2.0761  0.7334
 2665SOL    HW219455   0.604   3.733  10.262  1.3532 -1.6526  1.6454
 2666SOL     OW19456   1.746   4.320  13.718  0.1757  0.5181 -0.0517
 2666SOL    HW119457   1.832   4.303  13.757  0.4019  0.0198 -0.7775
 2666SOL    HW219458   1.753   4.416  13.713 -1.5823  0.6415 -0.1224
 2667SOL     OW19459   4.531   4.130  13.736 -0.2221 -0.8178 -0.3012
 2667SOL    HW119460   4.578   4.151  13.817 -0.7894  0.6160 -0.3474
 2667SOL    HW219461   4.443   4.103  13.762  0.1059 -1.1230  0.5040
 2668SOL     OW19462   1.387   2.753  17.020  0.1154 -0.2011  0.5739
 2668SOL    HW119463   1.372   2.847  17.011 -1.1638 -0.4775 -0.1462
 2668SOL    HW219464   1.316   2.731  17.081 -0.6437  2.1822  0.5386
 2669SOL     OW19465   2.717   0.681   0.104  0.9154 -0.4832  0.6992
 2669SOL    HW119466   2.763   0.605   0.069  0.0319 -0.4721 -0.4837
 2669SOL    HW219467   2.717   0.737   0.027  2.8422 -1.0024  0.3341
 2670SOL     OW19468   1.570   4.643   8.830 -0.5243  0.3338  0.0477
 2670SOL    HW119469   1.664   4.631   8.835 -0.2189  3.2452  1.5173
 2670SOL    HW219470   1.546   4.577   8.764  0.0136 -1.5029  1.7167
 2671SOL     OW19471   0.167   2.973   6.921  0.0430 -0.1159 -0.2694
 2671SOL    HW119472   0.126   2.982   7.007 -1.0357 -3.7481 -0.4433
 2671SOL    HW219473   0.261   2.965   6.938  0.1756 -1.2039 -1.5547
 2672SOL     OW19474   1.438   4.196   7.161 -0.4089  0.3266 -0.0965
 2672SOL    HW119475   1.424   4.280   7.117  0.5866  1.3771  1.5813
 2672SOL    HW219476   1.414   4.124   7.103  3.6166 -0.1516 -1.1201
 2673SOL     OW19477   0.012   1.259   7.124 -0.0265  0.8263 -0.4300
 2673SOL    HW119478   0.019   1.188   7.189 -0.3309  1.6488  0.4984
 2673SOL    HW219479   0.041   1.213   7.045 -1.2551 -2.1814  0.8495
 2674SOL     OW19480   3.291   3.294   3.207  0.3296 -0.2491 -0.3826
 2674SOL    HW119481   3.248   3.350   3.143 -0.0736 -0.8150 -0.6116
 2674SOL    HW219482   3.329   3.227   3.150 -0.5133  0.7267 -2.0838
 2675SOL     OW19483   4.655   1.017  10.967  0.4416  0.2753 -0.8108
 2675SOL    HW119484   4.619   1.062  11.043  0.9661  0.1873 -0.5092
 2675SOL    HW219485   4.642   1.089  10.905 -1.4453 -0.6123 -1.4439
 2676SOL     OW19486   1.788   0.575   4.146  0.1869  0.5026  0.4858
 2676SOL    HW119487   1.856   0.581   4.079  0.6493 -2.0031  0.7384
 2676SOL    HW219488   1.810   0.633   4.219 -0.0763  3.6745 -1.9547
 2677SOL     OW19489   2.222   3.576  12.749  0.4302 -0.0035  0.4302
 2677SOL    HW119490   2.128   3.561  12.759  0.4160 -0.1569  0.0945
 2677SOL    HW219491   2.253   3.565  12.839 -1.0911  0.1685  0.9604
 2678SOL     OW19492   3.510   3.905   8.453  0.8532 -0.6070  0.1536
 2678SOL    HW119493   3.417   3.926   8.464  0.7794 -1.0073  0.2818
 2678SOL    HW219494   3.548   3.954   8.526  1.1205  0.2424 -0.5566
 2679SOL     OW19495   2.659   1.040  16.598  0.6629 -0.3664 -0.6665
 2679SOL    HW119496   2.614   0.956  16.610  0.7728 -0.2157  0.7393
 2679SOL    HW219497   2.619   1.080  16.521 -0.0413  2.3317  1.1022
 2680SOL     OW19498   3.011   1.439   8.267  0.4348  0.5414 -0.6338
 2680SOL    HW119499   2.920   1.429   8.297  0.3741 -1.0230 -1.3522
 2680SOL    HW219500   3.050   1.414   8.351  0.3399 -0.9218 -1.0220
 2681SOL     OW19501   4.025   2.435   5.790 -0.3322  0.2269  0.3198
 2681SOL    HW119502   4.000   2.491   5.863  0.9241  0.5867  0.4826
 2681SOL    HW219503   3.954   2.443   5.727 -1.8544 -0.9569  1.8793
 2682SOL     OW19504   0.102   4.592   0.949 -0.0152 -0.4425 -0.1699
 2682SOL    HW119505   0.198   4.591   0.944  0.0548  2.3973  0.5179
 2682SOL    HW219506   0.074   4.573   0.860  1.1121 -0.6308 -0.4872
 2683SOL     OW19507   0.878   4.610   2.749 -0.1037 -0.0883  0.5101
 2683SOL    HW119508   0.962   4.606   2.703  0.0137 -1.0609  0.7944
 2683SOL    HW219509   0.893   4.672   2.820  0.2584  0.1775  0.1967
 2684SOL     OW19510   1.869   0.277   8.293  0.1017 -0.4196 -0.8084
 2684SOL    HW119511   1.894   0.203   8.348  1.4527 -0.4660 -1.4833
 2684SOL    HW219512   1.813   0.320   8.357 -0.0633  0.6349 -1.6579
 2685SOL     OW19513   4.268   0.347  15.707  0.1992  0.2737 -0.2943
 2685SOL    HW119514   4.287   0.387  15.791 -1.4935 -4.3924  2.2987
 2685SOL    HW219515   4.173   0.360  15.709  0.0991 -0.5672  0.4175
 2686SOL     OW19516   2.265   2.898   3.354 -0.0353  0.0771 -0.1626
 2686SOL    HW119517   2.343   2.887   3.299 -0.4861 -0.7367 -0.6362
 2686SOL    HW219518   2.209   2.824   3.333 -1.5689  1.6636 -1.6630
 2687SOL     OW19519   1.692   2.257   8.840  0.2993 -0.3748 -0.1972
 2687SOL    HW119520   1.696   2.301   8.925 -0.8557  0.3990 -0.5567
 2687SOL    HW219521   1.782   2.254   8.806  1.0826  0.4692  1.7798
 2688SOL     OW19522   3.267   1.099   4.217  0.3882 -0.4985 -0.1000
 2688SOL    HW119523   3.346   1.141   4.251 -0.5309 -0.5405  2.1286
 2688SOL    HW219524   3.282   1.005   4.218 -0.1642 -0.5734  1.0007
 2689SOL     OW19525   3.217   0.835   1.394  0.3869  0.8709  0.7218
 2689SOL    HW119526   3.235   0.914   1.445  0.1800  0.0765  2.0331
 2689SOL    HW219527   3.184   0.773   1.459 -4.2336  3.4972  0.8650
 2690SOL     OW19528   0.143   3.713   8.785 -0.3031  0.6912 -0.8205
 2690SOL    HW119529   0.089   3.750   8.715 -2.5601 -1.8647 -0.4057
 2690SOL    HW219530   0.201   3.659   8.732  0.2744  0.9946 -0.4948
 2691SOL     OW19531   0.300   2.359   4.439 -0.3624  0.1688 -0.3905
 2691SOL    HW119532   0.277   2.281   4.389  1.4865 -0.6498  0.0238
 2691SOL    HW219533   0.220   2.363   4.491 -0.8465  0.9078 -1.1956
 2692SOL     OW19534   4.482   0.742   3.682  0.0883  0.2285  0.4558
 2692SOL    HW119535   4.571   0.777   3.676 -0.5395  1.8827  0.8739
 2692SOL    HW219536   4.453   0.729   3.591  1.8564  0.9293 -0.2091
 2693SOL     OW19537   1.035   0.465   7.284  0.4243  0.6589  0.1406
 2693SOL    HW119538   0.998   0.433   7.367  1.6869 -0.3347  0.3085
 2693SOL    HW219539   1.102   0.400   7.263  1.2597  1.0472  1.6018
 2694SOL     OW19540   2.507   4.295   4.203 -0.0082 -0.1564  0.9206
 2694SOL    HW119541   2.421   4.254   4.206  0.6026 -1.5893 -1.6313
 2694SOL    HW219542   2.567   4.224   4.181  2.0766  1.9728 -0.2957
 2695SOL     OW19543   0.361   4.203   3.463 -0.0821  1.4922 -0.3127
 2695SOL    HW119544   0.453   4.223   3.481  0.5266 -0.8547 -0.8405
 2695SOL    HW219545   0.356   4.190   3.368 -0.7450  3.0833 -0.4946
 2696SOL     OW19546   1.653   2.424   6.971  0.2916 -0.4633  0.0274
 2696SOL    HW119547   1.659   2.474   6.890  2.5237 -1.4808 -0.4234
 2696SOL    HW219548   1.573   2.454   7.016  0.4421 -0.9154  0.5983
 2697SOL     OW19549   2.876   4.543   7.467  0.3780  0.0224 -0.3280
 2697SOL    HW119550   2.954   4.534   7.413  1.7363  0.4637  1.5702
 2697SOL    HW219551   2.901   4.519   7.556 -0.2524  4.2565  1.0109
 2698SOL     OW19552   2.095   0.150   1.622 -0.3239  0.5845 -0.0003
 2698SOL    HW119553   2.180   0.109   1.635  0.3438  1.9175 -0.2260
 2698SOL    HW219554   2.085   0.177   1.713 -2.0867  1.1864 -0.3763
 2699SOL     OW19555   3.255   3.417  10.996  0.1499 -0.2322 -0.8231
 2699SOL    HW119556   3.339   3.454  11.021 -0.3228 -0.0982  0.5621
 2699SOL    HW219557   3.249   3.457  10.909 -1.5241 -0.5422 -0.8556
 2700SOL     OW19558   2.392   3.319   3.625 -0.1423  0.4665 -0.2034
 2700SOL    HW119559   2.467   3.263   3.608  2.2630  3.2184  1.4236
 2700SOL    HW219560   2.418   3.394   3.572  0.6242 -0.1261 -0.6473
 2701SOL     OW19561   0.799   3.976   2.705  0.3891  0.5108  0.2048
 2701SOL    HW119562   0.768   4.050   2.653 -0.1640 -1.4412 -2.2297
 2701SOL    HW219563   0.717   3.926   2.705  0.8922 -0.3226 -0.8467
 2702SOL     OW19564   4.554   4.111   4.964 -0.4625 -0.0201 -0.4770
 2702SOL    HW119565   4.486   4.159   5.011 -1.5966 -1.2990 -0.7805
 2702SOL    HW219566   4.555   4.168   4.887 -2.1302 -1.9921 -1.9771
 2703SOL     OW19567   3.875   2.045  17.063  1.0958  0.0649  0.7383
 2703SOL    HW119568   3.809   1.976  17.063  0.7427  0.4058 -2.3529
 2703SOL    HW219569   3.857   2.113  16.998  1.1054  0.6395  1.3267
 2704SOL     OW19570   0.525   2.444  15.962  0.5155  0.2177  0.1842
 2704SOL    HW119571   0.569   2.411  15.884  0.7681 -1.1250  0.8875
 2704SOL    HW219572   0.556   2.383  16.029  1.1488  1.7033  1.2504
 2705SOL     OW19573   3.699   1.741  15.116  0.3300  0.8371 -0.1405
 2705SOL    HW119574   3.787   1.778  15.114  0.0237  1.5278 -0.8833
 2705SOL    HW219575   3.714   1.649  15.094 -1.3207  0.3513  0.7513
 2706SOL     OW19576   1.722   4.191   5.429 -0.2034  0.0958  0.2898
 2706SOL    HW119577   1.799   4.152   5.471  1.1296  1.6420 -0.7327
 2706SOL    HW219578   1.659   4.126   5.462 -1.0446 -0.4922 -2.4698
 2707SOL     OW19579   0.983   1.153   6.877  0.7694  0.5341  0.1984
 2707SOL    HW119580   1.035   1.210   6.934 -0.9824  2.6098 -0.2720
 2707SOL    HW219581   0.968   1.214   6.805 -2.5574  0.5365  0.8948
 2708SOL     OW19582   3.401   1.561   4.624 -0.0976  0.3091 -0.1622
 2708SOL    HW119583   3.326   1.550   4.566  0.8323  1.6609 -1.5934
 2708SOL    HW219584   3.402   1.471   4.657 -0.6004  0.5824  0.5944
 2709SOL     OW19585   2.357   0.779  12.801  0.1063 -0.0130  0.2918
 2709SOL    HW119586   2.325   0.701  12.755 -1.7496  0.6284  0.4970
 2709SOL    HW219587   2.368   0.738  12.886 -0.4668  1.1499  0.9271
 2710SOL     OW19588   3.154   3.127  14.757 -0.1299  0.0606 -0.3931
 2710SOL    HW119589   3.147   3.046  14.706 -1.1213 -0.7907  1.0803
 2710SOL    HW219590   3.239   3.120  14.800 -0.3781  2.1048  0.4243
 2711SOL     OW19591   1.411   0.019   6.990  0.4306 -0.0820  0.7968
 2711SOL    HW119592   1.505   0.029   6.975 -0.0062  1.8430 -0.5530
 2711SOL    HW219593   1.370   0.042   6.906  0.9858 -1.5015  0.1305
 2712SOL     OW19594   3.509   1.874   9.007 -0.4324 -0.6517  0.5257
 2712SOL    HW119595   3.459   1.941   8.960 -1.1688 -0.7407  1.1849
 2712SOL    HW219596   3.590   1.923   9.022 -1.9562  2.1853 -0.3935
 2713SOL     OW19597   4.472   1.787  10.565 -0.0025 -0.1053  0.6136
 2713SOL    HW119598   4.558   1.828  10.577  0.1809 -0.3945  0.2932
 2713SOL    HW219599   4.415   1.860  10.542  0.8709  0.0659 -1.0519
 2714SOL     OW19600   4.326   4.387   6.261 -0.3458 -0.2045 -0.5504
 2714SOL    HW119601   4.280   4.413   6.340 -0.6816 -0.2336 -0.7348
 2714SOL    HW219602   4.290   4.299   6.251  2.0045 -1.2024 -0.1404
 2715SOL     OW19603   3.854   3.868  11.533 -0.3092  0.5438  0.5084
 2715SOL    HW119604   3.775   3.903  11.491 -0.6060  0.6018  1.1106
 2715SOL    HW219605   3.806   3.822  11.602  0.2350 -1.2714 -0.3287
 2716SOL     OW19606   3.628   3.617   9.164  0.0997  0.2460  0.5278
 2716SOL    HW119607   3.569   3.576   9.101 -0.0277  1.3941 -0.0881
 2716SOL    HW219608   3.575   3.616   9.243 -2.3345  0.3615 -1.1164
 2717SOL     OW19609   1.583   4.451   4.882 -0.2138  0.1257  0.1176
 2717SOL    HW119610   1.641   4.486   4.949  0.6055 -0.8604 -0.0697
 2717SOL    HW219611   1.529   4.523   4.852  0.5278  0.7358  0.2345
 2718SOL     OW19612   4.203   1.795   0.399  0.6248  0.0606  0.2596
 2718SOL    HW119613   4.234   1.719   0.351 -0.0852 -0.4230  0.5694
 2718SOL    HW219614   4.123   1.776   0.448  0.9056 -0.8924  0.3384
 2719SOL     OW19615   4.147   4.481   4.783  0.4655 -0.7717 -0.0893
 2719SOL    HW119616   4.116   4.539   4.714 -1.7791 -0.3384  1.2895
 2719SOL    HW219617   4.182   4.415   4.723  0.0716 -1.2135  0.1701
 2720SOL     OW19618   1.216   2.296   6.227 -0.0319  0.6927  0.1092
 2720SOL    HW119619   1.252   2.385   6.228  1.3892  0.1276 -0.5677
 2720SOL    HW219620   1.145   2.307   6.290 -0.4098  0.2118 -0.2393
 2721SOL     OW19621   4.087   0.711   6.226  0.1326 -0.1966  0.2578
 2721SOL    HW119622   4.167   0.755   6.256 -0.1667  1.5654 -1.5071
 2721SOL    HW219623   4.025   0.762   6.277  0.3690 -0.7507  1.0892
 2722SOL     OW19624   4.625   0.467   7.512 -0.1105 -0.0277 -0.1673
 2722SOL    HW119625   4.655   0.381   7.481 -0.0900  0.7453 -2.2760
 2722SOL    HW219626   4.554   0.444   7.572  0.9856 -2.2137  0.2860
 2723SOL     OW19627   3.716   0.596   2.776 -0.3983  0.6030 -0.4907
 2723SOL    HW119628   3.797   0.546   2.791 -0.9498 -0.1676 -0.0744
 2723SOL    HW219629   3.703   0.634   2.863  0.3648 -0.2061 -0.0164
 2724SOL     OW19630   3.125   3.379  15.664  0.0751  0.6621  0.0216
 2724SOL    HW119631   3.049   3.437  15.665 -0.3444  0.1594 -2.2052
 2724SOL    HW219632   3.200   3.431  15.694  0.1757 -0.2253  1.2899
 2725SOL     OW19633   3.258   3.654   2.890  0.2162 -0.2730 -0.3878
 2725SOL    HW119634   3.302   3.694   2.966 -0.2339 -0.5108 -0.0064
 2725SOL    HW219635   3.308   3.692   2.818 -0.6178  0.9970 -0.3124
 2726SOL     OW19636   3.261   0.655  13.598 -0.2207 -0.6230  0.2068
 2726SOL    HW119637   3.182   0.709  13.592 -0.6982 -1.4860 -1.6046
 2726SOL    HW219638   3.275   0.650  13.692 -0.6667  0.4346  0.3303
 2727SOL     OW19639   1.012   4.449   6.176  0.2730  0.0590  0.0552
 2727SOL    HW119640   1.061   4.378   6.135 -0.9536 -1.1399  0.6939
 2727SOL    HW219641   1.026   4.435   6.270  2.5805  0.2909 -0.2595
 2728SOL     OW19642   3.808   2.353   0.668 -0.6572  0.2766  0.2734
 2728SOL    HW119643   3.893   2.395   0.671 -0.7663  0.4891  0.4388
 2728SOL    HW219644   3.824   2.298   0.592  1.9613  1.9394 -0.3848
 2729SOL     OW19645   2.943   2.040   1.107 -0.0575  0.2339  0.1861
 2729SOL    HW119646   3.001   1.994   1.046 -0.1918  1.2559 -0.6970
 2729SOL    HW219647   2.926   2.117   1.052  0.3687 -0.8403 -1.4558
 2730SOL     OW19648   2.548   3.797   5.399  0.6600 -0.3074  0.2978
 2730SOL    HW119649   2.480   3.735   5.423  0.4785 -0.7810 -1.3837
 2730SOL    HW219650   2.499   3.879   5.401  0.4243 -0.3898 -1.9821
 2731SOL     OW19651   3.106   0.221   4.291  0.4425  0.3156  0.2320
 2731SOL    HW119652   3.186   0.274   4.299  0.5947 -0.2527  2.2680
 2731SOL    HW219653   3.104   0.218   4.195  0.5979 -3.3411  0.3458
 2732SOL     OW19654   3.850   2.790   8.002  0.0934 -0.3556  0.3815
 2732SOL    HW119655   3.895   2.735   8.066  2.5828 -0.1778 -1.1950
 2732SOL    HW219656   3.873   2.877   8.036 -3.3130  2.2588 -4.1036
 2733SOL     OW19657   0.849   3.198   7.291  0.0443 -0.2216 -0.2423
 2733SOL    HW119658   0.831   3.236   7.205 -2.6739 -1.2142 -0.1425
 2733SOL    HW219659   0.827   3.104   7.289 -1.6348  0.1667 -0.3391
 2734SOL     OW19660   4.096   1.866   7.312 -0.0715  0.3256 -0.4213
 2734SOL    HW119661   4.170   1.920   7.284  0.7635 -1.0927 -0.9248
 2734SOL    HW219662   4.126   1.838   7.399  0.4115 -0.0794 -0.7200
 2735SOL     OW19663   2.482   4.525  13.395  0.2601 -0.0607 -0.1778
 2735SOL    HW119664   2.538   4.481  13.458 -1.4283 -0.4397  1.0428
 2735SOL    HW219665   2.449   4.593  13.453  3.0000  1.5036 -0.4452
 2736SOL     OW19666   2.779   3.057   8.332 -0.4293  0.7828  0.1101
 2736SOL    HW119667   2.720   3.030   8.262 -0.0220  1.3830 -0.4698
 2736SOL    HW219668   2.859   3.010   8.309 -0.6883  0.9656 -1.1449
 2737SOL     OW19669   0.920   4.326   7.778  0.2258  0.7884 -0.2457
 2737SOL    HW119670   1.007   4.289   7.759  0.5972  0.2279  2.5312
 2737SOL    HW219671   0.944   4.388   7.847 -0.3656  0.1170  0.5635
 2738SOL     OW19672   4.091   3.370   8.918 -0.1475  0.1869  0.4856
 2738SOL    HW119673   4.149   3.382   8.994 -0.6943 -1.8674  1.2377
 2738SOL    HW219674   4.015   3.418   8.951  0.0417  0.8351 -0.0101
 2739SOL     OW19675   3.625   3.726  13.543 -0.1492 -0.4247  0.3774
 2739SOL    HW119676   3.581   3.811  13.538  0.4461 -0.0737  1.0125
 2739SOL    HW219677   3.689   3.742  13.613 -0.1315 -1.1853  0.5364
 2740SOL     OW19678   0.473   0.989   0.908 -0.2661  0.9349  0.2546
 2740SOL    HW119679   0.559   0.959   0.881 -1.2984 -0.1626 -1.7639
 2740SOL    HW219680   0.421   0.957   0.835 -0.8185 -0.5279  1.2896
 2741SOL     OW19681   4.595   1.643  17.366  0.0352  0.7039  0.2284
 2741SOL    HW119682   4.527   1.661  17.300  1.3318 -0.7926 -1.5226
 2741SOL    HW219683   4.609   1.735  17.389  0.7056  0.5585  0.3807
 2742SOL     OW19684   0.639   3.311   2.946 -0.0125  0.0683  0.0068
 2742SOL    HW119685   0.595   3.300   3.031 -1.6227  0.9691 -0.7052
 2742SOL    HW219686   0.615   3.228   2.905  0.2193 -1.1457  2.3190
 2743SOL     OW19687   0.904   4.390  10.681 -0.4752 -0.0911  0.6130
 2743SOL    HW119688   0.810   4.369  10.682 -0.5270  0.2274  2.2698
 2743SOL    HW219689   0.907   4.474  10.727  1.0829  0.7999 -1.1384
 2744SOL     OW19690   2.082   3.584  17.053 -0.3882  0.1685  0.4254
 2744SOL    HW119691   1.992   3.553  17.059 -0.3657  0.1670  0.7392
 2744SOL    HW219692   2.105   3.504  17.006 -0.1684  1.0233 -0.9149
 2745SOL     OW19693   0.787   0.573   7.833 -0.1627  0.0584 -0.3065
 2745SOL    HW119694   0.725   0.600   7.765  1.4418  1.7197 -1.0992
 2745SOL    HW219695   0.723   0.533   7.893 -0.1863  0.3123 -0.1650
 2746SOL     OW19696   2.406   2.643   3.492  0.2020  0.4411  0.7054
 2746SOL    HW119697   2.316   2.663   3.518  0.0382 -0.8933  1.1829
 2746SOL    HW219698   2.446   2.730   3.490  0.1633  0.4293 -0.4620
 2747SOL     OW19699   1.007   1.621   2.333  0.2200 -0.1810 -0.5678
 2747SOL    HW119700   1.025   1.708   2.369  0.1798 -0.7743  0.8864
 2747SOL    HW219701   1.044   1.564   2.401  1.7836  2.0058  0.4252
 2748SOL     OW19702   4.587   3.237  17.380  0.0327  0.0888  0.5369
 2748SOL    HW119703   4.662   3.293  17.397 -0.7127  1.5989 -1.0314
 2748SOL    HW219704   4.550   3.224  17.467 -1.5347  0.5507 -0.0550
 2749SOL     OW19705   2.717   1.373   8.036  0.4062 -0.8947 -0.3140
 2749SOL    HW119706   2.779   1.446   8.040  0.8858 -1.1877 -2.2695
 2749SOL    HW219707   2.650   1.419   7.985  0.0700 -0.0052  0.9235
 2750SOL     OW19708   0.370   2.104  17.441  0.2464 -0.4083  0.0036
 2750SOL    HW119709   0.446   2.049  17.422  0.5295 -0.2611  0.7083
 2750SOL    HW219710   0.308   2.084  17.371 -0.0054 -1.1834  0.4577
 2751SOL     OW19711   0.229   1.833   3.863  0.1314  0.2684  0.4589
 2751SOL    HW119712   0.207   1.745   3.830 -2.0306  0.5849  1.0953
 2751SOL    HW219713   0.323   1.837   3.842  0.8949 -0.8677  3.6580
 2752SOL     OW19714   0.156   0.360   0.176  0.4161  0.3430  0.0694
 2752SOL    HW119715   0.129   0.340   0.265 -2.6343  1.8846 -0.5247
 2752SOL    HW219716   0.190   0.447   0.197  0.2253  0.3921  0.1768
 2753SOL     OW19717   2.480   4.553   8.176 -0.2986  0.0681 -0.3915
 2753SOL    HW119718   2.454   4.619   8.240 -0.9577 -0.4811 -0.0933
 2753SOL    HW219719   2.508   4.483   8.234 -2.5946 -0.6247 -0.1020
 2754SOL     OW19720   1.637   2.849   6.668 -0.0609 -0.5818  0.0022
 2754SOL    HW119721   1.650   2.887   6.582  0.4595  1.8173  1.1497
 2754SOL    HW219722   1.589   2.917   6.714 -0.5973 -0.3900 -0.8599
 2755SOL     OW19723   4.476   4.154  16.358 -0.6274  0.1203 -0.1972
 2755SOL    HW119724   4.481   4.242  16.394  1.9988 -0.2519  0.3652
 2755SOL    HW219725   4.408   4.113  16.412  0.7898 -1.7409  0.1797
 2756SOL     OW19726   1.990   2.416  12.521 -0.6649 -0.0820 -0.7636
 2756SOL    HW119727   2.044   2.423  12.600 -0.8443 -0.2860 -0.6234
 2756SOL    HW219728   1.934   2.348  12.559 -0.9502  0.7673  0.3637
 2757SOL     OW19729   3.101   1.803   9.803  1.0564 -0.2258  0.0655
 2757SOL    HW119730   3.149   1.881   9.831 -0.1086 -0.0682  1.6385
 2757SOL    HW219731   3.149   1.797   9.721 -1.2168 -1.8118 -1.1517
 2758SOL     OW19732   1.823   4.266   2.830 -0.4908 -0.7223  0.4541
 2758SOL    HW119733   1.825   4.349   2.878  2.9975 -0.7607  0.3746
 2758SOL    HW219734   1.743   4.237   2.873  0.4247  0.2071  2.8019
 2759SOL     OW19735   1.360   0.381   5.164  0.0365  0.2901 -0.1463
 2759SOL    HW119736   1.395   0.465   5.133 -0.5155 -0.0781 -1.7692
 2759SOL    HW219737   1.387   0.376   5.256  1.9989  2.1678 -0.6118
 2760SOL     OW19738   0.926   3.257   9.117 -0.1484  0.3554  0.9117
 2760SOL    HW119739   0.991   3.281   9.183 -0.4658  2.5922  0.4201
 2760SOL    HW219740   0.894   3.179   9.162 -0.1028  0.3554  0.9451
 2761SOL     OW19741   1.572   0.129   2.528  0.8074 -0.5602 -0.4024
 2761SOL    HW119742   1.636   0.200   2.525 -0.5396  0.5994 -1.7642
 2761SOL    HW219743   1.631   0.059   2.553  1.7569 -0.5947 -2.7367
 2762SOL     OW19744   2.274   0.288  17.528 -0.4101 -0.2054 -0.1997
 2762SOL    HW119745   2.316   0.363  17.571  3.4849 -3.0464  1.0009
 2762SOL    HW219746   2.324   0.218  17.570  0.5095  1.8843  2.2444
 2763SOL     OW19747   4.001   2.240   6.787 -0.3754 -0.1286 -0.6426
 2763SOL    HW119748   4.025   2.317   6.839  0.4130 -0.4171 -0.5791
 2763SOL    HW219749   4.029   2.170   6.846 -0.4142  1.6224  1.4516
 2764SOL     OW19750   0.651   0.173   1.826  0.1442 -0.2704  0.3391
 2764SOL    HW119751   0.598   0.251   1.812  2.4897  0.9881 -1.4554
 2764SOL    HW219752   0.712   0.182   1.753  0.6666  1.7731  1.0419
 2765SOL     OW19753   4.311   0.931   4.527 -0.3949  0.1945  0.0801
 2765SOL    HW119754   4.316   1.016   4.570 -0.3870  1.2457 -2.0109
 2765SOL    HW219755   4.405   0.922   4.508 -1.1472 -0.0897 -3.3771
 2766SOL     OW19756   4.453   4.333   0.112  0.2190  0.1582  0.4357
 2766SOL    HW119757   4.368   4.312   0.149 -0.5900 -0.4553 -1.7496
 2766SOL    HW219758   4.445   4.305   0.020  1.0358  1.7660 -0.1339
 2767SOL     OW19759   2.876   0.046   5.590 -0.2981 -0.2126 -1.0813
 2767SOL    HW119760   2.920   0.092   5.519  0.1328  0.1368 -0.5861
 2767SOL    HW219761   2.834   4.699   5.541 -1.4529  0.4720 -1.0617
 2768SOL     OW19762   2.130   3.644   3.337 -0.3321  0.1248  0.2313
 2768SOL    HW119763   2.139   3.553   3.365 -2.5897 -0.1783  0.0161
 2768SOL    HW219764   2.048   3.660   3.384 -1.9466 -0.3841 -2.4027
 2769SOL     OW19765   2.984   3.207   6.481 -0.2321 -0.0812 -0.0040
 2769SOL    HW119766   2.982   3.198   6.576  0.1944  2.4792  0.2396
 2769SOL    HW219767   3.039   3.283   6.464  0.3076 -0.2878  0.8318
 2770SOL     OW19768   3.511   4.264   8.502 -0.1734 -0.1072 -0.1150
 2770SOL    HW119769   3.476   4.191   8.554 -0.0436 -0.3610 -0.3788
 2770SOL    HW219770   3.431   4.311   8.478  0.5103 -0.8768 -3.9052
 2771SOL     OW19771   0.529   2.188   4.874  0.9395 -0.4477 -0.2685
 2771SOL    HW119772   0.586   2.166   4.947  0.1995 -1.0897  0.1268
 2771SOL    HW219773   0.483   2.103   4.868  0.0824  0.1171 -1.7686
 2772SOL     OW19774   1.943   3.497   6.193  0.1303 -0.0905  0.4888
 2772SOL    HW119775   1.930   3.425   6.131  0.5231  0.1399  0.1382
 2772SOL    HW219776   1.876   3.498   6.261  0.6392 -1.0922  1.0245
 2773SOL     OW19777   0.101   4.067   6.863 -0.0168  0.0455  0.5013
 2773SOL    HW119778   0.162   4.105   6.800 -0.2165 -2.9480 -1.4815
 2773SOL    HW219779   0.019   4.115   6.850 -0.5390 -0.5473  1.6561
 2774SOL     OW19780   0.876   4.578  13.661  0.1165 -0.0077 -0.1581
 2774SOL    HW119781   0.813   4.603  13.728  2.8876  2.7040  1.4365
 2774SOL    HW219782   0.926   4.655  13.633  0.5292 -0.1183  0.2730
 2775SOL     OW19783   4.111   3.204  14.931  0.3161  0.6022  0.2151
 2775SOL    HW119784   4.047   3.224  15.000 -0.2673 -0.8916  0.1131
 2775SOL    HW219785   4.055   3.185  14.856 -0.6550 -0.9231  1.3084
 2776SOL     OW19786   1.441   1.459   7.396 -0.4366  0.1542 -0.0289
 2776SOL    HW119787   1.528   1.442   7.431 -0.6083 -1.0925 -0.2315
 2776SOL    HW219788   1.412   1.369   7.385  0.9587 -0.2807 -0.1944
 2777SOL     OW19789   3.368   3.373   5.241 -0.1784  0.9576 -0.5021
 2777SOL    HW119790   3.276   3.360   5.264  1.5180 -2.5575  4.2715
 2777SOL    HW219791   3.374   3.372   5.145 -0.9594  0.2019 -0.5412
 2778SOL     OW19792   2.615   2.551   7.356 -0.6076  0.2905 -0.3816
 2778SOL    HW119793   2.652   2.629   7.398 -0.2526  0.2547 -0.6336
 2778SOL    HW219794   2.535   2.582   7.314 -0.1792 -1.6587 -2.6049
 2779SOL     OW19795   0.587   0.970   8.098 -0.3146 -0.4893  0.0955
 2779SOL    HW119796   0.586   1.034   8.027  1.4857  2.9644  3.1500
 2779SOL    HW219797   0.505   0.922   8.085 -0.1382 -0.8256  0.2394
 2780SOL     OW19798   0.825   1.590   6.485  0.4622  0.1743 -0.2276
 2780SOL    HW119799   0.790   1.503   6.465  1.7673 -0.3278 -0.3422
 2780SOL    HW219800   0.745   1.630   6.518 -0.7749 -0.8962 -1.9460
 2781SOL     OW19801   0.139   3.397   5.100  0.3842  0.3584  0.0436
 2781SOL    HW119802   0.124   3.457   5.027 -0.1159 -0.3271 -0.4160
 2781SOL    HW219803   0.232   3.377   5.090  0.2354 -0.4258  0.2690
 2782SOL     OW19804   2.723   1.504   3.144 -0.3171 -0.1950 -0.1823
 2782SOL    HW119805   2.808   1.533   3.177  0.1723 -1.5598 -0.2237
 2782SOL    HW219806   2.707   1.423   3.192  1.4794 -1.3698 -1.5158
 2783SOL     OW19807   4.432   2.393   6.673  0.1075 -0.4145  0.5904
 2783SOL    HW119808   4.430   2.299   6.688  1.5828 -0.7988 -1.5155
 2783SOL    HW219809   4.378   2.401   6.594 -0.4800  2.1490  1.2650
 2784SOL     OW19810   0.357   2.198   0.310  0.6574  0.2270  0.7722
 2784SOL    HW119811   0.310   2.232   0.234  0.6487 -0.3342  0.5273
 2784SOL    HW219812   0.340   2.271   0.370 -0.0603 -0.6260  1.6102
 2785SOL     OW19813   4.251   3.555   9.124  0.0008  0.2883 -0.2680
 2785SOL    HW119814   4.345   3.566   9.119  0.1639 -0.4020  1.2843
 2785SOL    HW219815   4.223   3.603   9.046 -0.7468 -0.4874 -0.4829
 2786SOL     OW19816   1.970   2.568  16.221 -0.0620 -0.2975 -0.3263
 2786SOL    HW119817   1.913   2.506  16.267  0.2287  0.0563  0.5217
 2786SOL    HW219818   2.060   2.549  16.246 -0.4743 -1.1721  0.5357
 2787SOL     OW19819   1.252   4.014   7.879 -0.3850 -0.4294  0.1754
 2787SOL    HW119820   1.246   3.918   7.877 -3.7087 -0.2064 -1.1536
 2787SOL    HW219821   1.291   4.029   7.964 -0.0772 -0.3848  0.0237
 2788SOL     OW19822   0.165   0.314   4.482  0.2782 -0.1923 -0.0586
 2788SOL    HW119823   0.094   0.324   4.419  0.0894 -0.1785  0.1551
 2788SOL    HW219824   0.192   0.227   4.455 -0.8399 -1.4761  2.8666
 2789SOL     OW19825   0.596   1.656   1.314  0.3172  0.3514  0.0168
 2789SOL    HW119826   0.658   1.669   1.243 -1.0929  0.4373 -1.1900
 2789SOL    HW219827   0.636   1.583   1.361 -1.8455  0.3090  1.8003
 2790SOL     OW19828   0.869   0.738   1.894 -0.0420  0.4229  0.2331
 2790SOL    HW119829   0.839   0.818   1.851  1.1721  0.7312 -0.0211
 2790SOL    HW219830   0.954   0.728   1.850 -0.5410  1.6455 -1.0143
 2791SOL     OW19831   1.238   1.071   3.068  0.2834 -0.6045  0.4697
 2791SOL    HW119832   1.146   1.084   3.090  0.1041 -1.4415  0.1831
 2791SOL    HW219833   1.278   1.065   3.155 -1.3213  1.1680  1.3229
 2792SOL     OW19834   3.627   4.715   4.017  0.2464 -0.2628 -0.3811
 2792SOL    HW119835   3.583   4.714   3.932 -0.2653  1.0919 -0.1408
 2792SOL    HW219836   3.648   4.622   4.017 -1.6972 -0.7089  1.9636
 2793SOL     OW19837   2.733   4.591   5.926 -0.1163 -0.5067 -0.4035
 2793SOL    HW119838   2.722   4.544   6.009  0.4925 -1.6439 -0.9677
 2793SOL    HW219839   2.675   4.666   5.940  1.7413  0.7289  0.6649
 2794SOL     OW19840   3.812   1.384   2.580  0.2574 -0.5551  0.4372
 2794SOL    HW119841   3.765   1.313   2.536  1.2664 -1.9112  1.5321
 2794SOL    HW219842   3.837   1.435   2.503  1.0980  0.8896  1.6764
 2795SOL     OW19843   1.034   1.455   8.460 -0.2335 -0.5209 -0.2616
 2795SOL    HW119844   0.978   1.398   8.407  0.1581 -0.3174 -0.8937
 2795SOL    HW219845   1.124   1.443   8.429 -1.3040  1.2367 -4.0834
 2796SOL     OW19846   4.193   0.063  11.717  0.3545 -0.1848 -0.2095
 2796SOL    HW119847   4.219   4.699  11.687  2.0510  0.3868 -0.3779
 2796SOL    HW219848   4.206   0.068  11.811 -0.0334  1.8055 -0.2591
 2797SOL     OW19849   1.120   2.440  16.633 -0.0828  0.1712 -0.3190
 2797SOL    HW119850   1.168   2.473  16.709 -2.1591 -0.7478  1.3781
 2797SOL    HW219851   1.034   2.480  16.642 -0.9704 -1.5307 -1.2497
 2798SOL     OW19852   0.745   0.491  14.946  0.2275 -0.3100  0.1236
 2798SOL    HW119853   0.711   0.405  14.971 -1.3595  0.1178 -0.5576
 2798SOL    HW219854   0.668   0.526  14.902  1.3982 -1.1853 -2.6325
 2799SOL     OW19855   0.541   2.506   5.211  0.2819 -0.2211 -0.4252
 2799SOL    HW119856   0.461   2.454   5.203 -1.4785  2.0529  2.3470
 2799SOL    HW219857   0.584   2.450   5.276  0.6026  1.7737  1.0787
 2800SOL     OW19858   2.144   0.492   3.385 -0.1757 -0.1152 -0.2135
 2800SOL    HW119859   2.175   0.544   3.311  1.5810 -0.9105 -0.0342
 2800SOL    HW219860   2.214   0.512   3.446  0.4012 -0.0981 -0.8775
 2801SOL     OW19861   0.840   2.253   7.558  0.1175  0.1125  0.0694
 2801SOL    HW119862   0.867   2.165   7.585 -2.0097 -0.9273 -1.1685
 2801SOL    HW219863   0.888   2.299   7.627 -1.6922  0.2713  1.2574
 2802SOL     OW19864   4.429   0.983   2.246 -0.5153  0.0949  0.0462
 2802SOL    HW119865   4.369   1.037   2.193 -0.8590  1.9543  2.3639
 2802SOL    HW219866   4.447   1.059   2.301  0.1382  0.1864 -0.3020
 2803SOL     OW19867   0.794   1.276   8.996  0.3360 -0.2238  0.0098
 2803SOL    HW119868   0.811   1.369   8.980 -0.3162  0.0234  0.7346
 2803SOL    HW219869   0.880   1.234   9.003  0.7656  0.4643 -1.1716
 2804SOL     OW19870   1.818   0.312   3.090  0.3070  0.2408  0.3994
 2804SOL    HW119871   1.895   0.282   3.138 -1.5280 -2.5353  1.5893
 2804SOL    HW219872   1.815   0.404   3.117  0.6503  0.4548 -0.2948
 2805SOL     OW19873   1.168   0.011  16.469  0.3806  0.4261  0.4846
 2805SOL    HW119874   1.170   4.639  16.463 -0.6120  0.4060  0.5116
 2805SOL    HW219875   1.176   0.043  16.379 -2.5312  0.7217  0.3115
 2806SOL     OW19876   4.641   1.490   7.184  0.0044 -0.3700 -0.5458
 2806SOL    HW119877   4.633   1.476   7.278  0.7675  1.0094 -0.2803
 2806SOL    HW219878   4.676   1.404   7.159  0.6488  0.3697 -2.1711
 2807SOL     OW19879   1.172   2.883  17.639 -0.2864  0.4915 -0.1077
 2807SOL    HW119880   1.194   2.970  17.670 -0.5721  0.5995 -0.2076
 2807SOL    HW219881   1.220   2.839   0.016 -0.5373  1.5066  0.6923
 2808SOL     OW19882   1.055   1.624   7.651  0.1455  0.0530  0.6207
 2808SOL    HW119883   1.046   1.696   7.714  2.5562  2.1574 -1.4388
 2808SOL    HW219884   0.987   1.570   7.691  1.1448  0.0087  2.2513
 2809SOL     OW19885   0.551   2.067  11.066  0.2561 -0.5234  0.0398
 2809SOL    HW119886   0.643   2.060  11.091  0.4751  1.5002 -0.2210
 2809SOL    HW219887   0.552   2.085  10.972  2.4744 -2.9849 -0.4024
 2810SOL     OW19888   0.479   1.508  17.052  0.3302 -0.3041  0.4057
 2810SOL    HW119889   0.411   1.574  17.041  2.0436  1.5998  1.2024
 2810SOL    HW219890   0.426   1.430  17.064 -0.1037  0.0038  0.4914
 2811SOL     OW19891   1.535   1.718   7.260  0.4481  0.3261 -0.3128
 2811SOL    HW119892   1.449   1.739   7.224 -0.3613 -1.6454  0.4608
 2811SOL    HW219893   1.505   1.646   7.315  0.0294 -0.0841 -1.0756
 2812SOL     OW19894   1.727   1.746  16.119  0.5288  0.0479  1.1938
 2812SOL    HW119895   1.807   1.798  16.115 -0.5063  1.6534  1.2472
 2812SOL    HW219896   1.724   1.712  16.030 -1.9213  1.3180  0.7898
 2813SOL     OW19897   4.664   3.934  10.619  0.2865 -0.1087 -0.2888
 2813SOL    HW119898   4.575   3.959  10.646  0.7993  0.5873  0.7752
 2813SOL    HW219899   4.653   3.899  10.531  0.2407  0.7993 -0.6394
 2814SOL     OW19900   4.368   3.967  13.085  0.1494 -0.0807  0.6705
 2814SOL    HW119901   4.406   3.935  13.167  0.4693 -2.3760 -0.3602
 2814SOL    HW219902   4.444   3.985  13.030  0.3883  0.0649  1.0449
 2815SOL     OW19903   1.889   2.962  10.477  0.1389 -0.0985 -0.0089
 2815SOL    HW119904   1.864   2.958  10.385  1.1046  0.0870 -0.2864
 2815SOL    HW219905   1.801   2.977  10.510 -0.1336 -1.0756 -0.3077
 2816SOL     OW19906   3.189   2.918  17.460 -0.6855  0.0069 -0.0999
 2816SOL    HW119907   3.208   2.989  17.521 -1.6875  0.1223  0.0808
 2816SOL    HW219908   3.163   2.850  17.521 -0.8292  0.1127 -0.0423
 2817SOL     OW19909   2.387   0.082  12.201  0.5822 -0.6453 -0.7604
 2817SOL    HW119910   2.305   0.035  12.184  0.9772 -0.5738 -2.9238
 2817SOL    HW219911   2.452   0.012  12.192 -0.4017 -1.6607  0.0352
 2818SOL     OW19912   1.143   0.579   2.692 -0.0003 -0.3671  0.3534
 2818SOL    HW119913   1.165   0.637   2.620 -1.4153  2.1296  1.9494
 2818SOL    HW219914   1.163   0.640   2.763  1.2725 -0.3251 -0.0412
 2819SOL     OW19915   1.551   1.763   5.049 -0.3739  0.4422  0.9119
 2819SOL    HW119916   1.634   1.725   5.022 -0.2689  0.3214  1.3939
 2819SOL    HW219917   1.573   1.856   5.047 -0.1055  0.3655  0.4828
 2820SOL     OW19918   3.824   1.354   7.721  0.4192  0.2897 -0.1364
 2820SOL    HW119919   3.819   1.298   7.798 -0.1879  0.5118 -0.0103
 2820SOL    HW219920   3.796   1.442   7.749  0.7418 -0.7856  3.6200
 2821SOL     OW19921   2.261   2.505  10.312  0.4149 -0.7356  0.0528
 2821SOL    HW119922   2.210   2.431  10.282 -3.1696  0.9965  1.9049
 2821SOL    HW219923   2.229   2.578  10.259 -0.7128 -0.2944  1.3364
 2822SOL     OW19924   3.908   2.160   5.725 -0.2746 -0.2811  0.4609
 2822SOL    HW119925   3.981   2.222   5.731 -2.3007  2.1797 -0.1281
 2822SOL    HW219926   3.886   2.157   5.632 -0.6299 -1.0519  0.5695
 2823SOL     OW19927   2.405   3.537   8.021  0.5539 -0.0077  0.0250
 2823SOL    HW119928   2.461   3.548   8.098 -0.1046 -0.2282  0.5408
 2823SOL    HW219929   2.462   3.506   7.951 -0.1247 -4.9021  1.6126
 2824SOL     OW19930   4.108   1.134   7.401 -0.3314 -0.8273  0.2300
 2824SOL    HW119931   4.119   1.043   7.429 -0.0391  0.1139  3.1173
 2824SOL    HW219932   4.076   1.172   7.483 -3.6254  2.2853 -2.4952
 2825SOL     OW19933   0.906   1.494   5.666  0.0030 -0.2630 -0.4003
 2825SOL    HW119934   0.924   1.587   5.653 -1.3446  0.0906  0.2885
 2825SOL    HW219935   0.880   1.470   5.577 -0.0690 -2.3791  0.1796
 2826SOL     OW19936   1.955   3.516  12.765 -0.0911  0.3401  0.0053
 2826SOL    HW119937   1.940   3.434  12.812  1.4190 -0.0353 -0.1778
 2826SOL    HW219938   1.945   3.488  12.674  1.5460 -0.7030  0.1542
 2827SOL     OW19939   3.699   3.878   6.447  0.4670 -0.1672  0.1402
 2827SOL    HW119940   3.728   3.956   6.495 -0.3890 -0.0497  0.4772
 2827SOL    HW219941   3.606   3.878   6.469  0.0549 -0.4934 -1.6200
 2828SOL     OW19942   4.162   3.934  10.627  0.0986  0.0837  0.3210
 2828SOL    HW119943   4.180   4.015  10.579 -1.7626  1.2862  1.6903
 2828SOL    HW219944   4.187   3.871  10.559 -1.2869  0.4636 -0.5394
 2829SOL     OW19945   0.275   1.762   1.740 -0.0585 -0.1052  0.1385
 2829SOL    HW119946   0.323   1.722   1.812 -2.8576 -0.5659  1.7340
 2829SOL    HW219947   0.347   1.792   1.684  0.6014 -2.1192 -0.1201
 2830SOL     OW19948   3.077   2.040  15.121 -0.1061  0.0141  0.2098
 2830SOL    HW119949   3.055   2.014  15.032  1.9886 -0.9906 -0.0032
 2830SOL    HW219950   3.002   2.015  15.175 -0.6939  0.6964 -0.2975
 2831SOL     OW19951   1.196   4.522   1.586 -0.0107 -0.4318 -0.1745
 2831SOL    HW119952   1.152   4.457   1.531  0.3189 -1.3451  0.6365
 2831SOL    HW219953   1.136   4.593   1.562  1.3230  1.2605  1.4737
 2832SOL     OW19954   3.974   0.797   6.471 -0.4749  0.0989 -0.0744
 2832SOL    HW119955   4.029   0.784   6.549 -0.8625  0.3468  0.2369
 2832SOL    HW219956   3.903   0.737   6.491 -0.3000 -1.0808 -2.9573
 2833SOL     OW19957   2.786   3.862  15.176 -0.1106 -0.1183  0.1647
 2833SOL    HW119958   2.729   3.788  15.154 -1.1142  1.6497 -3.1180
 2833SOL    HW219959   2.731   3.940  15.176  2.5952  1.7981  3.7600
 2834SOL     OW19960   0.571   2.118   8.737  0.2199 -0.2262  0.1885
 2834SOL    HW119961   0.546   2.188   8.797 -2.1909 -1.1259  0.2453
 2834SOL    HW219962   0.654   2.090   8.776  0.8802  0.7604 -0.5282
 2835SOL     OW19963   3.755   1.067  14.598 -0.2126  0.4813 -0.5257
 2835SOL    HW119964   3.830   1.123  14.576  0.5441  0.6505  2.5452
 2835SOL    HW219965   3.752   1.019  14.515 -0.7225 -0.7629  0.2122
 2836SOL     OW19966   0.518   3.186   9.440  0.1578  0.0576  0.0544
 2836SOL    HW119967   0.590   3.192   9.503 -0.2571 -3.8048  0.8655
 2836SOL    HW219968   0.501   3.092   9.438  0.1460  0.0263  1.8472
 2837SOL     OW19969   1.525   4.230   2.583  0.0142 -0.0608 -0.0630
 2837SOL    HW119970   1.605   4.187   2.551  0.4461 -0.1846  1.1867
 2837SOL    HW219971   1.539   4.312   2.535 -0.5653 -0.0626 -0.2324
 2838SOL     OW19972   4.699   1.183   1.154  0.4999 -0.1499 -0.2903
 2838SOL    HW119973   0.012   1.213   1.238 -0.8956 -0.0801  0.2910
 2838SOL    HW219974   4.604   1.189   1.167  0.5869  1.7778 -0.5692
 2839SOL     OW19975   0.537   2.039   6.288  0.4884  0.2190 -0.2491
 2839SOL    HW119976   0.566   2.067   6.201  0.1614 -2.6618 -1.2920
 2839SOL    HW219977   0.510   1.947   6.287 -2.4400  1.0591 -1.5211
 2840SOL     OW19978   2.478   3.347  12.808 -0.2455 -0.1990  0.3919
 2840SOL    HW119979   2.524   3.369  12.727 -1.1328  0.0435 -0.0474
 2840SOL    HW219980   2.415   3.417  12.827  0.9400  1.4086 -1.6349
 2841SOL     OW19981   3.266   1.405   4.389  0.1562  0.0761  0.1385
 2841SOL    HW119982   3.207   1.381   4.318 -2.1311  2.2137  1.3159
 2841SOL    HW219983   3.348   1.399   4.339  0.4787 -3.0523  1.0411
 2842SOL     OW19984   2.581   0.148   5.970 -0.3452  0.3033  0.0650
 2842SOL    HW119985   2.503   0.122   6.017 -0.4340 -0.8193 -0.6997
 2842SOL    HW219986   2.562   0.150   5.876 -0.5034  0.9995  0.1105
 2843SOL     OW19987   1.054   1.999  14.671 -0.5284  0.4251  0.0435
 2843SOL    HW119988   1.149   1.995  14.677 -0.5072  1.0219  0.1036
 2843SOL    HW219989   1.037   2.068  14.607  0.7854  0.5936 -0.1273
 2844SOL     OW19990   0.352   0.860   7.970  0.2651  0.7101 -0.2647
 2844SOL    HW119991   0.293   0.816   7.909  0.1774 -0.5747  0.7307
 2844SOL    HW219992   0.301   0.922   8.022  1.9391  0.3253  1.8272
 2845SOL     OW19993   4.030   3.539   5.520 -0.2218  0.2141  0.2691
 2845SOL    HW119994   4.043   3.609   5.455  1.4380  1.8429  2.3449
 2845SOL    HW219995   4.115   3.495   5.515  0.6094  1.6509  1.4079
 2846SOL     OW19996   2.565   2.235   7.470 -0.1170  0.1555 -0.2046
 2846SOL    HW119997   2.497   2.226   7.537 -0.5112  0.5012 -0.5645
 2846SOL    HW219998   2.522   2.296   7.410 -0.4041  1.1982  1.0459
 2847SOL     OW19999   4.089   4.396  12.841  0.2696  0.0137 -0.3003
 2847SOL    HW120000   4.062   4.304  12.838 -1.6709  0.5369  1.3780
 2847SOL    HW220001   4.184   4.382  12.843  0.3606  0.5740 -0.7575
 2848SOL     OW20002   2.656   0.264   6.801  0.6285  0.1614  0.1319
 2848SOL    HW120003   2.650   0.202   6.874  1.3638 -0.2079 -0.1264
 2848SOL    HW220004   2.566   0.283   6.774  0.9871  0.3778 -0.9151
 2849SOL     OW20005   3.430   4.404   3.501  0.5710  0.0352  0.1335
 2849SOL    HW120006   3.460   4.454   3.425  0.6305  2.0932  1.5139
 2849SOL    HW220007   3.386   4.465   3.561 -2.5891 -1.1012 -1.0704
 2850SOL     OW20008   4.136   0.135   6.208  0.1995 -0.6346 -0.2115
 2850SOL    HW120009   4.149   0.210   6.150  1.4550 -1.0934 -0.5168
 2850SOL    HW220010   4.098   0.070   6.149  0.7873 -0.4641 -0.7780
 2851SOL     OW20011   0.559   1.855   5.846 -0.3946  0.6140  0.1623
 2851SOL    HW120012   0.565   1.855   5.751 -0.7271 -0.7090  0.1379
 2851SOL    HW220013   0.630   1.796   5.871 -0.5849  0.2721 -0.1139
 2852SOL     OW20014   1.350   1.869  12.187  0.4982  0.2749  0.3462
 2852SOL    HW120015   1.283   1.906  12.130 -0.5251 -2.1572 -0.0358
 2852SOL    HW220016   1.416   1.936  12.206 -0.1352  1.5934 -2.1922
 2853SOL     OW20017   0.316   4.353  11.148 -0.0191  0.2117  0.5082
 2853SOL    HW120018   0.372   4.429  11.130  0.3924 -0.0989  0.4874
 2853SOL    HW220019   0.369   4.281  11.180 -0.6275  0.0745  1.2312
 2854SOL     OW20020   1.901   0.986   4.799  0.2124  0.6742  0.2899
 2854SOL    HW120021   1.983   1.017   4.837  0.9436 -1.3134  0.2915
 2854SOL    HW220022   1.927   0.894   4.798 -0.8229  0.3770  0.4745
 2855SOL     OW20023   1.255   4.506   0.232 -0.2941  0.1008  0.1337
 2855SOL    HW120024   1.249   4.598   0.256  1.4642  0.5466 -1.1298
 2855SOL    HW220025   1.240   4.508   0.137 -0.2719  2.0106  0.1743
 2856SOL     OW20026   0.678   1.306   3.328 -0.1995 -0.0397 -0.0519
 2856SOL    HW120027   0.610   1.255   3.371  0.9769 -1.2375  0.4107
 2856SOL    HW220028   0.645   1.396   3.329  2.0476  0.8071 -0.2415
 2857SOL     OW20029   3.395   4.318   6.285  0.5119 -0.3445  0.3349
 2857SOL    HW120030   3.482   4.333   6.248  0.8802  1.2067  1.8309
 2857SOL    HW220031   3.402   4.299   6.378  0.7837 -0.7049  0.2418
 2858SOL     OW20032   0.846   4.651   7.174 -0.0764  0.6824 -0.7046
 2858SOL    HW120033   0.843   4.636   7.080  0.0569 -0.9972 -0.4465
 2858SOL    HW220034   0.932   4.610   7.182 -0.6221 -0.5982 -1.3022
 2859SOL     OW20035   3.353   0.360  15.023 -0.4136 -0.3593 -0.0759
 2859SOL    HW120036   3.318   0.371  14.934 -3.9280 -0.4958  1.2824
 2859SOL    HW220037   3.323   0.444  15.059 -1.4351 -1.3479  1.3914
 2860SOL     OW20038   1.530   4.112  13.742  0.5641 -0.2747 -0.3003
 2860SOL    HW120039   1.580   4.168  13.802  2.8625 -2.5212 -0.0853
 2860SOL    HW220040   1.513   4.175  13.672 -0.8710 -1.1592 -0.7226
 2861SOL     OW20041   4.304   0.602   5.221 -0.1688  0.7394  0.2201
 2861SOL    HW120042   4.344   0.515   5.212  0.9161  1.3617 -0.9932
 2861SOL    HW220043   4.242   0.587   5.151 -0.2069 -0.7959  0.5847
 2862SOL     OW20044   4.473   0.087   8.821  0.1313 -0.1024  0.5083
 2862SOL    HW120045   4.508   0.078   8.910  0.8273 -3.4922 -0.1040
 2862SOL    HW220046   4.465   0.181   8.804  1.7060  0.0486  0.6023
 2863SOL     OW20047   3.202   0.672   6.324  0.0411  0.3794 -0.0772
 2863SOL    HW120048   3.284   0.624   6.309 -0.6849 -1.2018  0.9669
 2863SOL    HW220049   3.164   0.661   6.237  0.8842  1.4009 -0.5806
 2864SOL     OW20050   2.581   2.552   1.534 -0.4522 -0.0272 -0.1225
 2864SOL    HW120051   2.534   2.590   1.608  1.0835  0.6611  0.4911
 2864SOL    HW220052   2.513   2.496   1.496  0.7061  0.2919 -2.6743
 2865SOL     OW20053   1.743   4.330   7.885  0.3591  0.0469 -0.4833
 2865SOL    HW120054   1.751   4.260   7.820  2.2469  1.5809 -1.9098
 2865SOL    HW220055   1.650   4.353   7.888  0.6958  1.2533  0.3862
 2866SOL     OW20056   3.024   3.172   3.730 -0.4994 -0.3872 -0.6082
 2866SOL    HW120057   3.036   3.115   3.806 -0.1768  2.6196  1.5818
 2866SOL    HW220058   3.014   3.105   3.662  0.2003  0.0964 -1.1877
 2867SOL     OW20059   0.719   1.559   0.432 -0.0604 -0.1496 -0.3576
 2867SOL    HW120060   0.670   1.637   0.457  0.4835 -0.3922  1.4346
 2867SOL    HW220061   0.684   1.502   0.500  0.5133 -0.5387 -0.3895
 2868SOL     OW20062   3.840   4.611   6.201  0.2611 -0.0420  0.1037
 2868SOL    HW120063   3.787   4.568   6.268 -0.3826  1.4909  0.5641
 2868SOL    HW220064   3.872   4.540   6.145  0.9965  0.5556 -0.2404
 2869SOL     OW20065   0.354   2.793   8.917 -0.1422  0.0203  0.0289
 2869SOL    HW120066   0.345   2.728   8.987  3.2979 -0.2301  0.2247
 2869SOL    HW220067   0.297   2.863   8.950  0.0833 -0.1088  0.6922
 2870SOL     OW20068   2.113   0.237  11.761  0.2262  0.4182  0.4948
 2870SOL    HW120069   2.030   0.191  11.775  0.2243  0.1125 -0.5330
 2870SOL    HW220070   2.171   0.194  11.824  3.7738  4.7651  0.1309
 2871SOL     OW20071   0.584   3.034  10.143 -0.4526 -0.3355  0.3797
 2871SOL    HW120072   0.600   2.961  10.202 -1.7381  0.7077  2.0146
 2871SOL    HW220073   0.580   3.116  10.192 -0.4424 -1.6071  2.5343
 2872SOL     OW20074   1.039   2.611  14.539 -0.0913  0.2888  0.0494
 2872SOL    HW120075   0.947   2.639  14.541  0.1992  1.3345 -1.0058
 2872SOL    HW220076   1.085   2.695  14.538  1.6271 -0.6620 -0.8319
 2873SOL     OW20077   3.459   4.130  15.000  0.2580 -0.0450  0.0468
 2873SOL    HW120078   3.553   4.143  15.012  0.4524  0.4279 -1.9108
 2873SOL    HW220079   3.467   4.060  14.935  1.1781 -1.8602  2.1208
 2874SOL     OW20080   3.555   0.983   2.192 -0.2751 -0.3082 -0.3255
 2874SOL    HW120081   3.481   1.034   2.225 -1.2725 -0.8228 -1.7985
 2874SOL    HW220082   3.562   1.022   2.105 -2.3259  2.5382  0.7970
 2875SOL     OW20083   0.516   4.510   6.547 -0.4259  0.6007  0.1521
 2875SOL    HW120084   0.484   4.574   6.610 -0.2169  1.3339 -0.4877
 2875SOL    HW220085   0.476   4.536   6.464  1.4105 -1.3004 -1.3429
 2876SOL     OW20086   3.416   1.485   2.203  0.1748 -0.2215  0.7788
 2876SOL    HW120087   3.492   1.464   2.148  0.4342  0.3621  0.9093
 2876SOL    HW220088   3.423   1.579   2.185 -2.5562 -0.2406 -0.3818
 2877SOL     OW20089   0.398   3.350   4.444 -0.1572 -0.2387  0.6138
 2877SOL    HW120090   0.395   3.260   4.413 -1.2261 -0.0346  0.1337
 2877SOL    HW220091   0.491   3.372   4.432 -0.2297 -0.6215 -0.6146
 2878SOL     OW20092   4.568   1.664   0.745  0.5328 -0.0381 -0.0937
 2878SOL    HW120093   4.563   1.604   0.819 -0.7223  0.2877  0.0833
 2878SOL    HW220094   4.530   1.740   0.791  0.7175  1.1967 -1.9760
 2879SOL     OW20095   3.945   4.159   4.731 -0.1686  0.3923  0.0520
 2879SOL    HW120096   3.919   4.076   4.771  1.1804  0.0973  0.3122
 2879SOL    HW220097   4.035   4.179   4.756  0.1211  2.5262 -2.7293
 2880SOL     OW20098   4.610   0.512  15.624  0.1911 -0.1193  1.3241
 2880SOL    HW120099   4.533   0.457  15.612 -0.0899  0.4444  0.5157
 2880SOL    HW220100   4.623   0.497  15.717 -0.9344 -1.0199  1.3389
 2881SOL     OW20101   3.650   4.634   5.517  0.4444 -0.1212 -0.0174
 2881SOL    HW120102   3.627   4.541   5.515 -0.2639  0.0287  0.8825
 2881SOL    HW220103   3.710   4.638   5.592  0.3658 -2.6797  0.1917
 2882SOL     OW20104   3.911   1.403  16.956  0.7558  0.0134  0.0169
 2882SOL    HW120105   3.892   1.496  16.963  2.3361  0.1539  2.3010
 2882SOL    HW220106   3.995   1.392  17.001 -0.9614 -0.8693  2.9703
 2883SOL     OW20107   0.362   3.160  15.950  0.0051 -0.6809  0.4468
 2883SOL    HW120108   0.411   3.078  15.948  1.9138  0.3734  2.7858
 2883SOL    HW220109   0.273   3.129  15.964  0.5768 -1.3725  2.5722
 2884SOL     OW20110   3.309   4.309  15.336 -0.1980  0.3254  0.3678
 2884SOL    HW120111   3.284   4.369  15.406  1.2860  0.4208  0.8136
 2884SOL    HW220112   3.290   4.228  15.384 -1.8292 -0.0796 -0.9803
 2885SOL     OW20113   0.890   4.026  10.974  0.0895  0.4006 -0.1081
 2885SOL    HW120114   0.895   4.096  10.908 -0.4045  1.3188  0.8431
 2885SOL    HW220115   0.801   4.034  11.006 -0.4473  3.0411 -2.2811
 2886SOL     OW20116   4.103   0.453   1.649 -0.1998 -0.2368 -0.3855
 2886SOL    HW120117   4.131   0.370   1.687  0.6409 -0.4281 -1.4186
 2886SOL    HW220118   4.182   0.505   1.634 -0.2587  0.2120  0.8610
 2887SOL     OW20119   2.827   4.034   2.932  0.3544 -0.2367 -0.5057
 2887SOL    HW120120   2.773   4.106   2.899 -3.3546 -0.5397  4.8566
 2887SOL    HW220121   2.880   4.079   2.997 -0.2453  0.0733 -0.2341
 2888SOL     OW20122   3.391   0.544   1.961  0.6912  0.7036  0.0777
 2888SOL    HW120123   3.306   0.573   1.994  1.4963  3.8738 -0.6317
 2888SOL    HW220124   3.359   0.537   1.871  0.4178 -0.4062  0.2662
 2889SOL     OW20125   4.543   2.676   2.066  0.3027  0.2655 -0.2456
 2889SOL    HW120126   4.563   2.754   2.014 -0.4301  0.2410 -0.5726
 2889SOL    HW220127   4.577   2.706   2.150  1.7528 -0.9535 -0.3949
 2890SOL     OW20128   3.064   0.319   0.662 -0.0353  0.0835  0.5387
 2890SOL    HW120129   3.099   0.261   0.730  0.1954  0.4288  0.7141
 2890SOL    HW220130   2.973   0.337   0.687 -0.0446 -0.6035  0.9906
 2891SOL     OW20131   4.574   4.022  17.483  0.7618  0.4911  0.0763
 2891SOL    HW120132   4.598   3.944  17.534  0.4548 -1.0975 -2.1893
 2891SOL    HW220133   4.483   3.994  17.469  1.1679 -0.0141 -1.5528
 2892SOL     OW20134   2.324   4.098   6.045 -0.1394 -0.2153 -0.6273
 2892SOL    HW120135   2.288   4.022   6.000  0.7685 -0.4815 -0.9104
 2892SOL    HW220136   2.258   4.099   6.114 -0.1839 -1.6391 -0.6525
 2893SOL     OW20137   1.456   0.449   4.140 -0.0549 -0.3246  0.4826
 2893SOL    HW120138   1.393   0.442   4.068 -0.2816 -0.0639  0.6608
 2893SOL    HW220139   1.508   0.522   4.108  0.7942 -0.2839  1.9461
 2894SOL     OW20140   3.134   2.950   5.729  0.0919  0.1434 -0.6150
 2894SOL    HW120141   3.140   3.025   5.789  0.0154 -1.1574  1.0032
 2894SOL    HW220142   3.129   2.883   5.797  0.7279  1.4721  0.7652
 2895SOL     OW20143   0.136   1.447  11.502  0.7493  0.0210 -0.2144
 2895SOL    HW120144   0.231   1.441  11.486  0.5386 -1.8252 -0.7584
 2895SOL    HW220145   0.133   1.469  11.595  0.8194 -0.2274 -0.1532
 2896SOL     OW20146   4.257   0.128   6.699 -0.5015  0.1848 -0.4132
 2896SOL    HW120147   4.322   0.185   6.742 -0.2357  1.3771 -2.4358
 2896SOL    HW220148   4.276   0.145   6.607 -0.1191 -0.4175 -0.4473
 2897SOL     OW20149   2.982   1.862   4.415  0.0381 -0.8951  0.3321
 2897SOL    HW120150   2.971   1.953   4.443 -2.2074 -1.4503  1.2824
 2897SOL    HW220151   3.077   1.861   4.420  0.1547 -1.2744 -2.1722
 2898SOL     OW20152   3.267   4.043  13.568  0.4189  0.2234  0.4178
 2898SOL    HW120153   3.184   4.030  13.612  0.7893 -1.5869  0.5823
 2898SOL    HW220154   3.315   3.965  13.598  0.5695  0.2389  0.2197
 2899SOL     OW20155   1.927   1.513   1.624  0.3571 -0.2977  0.1374
 2899SOL    HW120156   1.970   1.503   1.539 -0.9520 -0.5302 -0.4881
 2899SOL    HW220157   1.994   1.481   1.685  1.2232  1.2468  0.0135
 2900SOL     OW20158   0.040   0.135   2.372  0.6433 -0.3174 -0.1566
 2900SOL    HW120159   0.025   0.041   2.375 -1.3749  0.0512  1.1659
 2900SOL    HW220160   0.129   0.133   2.336  0.6625 -2.9159  0.0179
 2901SOL     OW20161   2.615   2.504  15.626 -0.3807 -0.6842 -0.5332
 2901SOL    HW120162   2.539   2.521  15.571 -1.2112  1.0084  1.1466
 2901SOL    HW220163   2.670   2.582  15.625 -0.3276 -0.6952  0.9671
 2902SOL     OW20164   0.890   0.304   5.945  0.4727 -0.0842 -0.1047
 2902SOL    HW120165   0.942   0.313   5.864 -1.4895  2.3310 -1.0951
 2902SOL    HW220166   0.862   0.391   5.973  1.3716  0.1071  0.2165
 2903SOL     OW20167   0.292   2.172  12.258  0.0074  0.6328 -0.6936
 2903SOL    HW120168   0.336   2.159  12.342 -0.8696  2.2838  0.0338
 2903SOL    HW220169   0.328   2.257  12.234  2.5671 -1.4617 -4.2631
 2904SOL     OW20170   0.507   1.999  13.446  0.0518  0.1213 -0.4613
 2904SOL    HW120171   0.498   1.953  13.363  3.2430 -0.4862 -0.4832
 2904SOL    HW220172   0.507   2.091  13.421 -0.7783  0.9212  2.4375
 2905SOL     OW20173   0.170   4.042   8.026 -0.2180  0.0096 -0.6552
 2905SOL    HW120174   0.206   3.960   7.990 -0.2361 -0.0812 -0.4646
 2905SOL    HW220175   0.160   4.013   8.116  3.2677 -0.8032 -0.5293
 2906SOL     OW20176   1.672   1.698   5.599 -0.3263 -0.2502 -0.0161
 2906SOL    HW120177   1.584   1.732   5.619 -1.2136 -1.8793 -1.1490
 2906SOL    HW220178   1.647   1.619   5.551  0.9518 -1.6725  1.6586
 2907SOL     OW20179   2.863   2.909  10.216  0.1507 -0.4384 -0.3032
 2907SOL    HW120180   2.886   2.886  10.126  0.2638  0.2216 -0.4409
 2907SOL    HW220181   2.809   2.831  10.230  1.0472 -1.2267 -1.2066
 2908SOL     OW20182   2.273   2.106   1.899 -0.7414  0.7167  0.0420
 2908SOL    HW120183   2.196   2.148   1.937 -0.8540 -1.0356  1.7249
 2908SOL    HW220184   2.243   2.070   1.816 -0.4821 -1.1536  0.7780
 2909SOL     OW20185   4.302   0.864   1.288 -0.3780  0.4519 -0.1126
 2909SOL    HW120186   4.252   0.845   1.209  0.3325  0.3360 -0.5331
 2909SOL    HW220187   4.387   0.846   1.248 -0.9434 -0.8816 -0.7270
 2910SOL     OW20188   0.968   3.066   4.803  0.3494 -0.6718 -0.2216
 2910SOL    HW120189   0.954   3.152   4.764  0.1856 -0.6740 -0.1675
 2910SOL    HW220190   1.064   3.060   4.802  0.5902  2.8641  0.8711
 2911SOL     OW20191   1.342   2.147  17.127  0.0874  0.3419  0.3625
 2911SOL    HW120192   1.266   2.203  17.115  1.0743  1.6925  0.3791
 2911SOL    HW220193   1.305   2.061  17.143 -1.8215  1.2702  0.9288
 2912SOL     OW20194   1.978   3.781  17.682 -0.2002  0.3384  0.1140
 2912SOL    HW120195   2.005   3.731   0.065 -0.4549 -1.3303 -0.8923
 2912SOL    HW220196   1.922   3.852   0.021 -0.5153  0.6364 -1.0816
 2913SOL     OW20197   0.867   2.973   6.013  0.2809 -0.4721 -0.8656
 2913SOL    HW120198   0.887   2.882   6.037 -0.8007 -0.8822 -1.4992
 2913SOL    HW220199   0.944   2.994   5.960  1.0000 -0.8822  0.0156
 2914SOL     OW20200   4.374   0.934  16.083  0.4892 -0.0631 -0.3476
 2914SOL    HW120201   4.376   0.877  16.007 -1.2037 -3.2072  1.9500
 2914SOL    HW220202   4.377   1.017  16.035  0.8460 -1.2585 -2.3700
 2915SOL     OW20203   0.142   2.905   4.383 -0.5281 -0.4071  0.2781
 2915SOL    HW120204   0.169   2.860   4.303 -0.9107 -0.8634  0.4110
 2915SOL    HW220205   0.158   2.995   4.355 -1.3351  0.7717  3.5696
 2916SOL     OW20206   2.302   1.669  12.626 -0.6777 -0.3396  0.2185
 2916SOL    HW120207   2.367   1.599  12.623 -0.6220 -0.3751  3.1870
 2916SOL    HW220208   2.302   1.691  12.719 -0.0377 -1.9214  0.5909
 2917SOL     OW20209   2.829   0.730   2.170  0.2981 -0.0523 -0.4304
 2917SOL    HW120210   2.907   0.759   2.218 -0.0586 -0.7003  0.5380
 2917SOL    HW220211   2.829   0.791   2.096 -2.2821 -0.6038 -0.9022
 2918SOL     OW20212   2.605   4.134  14.205 -0.4880  0.0418 -0.6586
 2918SOL    HW120213   2.553   4.062  14.241 -0.1948  0.4911  0.6680
 2918SOL    HW220214   2.601   4.116  14.111  0.2958  0.6963 -0.8220
 2919SOL     OW20215   4.068   2.481   6.918 -0.3383 -0.6596  0.3484
 2919SOL    HW120216   4.116   2.546   6.866 -0.1474 -2.0827 -1.2598
 2919SOL    HW220217   4.119   2.475   6.999  1.5091 -1.5841 -0.8883
 2920SOL     OW20218   4.706   1.608   3.264  0.2885 -0.2999  0.5230
 2920SOL    HW120219   4.613   1.589   3.267  0.0372  0.9567  0.9686
 2920SOL    HW220220   0.005   1.531   3.211  1.6808 -0.5200  1.4293
 2921SOL     OW20221   3.777   0.980   8.124  0.0931  0.0358 -0.8171
 2921SOL    HW120222   3.842   1.046   8.149 -0.8303  0.9554 -0.8209
 2921SOL    HW220223   3.791   0.911   8.188  0.0256  1.3562  0.6253
 2922SOL     OW20224   3.996   3.058   6.889 -0.6295 -0.2380 -0.4804
 2922SOL    HW120225   4.021   2.983   6.836  1.1156  0.5021 -0.6898
 2922SOL    HW220226   3.949   3.024   6.966  0.7039  2.0593  1.3457
 2923SOL     OW20227   1.184   0.290   6.654  0.6958  0.0203  0.4096
 2923SOL    HW120228   1.156   0.303   6.563 -2.5078 -0.2690  1.3635
 2923SOL    HW220229   1.251   0.355   6.674 -0.0193  0.4008  1.5263
 2924SOL     OW20230   4.685   2.923   5.127 -0.7380  0.5603  0.0143
 2924SOL    HW120231   0.015   2.850   5.158 -0.8367  0.5252  0.1012
 2924SOL    HW220232   4.608   2.910   5.182  1.4245 -1.0499  2.6350
 2925SOL     OW20233   1.173   3.544   2.943  0.0061  0.2803 -0.0696
 2925SOL    HW120234   1.080   3.566   2.929 -0.1297 -1.3553 -1.7052
 2925SOL    HW220235   1.181   3.580   3.032 -0.0824  0.2984 -0.0689
 2926SOL     OW20236   1.159   2.578  11.492 -0.3867  0.2335 -0.2322
 2926SOL    HW120237   1.129   2.512  11.430 -0.5591 -2.0534  2.2768
 2926SOL    HW220238   1.109   2.557  11.571 -0.1622 -2.0728 -0.7283
 2927SOL     OW20239   1.154   2.711   1.178 -0.1393 -0.0776 -0.0396
 2927SOL    HW120240   1.207   2.711   1.257  0.4771  2.7739 -0.4547
 2927SOL    HW220241   1.196   2.778   1.125 -0.5889  0.1098 -0.1643
 2928SOL     OW20242   2.683   3.553   6.859  0.2173 -0.3647 -0.5118
 2928SOL    HW120243   2.719   3.558   6.947 -1.0562 -0.3135  0.0130
 2928SOL    HW220244   2.627   3.476   6.869  1.5132 -0.9339  2.1738
 2929SOL     OW20245   4.690   4.508   5.288  0.0680  0.5928 -0.1873
 2929SOL    HW120246   0.050   4.554   5.275  0.9551 -0.8181  0.5209
 2929SOL    HW220247   4.711   4.422   5.323  0.0654  0.4392 -0.5691
 2930SOL     OW20248   2.097   3.627   5.979  0.8465  0.0963 -0.0430
 2930SOL    HW120249   2.041   3.596   6.050  0.4941 -2.5545 -1.4855
 2930SOL    HW220250   2.154   3.551   5.968  2.1985  1.0920 -0.0786
 2931SOL     OW20251   2.781   3.366   2.255 -0.7268 -0.2337 -0.3447
 2931SOL    HW120252   2.820   3.446   2.290  2.1165 -0.5258 -2.8736
 2931SOL    HW220253   2.823   3.305   2.315 -1.3809 -1.3611 -1.0350
 2932SOL     OW20254   1.039   1.304   7.932 -0.0588 -0.5985  0.3007
 2932SOL    HW120255   1.127   1.278   7.905  1.0859  1.8069  1.7319
 2932SOL    HW220256   1.045   1.386   7.982  0.0483  0.5129 -1.5309
 2933SOL     OW20257   0.681   0.259   6.179 -0.5831 -0.1746  0.9658
 2933SOL    HW120258   0.655   0.291   6.092  2.5927 -2.1291 -0.7080
 2933SOL    HW220259   0.694   0.166   6.160 -1.6471 -0.4313  1.5041
 2934SOL     OW20260   0.338   4.134   6.456 -0.4510  0.8132 -0.0040
 2934SOL    HW120261   0.416   4.186   6.439 -0.4908  0.5014 -1.1304
 2934SOL    HW220262   0.285   4.175   6.388 -0.1373  1.1563 -0.0399
 2935SOL     OW20263   4.329   3.699   8.334  0.1790 -0.2602 -0.1988
 2935SOL    HW120264   4.381   3.685   8.413  1.1317 -1.2512 -0.9956
 2935SOL    HW220265   4.366   3.783   8.306  1.8949 -1.5758 -1.8977
 2936SOL     OW20266   2.870   0.631  17.282  0.1842  0.5854  0.0629
 2936SOL    HW120267   2.964   0.625  17.298  0.1702  3.0001  1.1391
 2936SOL    HW220268   2.837   0.542  17.288 -0.5324  0.9248  1.2936
 2937SOL     OW20269   0.956   3.840  11.688  0.5851 -0.1715  0.2217
 2937SOL    HW120270   1.023   3.909  11.691 -0.2922  0.7836 -1.9957
 2937SOL    HW220271   0.928   3.832  11.779  0.9110 -2.7969  0.0958
 2938SOL     OW20272   3.227   4.234   1.525 -0.0045  0.4273 -0.2891
 2938SOL    HW120273   3.177   4.228   1.443  0.6821 -1.9322 -0.5307
 2938SOL    HW220274   3.159   4.206   1.587  0.3954 -0.8353 -0.4225
 2939SOL     OW20275   2.148   2.141   4.883 -0.0307  0.7102 -0.3781
 2939SOL    HW120276   2.228   2.151   4.934 -0.5955 -0.8162  0.8308
 2939SOL    HW220277   2.186   2.084   4.816 -3.4000 -2.9424  0.7992
 2940SOL     OW20278   3.301   3.243   3.716  0.7685  0.6548  1.0690
 2940SOL    HW120279   3.322   3.188   3.640 -4.6719 -0.1078  0.0961
 2940SOL    HW220280   3.205   3.245   3.714  0.8018  1.5393 -0.0291
 2941SOL     OW20281   0.700   2.622  13.016  0.0166 -0.1880  0.2740
 2941SOL    HW120282   0.609   2.650  13.008  0.4093  0.4193 -1.9215
 2941SOL    HW220283   0.736   2.654  12.933 -1.0858  2.3355  0.7717
 2942SOL     OW20284   0.311   0.739   5.406 -0.4551 -0.1382  0.1781
 2942SOL    HW120285   0.283   0.666   5.461 -2.2687  0.7500  0.4315
 2942SOL    HW220286   0.229   0.753   5.357 -1.0060 -0.9927  0.8548
 2943SOL     OW20287   3.942   2.958  16.187  0.3071  0.2479  0.1423
 2943SOL    HW120288   3.974   2.919  16.106  0.2201  0.6782 -0.1034
 2943SOL    HW220289   3.848   2.940  16.179  0.0643  1.2334  0.7414
 2944SOL     OW20290   3.437   2.856  16.128 -0.7100  0.6094 -0.5336
 2944SOL    HW120291   3.421   2.840  16.035  0.0244  1.6278 -0.8375
 2944SOL    HW220292   3.408   2.947  16.136 -1.0282  0.3804  0.8887
 2945SOL     OW20293   0.153   3.449   4.283 -0.1144  0.4352  0.1385
 2945SOL    HW120294   0.215   3.464   4.354  0.0873  1.2227 -0.2095
 2945SOL    HW220295   0.075   3.430   4.334  0.1723  0.2374  0.5038
 2946SOL     OW20296   2.121   0.207  14.589  0.0870  0.7046  0.0513
 2946SOL    HW120297   2.037   0.251  14.592 -0.1418  0.2602  0.1118
 2946SOL    HW220298   2.115   0.153  14.669 -3.3196  0.0025 -0.7156
 2947SOL     OW20299   3.712   4.099   6.260 -0.3009  0.0120 -0.5032
 2947SOL    HW120300   3.700   4.192   6.277  1.6922 -0.0043  0.9963
 2947SOL    HW220301   3.791   4.081   6.312 -1.2055  0.6314  1.0439
 2948SOL     OW20302   0.098   1.303  17.558  0.1430  0.8669  0.2516
 2948SOL    HW120303   0.005   1.294  17.580  0.4151  1.8040  1.7941
 2948SOL    HW220304   0.128   1.321  17.648  1.2781  1.3179 -0.2215
 2949SOL     OW20305   1.794   1.862   9.938 -0.2296  0.0660 -0.3387
 2949SOL    HW120306   1.707   1.895   9.960  0.3129 -0.3724  2.5088
 2949SOL    HW220307   1.828   1.927   9.876 -0.1899 -0.5956 -1.0130
 2950SOL     OW20308   3.573   4.685   5.992 -0.1030 -0.4168 -0.6394
 2950SOL    HW120309   3.533   0.025   5.932 -0.5496 -0.5122 -0.4413
 2950SOL    HW220310   3.612   4.621   5.933 -0.6643 -1.7117  0.4031
 2951SOL     OW20311   0.663   3.258  10.301 -0.0804 -0.8471 -0.0828
 2951SOL    HW120312   0.727   3.298  10.242 -1.7606  0.8485 -0.7648
 2951SOL    HW220313   0.617   3.336  10.332 -0.0120  0.1085 -2.4403
 2952SOL     OW20314   3.003   3.595   2.888 -0.3473  0.7992 -0.4762
 2952SOL    HW120315   3.098   3.608   2.880  0.2057 -2.8058  0.2942
 2952SOL    HW220316   2.985   3.632   2.974  0.2908  2.7066 -1.1638
 2953SOL     OW20317   4.210   3.495   7.506  0.5176  0.2611  0.0039
 2953SOL    HW120318   4.197   3.586   7.530 -1.2558 -0.1297  0.5193
 2953SOL    HW220319   4.187   3.495   7.413 -0.0203 -2.2935  0.1364
 2954SOL     OW20320   4.391   3.141   7.444  0.0017  0.1408 -0.7420
 2954SOL    HW120321   4.398   3.233   7.418 -0.9654  0.4291 -0.0039
 2954SOL    HW220322   4.447   3.096   7.381  0.5162 -0.7765  0.3884
 2955SOL     OW20323   2.328   0.050   6.052 -0.3304 -0.6729  0.1045
 2955SOL    HW120324   2.257   0.091   6.102  0.5570 -0.2339  0.9947
 2955SOL    HW220325   2.291   0.046   5.964  2.4329 -0.2322 -1.0477
 2956SOL     OW20326   0.970   2.177   5.061  0.4066  0.0393 -0.5561
 2956SOL    HW120327   0.965   2.087   5.030  1.3201  0.3502 -1.6239
 2956SOL    HW220328   1.065   2.185   5.070  0.2117  1.8165 -0.0289
 2957SOL     OW20329   0.389   0.951   5.571  0.4522 -0.7508  0.5934
 2957SOL    HW120330   0.357   0.898   5.498 -0.1730  0.1542  0.1971
 2957SOL    HW220331   0.383   1.038   5.532  2.0412 -0.4203  1.1146
 2958SOL     OW20332   0.625   0.426   9.422  1.1053 -0.4503 -0.0959
 2958SOL    HW120333   0.570   0.433   9.344 -0.1278  2.4884  1.0086
 2958SOL    HW220334   0.565   0.458   9.489  0.4944 -0.0949 -0.8075
 2959SOL     OW20335   4.408   3.680   6.453 -0.2525  0.2120 -0.3122
 2959SOL    HW120336   4.347   3.617   6.492 -3.1371  2.5193 -1.1709
 2959SOL    HW220337   4.408   3.661   6.359 -1.6597  1.1685 -0.4915
 2960SOL     OW20338   2.016   2.961   2.073 -0.6609 -0.1177  0.6095
 2960SOL    HW120339   2.046   3.045   2.038 -1.0761 -1.2998 -2.6072
 2960SOL    HW220340   2.094   2.948   2.127  0.2909 -0.4033 -0.8290
 2961SOL     OW20341   2.624   3.810   2.269  0.0523  0.6185  0.0555
 2961SOL    HW120342   2.653   3.819   2.360  0.8876 -1.0230 -0.0478
 2961SOL    HW220343   2.560   3.880   2.256 -1.6201 -1.1191 -1.0260
 2962SOL     OW20344   1.125   3.845   8.211  0.7270  0.0309  0.0470
 2962SOL    HW120345   1.199   3.813   8.262  1.0785 -1.0328 -1.1370
 2962SOL    HW220346   1.052   3.807   8.260  1.0750  0.9136  1.2670
 2963SOL     OW20347   3.800   2.888  15.253 -0.0836  0.0273  0.0817
 2963SOL    HW120348   3.801   2.839  15.335 -0.0417 -0.7328 -0.3659
 2963SOL    HW220349   3.718   2.935  15.262  0.1218  0.2031  1.0440
 2964SOL     OW20350   1.088   0.443   2.240 -0.4594 -0.6285 -0.2545
 2964SOL    HW120351   1.107   0.395   2.159  0.0109  0.4956 -0.8188
 2964SOL    HW220352   1.122   0.386   2.308  1.7379  0.2343 -0.6319
 2965SOL     OW20353   3.981   4.157  12.922 -0.3076 -0.0757  0.2252
 2965SOL    HW120354   3.957   4.076  12.875 -1.8090  0.5897 -0.1490
 2965SOL    HW220355   3.894   4.192  12.941  0.3189 -0.4614  3.7532
 2966SOL     OW20356   1.227   0.358   1.273  0.5511  0.6668  0.1550
 2966SOL    HW120357   1.188   0.302   1.340 -0.8910  1.9007  0.3560
 2966SOL    HW220358   1.215   0.441   1.319  0.1920  0.4707  0.4125
 2967SOL     OW20359   2.505   0.181   3.390  0.0990  0.1487  0.3435
 2967SOL    HW120360   2.418   0.216   3.368  0.7281  1.7791  0.4647
 2967SOL    HW220361   2.497   0.086   3.398 -1.7670  0.4462  1.9778
 2968SOL     OW20362   4.351   2.752  11.556  0.0102  0.8448 -0.3351
 2968SOL    HW120363   4.346   2.834  11.508  1.2092  2.3008  2.0488
 2968SOL    HW220364   4.443   2.733  11.576  0.0091  1.3843  0.1957
 2969SOL     OW20365   1.511   3.259   5.493  0.5508 -0.0418  0.0778
 2969SOL    HW120366   1.557   3.334   5.454 -0.6110 -0.2907 -1.7238
 2969SOL    HW220367   1.572   3.221   5.557  1.5488  1.6986  0.1522
 2970SOL     OW20368   3.097   4.343  12.139  0.3418  0.1706 -0.1741
 2970SOL    HW120369   3.188   4.321  12.156 -0.2651 -0.5610  2.1435
 2970SOL    HW220370   3.096   4.422  12.085 -1.5815  1.1171  1.2130
 2971SOL     OW20371   0.717   4.435  13.237  0.7653  0.3143 -0.2010
 2971SOL    HW120372   0.690   4.524  13.261  2.0087  0.4739  0.6417
 2971SOL    HW220373   0.746   4.395  13.320  0.4067 -0.6006 -0.5178
 2972SOL     OW20374   2.347   1.724   6.378  0.0311  0.1805 -0.2299
 2972SOL    HW120375   2.373   1.703   6.468 -5.3095 -4.4700  0.2336
 2972SOL    HW220376   2.320   1.639   6.344  1.1864  0.0645 -0.8113
 2973SOL     OW20377   4.083   2.215  14.573  0.2093 -0.0319  0.1573
 2973SOL    HW120378   4.085   2.219  14.669  1.4944  2.7601  0.0072
 2973SOL    HW220379   4.005   2.159  14.573 -0.9330  1.5846  2.3568
 2974SOL     OW20380   2.270   3.546   5.713  0.0087  0.2529  0.0938
 2974SOL    HW120381   2.187   3.520   5.752 -0.2463  1.3220  0.2554
 2974SOL    HW220382   2.329   3.527   5.787  0.0469 -1.8688 -0.4889
 2975SOL     OW20383   4.398   3.823   5.389 -0.6915  0.0939 -0.0296
 2975SOL    HW120384   4.416   3.766   5.464 -1.3279 -1.9298 -1.4009
 2975SOL    HW220385   4.485   3.826   5.348 -0.2247  1.2398  1.0506
 2976SOL     OW20386   1.168   4.082   0.763  0.2026  0.1042  0.3667
 2976SOL    HW120387   1.091   4.025   0.761 -0.8548  1.4856  2.2105
 2976SOL    HW220388   1.173   4.111   0.854  1.1088  0.4183  0.2166
 2977SOL     OW20389   3.075   3.010   3.157  0.1848 -0.1575  0.2070
 2977SOL    HW120390   3.154   2.982   3.111  0.3678 -2.5455  2.0298
 2977SOL    HW220391   3.022   3.013   3.077  2.3294  0.9789 -1.1969
 2978SOL     OW20392   3.934   1.247   6.789 -1.0436 -0.2538 -0.4928
 2978SOL    HW120393   3.973   1.213   6.708  2.1574  2.2844 -0.0124
 2978SOL    HW220394   3.895   1.171   6.832  0.6037  0.5005  2.3523
 2979SOL     OW20395   3.810   1.932   4.751 -0.1629 -0.5284  0.2570
 2979SOL    HW120396   3.788   1.993   4.681  3.3503  0.5018  0.0566
 2979SOL    HW220397   3.895   1.902   4.718 -0.4607 -0.7345 -0.3159
 2980SOL     OW20398   2.476   0.306  12.573  0.2582 -0.5972 -0.3926
 2980SOL    HW120399   2.469   0.400  12.589  0.3067 -0.1909 -2.8313
 2980SOL    HW220400   2.451   0.300  12.481 -1.4977 -1.4168  0.1254
 2981SOL     OW20401   4.459   1.474   3.214 -0.0038 -0.3220 -0.1614
 2981SOL    HW120402   4.488   1.444   3.127  3.1621  0.8416  0.4922
 2981SOL    HW220403   4.381   1.526   3.197 -0.8801 -1.2166  1.1094
 2982SOL     OW20404   3.448   2.107   8.855  0.2062 -0.3291 -0.5536
 2982SOL    HW120405   3.370   2.147   8.894  0.2403 -0.4546 -0.3561
 2982SOL    HW220406   3.432   2.112   8.761  3.5986 -0.6440 -1.1202
 2983SOL     OW20407   2.847   3.081   6.225  0.0654 -0.5423  0.0999
 2983SOL    HW120408   2.927   3.133   6.217 -1.0239  1.0585 -0.2680
 2983SOL    HW220409   2.844   3.082   6.320  0.1561  3.5340  0.0372
 2984SOL     OW20410   3.425   4.400   7.321 -0.7610 -0.0226  0.6921
 2984SOL    HW120411   3.414   4.474   7.381 -1.2587 -0.0424  0.6269
 2984SOL    HW220412   3.340   4.358   7.335 -1.3837  1.3701  1.0354
 2985SOL     OW20413   4.654   4.582   8.350  0.2769 -0.0362 -0.2944
 2985SOL    HW120414   4.658   4.665   8.302  1.1229  0.0219 -0.1289
 2985SOL    HW220415   0.025   4.562   8.355 -0.1048 -1.6191  0.5283
 2986SOL     OW20416   2.905   0.311  14.593 -0.4604 -0.0403  0.2677
 2986SOL    HW120417   2.993   0.275  14.602 -2.0439 -3.5269  1.7557
 2986SOL    HW220418   2.854   0.238  14.628 -2.0555  1.7694  1.7187
 2987SOL     OW20419   2.993   4.160   1.680 -0.3659  0.5962  0.1391
 2987SOL    HW120420   2.903   4.131   1.667 -0.0187  0.1440 -1.2100
 2987SOL    HW220421   2.998   4.151   1.775 -0.4815  0.3629  0.1215
 2988SOL     OW20422   1.557   3.776   6.244 -0.0552  0.2410  0.5298
 2988SOL    HW120423   1.538   3.868   6.261 -0.0307  0.1848  0.8674
 2988SOL    HW220424   1.611   3.776   6.165 -0.0210 -1.9231  0.5376
 2989SOL     OW20425   2.791   1.087  11.210 -0.6800 -1.0762  0.7389
 2989SOL    HW120426   2.836   1.167  11.236 -0.9524 -0.7028  0.0647
 2989SOL    HW220427   2.865   1.030  11.189 -0.0842 -0.1716  0.4031
 2990SOL     OW20428   3.514   0.073   7.960 -0.2217 -0.2060  0.0782
 2990SOL    HW120429   3.549   4.710   7.979  2.3505  0.6740 -0.7622
 2990SOL    HW220430   3.431   0.057   7.914 -0.1540 -0.8207  0.1808
 2991SOL     OW20431   1.505   3.966   9.383  0.0315  0.1846 -0.8779
 2991SOL    HW120432   1.453   3.907   9.438 -0.5331  2.0353  0.5812
 2991SOL    HW220433   1.468   4.054   9.384  0.5946  0.4151 -0.9067
 2992SOL     OW20434   1.968   0.896   4.183  0.3198 -0.2797  0.2818
 2992SOL    HW120435   1.978   0.989   4.199 -2.1773  0.1079 -0.4044
 2992SOL    HW220436   1.952   0.887   4.089  2.8810  0.7933 -0.2653
 2993SOL     OW20437   3.073   1.970   7.298 -0.1748 -0.5366 -0.0631
 2993SOL    HW120438   3.071   1.896   7.358  0.5250 -0.9151 -0.5102
 2993SOL    HW220439   3.086   1.936   7.209 -0.8502  4.2203 -2.0017
 2994SOL     OW20440   1.576   3.488   3.022  0.1878  0.0195 -0.1668
 2994SOL    HW120441   1.623   3.427   2.965  0.5532 -2.1288  2.4498
 2994SOL    HW220442   1.520   3.523   2.953  0.1104  0.1258 -0.0505
 2995SOL     OW20443   4.503   1.510   6.208 -0.3926 -0.3123 -0.1193
 2995SOL    HW120444   4.572   1.484   6.147 -0.0578  0.8060 -0.2291
 2995SOL    HW220445   4.444   1.540   6.139 -0.6294 -1.3509 -0.3606
 2996SOL     OW20446   4.041   1.114   2.976 -0.0499 -0.5182  0.6961
 2996SOL    HW120447   4.123   1.121   2.926  0.8752  0.0357  2.3098
 2996SOL    HW220448   3.992   1.071   2.906  2.1879  0.4426 -1.4594
 2997SOL     OW20449   2.428   0.330   4.381 -0.3146  0.4085 -0.4075
 2997SOL    HW120450   2.367   0.382   4.329 -2.6521 -0.5189  1.4044
 2997SOL    HW220451   2.407   0.243   4.346  0.4522  0.6754 -1.5282
 2998SOL     OW20452   3.055   0.781   4.207 -0.0881  0.1650 -0.9067
 2998SOL    HW120453   2.994   0.733   4.263  1.3005 -2.0856 -1.3314
 2998SOL    HW220454   3.045   0.743   4.120 -0.3225 -1.8261 -0.0101
 2999SOL     OW20455   0.659   1.910  14.834 -0.8080  0.2768  0.1207
 2999SOL    HW120456   0.563   1.909  14.832 -0.7963 -0.9878  0.1095
 2999SOL    HW220457   0.688   1.999  14.853 -2.3182  0.9958 -0.9206
 3000SOL     OW20458   3.653   3.355  12.235 -0.6067  0.3396 -0.0507
 3000SOL    HW120459   3.656   3.433  12.180  1.0983  0.3085 -0.0016
 3000SOL    HW220460   3.745   3.329  12.242 -1.0052 -0.8340  0.8463
 3001SOL     OW20461   2.330   1.880   8.552 -0.1048 -0.1699 -0.8388
 3001SOL    HW120462   2.289   1.856   8.635 -0.3385 -0.8681 -1.1527
 3001SOL    HW220463   2.347   1.796   8.509 -2.0046 -0.9326 -0.0847
 3002SOL     OW20464   1.705   0.134  11.492  0.2270  0.2487  0.3885
 3002SOL    HW120465   1.634   0.185  11.530  0.4877  1.7447 -1.1335
 3002SOL    HW220466   1.655   0.066  11.447  0.0890  0.8115 -0.3011
 3003SOL     OW20467   2.113   3.475   7.598 -0.3766 -0.5007 -0.2197
 3003SOL    HW120468   2.191   3.442   7.643  1.1257  1.6682 -1.2745
 3003SOL    HW220469   2.127   3.442   7.509 -2.0215 -0.7207 -0.3994
 3004SOL     OW20470   2.518   1.483   3.373  0.1161  0.0729  0.1839
 3004SOL    HW120471   2.445   1.501   3.432  0.2410  0.0031  0.3588
 3004SOL    HW220472   2.474   1.480   3.288 -0.0143 -0.0469  0.2569
 3005SOL     OW20473   1.591   4.216  15.878  0.0795  0.5135 -0.7420
 3005SOL    HW120474   1.541   4.150  15.831 -0.1692  1.1569 -1.3770
 3005SOL    HW220475   1.639   4.238  15.798 -1.4458  1.2158 -1.4657
 3006SOL     OW20476   1.638   0.255   9.163 -0.3592  0.1333 -0.5008
 3006SOL    HW120477   1.561   0.295   9.204 -1.7191 -1.0117 -1.9365
 3006SOL    HW220478   1.685   0.228   9.242  0.7925  1.2500 -0.8037
 3007SOL     OW20479   4.025   2.921   4.475  0.2480  0.3196 -0.4803
 3007SOL    HW120480   4.024   2.877   4.560 -0.1402 -0.2192 -0.7604
 3007SOL    HW220481   4.059   3.007   4.500 -0.7459 -0.2930  2.9245
 3008SOL     OW20482   0.560   0.871  16.608 -0.6260  0.1117 -0.3067
 3008SOL    HW120483   0.534   0.910  16.692  2.3212  1.2187  0.0934
 3008SOL    HW220484   0.517   0.786  16.612  0.9028 -0.7209 -1.7568
 3009SOL     OW20485   4.093   0.504   9.018  0.3047 -0.1957  0.1306
 3009SOL    HW120486   4.176   0.481   8.977  0.2626 -0.3904  0.1557
 3009SOL    HW220487   4.110   0.598   9.022  1.5328 -0.3985 -0.4557
 3010SOL     OW20488   3.456   2.517   4.758 -0.1295  0.5814 -0.8451
 3010SOL    HW120489   3.364   2.489   4.765  0.4038 -0.2997  2.6309
 3010SOL    HW220490   3.463   2.566   4.839 -0.5234 -1.4383  0.4219
 3011SOL     OW20491   2.810   4.525   5.441 -0.4126 -0.1988  0.4644
 3011SOL    HW120492   2.870   4.452   5.432  0.4634  0.6924 -0.9523
 3011SOL    HW220493   2.786   4.526   5.348  0.7493 -1.2877  0.1569
 3012SOL     OW20494   1.930   4.117  16.665  0.5630 -0.2776  0.3573
 3012SOL    HW120495   1.922   4.044  16.604  0.8216  0.6709 -0.8126
 3012SOL    HW220496   2.015   4.153  16.642  1.4298 -1.2841  2.0215
 3013SOL     OW20497   2.145   0.341  11.502  0.2342  0.6699 -0.3984
 3013SOL    HW120498   2.070   0.289  11.472 -0.2267  1.5855 -0.8392
 3013SOL    HW220499   2.149   0.314  11.594 -0.1568 -2.6174 -1.3709
 3014SOL     OW20500   4.093   4.089   0.027 -0.0227  0.2004  0.4223
 3014SOL    HW120501   4.121   4.158  17.661  1.3016  1.1355  2.1165
 3014SOL    HW220502   4.113   4.130   0.111  2.1830  1.8069 -0.8794
 3015SOL     OW20503   1.642   3.644   7.813 -0.0237  0.3329 -0.7594
 3015SOL    HW120504   1.736   3.645   7.831  0.0268 -0.8335 -0.9680
 3015SOL    HW220505   1.631   3.591   7.734 -0.6341  0.5013 -0.7941
 3016SOL     OW20506   4.198   3.669  14.582 -0.3356  0.0584 -0.9336
 3016SOL    HW120507   4.173   3.679  14.674 -0.6086 -1.0957 -0.8884
 3016SOL    HW220508   4.219   3.757  14.550  0.6199 -0.3327 -1.3684
 3017SOL     OW20509   4.298   2.794   8.533 -0.4338  0.6119  0.4373
 3017SOL    HW120510   4.206   2.781   8.558 -0.4137  0.5304  0.4685
 3017SOL    HW220511   4.282   2.844   8.453 -0.9512  0.5014  0.4727
 3018SOL     OW20512   0.355   3.034   8.479  0.1506  0.0118  0.1596
 3018SOL    HW120513   0.261   3.031   8.494  0.1415  0.5808  0.2363
 3018SOL    HW220514   0.393   2.970   8.539  0.9648  1.5269  1.2923
 3019SOL     OW20515   0.342   0.611   1.846 -0.4732  0.0726 -0.3740
 3019SOL    HW120516   0.357   0.689   1.792  0.1400 -1.4385 -2.3847
 3019SOL    HW220517   0.296   0.644   1.923 -1.3539 -0.2539 -0.7558
 3020SOL     OW20518   2.437   3.075   2.020  0.1693 -0.2777 -0.2390
 3020SOL    HW120519   2.491   3.036   1.951 -0.1181  0.4560 -0.8911
 3020SOL    HW220520   2.496   3.052   2.091 -0.2069 -0.9466 -0.1432
 3021SOL     OW20521   1.648   1.029   9.495 -0.0312  0.4174  0.0767
 3021SOL    HW120522   1.638   0.982   9.412 -0.0853  0.8788 -0.1827
 3021SOL    HW220523   1.709   1.096   9.464  0.9111 -0.9273 -1.0054
 3022SOL     OW20524   1.250   3.218   2.186  0.3037 -0.2504 -0.5816
 3022SOL    HW120525   1.251   3.286   2.118 -0.2269  0.3837  0.0467
 3022SOL    HW220526   1.250   3.276   2.262  0.3010 -1.4916  0.3668
 3023SOL     OW20527   2.999   0.394   2.276 -0.3595  0.0119  0.0059
 3023SOL    HW120528   2.907   0.421   2.284 -0.5771 -0.3427 -1.3369
 3023SOL    HW220529   3.014   0.417   2.185 -0.1987 -2.7393 -0.6477
 3024SOL     OW20530   3.573   2.556  15.227 -0.0467 -0.4587 -0.2858
 3024SOL    HW120531   3.645   2.527  15.171 -1.2858 -0.7364 -1.7159
 3024SOL    HW220532   3.572   2.651  15.214  1.2407 -0.4729 -0.5253
 3025SOL     OW20533   0.814   2.741  14.546  0.8355  0.3569  0.2941
 3025SOL    HW120534   0.764   2.779  14.473  0.9281  2.3917  1.2729
 3025SOL    HW220535   0.765   2.780  14.619  1.1500 -0.4384  0.9294
 3026SOL     OW20536   2.188   0.746   5.788 -0.5394  0.3763  0.9107
 3026SOL    HW120537   2.131   0.743   5.865  1.3023  0.0853  2.2699
 3026SOL    HW220538   2.125   0.723   5.720  1.3372 -0.3391 -0.5825
 3027SOL     OW20539   2.621   4.633   6.585  0.4750  0.1460  0.1737
 3027SOL    HW120540   2.695   4.647   6.644  1.1748 -0.6661 -0.5262
 3027SOL    HW220541   2.678   4.595   6.518 -1.7759  0.4735 -1.9485
 3028SOL     OW20542   4.596   4.039   6.293  0.2660  0.6399  1.0420
 3028SOL    HW120543   4.505   4.044   6.266 -0.2896  0.9465  2.9934
 3028SOL    HW220544   4.637   4.053   6.208 -1.0296 -0.2003  0.2843
 3029SOL     OW20545   0.888   4.314   5.732  0.6050 -0.9300 -0.0466
 3029SOL    HW120546   0.862   4.363   5.810  2.7494  0.4120 -0.1779
 3029SOL    HW220547   0.832   4.359   5.668  3.0351  0.4104 -1.2170
 3030SOL     OW20548   4.596   3.769   2.341 -0.4774 -0.7429 -0.1325
 3030SOL    HW120549   4.599   3.838   2.275  1.3679 -0.0932  0.6209
 3030SOL    HW220550   4.576   3.823   2.418  1.2033 -1.1206  0.5679
 3031SOL     OW20551   0.746   0.386   5.619  0.0394 -0.0378 -0.1927
 3031SOL    HW120552   0.723   0.418   5.706 -2.0376 -0.0184 -0.7305
 3031SOL    HW220553   0.674   0.323   5.614 -0.1253  0.0858  0.6429
 3032SOL     OW20554   2.557   3.623   7.307  0.3757  0.5646  0.3334
 3032SOL    HW120555   2.605   3.670   7.239 -0.4162 -1.8229 -1.8555
 3032SOL    HW220556   2.524   3.548   7.258 -1.4353  0.2606  2.0056
 3033SOL     OW20557   1.033   0.154   5.272 -0.1090 -0.2849  0.2542
 3033SOL    HW120558   1.010   0.086   5.334 -4.4822  1.1311  0.1525
 3033SOL    HW220559   1.120   0.187   5.296 -0.3761 -1.2620  2.5851
 3034SOL     OW20560   0.444   3.967   7.345  0.3150 -0.1600 -0.1291
 3034SOL    HW120561   0.472   3.965   7.254  0.2015 -0.2649 -0.1615
 3034SOL    HW220562   0.513   3.907   7.373 -0.9555 -0.3671  2.5680
 3035SOL     OW20563   0.297   1.469  15.358 -0.5115  0.0209  0.1931
 3035SOL    HW120564   0.277   1.402  15.424  0.8323  0.5680  1.1569
 3035SOL    HW220565   0.297   1.547  15.414  4.1994 -0.6407  1.0766
 3036SOL     OW20566   2.581   4.693   4.643 -0.4550 -0.0581  0.1425
 3036SOL    HW120567   2.610   4.604   4.661  0.7966  0.7858  2.3280
 3036SOL    HW220568   2.489   4.689   4.671  0.2919  0.9830  2.7243
 3037SOL     OW20569   3.534   0.655  11.739 -0.2699 -0.4489  0.2083
 3037SOL    HW120570   3.451   0.700  11.751 -0.7423 -0.8733 -1.4718
 3037SOL    HW220571   3.566   0.652  11.829  1.2138  2.6954 -0.2163
 3038SOL     OW20572   2.767   2.833  15.267  0.3564 -0.1826  0.0727
 3038SOL    HW120573   2.807   2.810  15.350 -1.0267  0.1599  0.8456
 3038SOL    HW220574   2.741   2.924  15.285  1.3203  0.3245 -1.0989
 3039SOL     OW20575   1.765   4.023   0.827 -0.4063  0.2320  0.0227
 3039SOL    HW120576   1.674   4.047   0.812 -0.1609  1.9120  1.2349
 3039SOL    HW220577   1.809   4.054   0.748  1.0403  2.9041  1.8928
 3040SOL     OW20578   1.697   3.117   0.716 -0.5897  0.0927  0.4472
 3040SOL    HW120579   1.788   3.117   0.746 -0.7933  1.4797  1.0861
 3040SOL    HW220580   1.702   3.178   0.642 -1.1001  0.1025  0.4227
 3041SOL     OW20581   1.089   1.644  16.207 -0.0024  0.0194  0.0294
 3041SOL    HW120582   1.170   1.677  16.246 -0.9072 -0.6045  2.4612
 3041SOL    HW220583   1.025   1.639  16.278  0.7989  1.1662  0.8383
 3042SOL     OW20584   4.151   1.331   5.256 -0.2954  0.4797 -0.1965
 3042SOL    HW120585   4.147   1.366   5.166  0.3867 -0.5425 -0.6166
 3042SOL    HW220586   4.097   1.392   5.307 -3.7806 -1.6817 -1.3001
 3043SOL     OW20587   2.171   0.470   1.824  0.5922  0.5312 -0.0480
 3043SOL    HW120588   2.133   0.384   1.845  0.4895  0.1998 -1.5441
 3043SOL    HW220589   2.101   0.496   1.764  1.2760 -0.8338 -1.4275
 3044SOL     OW20590   1.859   1.947   0.030 -0.6028 -0.0245  0.2131
 3044SOL    HW120591   1.820   1.973  17.641 -1.0443 -0.3234  0.3260
 3044SOL    HW220592   1.953   1.947   0.011 -0.7577 -2.3083 -0.5327
 3045SOL     OW20593   0.654   1.539  12.667  0.4904 -0.1619  0.6548
 3045SOL    HW120594   0.726   1.598  12.687 -0.3257  0.7871  0.8168
 3045SOL    HW220595   0.590   1.597  12.708  0.8378  2.1043 -1.9507
 3046SOL     OW20596   3.938   1.369   9.656  0.2169 -0.2508 -0.0003
 3046SOL    HW120597   3.969   1.460   9.648  0.3575 -0.3876 -0.9523
 3046SOL    HW220598   3.848   1.390   9.679 -0.2637 -1.8159 -0.5012
 3047SOL     OW20599   3.058   2.612   6.411  0.2027  0.2668  0.1162
 3047SOL    HW120600   3.093   2.523   6.414 -2.3940 -0.7132  0.8692
 3047SOL    HW220601   2.981   2.617   6.467 -0.5295  2.9251 -1.1154
 3048SOL     OW20602   1.305   3.124   4.272 -0.0578  0.1845  0.0430
 3048SOL    HW120603   1.266   3.036   4.272 -2.6409  1.3145  1.3286
 3048SOL    HW220604   1.246   3.170   4.332 -0.3955  2.2407 -1.8851
 3049SOL     OW20605   3.264   1.719   9.104 -0.2197 -0.0154 -0.2200
 3049SOL    HW120606   3.311   1.781   9.161 -2.1251  0.4049  0.9170
 3049SOL    HW220607   3.335   1.668   9.065 -2.3220 -4.3660  1.6204
 3050SOL     OW20608   0.659   1.718   7.605  0.4804  0.0544 -0.1839
 3050SOL    HW120609   0.707   1.788   7.562 -0.6952  0.2334 -1.2090
 3050SOL    HW220610   0.671   1.743   7.697 -0.9498  0.7791 -0.1946
 3051SOL     OW20611   4.172   1.942  11.243  0.1753  0.0863  0.6125
 3051SOL    HW120612   4.243   1.878  11.235  2.5943  2.5231  2.6834
 3051SOL    HW220613   4.211   2.023  11.211 -0.6850  0.1348 -0.3062
 3052SOL     OW20614   3.179   2.882   4.436  0.7977 -0.0522 -0.1149
 3052SOL    HW120615   3.116   2.855   4.368 -1.4290  1.0484  1.5121
 3052SOL    HW220616   3.258   2.846   4.397  1.2529 -0.4398  1.1902
 3053SOL     OW20617   3.050   0.498   7.646  0.5207 -0.1759  0.0017
 3053SOL    HW120618   3.023   0.590   7.653  0.0040 -0.1454 -2.4949
 3053SOL    HW220619   3.026   0.472   7.735 -2.0715  1.2716 -0.2579
 3054SOL     OW20620   2.733   0.356   7.918  0.0739  0.4575  0.3023
 3054SOL    HW120621   2.646   0.316   7.915  0.3804 -0.1611 -0.7037
 3054SOL    HW220622   2.784   0.306   7.982 -0.3607  1.8616  1.7410
 3055SOL     OW20623   1.360   4.499  11.005 -0.2944  0.0115 -0.0736
 3055SOL    HW120624   1.288   4.490  11.068 -0.3818 -1.0399 -0.3287
 3055SOL    HW220625   1.405   4.576  11.040 -2.2631  0.3527  1.7199
 3056SOL     OW20626   0.393   1.462  15.116  0.1817  0.4741 -0.0539
 3056SOL    HW120627   0.373   1.473  15.209  3.2479  1.1409  0.5425
 3056SOL    HW220628   0.454   1.532  15.093  2.2881 -0.4867  2.5548
 3057SOL     OW20629   1.055   0.782   5.082 -0.0754  0.0229  0.2917
 3057SOL    HW120630   1.049   0.691   5.113 -0.4770  0.1994  0.7320
 3057SOL    HW220631   1.084   0.831   5.159 -0.5589  1.3823 -0.4038
 3058SOL     OW20632   1.287   4.517   9.250  0.1067  0.8750 -0.4239
 3058SOL    HW120633   1.320   4.427   9.259  0.9260  1.5140  3.0435
 3058SOL    HW220634   1.278   4.528   9.345  1.0648  2.2840 -0.4836
 3059SOL     OW20635   1.532   1.679   0.658 -1.0109 -0.4707 -0.3034
 3059SOL    HW120636   1.560   1.602   0.708 -0.2838 -2.6898 -4.1993
 3059SOL    HW220637   1.481   1.726   0.724 -0.7129  0.3483 -0.6567
 3060SOL     OW20638   3.992   0.235   2.780 -0.2236  0.1794  0.6894
 3060SOL    HW120639   3.960   0.319   2.811  0.4524  0.3919  0.8250
 3060SOL    HW220640   3.995   0.172   2.852  2.3253 -1.6232 -0.9727
 3061SOL     OW20641   2.051   0.277   6.472  0.0151  0.0101 -0.4489
 3061SOL    HW120642   2.117   0.345   6.458  0.0449 -0.2427 -1.5746
 3061SOL    HW220643   1.987   0.331   6.518 -1.4612 -0.6952 -1.6775
 3062SOL     OW20644   3.826   0.033   2.704 -0.3892  0.5605 -0.6936
 3062SOL    HW120645   3.850   0.120   2.734 -1.5806  0.7873 -0.3670
 3062SOL    HW220646   3.748   0.003   2.751 -0.0964  0.6519 -0.1454
 3063SOL     OW20647   3.098   0.151   2.380 -0.2826  0.6447 -0.0517
 3063SOL    HW120648   3.164   0.105   2.328 -0.0121  0.5812  0.3464
 3063SOL    HW220649   3.061   0.219   2.324  0.8343 -0.1007 -1.6898
 3064SOL     OW20650   4.476   1.572   8.548 -0.2910 -0.1777  0.0843
 3064SOL    HW120651   4.431   1.613   8.622 -0.0605  0.3052 -0.0452
 3064SOL    HW220652   4.566   1.601   8.565 -0.2943  0.4374 -0.9659
 3065SOL     OW20653   2.476   1.146   1.865 -0.2218  0.3791  0.1509
 3065SOL    HW120654   2.447   1.152   1.774 -2.3410  2.3528  0.9374
 3065SOL    HW220655   2.436   1.063   1.891  2.1925  0.0709  2.8217
 3066SOL     OW20656   0.421   0.014  13.083  0.5917 -0.0909  0.5868
 3066SOL    HW120657   0.414   4.642  13.085 -1.1925  0.0068 -0.6740
 3066SOL    HW220658   0.383   0.023  12.996 -0.5210 -3.2143  0.7726
 3067SOL     OW20659   1.240   1.081  16.413 -0.3726 -0.0985  0.7054
 3067SOL    HW120660   1.250   1.007  16.473  0.2699 -1.6514 -1.2950
 3067SOL    HW220661   1.148   1.107  16.414  0.1962  1.9429  0.1350
 3068SOL     OW20662   2.648   3.579   3.721 -0.0730 -0.7388  0.1475
 3068SOL    HW120663   2.616   3.658   3.764 -0.7133 -0.5614 -0.6486
 3068SOL    HW220664   2.580   3.567   3.655  0.9066  1.1179 -1.2065
 3069SOL     OW20665   4.178   1.859   3.459  0.2696 -0.2466 -0.4795
 3069SOL    HW120666   4.187   1.953   3.469 -0.1261 -0.3775  1.1398
 3069SOL    HW220667   4.181   1.827   3.550  1.2272 -0.6077 -0.6368
 3070SOL     OW20668   3.094   4.107   5.263 -0.0690  0.4003 -0.5405
 3070SOL    HW120669   3.120   4.085   5.174 -1.7062 -1.4061 -0.5782
 3070SOL    HW220670   3.121   4.025   5.305  0.0329  0.4452 -0.5197
 3071SOL     OW20671   0.683   1.116   5.579 -0.0546  0.1812 -0.0728
 3071SOL    HW120672   0.709   1.041   5.632 -0.4313 -1.4392 -2.2188
 3071SOL    HW220673   0.627   1.072   5.515  1.0356  0.1772 -1.0237
 3072SOL     OW20674   2.476   4.030  11.537 -0.4844 -0.6222 -0.1246
 3072SOL    HW120675   2.384   4.018  11.560 -0.4330  0.7994  0.8012
 3072SOL    HW220676   2.470   4.097  11.470 -2.5021 -0.2597  0.4226
 3073SOL     OW20677   3.811   4.378   1.135 -0.3670 -0.5582  0.3380
 3073SOL    HW120678   3.808   4.287   1.164 -0.2442 -1.0583 -1.2029
 3073SOL    HW220679   3.719   4.389   1.113  0.0002 -1.0167 -1.4763
 3074SOL     OW20680   2.178   1.277   5.405 -0.2225 -0.2926  0.5229
 3074SOL    HW120681   2.143   1.204   5.457 -2.8844 -0.1666 -1.1246
 3074SOL    HW220682   2.119   1.261   5.332 -1.4952 -0.5608  1.6205
 3075SOL     OW20683   4.114   4.509   3.524  0.6230 -0.0081 -0.5982
 3075SOL    HW120684   4.161   4.538   3.601 -0.2136 -0.4856  0.0918
 3075SOL    HW220685   4.070   4.591   3.503  0.6369  0.2101  0.2488
 3076SOL     OW20686   0.201   0.811   2.529  0.1329 -0.0023 -0.0694
 3076SOL    HW120687   0.202   0.804   2.434 -1.4046  1.7914 -0.2293
 3076SOL    HW220688   0.261   0.884   2.542  0.1437 -0.4250  2.1772
 3077SOL     OW20689   3.456   1.317   7.286  0.3774 -0.2570  0.0531
 3077SOL    HW120690   3.479   1.409   7.272 -2.4724  0.2575 -1.2195
 3077SOL    HW220691   3.363   1.312   7.265 -0.1618  0.2539  2.3537
 3078SOL     OW20692   3.090   4.198   8.406  0.2844 -0.1122  0.3111
 3078SOL    HW120693   3.127   4.150   8.332  0.8450  0.2745  0.3423
 3078SOL    HW220694   3.155   4.268   8.411  0.7848 -0.4785 -1.0168
 3079SOL     OW20695   3.347   0.264   4.888  0.0873  0.4772  0.3817
 3079SOL    HW120696   3.366   0.326   4.959  0.4764 -0.7714  1.3709
 3079SOL    HW220697   3.403   0.195   4.923 -1.6017 -1.3026 -0.4718
 3080SOL     OW20698   1.046   3.526   2.199  0.1617  0.1369 -0.5177
 3080SOL    HW120699   1.016   3.473   2.124  0.4379 -0.4427 -0.2168
 3080SOL    HW220700   1.108   3.587   2.158 -1.4082  1.1171 -1.4625
 3081SOL     OW20701   1.270   4.125   9.379 -0.0058 -0.4160 -0.0067
 3081SOL    HW120702   1.247   4.033   9.368  0.2840 -0.7847  2.5983
 3081SOL    HW220703   1.253   4.161   9.292  0.1756  1.6954  0.8215
 3082SOL     OW20704   1.139   4.555   3.006 -0.2446 -0.1524  0.2946
 3082SOL    HW120705   1.188   4.532   3.084 -0.3268 -1.8952 -0.1656
 3082SOL    HW220706   1.097   4.474   2.977  0.7538 -0.3793 -0.5136
 3083SOL     OW20707   3.033   0.437   3.553  0.3200 -0.2634  0.2839
 3083SOL    HW120708   3.032   0.372   3.483  0.9123 -2.4957  2.3562
 3083SOL    HW220709   3.084   0.512   3.522  1.2381 -2.2697 -3.0577
 3084SOL     OW20710   3.313   3.270   8.794  0.0236  0.3651  0.2895
 3084SOL    HW120711   3.258   3.320   8.734  1.0257 -0.1774 -1.0802
 3084SOL    HW220712   3.253   3.205   8.830  1.6120 -2.1967 -1.6915
 3085SOL     OW20713   3.936   3.258   4.294 -0.2235  0.0065 -0.2833
 3085SOL    HW120714   3.960   3.262   4.201 -1.1733  0.4917 -0.5069
 3085SOL    HW220715   3.942   3.163   4.303 -0.2309  0.1764  1.5087
 3086SOL     OW20716   1.279   0.536  14.994  0.3427  0.3305 -0.1982
 3086SOL    HW120717   1.286   0.485  15.075 -1.2128  0.9846  0.3632
 3086SOL    HW220718   1.184   0.543  14.986  0.4980  1.6009 -0.9990
 3087SOL     OW20719   1.568   0.033   9.903 -0.0948 -0.2190  0.4917
 3087SOL    HW120720   1.548   0.118   9.863  2.3691  0.5969  0.9999
 3087SOL    HW220721   1.482   0.001   9.931  0.2820  0.0162  1.9148
 3088SOL     OW20722   4.267   1.084   2.854  0.3292 -0.2886 -0.9958
 3088SOL    HW120723   4.239   1.049   2.770 -0.3909  0.9940 -1.2883
 3088SOL    HW220724   4.343   1.031   2.877  1.0695  1.4824  0.6601
 3089SOL     OW20725   0.580   0.496   5.301  0.0870 -0.1057  0.3498
 3089SOL    HW120726   0.530   0.415   5.314  0.1563 -0.1948  0.0649
 3089SOL    HW220727   0.672   0.473   5.290 -0.3100 -1.3175 -0.4615
 3090SOL     OW20728   3.519   2.189   8.008 -0.1516  0.2026 -0.0529
 3090SOL    HW120729   3.586   2.193   8.076 -1.9323 -1.4008  1.7589
 3090SOL    HW220730   3.466   2.115   8.034 -0.9829  1.1749  0.9953
 3091SOL     OW20731   1.340   0.627   7.318  0.7703  0.2032  0.1696
 3091SOL    HW120732   1.392   0.620   7.398  0.1874 -0.3402  0.4993
 3091SOL    HW220733   1.255   0.589   7.338  0.4321 -0.3177 -2.2475
 3092SOL     OW20734   0.488   2.730   4.872  0.2411 -0.0675  0.6182
 3092SOL    HW120735   0.498   2.826   4.868 -3.0484  0.2112 -0.7172
 3092SOL    HW220736   0.405   2.737   4.918  0.4470  3.4722  0.4734
 3093SOL     OW20737   1.502   2.128   9.369  0.5247 -0.0572  0.0320
 3093SOL    HW120738   1.439   2.159   9.304 -1.3740 -0.7457  1.5285
 3093SOL    HW220739   1.452   2.126   9.451 -0.7772  1.2897 -0.7299
 3094SOL     OW20740   4.149   1.652   6.769 -0.1858 -0.0222 -0.3420
 3094SOL    HW120741   4.243   1.654   6.787 -0.2052  3.1550 -0.4926
 3094SOL    HW220742   4.133   1.747   6.764  2.2145  0.6055  3.0497
 3095SOL     OW20743   2.040   1.181  11.500  0.0259  0.0035 -0.3502
 3095SOL    HW120744   2.017   1.109  11.441 -1.7765  0.3860 -0.1270
 3095SOL    HW220745   2.129   1.162  11.528 -0.3124 -0.7837  0.1886
 3096SOL     OW20746   2.126   0.019   5.847  0.1208  0.3734 -0.2306
 3096SOL    HW120747   2.197   4.690   5.810 -0.8419 -2.2196  1.5869
 3096SOL    HW220748   2.079   0.049   5.769 -1.0997 -1.3270 -0.1485
 3097SOL     OW20749   2.014   1.816   3.341  0.1909  0.0247 -0.1926
 3097SOL    HW120750   1.966   1.737   3.366  1.2101 -0.8968 -1.1382
 3097SOL    HW220751   2.088   1.819   3.402  0.2010 -0.7401 -0.1736
 3098SOL     OW20752   1.713   0.573   7.078 -0.2002 -0.2904  0.0386
 3098SOL    HW120753   1.712   0.478   7.061  1.1948  0.1802 -2.6705
 3098SOL    HW220754   1.795   0.577   7.128 -1.5999 -0.4098  2.2919
 3099SOL     OW20755   1.054   0.322   9.588  0.3206 -0.4720  0.0560
 3099SOL    HW120756   1.009   0.323   9.672  1.3375 -2.2171  0.6390
 3099SOL    HW220757   1.064   0.415   9.570  0.2439 -0.3304  0.7279
 3100SOL     OW20758   1.611   4.413   7.525 -0.4286 -0.0156  0.1165
 3100SOL    HW120759   1.547   4.470   7.481 -0.0374  0.0541 -0.3727
 3100SOL    HW220760   1.660   4.471   7.584 -1.0743 -1.1524  1.7574
 3101SOL     OW20761   1.968   2.076  10.527  0.4291 -0.3226 -0.8178
 3101SOL    HW120762   1.921   2.101  10.447 -0.6120 -1.3695 -0.5324
 3101SOL    HW220763   1.914   2.121  10.592 -1.0928 -2.5119 -0.5589
 3102SOL     OW20764   2.208   0.038   2.569 -0.8055  0.4163  0.3875
 3102SOL    HW120765   2.267   0.088   2.514 -2.0432 -0.2442 -1.5232
 3102SOL    HW220766   2.203   4.676   2.524  2.0003  0.4621  0.0294
 3103SOL     OW20767   0.508   0.848   3.823  0.8413 -0.7644  0.0124
 3103SOL    HW120768   0.602   0.841   3.809  0.9952 -2.0308  1.7143
 3103SOL    HW220769   0.513   0.876   3.914  1.7028 -1.2781  0.1209
 3104SOL     OW20770   1.048   1.675   1.886  0.2932 -0.8247  0.7647
 3104SOL    HW120771   1.109   1.748   1.873 -1.8021  0.7620 -0.1540
 3104SOL    HW220772   1.058   1.641   1.798  0.1584  1.7858 -0.2758
 3105SOL     OW20773   4.273   3.595   6.820  0.2497  0.0090  0.3110
 3105SOL    HW120774   4.277   3.550   6.905 -2.4925 -0.9713 -0.0767
 3105SOL    HW220775   4.360   3.636   6.814 -0.5093  1.4898 -0.5720
 3106SOL     OW20776   0.767   1.527   9.174 -0.1878 -0.1622  0.0066
 3106SOL    HW120777   0.849   1.544   9.220 -0.4981 -0.5680  0.7176
 3106SOL    HW220778   0.714   1.502   9.250  1.6375 -0.4934  1.1790
 3107SOL     OW20779   1.304   2.659   3.751 -0.3091  0.0838  0.3045
 3107SOL    HW120780   1.256   2.609   3.686 -0.0414 -0.3666  0.4540
 3107SOL    HW220781   1.238   2.652   3.820 -0.8553  0.6973 -0.1551
 3108SOL     OW20782   0.161   2.517   9.770  0.2047 -0.3170 -0.5038
 3108SOL    HW120783   0.197   2.605   9.759  0.0237 -0.3178 -1.1160
 3108SOL    HW220784   0.100   2.532   9.843 -0.6398 -0.0184 -1.2724
 3109SOL     OW20785   2.897   3.776  15.416  0.0269  0.3250  0.0825
 3109SOL    HW120786   2.846   3.696  15.430  0.6673 -0.1535 -0.2789
 3109SOL    HW220787   2.856   3.807  15.335 -0.0112 -0.0461 -0.0400
 3110SOL     OW20788   1.789   0.886  13.166 -0.2358 -0.1302  0.4881
 3110SOL    HW120789   1.818   0.879  13.257 -0.1342  0.1868  0.4806
 3110SOL    HW220790   1.694   0.872  13.172  0.1368 -2.8367 -0.0525
 3111SOL     OW20791   4.706   3.986  16.412  0.4352  0.0315  0.1891
 3111SOL    HW120792   4.722   4.011  16.503 -0.7695  1.6427 -0.0245
 3111SOL    HW220793   4.639   4.047  16.381 -0.7652 -0.7863  1.1935
 3112SOL     OW20794   3.582   2.727  13.097  0.0924 -0.9158  0.3348
 3112SOL    HW120795   3.532   2.765  13.024 -1.0625  0.5946  1.9055
 3112SOL    HW220796   3.541   2.641  13.104 -0.7853 -0.6793 -2.0538
 3113SOL     OW20797   4.507   0.282  16.149 -0.1266  0.2644  0.1632
 3113SOL    HW120798   4.538   0.277  16.240  1.6200  2.3495 -0.3270
 3113SOL    HW220799   4.574   0.239  16.097 -0.1919  2.0713 -1.4291
 3114SOL     OW20800   3.987   4.431  10.793  0.1261  0.4467 -0.3937
 3114SOL    HW120801   3.970   4.397  10.881 -0.1330  2.9359  0.5127
 3114SOL    HW220802   4.010   4.351  10.746 -1.7705  0.3608 -1.1781
 3115SOL     OW20803   3.924   4.106   2.425 -0.2263  0.1457  0.0083
 3115SOL    HW120804   3.976   4.067   2.355  0.1713  1.4226 -0.3989
 3115SOL    HW220805   3.942   4.196   2.401  1.4350 -0.2567 -0.2412
 3116SOL     OW20806   1.215   1.694   8.601  0.0610 -0.3986  0.4176
 3116SOL    HW120807   1.173   1.706   8.686  1.7096 -0.1298  1.1917
 3116SOL    HW220808   1.168   1.615   8.574  1.1896 -0.4775 -1.3445
 3117SOL     OW20809   0.342   3.176   7.996 -0.1138 -0.1392  0.1950
 3117SOL    HW120810   0.344   3.246   7.931 -1.8257 -0.1863  0.1007
 3117SOL    HW220811   0.426   3.133   7.977 -0.3049 -1.2897  1.9034
 3118SOL     OW20812   3.535   0.430   4.070  0.7492 -0.7591 -0.1531
 3118SOL    HW120813   3.613   0.478   4.096  0.3790  1.3757 -3.0170
 3118SOL    HW220814   3.572   0.369   4.007 -1.4027 -1.6352 -0.5721
 3119SOL     OW20815   4.280   1.944   9.665  0.0048 -0.2812  0.1365
 3119SOL    HW120816   4.296   1.937   9.760  1.6301  1.4728  0.0044
 3119SOL    HW220817   4.353   1.998   9.635 -0.2461  1.2817  2.2974
 3120SOL     OW20818   3.499   1.770  14.924  0.0689  0.2435  0.4711
 3120SOL    HW120819   3.430   1.809  14.977  0.1777 -1.3874  1.8080
 3120SOL    HW220820   3.562   1.758  14.995 -2.8804  0.0640  3.0398
 3121SOL     OW20821   2.273   0.647   0.690 -0.0526  0.1312 -0.0739
 3121SOL    HW120822   2.192   0.598   0.702 -0.0682  0.0231 -0.6377
 3121SOL    HW220823   2.302   0.619   0.604 -2.5068 -0.3295 -0.7521
 3122SOL     OW20824   3.737   2.407  17.177 -0.4427 -0.1318 -0.0030
 3122SOL    HW120825   3.660   2.390  17.231 -1.4467  0.7567 -1.1595
 3122SOL    HW220826   3.756   2.320  17.140  1.4894  1.1002 -1.9033
 3123SOL     OW20827   0.628   2.395   9.957  0.4639  0.0997  0.2865
 3123SOL    HW120828   0.675   2.396   9.874 -0.1225  0.3154 -0.0499
 3123SOL    HW220829   0.651   2.304   9.976 -0.5966 -0.3286 -0.4857
 3124SOL     OW20830   1.795   0.490   0.889 -0.4635  0.9364 -0.3915
 3124SOL    HW120831   1.725   0.530   0.940 -1.3214  1.3617 -1.9032
 3124SOL    HW220832   1.774   0.399   0.869  2.4005  0.1090  0.3500
 3125SOL     OW20833   0.473   4.577   6.246  0.1789  0.1470 -0.0918
 3125SOL    HW120834   0.415   4.613   6.179 -1.5290 -0.6073  0.9920
 3125SOL    HW220835   0.555   4.625   6.237  1.0912 -1.5147 -0.7631
 3126SOL     OW20836   2.539   4.376   5.720  0.1300 -0.0447  0.5696
 3126SOL    HW120837   2.630   4.346   5.715 -0.5701 -2.1536  0.1955
 3126SOL    HW220838   2.497   4.303   5.674 -0.0414  1.2083 -1.2427
 3127SOL     OW20839   2.819   3.524   7.083 -0.1393 -0.0480  0.0500
 3127SOL    HW120840   2.867   3.496   7.161 -1.9126 -1.0706  0.7689
 3127SOL    HW220841   2.840   3.618   7.089  2.7705 -0.7082  0.4673
 3128SOL     OW20842   1.009   4.709   1.446 -0.3404 -0.3169 -0.5453
 3128SOL    HW120843   0.916   4.721   1.463  0.0782 -0.1368  1.6305
 3128SOL    HW220844   1.004   4.630   1.393  1.4795 -0.8592  0.1002
 3129SOL     OW20845   0.811   4.092   8.972  0.0580 -0.4207 -0.0645
 3129SOL    HW120846   0.904   4.077   8.983  0.8783  2.9054 -2.3215
 3129SOL    HW220847   0.801   4.181   8.938 -0.4136 -0.8171 -0.9608
 3130SOL     OW20848   3.267   0.650   5.163  0.3132 -0.3274  0.1693
 3130SOL    HW120849   3.183   0.673   5.204  1.1955 -0.4995  2.0663
 3130SOL    HW220850   3.292   0.734   5.125  0.9341  0.5883  2.5760
 3131SOL     OW20851   2.453   4.183   8.088 -0.1506  0.6701 -0.2683
 3131SOL    HW120852   2.439   4.259   8.032  4.3281  1.3149 -0.5232
 3131SOL    HW220853   2.547   4.165   8.085 -0.3076  0.0570 -1.5695
 3132SOL     OW20854   2.484   3.917   3.286  0.3708  0.0242 -0.1351
 3132SOL    HW120855   2.509   3.917   3.378 -0.4327 -0.1309  0.0780
 3132SOL    HW220856   2.452   3.827   3.277  0.9585  0.0455 -2.5109
 3133SOL     OW20857   2.119   2.130   1.112  0.2127  0.7946 -0.6108
 3133SOL    HW120858   2.186   2.123   1.044 -0.8378 -1.2081 -1.4375
 3133SOL    HW220859   2.127   2.044   1.154 -1.9851 -0.4195 -2.6058
 3134SOL     OW20860   2.765   0.639   9.675  0.5284 -0.2957  0.6615
 3134SOL    HW120861   2.757   0.708   9.741  1.1909  1.2660 -0.9042
 3134SOL    HW220862   2.858   0.618   9.675  0.4783 -0.5108  1.4784
 3135SOL     OW20863   4.684   4.460   9.148 -0.2375  0.3343  0.8055
 3135SOL    HW120864   0.057   4.466   9.153  0.0070 -3.2878  0.2458
 3135SOL    HW220865   4.663   4.380   9.100 -0.6538  0.3390  0.9835
 3136SOL     OW20866   3.994   4.060   3.793 -0.0337  0.7999  0.0465
 3136SOL    HW120867   3.920   4.102   3.750 -0.6147  1.2770  1.5147
 3136SOL    HW220868   3.979   3.967   3.778  1.6376  0.5405 -0.0406
 3137SOL     OW20869   1.779   0.633   8.550  0.8023 -0.0718 -0.0790
 3137SOL    HW120870   1.695   0.662   8.584 -0.7054 -2.2550 -1.9333
 3137SOL    HW220871   1.796   0.570   8.619  1.2653 -1.4512 -1.4522
 3138SOL     OW20872   3.786   0.629   8.532  0.3345  0.0680  0.0224
 3138SOL    HW120873   3.849   0.643   8.604 -1.1964  1.1766  1.1527
 3138SOL    HW220874   3.770   0.718   8.501  0.1899 -0.8878 -2.5783
 3139SOL     OW20875   1.943   4.019   1.526 -0.0744 -0.3267  0.6128
 3139SOL    HW120876   2.021   3.990   1.479 -0.9235 -1.0015 -0.3717
 3139SOL    HW220877   1.889   3.940   1.520 -0.5713  0.2751 -2.8345
 3140SOL     OW20878   2.158   3.035   3.819  0.1218 -0.2477 -0.1891
 3140SOL    HW120879   2.206   3.060   3.740 -1.8134  0.1689 -1.2376
 3140SOL    HW220880   2.209   3.072   3.891  0.2594 -2.5497  0.8986
 3141SOL     OW20881   2.197   4.296   5.885 -0.0519 -0.2119  0.2305
 3141SOL    HW120882   2.182   4.359   5.955 -1.0135 -1.0685  0.7954
 3141SOL    HW220883   2.259   4.238   5.930  0.6636 -0.1143 -0.6246
 3142SOL     OW20884   2.361   4.478   1.821 -0.1011  0.0865 -0.0292
 3142SOL    HW120885   2.395   4.455   1.734  2.2113  0.9335  0.6391
 3142SOL    HW220886   2.434   4.442   1.871 -0.8820  2.1478  2.5850
 3143SOL     OW20887   3.993   0.177   9.944 -0.4131  0.3978  0.2665
 3143SOL    HW120888   3.974   0.118   9.871  0.8441 -0.2274  0.4443
 3143SOL    HW220889   4.060   0.123   9.986 -0.3441  0.0149 -0.3327
 3144SOL     OW20890   3.269   2.984  11.776  0.4303 -0.0021 -0.3029
 3144SOL    HW120891   3.299   2.984  11.867 -1.2623 -2.2089  0.2354
 3144SOL    HW220892   3.313   3.060  11.737 -0.9599  1.9342  1.8800
 3145SOL     OW20893   1.036   0.429   3.189 -0.5936 -0.5322 -0.1618
 3145SOL    HW120894   1.040   0.432   3.284  0.1177 -2.2886 -0.1337
 3145SOL    HW220895   1.076   0.513   3.168  0.6303 -1.1840 -0.4173
 3146SOL     OW20896   2.433   1.702   7.495  0.1072  0.5199 -0.1397
 3146SOL    HW120897   2.458   1.779   7.444 -0.0421  2.3694  2.5555
 3146SOL    HW220898   2.520   1.678   7.528  0.8301 -0.4560 -2.7258
 3147SOL     OW20899   2.488   1.524   5.287  0.0512 -0.5069 -0.4408
 3147SOL    HW120900   2.570   1.565   5.262  1.4216 -1.6195  2.2805
 3147SOL    HW220901   2.426   1.547   5.217 -0.3040 -0.9188 -0.2623
 3148SOL     OW20902   0.423   3.593   7.614 -0.4227 -0.9355 -0.2747
 3148SOL    HW120903   0.460   3.668   7.568 -0.1954 -1.0503 -0.2766
 3148SOL    HW220904   0.485   3.588   7.686 -1.4095 -0.5661  0.5983
 3149SOL     OW20905   4.395   0.556   9.315 -0.5408 -1.0459 -0.1371
 3149SOL    HW120906   4.302   0.547   9.334 -0.5437  0.3332  0.4838
 3149SOL    HW220907   4.419   0.608   9.392 -0.2603  1.0411 -1.6564
 3150SOL     OW20908   0.852   0.641   4.610  0.1339  0.3719 -0.0688
 3150SOL    HW120909   0.925   0.591   4.575 -1.4041 -1.4197 -0.7607
 3150SOL    HW220910   0.834   0.713   4.549 -1.9631 -1.0226 -1.1348
 3151SOL     OW20911   3.785   0.035  12.133 -0.3470 -0.1107 -0.2490
 3151SOL    HW120912   3.824   0.105  12.185 -0.4022 -1.2497  1.3379
 3151SOL    HW220913   3.712   0.021  12.194 -0.2794  3.8529  0.6852
 3152SOL     OW20914   3.393   1.759   5.240 -0.1582 -0.0497  0.1473
 3152SOL    HW120915   3.423   1.671   5.215 -0.0469 -0.3634  1.3966
 3152SOL    HW220916   3.473   1.811   5.238 -0.1665  0.0955  3.0851
 3153SOL     OW20917   1.150   1.500  13.484 -0.8959 -0.4096 -0.5125
 3153SOL    HW120918   1.089   1.490  13.557  0.9484  0.0049  1.0867
 3153SOL    HW220919   1.184   1.417  13.449  1.7535  0.2592  0.5130
 3154SOL     OW20920   3.924   1.749   7.527 -0.1480 -0.4912  0.0390
 3154SOL    HW120921   4.003   1.762   7.579  0.1474  0.2807 -0.6012
 3154SOL    HW220922   3.868   1.810   7.575  0.9490 -0.1729  0.8942
 3155SOL     OW20923   2.838   1.846   2.427  0.5922 -0.4174 -0.3451
 3155SOL    HW120924   2.864   1.788   2.499  0.4719 -0.8009 -0.6105
 3155SOL    HW220925   2.925   1.856   2.388  0.0967 -0.7105 -1.5262
 3156SOL     OW20926   3.843   3.796   4.406  0.1223  0.4850  0.0927
 3156SOL    HW120927   3.843   3.712   4.362  0.0386  0.0785  0.8685
 3156SOL    HW220928   3.892   3.774   4.485  0.0092 -6.0264 -1.6732
 3157SOL     OW20929   4.621   3.722   0.554  0.2670 -0.3843  0.2306
 3157SOL    HW120930   4.540   3.674   0.571 -0.4978  1.1747  1.0648
 3157SOL    HW220931   4.647   3.753   0.641 -1.0637  1.3945 -0.0188
 3158SOL     OW20932   3.734   3.022   8.306 -0.1105  0.2543  0.0510
 3158SOL    HW120933   3.748   2.949   8.245 -0.2060  0.9438 -0.8029
 3158SOL    HW220934   3.718   2.991   8.395 -0.8668  0.7638  0.0859
 3159SOL     OW20935   0.819   1.110  13.067 -0.0273 -0.3514 -0.5881
 3159SOL    HW120936   0.850   1.126  12.978 -0.5866 -2.1434 -1.1114
 3159SOL    HW220937   0.868   1.030  13.085  0.4047  0.1382  0.4077
 3160SOL     OW20938   0.822   1.624  15.226 -0.4942  0.2715  0.1400
 3160SOL    HW120939   0.774   1.637  15.308 -1.9440 -0.5261 -0.5875
 3160SOL    HW220940   0.907   1.598  15.261  0.2952  2.2336 -0.3128
 3161SOL     OW20941   0.892   3.148   3.988  0.2812  0.1445 -0.2401
 3161SOL    HW120942   0.933   3.094   3.921 -0.5924 -1.8458  0.8168
 3161SOL    HW220943   0.910   3.103   4.071  0.1463  0.7037  0.0960
 3162SOL     OW20944   3.175   0.707   1.636  0.0340  0.2542 -0.2585
 3162SOL    HW120945   3.123   0.727   1.714  0.4556  1.7313 -0.3468
 3162SOL    HW220946   3.261   0.735   1.668 -0.3529 -0.1292  1.0824
 3163SOL     OW20947   1.654   2.408   3.051  0.1212  0.3997  0.5030
 3163SOL    HW120948   1.621   2.373   2.968 -0.1739  2.7773 -0.3924
 3163SOL    HW220949   1.573   2.435   3.093 -0.6294  1.0837 -1.3512
 3164SOL     OW20950   2.568   1.687   1.908  0.0318  0.2490  0.4003
 3164SOL    HW120951   2.626   1.705   1.834 -1.1054  1.3601 -0.2228
 3164SOL    HW220952   2.569   1.592   1.918  3.0814  0.3438  0.7659
 3165SOL     OW20953   2.466   1.250   5.369 -0.1099 -0.6771  0.1268
 3165SOL    HW120954   2.370   1.250   5.364 -0.1024  2.3638 -0.3908
 3165SOL    HW220955   2.473   1.337   5.330 -0.0756 -0.3748  0.7932
 3166SOL     OW20956   2.151   0.710   4.290 -0.7118 -0.3695  0.4348
 3166SOL    HW120957   2.139   0.751   4.376  0.2069 -0.3628  0.5562
 3166SOL    HW220958   2.094   0.769   4.241  0.6230  0.7184  0.1910
 3167SOL     OW20959   2.669   0.952   9.586  0.4011  0.4922 -0.1249
 3167SOL    HW120960   2.719   0.907   9.654 -0.1459 -1.1517 -0.8153
 3167SOL    HW220961   2.630   0.874   9.547  1.6556 -0.2078  0.0067
 3168SOL     OW20962   2.332   4.666  14.563 -0.0921 -0.0052 -0.0171
 3168SOL    HW120963   2.245   4.703  14.576 -0.3993 -0.2313 -1.3926
 3168SOL    HW220964   2.317   4.608  14.488 -0.2218  0.1393 -0.1026
 3169SOL     OW20965   2.118   2.399   1.388 -0.0599  0.0837 -0.3208
 3169SOL    HW120966   2.043   2.415   1.330  0.6529  0.5828 -1.1142
 3169SOL    HW220967   2.188   2.422   1.326  0.1677 -2.4972 -0.9914
 3170SOL     OW20968   0.302   3.079   7.197  0.4691 -0.0469  0.2692
 3170SOL    HW120969   0.396   3.062   7.200  0.1760 -1.7256  0.0733
 3170SOL    HW220970   0.273   3.040   7.279  2.7088  0.2397  1.1726
 3171SOL     OW20971   4.535   3.696  11.936 -0.3882 -0.1734 -0.4452
 3171SOL    HW120972   4.469   3.694  12.005 -0.1964  0.9181 -0.2273
 3171SOL    HW220973   4.601   3.634  11.965 -0.4177 -0.2125 -0.4618
 3172SOL     OW20974   4.618   4.204   7.700  0.4420 -0.4312 -0.2548
 3172SOL    HW120975   4.646   4.237   7.786 -0.3920  0.4301 -0.3209
 3172SOL    HW220976   4.639   4.110   7.696 -0.5130 -0.6372 -0.5312
 3173SOL     OW20977   4.161   1.703   1.830  0.2421  0.1578  0.7053
 3173SOL    HW120978   4.142   1.777   1.771  0.0364  0.2915  0.9409
 3173SOL    HW220979   4.221   1.752   1.886 -0.3841  1.2178  0.4535
 3174SOL     OW20980   3.469   1.468   9.062  0.2091 -0.0280  0.2695
 3174SOL    HW120981   3.444   1.402   9.127  1.4885 -0.4771  0.2891
 3174SOL    HW220982   3.521   1.414   9.003  0.0283  0.1045 -0.0111
 3175SOL     OW20983   0.885   2.945   2.626 -0.2424 -0.3795 -0.6711
 3175SOL    HW120984   0.952   2.907   2.569  1.7472  2.3999 -0.2174
 3175SOL    HW220985   0.834   2.869   2.654 -0.9140 -0.3034 -1.6854
 3176SOL     OW20986   2.328   2.490   5.721 -0.9070  0.2202 -0.2654
 3176SOL    HW120987   2.393   2.516   5.786  0.9127 -0.3749 -1.8512
 3176SOL    HW220988   2.297   2.402   5.742  1.8156 -0.1147  2.3901
 3177SOL     OW20989   0.192   0.777  11.184  0.6967 -0.2391 -0.2878
 3177SOL    HW120990   0.143   0.831  11.247 -0.3179 -0.4692 -0.8886
 3177SOL    HW220991   0.213   0.701  11.238 -0.3358 -0.7038 -0.5384
 3178SOL     OW20992   0.345   2.414   4.897  0.7665  0.5934 -0.2687
 3178SOL    HW120993   0.418   2.474   4.886  0.3023  1.2272  0.0493
 3178SOL    HW220994   0.397   2.336   4.917 -0.2968  0.3573  1.6628
 3179SOL     OW20995   2.725   0.911   3.073 -0.3132 -0.0273 -0.3511
 3179SOL    HW120996   2.812   0.898   3.034 -0.6770  1.6000 -1.7113
 3179SOL    HW220997   2.710   0.828   3.119 -0.0122  0.8651  1.3708
 3180SOL     OW20998   0.027   4.413   1.172  0.3445 -0.7136 -0.0996
 3180SOL    HW120999   0.023   4.475   1.098 -0.9811 -0.2106  0.3994
 3180SOL    HW221000   4.682   4.444   1.232  0.7976  0.6333 -0.2701
 3181SOL     OW21001   3.448   0.597   6.269 -0.0502  0.3779  0.0384
 3181SOL    HW121002   3.541   0.574   6.271  0.0355  0.7189  0.0957
 3181SOL    HW221003   3.458   0.673   6.211  1.7097 -0.3807 -0.6367
 3182SOL     OW21004   2.454   4.257  11.400 -0.1826  0.1630  0.4999
 3182SOL    HW121005   2.492   4.327  11.347  0.0016 -0.2157  0.1394
 3182SOL    HW221006   2.360   4.275  11.396 -0.1745 -0.1834 -1.1858
 3183SOL     OW21007   1.842   3.039  11.437  0.3193  0.1528  0.4070
 3183SOL    HW121008   1.836   2.979  11.363 -1.9436  1.8727 -0.8202
 3183SOL    HW221009   1.783   3.106  11.403  1.1632 -0.1084 -1.5837
 3184SOL     OW21010   4.348   3.430  17.622 -0.1103 -0.0064  0.2342
 3184SOL    HW121011   4.437   3.463  17.611 -0.5018  1.4651  1.4119
 3184SOL    HW221012   4.302   3.459  17.543  1.2033  0.8375 -0.2235
 3185SOL     OW21013   2.486   1.477  17.301 -0.2183 -0.3588  0.0916
 3185SOL    HW121014   2.568   1.495  17.254  0.9009  0.2867  2.3025
 3185SOL    HW221015   2.438   1.399  17.273  1.5336 -1.5779  0.4133
 3186SOL     OW21016   2.315   4.404  11.076  0.2737 -0.8201  0.2206
 3186SOL    HW121017   2.261   4.375  11.149 -1.8557  0.3337 -0.9074
 3186SOL    HW221018   2.395   4.424  11.125  0.1867 -0.2033  0.1106
 3187SOL     OW21019   0.142   4.258  16.664  0.1435 -0.0966 -0.8675
 3187SOL    HW121020   0.098   4.174  16.662 -0.9210  0.4699 -1.1652
 3187SOL    HW221021   0.191   4.239  16.745 -2.2858 -1.4123  0.2859
 3188SOL     OW21022   0.795   4.230  10.106  1.0701  0.2357  0.1394
 3188SOL    HW121023   0.812   4.177  10.184 -1.1118 -0.2968  0.2630
 3188SOL    HW221024   0.845   4.310  10.124 -0.9397  0.8248  3.1875
 3189SOL     OW21025   0.223   2.689   6.257  0.4357  0.6524  0.5376
 3189SOL    HW121026   0.181   2.741   6.326  1.4093  1.1659  0.7443
 3189SOL    HW221027   0.251   2.616   6.312 -0.8202 -0.6646 -0.5900
 3190SOL     OW21028   3.835   0.986  17.093 -0.2478 -0.7441 -0.4909
 3190SOL    HW121029   3.784   0.993  17.174 -1.1254 -2.6881 -0.8706
 3190SOL    HW221030   3.796   1.054  17.039  0.3767  0.5221  0.6592
 3191SOL     OW21031   0.170   0.082   6.892  0.4907  0.2320 -0.4396
 3191SOL    HW121032   0.134   0.168   6.875  2.3144  1.3889  1.4893
 3191SOL    HW221033   0.091   0.027   6.890 -0.1014  1.0570  0.4697
 3192SOL     OW21034   4.305   4.422   3.307  0.0362 -0.1012  0.4187
 3192SOL    HW121035   4.234   4.451   3.364  0.2618  1.0638  0.1018
 3192SOL    HW221036   4.370   4.491   3.312 -0.8619  0.8522 -0.9585
 3193SOL     OW21037   2.135   0.012   2.046 -1.2135 -0.3338 -0.2707
 3193SOL    HW121038   2.070   4.668   2.025  0.1968 -1.8524  0.2454
 3193SOL    HW221039   2.185   4.677   2.103 -0.9805  0.3373  0.2044
 3194SOL     OW21040   1.623   1.414   6.683 -0.4952 -0.3358  0.4247
 3194SOL    HW121041   1.544   1.359   6.686 -0.3792 -0.5085  0.3575
 3194SOL    HW221042   1.672   1.351   6.736  1.3605  0.9921  0.2849
 3195SOL     OW21043   0.350   2.858  12.353  0.5327 -0.2765  0.6732
 3195SOL    HW121044   0.347   2.890  12.262  0.5219 -2.3786 -0.0492
 3195SOL    HW221045   0.293   2.921  12.398 -0.3103 -1.4598  1.2376
 3196SOL     OW21046   2.853   4.199  14.319 -0.0978  0.4303  0.4721
 3196SOL    HW121047   2.766   4.188  14.279  0.0716  2.4472 -0.4338
 3196SOL    HW221048   2.823   4.237  14.401 -0.2721  0.1211  0.5516
 3197SOL     OW21049   1.374   2.783   6.518 -0.1942  0.0176 -0.4078
 3197SOL    HW121050   1.469   2.773   6.520 -0.0542  1.6135  1.4397
 3197SOL    HW221051   1.352   2.741   6.435  2.0775 -1.6046 -0.1746
 3198SOL     OW21052   4.586   3.548   5.033  0.3423 -0.2935  0.0730
 3198SOL    HW121053   4.591   3.633   4.990 -0.3128 -1.1140 -1.6347
 3198SOL    HW221054   4.571   3.499   4.952 -0.8193 -0.3786  0.3423
 3199SOL     OW21055   3.563   4.467   5.808 -0.7724  0.5925  0.4433
 3199SOL    HW121056   3.602   4.398   5.754  0.4134 -0.4974  2.7176
 3199SOL    HW221057   3.469   4.458   5.794 -0.9654  1.9085  0.8943
 3200SOL     OW21058   0.203   2.619  13.101 -0.2949  0.4883  0.3393
 3200SOL    HW121059   0.108   2.625  13.093 -0.2275 -0.5091 -1.2314
 3200SOL    HW221060   0.221   2.691  13.161  0.8170  0.0504  0.5352
 3201SOL     OW21061   0.451   0.461   6.302 -0.8053 -0.3228 -0.3650
 3201SOL    HW121062   0.428   0.442   6.211 -0.1283 -0.5820 -0.4838
 3201SOL    HW221063   0.473   0.376   6.340 -1.9812  0.6581  2.5221
 3202SOL     OW21064   2.505   1.123   6.913 -0.2406 -0.3467 -0.1216
 3202SOL    HW121065   2.501   1.218   6.902 -1.4897 -0.4669 -0.6594
 3202SOL    HW221066   2.521   1.095   6.823  1.8856  0.6737 -0.0587
 3203SOL     OW21067   0.538   3.709  10.796 -0.4678  0.5868 -0.0640
 3203SOL    HW121068   0.618   3.735  10.750 -0.6100  1.1208 -0.0097
 3203SOL    HW221069   0.561   3.621  10.828  0.2373  1.0101  0.5818
 3204SOL     OW21070   2.232   2.052  11.234 -0.4190 -0.4855  0.0027
 3204SOL    HW121071   2.324   2.051  11.207 -0.5196 -3.4209 -0.2537
 3204SOL    HW221072   2.224   2.146  11.220 -1.5165 -0.1728  2.6461
 3205SOL     OW21073   1.369   3.076   3.730 -1.2218 -0.1483 -0.3410
 3205SOL    HW121074   1.300   3.042   3.674  0.3730 -3.3379 -0.3653
 3205SOL    HW221075   1.404   3.134   3.663 -0.3979  0.4360  0.5821
 3206SOL     OW21076   3.645   1.891   5.248  0.1510 -0.0967  0.0137
 3206SOL    HW121077   3.730   1.868   5.211 -0.1319  0.2890 -0.8584
 3206SOL    HW221078   3.677   1.917   5.335  1.5869 -2.4928  0.2259
 3207SOL     OW21079   1.533   2.556   4.169 -0.4900  0.0982 -0.3393
 3207SOL    HW121080   1.467   2.541   4.237  0.8742  0.4993  1.0802
 3207SOL    HW221081   1.508   2.645   4.144  1.2051  0.3633 -1.0713
 3208SOL     OW21082   1.128   1.767  16.619 -0.4609 -0.0018  0.4152
 3208SOL    HW121083   1.115   1.758  16.524 -2.7755 -0.2459  0.7442
 3208SOL    HW221084   1.040   1.800  16.637  0.1633 -0.0144  3.4781
 3209SOL     OW21085   1.676   1.507   8.269 -0.0627 -0.3087 -0.5512
 3209SOL    HW121086   1.610   1.500   8.200  0.7172  2.0834 -1.5314
 3209SOL    HW221087   1.724   1.586   8.246  2.0142 -1.1856  0.7860
 3210SOL     OW21088   4.454   1.812   3.097  0.5244 -0.0407  0.4552
 3210SOL    HW121089   4.480   1.903   3.078 -0.2918 -0.0789 -0.7904
 3210SOL    HW221090   4.468   1.775   3.011  1.5204 -2.2624  1.5730
 3211SOL     OW21091   3.454   0.825  12.965 -0.4003 -0.0666 -0.0831
 3211SOL    HW121092   3.447   0.771  12.886  0.8541  0.0187 -0.2498
 3211SOL    HW221093   3.441   0.759  13.033  0.8042 -1.5457 -1.3032
 3212SOL     OW21094   2.238   4.347   7.566 -0.1086 -0.4896  0.3123
 3212SOL    HW121095   2.175   4.290   7.611  0.0854 -2.8217 -2.3094
 3212SOL    HW221096   2.187   4.427   7.573  3.1995  1.7070 -1.1277
 3213SOL     OW21097   3.861   3.514   4.727  0.0482  0.3281 -0.1225
 3213SOL    HW121098   3.938   3.485   4.775 -1.4836 -0.8720  1.6321
 3213SOL    HW221099   3.822   3.429   4.706 -2.6314  1.1858  1.3763
 3214SOL     OW21100   1.328   3.692   6.383  0.0985 -0.0393 -0.0611
 3214SOL    HW121101   1.375   3.654   6.458  1.4901 -1.1311 -1.5064
 3214SOL    HW221102   1.398   3.721   6.324  0.3925 -3.4162 -1.3296
 3215SOL     OW21103   3.862   2.643   5.391 -0.1904  0.0547 -0.4795
 3215SOL    HW121104   3.823   2.710   5.448 -0.1640  0.2966 -0.7467
 3215SOL    HW221105   3.818   2.662   5.309 -0.5186 -1.8637 -0.7310
 3216SOL     OW21106   3.741   2.251  16.924 -0.2389  0.6000 -0.0455
 3216SOL    HW121107   3.750   2.281  16.834  1.3132 -1.0768 -0.4339
 3216SOL    HW221108   3.649   2.271  16.939 -0.5854 -1.0513  0.0113
 3217SOL     OW21109   1.232   1.047   6.774  0.2855 -0.6700  0.5035
 3217SOL    HW121110   1.160   1.084   6.826  0.2666  2.4658 -1.8056
 3217SOL    HW221111   1.241   0.965   6.823  0.4729 -0.1512  1.3311
 3218SOL     OW21112   3.560   3.080   6.239  0.3746 -0.0231 -0.2131
 3218SOL    HW121113   3.538   3.002   6.290  0.8274 -1.2630 -1.9071
 3218SOL    HW221114   3.642   3.107   6.280 -1.0766  1.6377  1.6170
 3219SOL     OW21115   3.205   2.612  13.151 -0.6092  0.1431  0.5530
 3219SOL    HW121116   3.245   2.675  13.211 -2.0110  1.0672  0.5210
 3219SOL    HW221117   3.122   2.595  13.197 -0.6226 -2.4919 -0.4678
 3220SOL     OW21118   1.497   0.895   2.023  0.2509  0.3337 -0.0129
 3220SOL    HW121119   1.545   0.812   2.019 -1.3689 -0.5279 -1.9064
 3220SOL    HW221120   1.569   0.956   2.039 -0.3546  0.6614  1.4669
 3221SOL     OW21121   0.481   4.212   5.457 -0.3018  0.0349 -0.7702
 3221SOL    HW121122   0.470   4.117   5.456 -3.1790  0.3052  2.6435
 3221SOL    HW221123   0.575   4.222   5.470 -0.6360 -1.5263  2.9861
 3222SOL     OW21124   2.155   2.840   6.495 -0.3319  0.6183  0.5750
 3222SOL    HW121125   2.248   2.816   6.489 -0.0601  1.8102  0.1446
 3222SOL    HW221126   2.153   2.931   6.523 -0.6492  0.6006  0.6079
 3223SOL     OW21127   1.290   1.259   3.873 -0.5966 -0.1131  0.3859
 3223SOL    HW121128   1.229   1.313   3.923 -0.4255  0.7461 -0.3305
 3223SOL    HW221129   1.250   1.174   3.885  1.9181 -1.2441  0.7983
 3224SOL     OW21130   2.642   2.097  13.379  0.0026  0.1930  0.6787
 3224SOL    HW121131   2.578   2.158  13.342 -1.5046 -0.3493  2.4296
 3224SOL    HW221132   2.681   2.063  13.298  0.5459  1.0968  0.5572
 3225SOL     OW21133   0.005   3.001   6.258 -0.4827  0.5184 -0.1766
 3225SOL    HW121134   4.693   3.046   6.181  3.0569  1.4555 -1.2580
 3225SOL    HW221135   4.654   2.981   6.314  1.1147  1.5270  2.3062
 3226SOL     OW21136   4.053   1.104   8.189  0.4418 -0.3183  0.0440
 3226SOL    HW121137   4.135   1.087   8.236  1.2202 -0.4683 -1.3509
 3226SOL    HW221138   4.049   1.198   8.173 -0.6479 -0.1760  1.2134
 3227SOL     OW21139   3.533   1.262   1.765  0.3011  0.2029 -0.1549
 3227SOL    HW121140   3.575   1.200   1.824  2.2495  1.8079  0.1440
 3227SOL    HW221141   3.488   1.210   1.698 -1.3270 -0.2106  1.2554
 3228SOL     OW21142   3.765   1.964   4.364 -0.6214  0.0250  0.0906
 3228SOL    HW121143   3.742   2.022   4.437  0.1986 -0.8669  1.0564
 3228SOL    HW221144   3.709   1.993   4.292 -1.2206 -0.8936  0.1896
 3229SOL     OW21145   1.871   1.323   2.516  0.0736 -0.0325 -0.0020
 3229SOL    HW121146   1.893   1.354   2.428  1.2907 -1.3485 -0.1524
 3229SOL    HW221147   1.776   1.314   2.503 -0.0962  1.3705  0.1958
 3230SOL     OW21148   2.548   1.100   9.403  0.2347 -0.0338  0.2164
 3230SOL    HW121149   2.462   1.122   9.438  0.3599 -1.7697  1.5939
 3230SOL    HW221150   2.586   1.056   9.479  1.3281 -1.8173 -1.3756
 3231SOL     OW21151   0.605   3.622   7.806 -0.0965  0.5709 -0.1661
 3231SOL    HW121152   0.675   3.586   7.861  0.3780  2.5817  0.5324
 3231SOL    HW221153   0.625   3.711   7.778 -1.6641  0.4033 -1.8027
 3232SOL     OW21154   1.669   2.566  16.272  0.6566 -0.3790  0.0136
 3232SOL    HW121155   1.590   2.512  16.279  0.5261 -0.3653 -1.3607
 3232SOL    HW221156   1.716   2.523  16.343 -0.7244 -0.7341  0.7292
 3233SOL     OW21157   4.622   3.935   2.811  0.2243 -0.1522 -1.1408
 3233SOL    HW121158   4.627   3.842   2.834  2.4075  0.1940 -0.1827
 3233SOL    HW221159   4.605   3.936   2.717 -0.1935 -2.3580 -1.0933
 3234SOL     OW21160   0.570   1.915   2.004  0.4075 -0.2075 -0.9889
 3234SOL    HW121161   0.513   1.959   1.942 -0.1218  0.8280  0.2360
 3234SOL    HW221162   0.532   1.827   1.991  0.9306 -1.0467  3.1468
 3235SOL     OW21163   4.656   4.207   9.063 -0.0857 -0.1590  0.6694
 3235SOL    HW121164   4.677   4.151   9.138  1.6282 -1.4460 -0.7737
 3235SOL    HW221165   4.603   4.151   9.006 -0.6460 -0.4235  1.4505
 3236SOL     OW21166   4.360   3.207  16.684  0.1171 -0.5607 -0.8619
 3236SOL    HW121167   4.306   3.127  16.683 -1.0524  0.2267 -0.9580
 3236SOL    HW221168   4.425   3.171  16.623 -1.9628 -3.3816 -1.4580
 3237SOL     OW21169   1.729   3.673  10.373 -0.0491  0.8117  0.7259
 3237SOL    HW121170   1.636   3.674  10.393  0.0996  0.5947  1.4439
 3237SOL    HW221171   1.774   3.666  10.457 -0.6765 -0.0299  0.9917
 3238SOL     OW21172   2.604   2.878  12.608 -0.3881  0.1472 -0.2448
 3238SOL    HW121173   2.536   2.812  12.619  0.7029 -0.8360  0.6067
 3238SOL    HW221174   2.559   2.946  12.659  0.6955  0.8014 -0.1545
 3239SOL     OW21175   0.751   0.851   5.742  0.0649  0.0103 -0.2977
 3239SOL    HW121176   0.663   0.836   5.777 -0.0531 -0.2048 -0.6821
 3239SOL    HW221177   0.765   0.790   5.670  0.5240  0.2572 -0.4171
 3240SOL     OW21178   1.017   0.937  13.096 -0.2752  0.1002  0.2141
 3240SOL    HW121179   1.015   0.857  13.043  1.5969 -0.4766  0.9947
 3240SOL    HW221180   1.018   0.901  13.185  1.8629  2.1191  0.9837
 3241SOL     OW21181   2.285   4.307  10.801 -0.6682 -0.2270 -0.0468
 3241SOL    HW121182   2.206   4.350  10.769 -0.9386  0.5614  1.7293
 3241SOL    HW221183   2.298   4.344  10.888 -1.2529 -0.8545  0.3000
 3242SOL     OW21184   0.098   0.231  17.643  0.5269 -0.2175  0.1441
 3242SOL    HW121185   0.107   0.277   0.033 -0.7006 -1.4411  0.9598
 3242SOL    HW221186   0.070   0.306  17.592 -0.8669 -0.5790  0.3643
 3243SOL     OW21187   0.858   0.251   6.411 -0.2651 -0.0418 -0.4703
 3243SOL    HW121188   0.824   0.291   6.332  3.0626  1.7816 -0.9539
 3243SOL    HW221189   0.953   0.252   6.400  0.0182  0.0528  1.9879
 3244SOL     OW21190   4.430   3.013  16.131  0.4575 -0.2500  0.0927
 3244SOL    HW121191   4.473   3.046  16.209  0.5629 -2.3993  0.9560
 3244SOL    HW221192   4.479   2.935  16.103  0.0855  0.6614 -3.1499
 3245SOL     OW21193   0.731   4.062   8.682  0.5583  0.5499 -0.0475
 3245SOL    HW121194   0.776   4.143   8.658  0.9765 -0.0496 -1.3138
 3245SOL    HW221195   0.779   4.039   8.761  2.3237  0.6150 -1.0857
 3246SOL     OW21196   4.043   0.348   3.079 -0.1003  0.0748 -0.0138
 3246SOL    HW121197   4.064   0.438   3.105  0.8683  0.5015 -2.2639
 3246SOL    HW221198   4.085   0.301   3.151 -0.8468 -1.1634 -0.4024
 3247SOL     OW21199   0.113   1.947  16.994  0.5360  0.2255 -0.1698
 3247SOL    HW121200   0.021   1.920  16.987  0.1531  1.2882  0.7779
 3247SOL    HW221201   0.128   1.910  16.907  0.5618 -0.6122  0.1952
 3248SOL     OW21202   0.146   0.343  17.002 -0.3190  0.9618  0.1603
 3248SOL    HW121203   0.082   0.403  16.962 -0.8370 -0.3832 -1.0235
 3248SOL    HW221204   0.173   0.395  17.078 -1.5652  1.1532  0.4748
 3249SOL     OW21205   3.051   1.546   7.724 -0.1145  0.2811  0.1174
 3249SOL    HW121206   3.144   1.525   7.717 -0.1246  0.9981 -2.2091
 3249SOL    HW221207   3.045   1.633   7.685 -1.2491  0.0171 -0.3057
 3250SOL     OW21208   3.182   2.524   2.296  0.7693  0.6184 -0.7620
 3250SOL    HW121209   3.240   2.479   2.357  0.2332  1.5016  0.4003
 3250SOL    HW221210   3.195   2.464   2.222  0.5428 -0.5217  0.1192
 3251SOL     OW21211   4.190   3.176   3.445 -0.0357  0.3535 -0.3192
 3251SOL    HW121212   4.217   3.168   3.354 -1.1061  2.0235 -0.7858
 3251SOL    HW221213   4.275   3.214   3.469 -1.3937  2.1519  1.5971
 3252SOL     OW21214   3.274   2.916   2.941  0.0342  0.3492  0.1751
 3252SOL    HW121215   3.311   3.001   2.966  1.2912 -0.6963  1.8337
 3252SOL    HW221216   3.347   2.877   2.893 -1.3652 -1.7135 -0.2531
 3253SOL     OW21217   0.564   2.861  12.902 -0.2808  0.1591 -0.2577
 3253SOL    HW121218   0.558   2.919  12.978  0.5483 -1.4534  1.0470
 3253SOL    HW221219   0.496   2.796  12.916 -0.1269 -0.2975 -1.6948
 3254SOL     OW21220   1.636   4.244   5.723 -0.2786  0.2466  0.4356
 3254SOL    HW121221   1.665   4.335   5.718  0.0584  0.1819  1.2874
 3254SOL    HW221222   1.561   4.247   5.663 -1.2118  0.1599  1.5947
 3255SOL     OW21223   2.014   1.433  12.729 -0.2395  0.1757 -0.9860
 3255SOL    HW121224   2.095   1.411  12.775 -1.6599  0.1399  1.5035
 3255SOL    HW221225   1.956   1.471  12.795 -2.0292  0.7140 -2.8662
 3256SOL     OW21226   4.241   4.154   8.575 -0.0505 -0.1884  0.0931
 3256SOL    HW121227   4.208   4.067   8.553  0.9292  0.3123 -3.3505
 3256SOL    HW221228   4.202   4.213   8.511  3.3232 -0.4355 -2.1826
 3257SOL     OW21229   1.510   0.359  15.075  0.4904  0.8846 -0.2898
 3257SOL    HW121230   1.479   0.324  14.991  0.0804 -0.8812  0.6002
 3257SOL    HW221231   1.602   0.373  15.052  0.6821 -0.0725 -0.0879
 3258SOL     OW21232   1.750   2.094   9.311 -0.2135  0.1690  0.5081
 3258SOL    HW121233   1.765   2.143   9.391  1.0812  0.8584 -0.1417
 3258SOL    HW221234   1.655   2.095   9.310 -0.1935  1.3438 -0.1583
 3259SOL     OW21235   1.608   1.813   2.139 -0.5859  0.1987 -0.2434
 3259SOL    HW121236   1.616   1.877   2.068  1.2998  0.2251  0.0109
 3259SOL    HW221237   1.521   1.826   2.178  0.8593 -0.2657  3.1254
 3260SOL     OW21238   3.701   0.853   3.337  0.1165 -0.2402  0.2305
 3260SOL    HW121239   3.700   0.792   3.411 -1.4724  0.4294  0.7587
 3260SOL    HW221240   3.629   0.912   3.360  0.4484  0.3334 -0.2093
 3261SOL     OW21241   3.324   0.965   3.153  0.2459 -0.9562 -0.2221
 3261SOL    HW121242   3.342   1.046   3.105 -1.9972  0.4684  1.3625
 3261SOL    HW221243   3.230   0.978   3.159  0.2665 -0.6004 -0.6074
 3262SOL     OW21244   0.315   1.449  15.840 -0.3659  0.2533 -0.0837
 3262SOL    HW121245   0.250   1.462  15.909 -0.2359 -2.2861  0.4884
 3262SOL    HW221246   0.279   1.368  15.806 -1.6360  1.5753 -1.8985
 3263SOL     OW21247   3.381   4.512   2.326  0.0640 -0.1536  0.4402
 3263SOL    HW121248   3.459   4.568   2.330  1.9343 -2.6626 -0.8249
 3263SOL    HW221249   3.363   4.523   2.232 -2.1189  0.7267  0.9532
 3264SOL     OW21250   2.753   4.455  11.833 -0.3637 -0.3222 -0.1996
 3264SOL    HW121251   2.811   4.381  11.814  0.4263  0.0483  0.7690
 3264SOL    HW221252   2.811   4.522  11.870  0.2279 -1.2718  0.5864
 3265SOL     OW21253   4.187   2.332   9.132 -0.5146  0.1736 -0.0083
 3265SOL    HW121254   4.266   2.299   9.176 -0.1794 -0.2113 -0.8934
 3265SOL    HW221255   4.123   2.300   9.195 -0.5695 -0.8795 -0.5999
 3266SOL     OW21256   3.039   4.223  15.045 -0.3498  0.2043 -0.4638
 3266SOL    HW121257   3.013   4.178  15.125  0.6722 -0.3000 -0.4083
 3266SOL    HW221258   3.008   4.164  14.976 -1.0408 -0.9090  0.8064
 3267SOL     OW21259   4.231   0.527  16.337  0.3709  0.3252  0.0242
 3267SOL    HW121260   4.137   0.537  16.325  0.0658 -2.2902  0.2359
 3267SOL    HW221261   4.236   0.447  16.389  0.6038  0.9454  0.9581
 3268SOL     OW21262   2.315   1.776   2.497 -0.4076  0.5882  0.0588
 3268SOL    HW121263   2.390   1.790   2.555  0.3027  0.3041 -0.8002
 3268SOL    HW221264   2.287   1.863   2.469  0.7908  0.6657 -0.8716
 3269SOL     OW21265   2.612   1.914   6.646  0.2789 -0.2715 -0.3611
 3269SOL    HW121266   2.532   1.865   6.626 -0.0836  0.7232 -1.3392
 3269SOL    HW221267   2.612   1.975   6.573 -0.3925  0.6834  0.4341
 3270SOL     OW21268   0.217   1.944   5.349  0.1593 -0.6726  0.0241
 3270SOL    HW121269   0.164   1.901   5.415 -0.2883 -0.6913 -0.3483
 3270SOL    HW221270   0.181   2.032   5.356 -0.3569 -0.7618 -1.4250
 3271SOL     OW21271   3.060   1.210  12.107  0.2976  0.5640  0.0182
 3271SOL    HW121272   3.001   1.150  12.153  0.9428  0.4691  0.7150
 3271SOL    HW221273   3.143   1.164  12.109  0.4600  0.7676 -1.8598
 3272SOL     OW21274   4.067   4.151   3.196  0.2294  0.1255  0.3561
 3272SOL    HW121275   4.104   4.209   3.129  0.2208 -1.3534 -0.9453
 3272SOL    HW221276   4.045   4.216   3.262 -1.5624 -1.2366  1.0831
 3273SOL     OW21277   4.344   0.620   0.744 -0.2649  0.0432  0.8701
 3273SOL    HW121278   4.352   0.540   0.694 -0.8228 -1.1373  2.6658
 3273SOL    HW221279   4.298   0.668   0.674  2.5683  1.3719 -0.0622
 3274SOL     OW21280   1.755   2.085   2.140 -0.0309  0.2150  0.2795
 3274SOL    HW121281   1.771   2.098   2.046  0.5327 -1.2809  0.1823
 3274SOL    HW221282   1.823   2.026   2.172 -0.5348 -0.9531 -0.8131
 3275SOL     OW21283   4.318   1.955   8.529  0.1157  0.3267  0.3062
 3275SOL    HW121284   4.252   1.987   8.467  1.0943  0.6824 -0.5416
 3275SOL    HW221285   4.384   1.930   8.465  1.2249 -0.8849  1.9362
 3276SOL     OW21286   3.525   3.074   8.008 -0.1234 -0.1795 -0.1916
 3276SOL    HW121287   3.480   3.107   8.086  0.4797 -2.4237  1.1184
 3276SOL    HW221288   3.470   2.999   7.984  0.3653 -0.8637  0.8082
 3277SOL     OW21289   0.311   3.041   4.106 -0.2753 -0.5302  0.3212
 3277SOL    HW121290   0.337   2.950   4.123 -2.5215 -1.2257  0.0050
 3277SOL    HW221291   0.315   3.047   4.010 -3.1085  1.4770  0.3691
 3278SOL     OW21292   1.575   0.352   6.280  0.5092 -0.6411 -0.1978
 3278SOL    HW121293   1.664   0.385   6.268 -0.1294  1.0371 -0.2743
 3278SOL    HW221294   1.514   0.406   6.230 -0.5462 -4.0222 -2.5313
 3279SOL     OW21295   2.518   0.793   0.765  0.0699 -0.1124  0.5083
 3279SOL    HW121296   2.579   0.747   0.707  0.0567  0.0731  0.3467
 3279SOL    HW221297   2.430   0.758   0.750  0.2380  0.6076 -2.0363
 3280SOL     OW21298   3.346   0.300   5.546 -0.4215 -0.4177  0.3369
 3280SOL    HW121299   3.335   0.376   5.602 -0.1761 -2.4950  3.2374
 3280SOL    HW221300   3.287   0.232   5.578 -0.6780  0.1379  1.0468
 3281SOL     OW21301   1.012   1.878   4.314 -0.6730 -0.3570 -0.4299
 3281SOL    HW121302   1.088   1.863   4.369  0.6477  0.9635 -1.8997
 3281SOL    HW221303   0.948   1.910   4.378 -0.4079  0.8696 -0.7633
 3282SOL     OW21304   1.070   3.595   6.490 -0.5819 -0.3490 -0.3756
 3282SOL    HW121305   1.152   3.635   6.461 -0.7123  0.1251 -0.0870
 3282SOL    HW221306   1.002   3.654   6.457 -0.5407  0.9913  1.9872
 3283SOL     OW21307   2.932   0.083   1.993 -0.9116 -0.4767 -0.0428
 3283SOL    HW121308   2.843   0.089   1.958 -0.1063  2.2050 -1.6419
 3283SOL    HW221309   2.984   0.066   1.915 -0.7536 -3.7799  0.7870
 3284SOL     OW21310   4.100   4.697   8.204 -0.3177  0.1991  0.0788
 3284SOL    HW121311   4.093   4.701   8.109  2.1416 -0.0740 -0.1281
 3284SOL    HW221312   4.153   4.619   8.217 -0.4634  0.0448 -0.2705
 3285SOL     OW21313   2.503   0.449  10.732 -0.8949 -0.1805  0.5918
 3285SOL    HW121314   2.487   0.541  10.751  1.7638  1.1019 -3.6221
 3285SOL    HW221315   2.597   0.444  10.749 -1.0366 -1.5163  1.0149
 3286SOL     OW21316   0.076   3.406   0.915 -0.1233  0.2024  0.2114
 3286SOL    HW121317   4.706   3.424   0.901 -0.1090 -1.7703 -2.5180
 3286SOL    HW221318   0.072   3.317   0.881 -1.5173 -1.0810  3.7421
 3287SOL     OW21319   0.781   0.516   8.482 -0.2805 -0.0977 -0.1700
 3287SOL    HW121320   0.787   0.609   8.459  0.6145  0.0508  0.7150
 3287SOL    HW221321   0.733   0.516   8.565  0.8790 -1.7635  0.4681
 3288SOL     OW21322   1.342   2.555   6.252 -0.5730  0.5265 -0.0584
 3288SOL    HW121323   1.433   2.523   6.247  0.1542  2.3453  1.5708
 3288SOL    HW221324   1.347   2.607   6.171 -0.8481  0.8667  0.1439
 3289SOL     OW21325   1.657   2.793   7.961  0.5340  0.2233 -0.0760
 3289SOL    HW121326   1.627   2.753   8.042  1.5935  0.0326  0.2251
 3289SOL    HW221327   1.645   2.888   7.968 -0.2108  0.1012  0.2537
 3290SOL     OW21328   4.283   2.766   3.121  0.0511 -0.3941  1.2035
 3290SOL    HW121329   4.325   2.681   3.133  3.1818  0.7815 -1.1349
 3290SOL    HW221330   4.210   2.756   3.182  1.0127  0.2957  2.4835
 3291SOL     OW21331   1.892   0.155   2.828 -0.1248 -0.9911 -0.1982
 3291SOL    HW121332   1.933   0.202   2.901 -1.3075  1.0129 -0.8156
 3291SOL    HW221333   1.931   0.200   2.752  1.0096 -1.3851  0.1554
 3292SOL     OW21334   2.008   4.415   3.171 -0.0812 -0.1679 -0.3064
 3292SOL    HW121335   1.921   4.403   3.131  0.8583 -0.3418 -2.3225
 3292SOL    HW221336   2.029   4.495   3.122  0.2627 -0.3133 -0.3950
 3293SOL     OW21337   0.167   2.200  10.165 -0.4375 -0.4082 -0.2779
 3293SOL    HW121338   0.221   2.254  10.223 -0.8479 -0.0767 -0.1989
 3293SOL    HW221339   0.134   2.142  10.233 -0.7750  0.8555  0.6412
 3294SOL     OW21340   3.273   0.917   6.497 -0.2695 -0.3011 -0.5941
 3294SOL    HW121341   3.217   0.912   6.575 -0.2298  0.8696 -0.4853
 3294SOL    HW221342   3.226   0.859   6.437  0.7413 -2.6195  0.8735
 3295SOL     OW21343   0.177   3.570   6.324  0.0060 -0.0240  0.2173
 3295SOL    HW121344   0.137   3.492   6.363 -0.4731  0.8856  1.5320
 3295SOL    HW221345   0.094   3.610   6.296  0.3231 -0.2645 -1.0633
 3296SOL     OW21346   2.672   1.157  10.207 -0.2831  0.2536  0.7858
 3296SOL    HW121347   2.668   1.251  10.226  0.8700  0.9846 -2.4971
 3296SOL    HW221348   2.640   1.119  10.288 -1.6889 -2.4058 -1.0301
 3297SOL     OW21349   0.026   0.313   1.171 -0.2115  0.1102  0.1313
 3297SOL    HW121350   0.063   0.227   1.190 -2.2389 -1.0456 -1.1467
 3297SOL    HW221351   0.033   0.306   1.076  2.0586  0.8218  0.2519
 3298SOL     OW21352   0.835   3.590   2.364 -0.6642  0.8925 -0.2099
 3298SOL    HW121353   0.871   3.553   2.445  0.1376  0.1382 -0.9088
 3298SOL    HW221354   0.909   3.570   2.306 -2.1667  2.0260 -2.5282
 3299SOL     OW21355   3.691   0.549   3.173 -0.2260  0.7462 -0.1170
 3299SOL    HW121356   3.618   0.610   3.184 -1.5000 -0.4261 -2.0934
 3299SOL    HW221357   3.723   0.548   3.263 -0.3894 -0.2394 -0.0750
 3300SOL     OW21358   0.466   2.288   8.424  0.0834 -0.3666  0.1745
 3300SOL    HW121359   0.472   2.363   8.364  1.0974  0.0912  0.8603
 3300SOL    HW221360   0.466   2.350   8.497  0.1145 -0.7220  0.4732
 3301SOL     OW21361   3.857   1.083   5.648  0.3354  0.6618 -0.6344
 3301SOL    HW121362   3.790   1.140   5.610 -1.2004  0.2982  1.5314
 3301SOL    HW221363   3.851   1.029   5.570 -1.0694 -0.0538 -0.0311
 3302SOL     OW21364   0.778   4.395  11.435  0.1370  0.5233  0.4419
 3302SOL    HW121365   0.789   4.302  11.454 -0.6922  0.0124 -1.5847
 3302SOL    HW221366   0.829   4.428  11.509  1.0167 -1.2971  0.6315
 3303SOL     OW21367   3.633   2.650   7.941 -0.6374  0.1441 -0.2014
 3303SOL    HW121368   3.705   2.713   7.949 -1.1809  0.8568 -1.0437
 3303SOL    HW221369   3.588   2.694   7.869 -0.1317 -2.0531 -1.8513
 3304SOL     OW21370   1.695   1.358   4.593  0.1407 -0.1712 -0.2144
 3304SOL    HW121371   1.690   1.390   4.683  0.4448 -0.2605 -0.1647
 3304SOL    HW221372   1.674   1.265   4.607 -1.7382  0.2917 -0.0055
 3305SOL     OW21373   0.028   1.560   4.745 -0.2825  0.9148  0.2310
 3305SOL    HW121374   0.005   1.535   4.834  0.1450  1.2953  0.4425
 3305SOL    HW221375   0.093   1.628   4.762  0.8975  0.0270 -0.7689
 3306SOL     OW21376   2.782   4.478  12.183  0.2653  0.1722  0.2555
 3306SOL    HW121377   2.716   4.540  12.155 -1.1120 -1.1797  0.5245
 3306SOL    HW221378   2.727   4.400  12.174  0.1837  0.4506 -1.6456
 3307SOL     OW21379   2.385   4.090  16.061  0.0034  0.1845 -0.2441
 3307SOL    HW121380   2.438   4.061  16.135  0.5806 -1.2401 -1.2156
 3307SOL    HW221381   2.327   4.156  16.099  0.0812 -0.1284  0.4192
 3308SOL     OW21382   0.318   3.100   3.324  0.0071 -0.1179  0.5307
 3308SOL    HW121383   0.315   3.178   3.379 -0.7457 -1.2977  2.1490
 3308SOL    HW221384   0.298   3.023   3.378  0.7513 -0.7289 -0.0504
 3309SOL     OW21385   3.074   3.662  13.995  0.3816 -0.7755 -0.1142
 3309SOL    HW121386   3.040   3.665  13.906 -1.3510 -2.2031  0.5076
 3309SOL    HW221387   3.094   3.569  14.006  0.0064 -0.8057  0.3278
 3310SOL     OW21388   3.109   0.669  10.964  0.4669 -0.2610  0.5107
 3310SOL    HW121389   3.062   0.748  10.935  1.2789 -0.5865 -1.6538
 3310SOL    HW221390   3.190   0.717  10.982  0.3499 -0.3472  1.2823
 3311SOL     OW21391   4.019   3.799  10.802  0.3504  0.0091 -0.4029
 3311SOL    HW121392   4.072   3.780  10.880 -0.2504 -1.5114 -0.3540
 3311SOL    HW221393   4.080   3.848  10.747  0.2682 -0.5215 -0.9702
 3312SOL     OW21394   4.722   3.485  13.531  0.1360 -0.5757 -0.5724
 3312SOL    HW121395   4.646   3.532  13.496 -1.2463 -2.5076 -0.1736
 3312SOL    HW221396   0.066   3.516  13.470 -0.8457 -1.5694 -2.1789
 3313SOL     OW21397   3.097   3.994  14.750  0.4870 -0.4176  0.1934
 3313SOL    HW121398   3.113   3.980  14.657 -1.5227  1.5736 -0.4309
 3313SOL    HW221399   3.155   4.066  14.773 -0.7605  0.5877  0.1750
 3314SOL     OW21400   4.510   4.685   5.370  0.3554  1.2001 -0.0944
 3314SOL    HW121401   4.569   4.622   5.329 -1.1661 -1.5989  2.0460
 3314SOL    HW221402   4.451   4.706   5.298  1.1993  1.3912 -0.7259
 3315SOL     OW21403   0.943   1.752   5.681  0.0723 -0.4364  0.2247
 3315SOL    HW121404   0.980   1.794   5.603 -0.3499 -1.2412 -0.4104
 3315SOL    HW221405   1.017   1.762   5.741 -0.3537  0.7238  0.5591
 3316SOL     OW21406   4.083   1.608  15.912 -0.1480  0.1397  0.0148
 3316SOL    HW121407   4.017   1.648  15.969  0.4316  1.4268 -0.2243
 3316SOL    HW221408   4.143   1.682  15.917 -1.0187  0.9265 -1.1874
 3317SOL     OW21409   0.363   1.204   5.440 -0.0797  0.3708 -0.1278
 3317SOL    HW121410   0.384   1.281   5.493 -0.5156  2.1373 -2.4681
 3317SOL    HW221411   0.268   1.217   5.430 -0.3624 -0.3333  1.6408
 3318SOL     OW21412   4.674   3.985  11.934  0.1463 -0.4515 -0.5600
 3318SOL    HW121413   4.634   3.962  12.018  1.2114  0.8156  0.2877
 3318SOL    HW221414   4.654   3.898  11.900  0.1597 -0.8185  0.3583
 3319SOL     OW21415   1.378   3.574  10.369 -0.1189  0.0904 -0.8423
 3319SOL    HW121416   1.378   3.573  10.465 -0.7427  2.8585 -0.8172
 3319SOL    HW221417   1.319   3.647  10.349 -2.3582 -1.0986  1.3404
 3320SOL     OW21418   1.090   0.721   1.732 -0.0891 -0.2203  0.1975
 3320SOL    HW121419   1.141   0.642   1.749  0.9612  0.8362  1.9469
 3320SOL    HW221420   1.145   0.798   1.718 -1.3918  0.3103 -2.0704
 3321SOL     OW21421   3.213   0.566  12.898 -0.3134 -0.0881 -0.5283
 3321SOL    HW121422   3.267   0.569  12.977  0.0159  0.4838 -0.7703
 3321SOL    HW221423   3.165   0.642  12.930 -0.8914  0.4934 -2.7785
 3322SOL     OW21424   0.822   2.748   6.361 -0.8105  0.3915  0.4273
 3322SOL    HW121425   0.810   2.839   6.335 -0.8222  0.8405  2.0247
 3322SOL    HW221426   0.907   2.726   6.324 -1.3540 -0.5015 -0.3070
 3323SOL     OW21427   2.347   2.032   5.670 -0.3252 -0.2418 -0.0473
 3323SOL    HW121428   2.430   1.985   5.672 -0.1614 -0.0290 -2.0106
 3323SOL    HW221429   2.291   1.963   5.634  0.1424 -1.2957  1.2667
 3324SOL     OW21430   1.723   0.891   5.808  0.4465 -0.2868  0.3521
 3324SOL    HW121431   1.743   0.934   5.891  1.1821 -1.4064  0.7600
 3324SOL    HW221432   1.694   0.809   5.848  1.8388 -0.6117  0.7044
 3325SOL     OW21433   1.669   3.036   8.070  0.2360 -0.5583 -0.3557
 3325SOL    HW121434   1.760   3.054   8.046  0.4256  0.8422  1.3325
 3325SOL    HW221435   1.652   3.079   8.154 -1.1974 -0.9734 -0.4229
 3326SOL     OW21436   1.177   1.046   3.957  0.0506  0.8355  0.7381
 3326SOL    HW121437   1.083   1.035   3.967 -0.3831 -0.3528 -4.9764
 3326SOL    HW221438   1.211   0.959   3.980  0.3177  0.1436 -2.2201
 3327SOL     OW21439   1.177   2.716   2.827 -0.2184  0.0189  0.0307
 3327SOL    HW121440   1.098   2.713   2.880  0.3795  2.1598  1.0620
 3327SOL    HW221441   1.181   2.812   2.821 -1.0605 -0.1788 -3.4428
 3328SOL     OW21442   0.946   3.783   6.827 -0.4449 -0.0657 -0.6850
 3328SOL    HW121443   1.017   3.766   6.888  1.1724 -0.2351 -2.5884
 3328SOL    HW221444   0.960   3.878   6.824 -2.2925  0.2052 -0.3164
 3329SOL     OW21445   4.351   3.943   7.749  0.0672 -0.1615 -0.3830
 3329SOL    HW121446   4.316   3.980   7.830 -0.8743 -4.1659  1.0311
 3329SOL    HW221447   4.435   3.908   7.781  1.1258  0.4417 -2.5054
 3330SOL     OW21448   0.866   0.754   2.313  0.1537 -0.1302 -0.2193
 3330SOL    HW121449   0.882   0.711   2.397  0.4977 -0.9312 -0.7015
 3330SOL    HW221450   0.868   0.847   2.337  0.2271 -0.4668  1.0679
 3331SOL     OW21451   2.249   2.280   0.369 -0.1933 -0.0869  0.2626
 3331SOL    HW121452   2.298   2.362   0.369 -0.7052  0.2155 -0.5036
 3331SOL    HW221453   2.312   2.219   0.409 -0.4938  0.1630  1.1076
 3332SOL     OW21454   0.095   3.529  12.883 -0.1829  0.1597 -0.3460
 3332SOL    HW121455   0.123   3.620  12.879  0.7552 -0.0815  0.9769
 3332SOL    HW221456   0.179   3.484  12.888 -0.7317 -0.9008 -0.6281
 3333SOL     OW21457   1.395   4.118   6.028 -0.0964 -0.1383  0.3393
 3333SOL    HW121458   1.340   4.095   5.953  0.6248 -2.3092  0.4727
 3333SOL    HW221459   1.432   4.203   6.007  1.3305 -0.7544  0.4082
 3334SOL     OW21460   3.727   1.102   4.641 -0.5036  0.0061 -0.7444
 3334SOL    HW121461   3.690   1.035   4.583  1.2854 -2.2721  0.7449
 3334SOL    HW221462   3.743   1.054   4.722 -0.6895  2.4832  0.7460
 3335SOL     OW21463   2.017   1.002   8.128 -0.4667  0.3247 -0.5767
 3335SOL    HW121464   1.987   0.912   8.114 -0.6805  0.2420  0.3800
 3335SOL    HW221465   2.106   0.987   8.161 -0.2920  0.4373 -1.0037
 3336SOL     OW21466   0.224   2.563   8.813  0.4437 -0.1341 -0.0244
 3336SOL    HW121467   0.160   2.620   8.770  0.1878 -0.5854 -0.2417
 3336SOL    HW221468   0.299   2.592   8.762  0.4461 -1.9306 -1.0208
 3337SOL     OW21469   0.288   1.231   0.936  0.1766  0.4267 -0.4103
 3337SOL    HW121470   0.355   1.178   0.893 -0.0347  0.6993 -1.0795
 3337SOL    HW221471   0.329   1.236   1.022  0.6773  0.5889 -0.6614
 3338SOL     OW21472   2.804   2.878  14.747 -0.7643 -0.2664 -0.0700
 3338SOL    HW121473   2.763   2.795  14.773  1.5120 -1.2241  0.4372
 3338SOL    HW221474   2.743   2.936  14.792  0.6284 -0.7406  2.4113
 3339SOL     OW21475   1.173   3.848   5.135 -0.0775  1.0097  0.2261
 3339SOL    HW121476   1.212   3.928   5.098 -1.2042  0.1553 -2.8107
 3339SOL    HW221477   1.080   3.870   5.128 -0.1499  0.6860  0.1986
 3340SOL     OW21478   2.004   2.678   3.913 -0.3162  0.5024 -0.1312
 3340SOL    HW121479   1.961   2.593   3.918 -0.7044  0.7827  1.5723
 3340SOL    HW221480   1.959   2.702   3.832  0.8001 -0.1816 -0.9530
 3341SOL     OW21481   2.317   2.510   8.789 -0.1538  0.5496 -0.0729
 3341SOL    HW121482   2.328   2.416   8.799 -0.5836  0.5991  0.9265
 3341SOL    HW221483   2.402   2.553   8.795  0.6807 -1.0544 -0.3846
 3342SOL     OW21484   0.345   1.558   6.811  0.6490 -0.2840  0.5415
 3342SOL    HW121485   0.279   1.624   6.832  0.5998 -0.7736  1.9275
 3342SOL    HW221486   0.322   1.553   6.718 -0.3120 -2.7016  0.9049
 3343SOL     OW21487   0.615   3.167   3.991  0.2677  0.3110  0.5081
 3343SOL    HW121488   0.710   3.160   3.983  0.2561  3.9943 -2.9206
 3343SOL    HW221489   0.598   3.085   4.038 -1.4838 -0.7902 -2.0640
 3344SOL     OW21490   3.657   0.653   5.617  0.0823  0.2289 -0.0779
 3344SOL    HW121491   3.656   0.615   5.705 -1.0694  0.8935  0.1921
 3344SOL    HW221492   3.741   0.617   5.586  1.2121  1.7906  1.1584
 3345SOL     OW21493   3.994   1.416   8.009 -0.1107 -0.5253 -0.1986
 3345SOL    HW121494   3.901   1.437   8.006  0.0476  0.5816  2.5710
 3345SOL    HW221495   4.013   1.406   8.102 -0.3690  1.6582  0.0991
 3346SOL     OW21496   1.786   0.490  13.246 -0.1197  0.1059 -0.3916
 3346SOL    HW121497   1.808   0.456  13.159  0.9146  1.2447 -0.5805
 3346SOL    HW221498   1.738   0.570  13.229  0.7136  0.1855 -2.4187
 3347SOL     OW21499   2.585   3.355   4.081 -0.3488  0.2256  0.1486
 3347SOL    HW121500   2.572   3.349   4.176  4.0714 -0.3327  0.7134
 3347SOL    HW221501   2.544   3.441   4.066 -0.9716 -0.0317  0.3524
 3348SOL     OW21502   0.456   1.192   3.491  0.2215  0.3385 -0.6185
 3348SOL    HW121503   0.465   1.223   3.581  0.2649  0.3273 -0.6188
 3348SOL    HW221504   0.372   1.228   3.462  0.5917  0.8387 -1.0823
 3349SOL     OW21505   4.691   2.353   8.451  0.2786  0.0394  0.9449
 3349SOL    HW121506   4.623   2.304   8.496 -1.6977  1.2670 -0.7184
 3349SOL    HW221507   0.046   2.298   8.462  0.9742  0.5646 -1.2009
 3350SOL     OW21508   4.182   1.972   9.255  0.5538  0.3034 -0.4169
 3350SOL    HW121509   4.185   1.876   9.255 -0.2762  0.2702  2.1654
 3350SOL    HW221510   4.267   1.999   9.289  0.3638 -0.7275  0.9055
 3351SOL     OW21511   0.654   1.136   4.797  0.1067 -0.0911 -0.0097
 3351SOL    HW121512   0.738   1.180   4.809 -0.6005  1.2554 -0.0339
 3351SOL    HW221513   0.657   1.078   4.873  2.0695  0.3181  0.2080
 3352SOL     OW21514   1.527   2.257   5.582 -0.2347  0.6251  0.0532
 3352SOL    HW121515   1.566   2.244   5.496  1.2755 -0.6815  0.9408
 3352SOL    HW221516   1.578   2.333   5.610  0.2815  0.3306 -0.0977
 3353SOL     OW21517   2.198   1.958   2.827  0.1356  0.0461 -0.2120
 3353SOL    HW121518   2.143   2.005   2.890 -1.3862 -2.4855  0.3371
 3353SOL    HW221519   2.195   2.030   2.764 -2.3491  0.0562 -0.1046
 3354SOL     OW21520   2.584   3.022   5.819 -0.4396  0.3622 -0.5514
 3354SOL    HW121521   2.508   3.049   5.870  0.3962  1.3795  0.1637
 3354SOL    HW221522   2.654   3.070   5.864 -1.0821 -0.8140  1.7139
 3355SOL     OW21523   3.292   0.396  11.786 -0.1510  0.6478  0.2473
 3355SOL    HW121524   3.282   0.491  11.788 -0.2728  0.6686 -1.7759
 3355SOL    HW221525   3.378   0.372  11.820  0.0716  0.2132 -0.6323
 3356SOL     OW21526   4.282   3.146   6.925 -0.2210 -0.0077  0.2528
 3356SOL    HW121527   4.259   3.069   6.976 -0.8612  0.4526  0.6719
 3356SOL    HW221528   4.377   3.151   6.931 -0.2156 -1.8901  1.6121
 3357SOL     OW21529   4.608   0.652   4.490 -0.0069  0.5986  0.4623
 3357SOL    HW121530   4.696   0.682   4.468 -0.0543  1.0573  0.9047
 3357SOL    HW221531   4.561   0.723   4.446 -0.4948 -1.0337 -1.6701
 3358SOL     OW21532   4.716   1.472  11.258  0.1413 -0.3214 -0.3452
 3358SOL    HW121533   0.035   1.460  11.344 -3.1404  0.7352  1.4327
 3358SOL    HW221534   4.631   1.438  11.289  0.9829 -1.1246  1.1106
 3359SOL     OW21535   1.490   4.035  14.606  0.0270 -0.0212 -0.1380
 3359SOL    HW121536   1.542   4.068  14.680  1.2853 -0.4434 -0.8228
 3359SOL    HW221537   1.551   4.013  14.536  0.0223 -1.5033  0.3368
 3360SOL     OW21538   2.773   2.385   6.177 -0.2148 -0.5831 -0.6624
 3360SOL    HW121539   2.740   2.424   6.258  2.5421  2.9381 -1.2262
 3360SOL    HW221540   2.709   2.412   6.112 -0.7187 -0.1797 -0.0009
 3361SOL     OW21541   3.763   0.490   2.325  0.7177  0.6125 -0.1379
 3361SOL    HW121542   3.739   0.465   2.235  1.7834  1.9656 -0.7986
 3361SOL    HW221543   3.683   0.509   2.372  0.2645 -2.1219  0.2329
 3362SOL     OW21544   3.236   2.038   9.445 -0.1743 -0.1818 -0.0839
 3362SOL    HW121545   3.246   2.118   9.497 -0.8618 -0.0903 -0.0922
 3362SOL    HW221546   3.143   2.033   9.469  0.1704 -0.7615  1.1324
 3363SOL     OW21547   0.546   0.392  11.905  0.4890  0.3450  0.6729
 3363SOL    HW121548   0.531   0.387  11.811 -1.5919  0.4253  1.0170
 3363SOL    HW221549   0.463   0.420  11.944 -0.5628 -0.5775 -0.9099
 3364SOL     OW21550   4.541   3.704   5.589 -0.2351 -0.1069 -0.1250
 3364SOL    HW121551   4.628   3.665   5.582  0.1869  1.6825 -4.3782
 3364SOL    HW221552   4.513   3.669   5.674 -3.4206  1.1190 -0.6792
 3365SOL     OW21553   0.587   4.186  11.768  0.1732  0.4011 -0.4317
 3365SOL    HW121554   0.554   4.097  11.782  1.5101  0.0316  0.2769
 3365SOL    HW221555   0.506   4.235  11.783  0.6078  0.8314  0.4913
 3366SOL     OW21556   3.410   1.099  11.508 -0.1138 -0.1268 -0.1548
 3366SOL    HW121557   3.472   1.164  11.475  1.2963 -0.5410  1.6036
 3366SOL    HW221558   3.325   1.136  11.485  0.1429  0.6228  0.1172
 3367SOL     OW21559   0.794   2.499   7.423 -0.6273  0.0749 -0.0134
 3367SOL    HW121560   0.703   2.520   7.444 -0.0996  2.9778 -0.5518
 3367SOL    HW221561   0.798   2.410   7.458 -1.3346  0.1538  0.2630
 3368SOL     OW21562   2.592   3.488   9.082  0.0199 -0.2605 -0.1798
 3368SOL    HW121563   2.502   3.495   9.114  0.1211  0.2547 -0.0085
 3368SOL    HW221564   2.631   3.556   9.137  2.3912  0.7012 -3.0313
 3369SOL     OW21565   0.054   0.140   3.220 -0.4168  0.7726 -0.6191
 3369SOL    HW121566   4.687   0.164   3.198  0.1145  1.9321 -1.5222
 3369SOL    HW221567   0.026   0.098   3.302  2.5863  1.7182  0.8847
 3370SOL     OW21568   0.104   1.072   7.338 -0.0963  1.2252  0.2444
 3370SOL    HW121569   0.031   1.027   7.380  1.8443 -1.0018  1.2164
 3370SOL    HW221570   0.120   1.143   7.400 -0.1240  2.2321 -0.9065
 3371SOL     OW21571   0.047   4.115   0.192 -0.5093 -0.0967 -0.3436
 3371SOL    HW121572   0.009   4.188   0.241  1.1530  0.9583 -0.5836
 3371SOL    HW221573   0.057   4.057   0.267  1.0940  0.8077  0.1575
 3372SOL     OW21574   1.166   4.245   0.304  0.1498  0.1686  0.1243
 3372SOL    HW121575   1.211   4.317   0.261  3.6251 -1.5559  0.8321
 3372SOL    HW221576   1.151   4.277   0.393  0.4920 -1.3065  0.7214
 3373SOL     OW21577   4.415   3.007   2.631  0.4880 -0.2630 -0.2273
 3373SOL    HW121578   4.386   2.948   2.700  0.0395  0.9330  0.6070
 3373SOL    HW221579   4.345   3.071   2.637 -0.1912 -0.8006 -2.6385
 3374SOL     OW21580   3.175   2.096   4.248  0.5312  0.4010  0.4389
 3374SOL    HW121581   3.111   2.098   4.319  2.2181  1.9155  1.9322
 3374SOL    HW221582   3.116   2.135   4.183 -1.4213 -2.2972  0.6072
 3375SOL     OW21583   3.655   1.222   6.151  0.0385 -0.2229  0.4506
 3375SOL    HW121584   3.711   1.216   6.074  1.4203  1.4476  1.3483
 3375SOL    HW221585   3.713   1.213   6.226 -0.0421  1.0417  0.6646
 3376SOL     OW21586   1.602   4.179   7.391 -0.2501 -0.2547  0.3861
 3376SOL    HW121587   1.543   4.186   7.316 -0.1457  0.2319  0.3516
 3376SOL    HW221588   1.610   4.268   7.425  0.2607 -0.7470  1.5645
 3377SOL     OW21589   3.370   3.981  10.169  0.6266  0.8854 -0.0738
 3377SOL    HW121590   3.344   3.906  10.223 -0.7401  0.6638 -1.0325
 3377SOL    HW221591   3.430   3.938  10.108 -1.7142 -0.3201 -1.5292
 3378SOL     OW21592   3.241   2.813  16.331  0.6747  0.1366 -0.1548
 3378SOL    HW121593   3.309   2.780  16.391 -0.9555 -1.0573  1.0233
 3378SOL    HW221594   3.295   2.862  16.269  1.9729  0.2065  1.0263
 3379SOL     OW21595   2.271   2.065   9.264 -0.5339  0.2824  0.2958
 3379SOL    HW121596   2.257   1.974   9.291  1.5546  0.6537  2.5969
 3379SOL    HW221597   2.180   2.086   9.244 -0.5381 -0.0610 -0.0386
 3380SOL     OW21598   1.159   1.899   0.868 -0.0873 -0.1589 -0.2542
 3380SOL    HW121599   1.250   1.920   0.847 -0.9842  1.0617 -2.9010
 3380SOL    HW221600   1.135   1.887   0.776 -0.0682  0.4235 -0.3382
 3381SOL     OW21601   2.827   3.939   7.965 -0.2292  0.2850 -0.1170
 3381SOL    HW121602   2.908   3.910   8.007  0.0096 -0.5064 -1.1045
 3381SOL    HW221603   2.796   3.856   7.929 -0.2108  0.0899  0.3286
 3382SOL     OW21604   3.808   0.024   8.604  0.4303  0.3642  0.1443
 3382SOL    HW121605   3.793   0.041   8.697 -1.0188 -2.6883  0.4764
 3382SOL    HW221606   3.717   0.027   8.576 -0.5377  1.6270  3.3798
 3383SOL     OW21607   4.185   3.023   2.434  0.0927  0.1885  0.6908
 3383SOL    HW121608   4.213   2.957   2.371  0.2856 -1.8347  2.9219
 3383SOL    HW221609   4.233   2.998   2.513 -1.5627  0.5326  1.8126
 3384SOL     OW21610   1.097   4.537   3.966 -0.3617  0.1754  0.2335
 3384SOL    HW121611   1.191   4.550   3.956 -0.0399 -0.4217  2.4496
 3384SOL    HW221612   1.061   4.612   3.919 -0.1273  0.8997  1.2022
 3385SOL     OW21613   0.808   0.314   5.207  0.0239  0.0190  0.8024
 3385SOL    HW121614   0.756   0.256   5.262 -0.5711 -0.5046 -0.3114
 3385SOL    HW221615   0.891   0.266   5.208 -1.1857 -2.0465  1.1605
 3386SOL     OW21616   1.566   2.021  12.233  0.1590  0.2522 -0.0804
 3386SOL    HW121617   1.631   2.080  12.195 -2.1736  0.9638 -2.9226
 3386SOL    HW221618   1.615   1.975  12.301  0.6872  0.5467 -0.2619
 3387SOL     OW21619   1.726   2.112   6.422 -0.2515 -0.1601  0.0098
 3387SOL    HW121620   1.734   2.018   6.443 -0.5786  0.0125  0.9038
 3387SOL    HW221621   1.651   2.132   6.477  0.9366  3.7801  0.1669
 3388SOL     OW21622   2.966   4.299  11.772 -0.2556 -0.1092 -0.3222
 3388SOL    HW121623   3.055   4.270  11.791  0.6152  1.4832 -1.9921
 3388SOL    HW221624   2.915   4.222  11.796 -0.0377  0.0135  0.5562
 3389SOL     OW21625   3.003   3.233  17.627  0.5043 -0.0682  0.2584
 3389SOL    HW121626   2.998   3.250  17.533 -0.6863 -0.0608  0.3216
 3389SOL    HW221627   3.023   3.320  17.661 -0.3310  1.1849 -2.4096
 3390SOL     OW21628   2.748   2.166   3.301  0.3601  0.2646 -0.0171
 3390SOL    HW121629   2.734   2.075   3.277  1.2595 -0.1895  1.1907
 3390SOL    HW221630   2.707   2.178   3.387 -0.3201 -1.0007 -0.1707
 3391SOL     OW21631   2.371   3.967   7.692  0.5144 -0.1324  0.0389
 3391SOL    HW121632   2.322   3.961   7.774 -0.9600  3.3449 -0.5845
 3391SOL    HW221633   2.429   4.036   7.724 -0.6560  0.3738  1.0592
 3392SOL     OW21634   0.689   0.834   1.203 -0.7213  0.0830 -0.2127
 3392SOL    HW121635   0.643   0.764   1.249 -1.1040 -0.1294 -0.9185
 3392SOL    HW221636   0.707   0.899   1.271 -0.3414 -0.7686  0.4981
 3393SOL     OW21637   3.371   3.380   6.658 -0.2747 -0.0903  1.0442
 3393SOL    HW121638   3.452   3.412   6.619 -1.0528  2.7087  1.7602
 3393SOL    HW221639   3.377   3.423   6.743  0.1961  2.7489 -0.4290
 3394SOL     OW21640   0.475   4.114  10.471 -0.1124  0.0218 -0.4293
 3394SOL    HW121641   0.425   4.033  10.479 -0.4845  0.1647 -1.2455
 3394SOL    HW221642   0.542   4.103  10.539 -0.5738  1.5620  0.2633
 3395SOL     OW21643   4.124   1.351   8.247  0.0642  0.0200 -0.2222
 3395SOL    HW121644   4.083   1.314   8.326  0.5908  2.9476  1.4226
 3395SOL    HW221645   4.199   1.401   8.280 -0.4599  0.0729  0.9108
 3396SOL     OW21646   2.569   3.263   6.574  0.1276 -0.5274 -0.0086
 3396SOL    HW121647   2.599   3.194   6.633 -0.9652  1.8331  3.3208
 3396SOL    HW221648   2.637   3.331   6.578 -0.4026  0.1391 -2.6103
 3397SOL     OW21649   2.643   2.367  11.229  0.2888  0.6058 -0.1438
 3397SOL    HW121650   2.693   2.358  11.310  0.4462  2.4328 -0.0390
 3397SOL    HW221651   2.592   2.441  11.264  0.3411  1.3634 -1.6583
 3398SOL     OW21652   0.984   0.188   7.259 -0.0847  0.1399 -0.1727
 3398SOL    HW121653   0.909   0.137   7.227 -1.4634  1.1693  1.4599
 3398SOL    HW221654   0.949   0.234   7.335  0.1553 -0.7692  0.4861
 3399SOL     OW21655   1.168   0.164   9.080  0.4628  0.7313 -0.0087
 3399SOL    HW121656   1.226   0.101   9.036  0.4006 -0.3444  1.4720
 3399SOL    HW221657   1.205   0.152   9.167 -2.4688  1.2401  1.2890
 3400SOL     OW21658   0.081   3.937  11.635  0.2304  0.0710  0.2573
 3400SOL    HW121659   0.010   3.874  11.646  0.6120 -0.7110 -1.6433
 3400SOL    HW221660   0.080   3.949  11.540  3.0093 -1.7171 -0.0200
 3401SOL     OW21661   2.233   3.228   1.940 -0.8001 -0.1871  0.4156
 3401SOL    HW121662   2.273   3.313   1.961  0.7549 -0.4844 -1.3206
 3401SOL    HW221663   2.292   3.168   1.985 -3.6556 -3.0160  0.3487
 3402SOL     OW21664   3.703   4.227  10.669 -0.7235 -0.6325  0.6243
 3402SOL    HW121665   3.788   4.261  10.643 -1.3622  1.0642  0.7670
 3402SOL    HW221666   3.727   4.138  10.694  0.9588 -0.1372  0.7359
 3403SOL     OW21667   0.233   1.319   5.107 -0.7693  0.4232  0.0371
 3403SOL    HW121668   0.266   1.396   5.153  0.8100 -0.6638  0.6882
 3403SOL    HW221669   0.312   1.296   5.058 -0.1915 -0.7122  1.5063
 3404SOL     OW21670   1.447   2.278  12.741  0.4039  0.0029  0.2270
 3404SOL    HW121671   1.494   2.265  12.659  0.9825  0.7102  0.4504
 3404SOL    HW221672   1.438   2.188  12.772  2.6646  0.1016  1.1466
 3405SOL     OW21673   4.024   2.399   6.457 -0.1212  0.0620 -0.1149
 3405SOL    HW121674   3.952   2.422   6.516  1.2998 -0.1854  1.7318
 3405SOL    HW221675   3.970   2.410   6.379 -0.8396 -0.4763  0.2974
 3406SOL     OW21676   2.923   2.075   8.707  0.8333  0.4127 -0.8710
 3406SOL    HW121677   2.836   2.039   8.690  0.9369 -0.0476 -0.4311
 3406SOL    HW221678   2.918   2.068   8.802 -3.5474 -2.3982 -1.2769
 3407SOL     OW21679   3.816   3.797   9.115  0.1401  0.4106  0.4041
 3407SOL    HW121680   3.728   3.762   9.127  0.6293 -0.3686  1.7995
 3407SOL    HW221681   3.830   3.797   9.020  0.8502  0.6834  0.5046
 3408SOL     OW21682   0.328   2.425   7.132  0.1170 -0.0087  0.7552
 3408SOL    HW121683   0.274   2.460   7.062  0.0707 -1.1771  0.2096
 3408SOL    HW221684   0.295   2.336   7.123  0.7085 -0.2750  1.2333
 3409SOL     OW21685   3.727   2.501   8.354  0.0774  0.4971  0.4628
 3409SOL    HW121686   3.724   2.577   8.297  1.8491 -0.9698 -1.5455
 3409SOL    HW221687   3.635   2.492   8.380  0.2641  1.9643  1.6128
 3410SOL     OW21688   0.170   3.060   6.641  0.4715 -0.5399 -0.2744
 3410SOL    HW121689   0.172   3.155   6.655 -4.2431 -0.5680  0.4616
 3410SOL    HW221690   0.174   3.028   6.731 -1.6138  1.3621  0.4799
 3411SOL     OW21691   3.119   2.621   2.604 -0.1872 -0.5774  0.8418
 3411SOL    HW121692   3.187   2.673   2.561 -1.5002  0.1413 -0.3671
 3411SOL    HW221693   3.045   2.638   2.545  2.5656  2.0676 -1.7999
 3412SOL     OW21694   1.358   4.234   3.717 -0.3911  0.0200  0.5930
 3412SOL    HW121695   1.380   4.323   3.688  3.0596 -0.2881  2.2467
 3412SOL    HW221696   1.429   4.182   3.679  0.3210  0.1333  1.7897
 3413SOL     OW21697   3.924   1.161   8.973  0.0254 -0.7196  0.2301
 3413SOL    HW121698   4.003   1.118   9.005  0.3670 -0.3180 -0.0626
 3413SOL    HW221699   3.848   1.106   8.988 -0.6980 -0.1703 -1.4292
 3414SOL     OW21700   4.032   0.389   3.728 -0.5654 -0.0184 -0.2047
 3414SOL    HW121701   4.014   0.405   3.821 -0.1591  1.7403 -0.4335
 3414SOL    HW221702   4.118   0.347   3.732  0.2280  1.7240  1.5125
 3415SOL     OW21703   1.860   2.072   8.118  0.2043 -0.0347 -0.1280
 3415SOL    HW121704   1.942   2.032   8.089  1.1396  3.3829 -2.2771
 3415SOL    HW221705   1.865   2.051   8.211  2.5296  1.7763  0.1418
 3416SOL     OW21706   2.809   3.825  14.709 -0.2660 -0.0334  0.5504
 3416SOL    HW121707   2.726   3.827  14.755 -1.5408 -1.6132 -1.6965
 3416SOL    HW221708   2.787   3.829  14.616 -1.4843  1.3957  0.9079
 3417SOL     OW21709   0.048   1.034   9.054 -0.2298 -0.5181 -0.5027
 3417SOL    HW121710   0.000   1.097   9.000 -0.0589 -0.9763 -1.2019
 3417SOL    HW221711   0.117   1.086   9.095 -0.8912 -1.3527  1.6606
 3418SOL     OW21712   1.005   3.931  17.286  0.0390 -0.3402  0.3619
 3418SOL    HW121713   1.064   3.876  17.235 -1.0412 -2.6769  1.6249
 3418SOL    HW221714   0.946   3.956  17.214 -0.9441  2.3254  2.0834
 3419SOL     OW21715   0.985   4.403   6.466  0.0088 -0.0894  0.3067
 3419SOL    HW121716   0.995   4.380   6.558 -1.0036  0.0213  0.4425
 3419SOL    HW221717   1.070   4.367   6.439 -0.9933 -2.2218  0.0057
 3420SOL     OW21718   3.675   4.451   4.038 -0.0012  0.0653 -0.2997
 3420SOL    HW121719   3.641   4.441   4.127 -0.3360 -1.1314 -0.5605
 3420SOL    HW221720   3.762   4.411   4.046 -0.0631 -0.0399 -0.1404
 3421SOL     OW21721   0.305   4.697  11.357 -0.1275  0.6630 -0.3262
 3421SOL    HW121722   0.390   4.707  11.315  0.9619 -1.8904  1.3090
 3421SOL    HW221723   0.249   4.689  11.280 -3.1145  0.7007  1.8471
 3422SOL     OW21724   1.397   3.803   8.964 -1.0262 -0.1041  0.1124
 3422SOL    HW121725   1.352   3.742   9.023 -0.8517 -0.6257 -0.2999
 3422SOL    HW221726   1.486   3.799   8.999 -1.6568 -1.7158  1.5132
 3423SOL     OW21727   2.224   0.916   3.762 -0.1377 -0.2025  0.3919
 3423SOL    HW121728   2.251   0.826   3.775  2.2103  0.3709 -0.6805
 3423SOL    HW221729   2.280   0.970   3.817 -0.4903 -0.8043  1.3364
 3424SOL     OW21730   3.472   0.772   7.428  0.7440 -0.2956 -0.4474
 3424SOL    HW121731   3.560   0.735   7.439  0.4326 -0.3934  1.5929
 3424SOL    HW221732   3.461   0.791   7.334 -1.3771  2.2983  0.3446
 3425SOL     OW21733   2.963   2.554   8.746 -0.2362  0.0885  1.0655
 3425SOL    HW121734   2.933   2.517   8.829 -1.5676 -1.7592 -0.2482
 3425SOL    HW221735   2.936   2.645   8.760 -3.3104 -0.7725  0.7236
 3426SOL     OW21736   2.732   2.778   7.455 -0.3282  0.0118  0.3895
 3426SOL    HW121737   2.756   2.823   7.374  1.1967 -3.1613 -0.8991
 3426SOL    HW221738   2.794   2.828   7.508 -1.2570  1.4809  0.0956
 3427SOL     OW21739   4.171   1.947   7.880 -0.7333  0.0395  0.4140
 3427SOL    HW121740   4.162   1.853   7.895 -0.2843 -0.0505  0.1414
 3427SOL    HW221741   4.226   1.972   7.955  0.4755 -2.9330  0.5318
 3428SOL     OW21742   1.949   2.671   6.568  0.5111 -0.2514  0.4956
 3428SOL    HW121743   1.987   2.592   6.606 -0.9518 -1.2456 -0.1504
 3428SOL    HW221744   2.024   2.722   6.536 -0.5122  0.3081 -0.9789
 3429SOL     OW21745   3.230   2.065   7.048 -0.2572  0.5848 -0.0601
 3429SOL    HW121746   3.166   1.996   7.035 -1.2253  1.1756  1.4578
 3429SOL    HW221747   3.168   2.129   7.083  0.4771  0.4844  1.4514
 3430SOL     OW21748   2.684   2.887   5.629  0.4233 -0.4678  0.1967
 3430SOL    HW121749   2.643   2.927   5.706 -0.3182 -1.4460  0.3047
 3430SOL    HW221750   2.764   2.940   5.624 -0.0177  0.1696 -0.1521
 3431SOL     OW21751   0.003   4.407   7.435 -0.6739  0.3953 -0.3334
 3431SOL    HW121752   0.057   4.416   7.513 -1.9854  0.8053  0.5249
 3431SOL    HW221753   0.066   4.362   7.379 -0.8801 -0.6068  0.2413
 3432SOL     OW21754   0.481   0.396   3.707  0.0220  0.4036 -0.0585
 3432SOL    HW121755   0.431   0.477   3.694 -0.5780  0.2333  1.1941
 3432SOL    HW221756   0.418   0.326   3.691 -0.7586  1.1650 -0.3458
 3433SOL     OW21757   3.957   4.154   6.780  0.0202  0.3035 -0.5571
 3433SOL    HW121758   3.941   4.143   6.874  3.1243 -0.7272 -0.1613
 3433SOL    HW221759   3.998   4.240   6.766  0.1136  0.2915 -0.3529
 3434SOL     OW21760   0.058   4.549   0.686  0.5308  0.0319 -0.3650
 3434SOL    HW121761   0.105   4.475   0.648 -0.5195 -0.0211 -1.5463
 3434SOL    HW221762   0.074   4.616   0.620 -1.1583 -0.4509 -1.2606
 3435SOL     OW21763   3.855   0.464   0.183  0.2188  0.9056 -0.2223
 3435SOL    HW121764   3.927   0.409   0.153  0.4953  0.7741  0.6934
 3435SOL    HW221765   3.793   0.457   0.110  0.0930 -0.1984 -0.0186
 3436SOL     OW21766   2.893   1.645   5.917  0.0052 -0.2018  0.3017
 3436SOL    HW121767   2.899   1.740   5.927 -2.4877  0.0359 -0.4627
 3436SOL    HW221768   2.842   1.620   5.994 -0.1050 -1.1230 -0.0662
 3437SOL     OW21769   2.865   0.500   6.744  0.5605 -0.1095 -0.5237
 3437SOL    HW121770   2.899   0.575   6.793  1.0054 -0.3177 -0.5174
 3437SOL    HW221771   2.786   0.476   6.792 -1.4264  6.4365 -0.4826
 3438SOL     OW21772   4.703   4.051  16.690  0.4719 -0.0141 -0.1728
 3438SOL    HW121773   4.626   4.081  16.736  1.1283 -2.1566  2.3123
 3438SOL    HW221774   0.004   3.974  16.740  1.2960 -1.1823 -2.3504
 3439SOL     OW21775   1.040   3.949  12.391  0.0795 -0.7289 -0.5741
 3439SOL    HW121776   1.044   4.033  12.346  0.8111  0.7292  2.2752
 3439SOL    HW221777   1.128   3.943  12.428  0.3144 -1.3157 -1.2167
 3440SOL     OW21778   0.841   1.891   7.512 -0.9395 -0.0947 -0.0153
 3440SOL    HW121779   0.904   1.850   7.452  0.2739  1.4837  0.1658
 3440SOL    HW221780   0.899   1.937   7.573 -0.5566  1.7296 -1.7399
 3441SOL     OW21781   2.452   4.145   6.470  0.2616 -0.6926 -0.6460
 3441SOL    HW121782   2.502   4.226   6.464  1.1091 -1.0792  1.4371
 3441SOL    HW221783   2.497   4.095   6.402 -0.0030 -0.6086 -0.8849
 3442SOL     OW21784   0.423   2.188   6.898  0.2642 -0.3566  0.5059
 3442SOL    HW121785   0.496   2.232   6.942  1.2300 -1.0639 -0.3793
 3442SOL    HW221786   0.453   2.097   6.887 -0.3083 -0.9288  3.6067
 3443SOL     OW21787   0.629   3.987   3.298  0.2567  1.4968 -0.9390
 3443SOL    HW121788   0.608   3.896   3.319  2.4329  1.2289  0.0274
 3443SOL    HW221789   0.566   3.998   3.226 -0.5511  1.1406 -0.2847
 3444SOL     OW21790   2.437   2.541   7.629 -0.3128 -0.0525  0.0945
 3444SOL    HW121791   2.493   2.521   7.554  0.9849 -0.0110  1.0623
 3444SOL    HW221792   2.365   2.478   7.620 -2.6236  2.6215 -0.2925
 3445SOL     OW21793   3.249   4.487   3.701  0.1186  0.1632 -0.4120
 3445SOL    HW121794   3.197   4.437   3.763  0.9137  0.8116  0.7894
 3445SOL    HW221795   3.189   4.525   3.638 -0.9265  0.1250  0.5716
 3446SOL     OW21796   4.276   0.953  15.013 -0.4984 -0.0706 -0.9712
 3446SOL    HW121797   4.313   0.881  15.065  0.2240 -0.4943 -2.0646
 3446SOL    HW221798   4.267   1.024  15.077  0.8728  2.1022 -3.1483
 3447SOL     OW21799   1.335   3.103   6.267 -0.5179  0.2560  0.2990
 3447SOL    HW121800   1.250   3.059   6.259 -0.1691 -0.3517 -0.0905
 3447SOL    HW221801   1.315   3.195   6.282 -0.9442 -0.2130  2.6643
 3448SOL     OW21802   1.927   3.431   3.504  0.3831  0.9566 -0.0851
 3448SOL    HW121803   1.899   3.522   3.509 -1.6451  0.2655  1.2280
 3448SOL    HW221804   2.022   3.434   3.492  0.4583 -0.2030  0.1690
 3449SOL     OW21805   0.610   4.676   3.560  0.4552  0.0523 -0.4367
 3449SOL    HW121806   0.628   4.633   3.477 -0.0371 -2.4556  0.7624
 3449SOL    HW221807   0.658   0.031   3.533  0.4022  0.2698  0.0867
 3450SOL     OW21808   1.566   1.738   4.386  0.3871  0.4828 -0.1209
 3450SOL    HW121809   1.657   1.711   4.388  0.6508  1.2455 -1.9894
 3450SOL    HW221810   1.573   1.798   4.460  0.1326 -1.3250  1.3854
 3451SOL     OW21811   1.038   1.543   6.045 -0.3208  0.2390  0.4443
 3451SOL    HW121812   1.054   1.607   6.114 -2.0045  1.1631 -0.0081
 3451SOL    HW221813   0.987   1.485   6.103  0.4964  0.5310  1.4473
 3452SOL     OW21814   3.329   2.782  13.303 -0.5880  0.0641 -0.4384
 3452SOL    HW121815   3.413   2.809  13.265  0.5889 -0.7848  1.5706
 3452SOL    HW221816   3.323   2.828  13.386 -2.9082  2.4352 -1.9344
 3453SOL     OW21817   0.494   1.787   6.375  0.2277 -0.2516 -0.2794
 3453SOL    HW121818   0.499   1.718   6.440 -1.3264 -0.8947 -0.8321
 3453SOL    HW221819   0.536   1.745   6.300  2.1268  0.4928  0.3724
 3454SOL     OW21820   2.362   4.683   0.829 -0.3665  0.2088 -0.2867
 3454SOL    HW121821   2.312   0.017   0.770 -0.2509 -1.6434 -2.1765
 3454SOL    HW221822   2.375   0.023   0.900  1.6291  1.6016 -1.8465
 3455SOL     OW21823   2.445   0.438   7.312  0.0044  0.3410 -0.2375
 3455SOL    HW121824   2.533   0.475   7.306 -0.3375  1.0238 -1.0480
 3455SOL    HW221825   2.424   0.430   7.218 -0.4259  2.9493 -0.3742
 3456SOL     OW21826   4.701   1.092   3.494  0.3943 -0.0547  0.2567
 3456SOL    HW121827   4.716   1.149   3.569 -1.3886 -0.4889  0.9469
 3456SOL    HW221828   0.035   1.133   3.429  2.2633  0.1748  2.0260
 3457SOL     OW21829   2.652   1.614  10.571  0.1720 -0.2306  0.4909
 3457SOL    HW121830   2.581   1.558  10.539  0.1339  1.0638 -1.6888
 3457SOL    HW221831   2.628   1.702  10.544  0.7504 -0.5470 -1.0720
 3458SOL     OW21832   3.505   4.447  11.976  0.3947 -0.1817 -0.3223
 3458SOL    HW121833   3.422   4.408  11.951 -1.2382  2.0743  1.4788
 3458SOL    HW221834   3.560   4.422  11.902 -0.8182  0.2458 -1.3717
 3459SOL     OW21835   0.739   4.199   5.492 -0.4582  0.2909  0.4217
 3459SOL    HW121836   0.724   4.113   5.531 -1.9675  0.5594  0.4444
 3459SOL    HW221837   0.834   4.204   5.496 -0.3018 -2.9100  0.4481
 3460SOL     OW21838   1.860   0.908   0.323 -0.8732 -0.0836  0.4733
 3460SOL    HW121839   1.852   0.820   0.361  0.0092 -0.4385 -0.1743
 3460SOL    HW221840   1.955   0.910   0.321 -0.9342  0.5048 -1.9648
 3461SOL     OW21841   0.590   0.889   3.316 -0.3667 -0.0084  0.6208
 3461SOL    HW121842   0.601   0.926   3.228 -1.5715  1.6469  1.1873
 3461SOL    HW221843   0.565   0.799   3.293  1.0949 -0.5832  1.2697
 3462SOL     OW21844   0.364   1.019   5.050 -0.5844 -0.0878  0.1364
 3462SOL    HW121845   0.311   1.064   5.116  0.1133 -1.5019  1.6646
 3462SOL    HW221846   0.373   1.092   4.989 -2.8595 -0.4281 -0.5913
 3463SOL     OW21847   2.155   2.695   3.588 -0.4936  0.4949  0.1148
 3463SOL    HW121848   2.121   2.613   3.552  0.7909  0.1041 -0.1937
 3463SOL    HW221849   2.074   2.745   3.603 -0.8064  0.2190 -0.6200
 3464SOL     OW21850   2.174   1.328   3.006 -0.2129 -0.0820 -0.7333
 3464SOL    HW121851   2.106   1.264   2.982  0.2880  0.2875 -3.1180
 3464SOL    HW221852   2.147   1.401   2.950  1.9574  1.0493 -0.2991
 3465SOL     OW21853   1.934   3.010  10.113 -0.0632  0.4089  0.5978
 3465SOL    HW121854   1.997   3.008  10.041  0.2741  0.6918  0.8839
 3465SOL    HW221855   1.991   2.970  10.179  1.2407  1.7132  0.2577
 3466SOL     OW21856   2.833   2.739   3.108 -0.0553 -0.2764  0.7637
 3466SOL    HW121857   2.919   2.701   3.124 -0.9216 -0.9629  3.8036
 3466SOL    HW221858   2.790   2.675   3.051 -0.4894  1.1585 -0.5225
 3467SOL     OW21859   2.417   0.815   7.855  0.2052 -0.9228 -0.8767
 3467SOL    HW121860   2.445   0.724   7.840  0.4150 -1.4409  2.5502
 3467SOL    HW221861   2.322   0.820   7.844  0.0600  2.2329  1.8012
 3468SOL     OW21862   4.557   0.775   1.223  0.3452  0.2413  0.2762
 3468SOL    HW121863   4.549   0.738   1.135 -1.0512  2.1904 -0.3893
 3468SOL    HW221864   4.577   0.697   1.275  1.3564 -1.0385 -1.9808
 3469SOL     OW21865   0.186   1.769   6.837 -0.2554 -0.6878 -0.1314
 3469SOL    HW121866   0.121   1.778   6.767 -0.5419  2.4383  0.5381
 3469SOL    HW221867   0.123   1.775   6.908 -1.3053  1.9908 -1.2972
 3470SOL     OW21868   2.606   0.947   3.747  0.0062  0.6735 -0.0094
 3470SOL    HW121869   2.577   0.974   3.833 -0.0534  1.0257 -0.1420
 3470SOL    HW221870   2.700   0.933   3.764 -0.2911  0.6573  1.5821
 3471SOL     OW21871   4.127   3.124   4.635 -0.4924  0.3912 -0.3305
 3471SOL    HW121872   4.111   3.211   4.598  1.6681 -0.9858 -4.6091
 3471SOL    HW221873   4.160   3.146   4.722  0.5216 -0.3255 -0.5276
 3472SOL     OW21874   2.589   1.293   4.002 -0.8145  0.1746 -0.1067
 3472SOL    HW121875   2.594   1.270   3.909 -0.4231  2.9923 -0.7691
 3472SOL    HW221876   2.557   1.209   4.035 -1.8518 -0.5002 -2.7960
 3473SOL     OW21877   4.182   0.588   7.640  0.4371 -0.0900 -1.2236
 3473SOL    HW121878   4.143   0.525   7.581  1.6857 -0.5947 -1.4969
 3473SOL    HW221879   4.249   0.536   7.683 -2.0864 -2.3884 -0.0544
 3474SOL     OW21880   4.257   3.354   5.430  0.4227  0.1462 -0.4392
 3474SOL    HW121881   4.308   3.354   5.510 -1.4275  1.2346  0.7338
 3474SOL    HW221882   4.328   3.362   5.366 -0.6473 -0.9899 -1.7785
 3475SOL     OW21883   0.967   1.856   9.063 -0.0606 -0.4866 -0.0144
 3475SOL    HW121884   0.896   1.820   9.117 -0.1961  0.9048  0.7295
 3475SOL    HW221885   0.970   1.938   9.113 -2.2042  0.7828 -1.9821
 3476SOL     OW21886   0.961   0.044   1.785 -0.2815  0.1321  0.6512
 3476SOL    HW121887   0.986   0.008   1.700  1.2161  0.0235  1.1392
 3476SOL    HW221888   0.891   0.104   1.758 -1.5117 -1.4167  0.3644
 3477SOL     OW21889   3.979   2.388   4.091 -0.5111  0.3303  0.2685
 3477SOL    HW121890   4.016   2.462   4.043 -2.3016  0.3415 -1.0754
 3477SOL    HW221891   4.003   2.317   4.031 -0.0013 -0.9284  1.9394
 3478SOL     OW21892   1.645   0.219   6.517 -0.1188  0.0368 -0.1595
 3478SOL    HW121893   1.629   0.252   6.429  1.8911 -1.1586 -0.9859
 3478SOL    HW221894   1.720   0.271   6.546 -0.3210  0.4590 -0.3896
 3479SOL     OW21895   4.322   0.172   7.081  0.2971 -0.2311  0.5339
 3479SOL    HW121896   4.278   0.119   7.015  1.9555  0.1655 -0.8860
 3479SOL    HW221897   4.246   0.218   7.117  1.8848  1.4435  1.7632
 3480SOL     OW21898   2.550   4.357   3.571 -0.4676  0.4187  0.1427
 3480SOL    HW121899   2.467   4.310   3.578 -0.4662  0.1156 -1.9249
 3480SOL    HW221900   2.538   4.425   3.504 -0.6616 -1.7858 -2.0470
 3481SOL     OW21901   1.823   4.532  17.448  0.4650 -0.0259 -0.2932
 3481SOL    HW121902   1.734   4.563  17.437  0.2417 -0.9172 -1.0235
 3481SOL    HW221903   1.879   4.610  17.453  0.8906 -0.4055  0.9991
 3482SOL     OW21904   4.032   2.907   9.096 -0.2981  0.1269  0.3387
 3482SOL    HW121905   4.104   2.967   9.076  0.4276 -1.3232 -1.4443
 3482SOL    HW221906   3.957   2.947   9.051  0.8541  0.6186 -1.1618
 3483SOL     OW21907   4.494   3.500   7.727 -0.5281 -0.4260 -0.6598
 3483SOL    HW121908   4.576   3.543   7.703  0.6896 -2.0292  0.6001
 3483SOL    HW221909   4.535   3.415   7.748  1.4053  0.9743  1.2063
 3484SOL     OW21910   1.410   0.513   3.279  0.2641  0.2690 -0.0938
 3484SOL    HW121911   1.407   0.504   3.184  0.3634  1.0026 -0.1653
 3484SOL    HW221912   1.495   0.474   3.302  1.3213  1.6440 -1.6589
 3485SOL     OW21913   1.857   2.773   4.701 -0.0361  0.1475 -0.1992
 3485SOL    HW121914   1.791   2.802   4.765  1.0120 -0.2342  1.0660
 3485SOL    HW221915   1.934   2.820   4.733 -1.3106  2.6936 -0.8605
 3486SOL     OW21916   0.952   1.338   5.413  0.2853  0.0521  0.0399
 3486SOL    HW121917   0.968   1.244   5.426  0.0243 -0.0214 -0.1598
 3486SOL    HW221918   1.040   1.371   5.428 -0.0013 -0.4376  2.7788
 3487SOL     OW21919   3.812   3.534   4.354  0.0679 -0.2369 -0.4137
 3487SOL    HW121920   3.836   3.483   4.432 -0.8975 -0.0372  0.0146
 3487SOL    HW221921   3.752   3.468   4.317 -2.2472  1.3703  0.4490
 3488SOL     OW21922   3.807   2.647  11.816  0.0190  0.7574 -0.4200
 3488SOL    HW121923   3.763   2.662  11.899 -1.1111  1.1294 -1.0903
 3488SOL    HW221924   3.843   2.559  11.820  0.3626  0.8575 -1.1934
 3489SOL     OW21925   3.405   2.717   8.537  0.2551 -0.3523  0.5641
 3489SOL    HW121926   3.414   2.629   8.500  0.1090 -0.4397  0.7336
 3489SOL    HW221927   3.456   2.703   8.617 -1.6214  2.0296  2.1671
 3490SOL     OW21928   4.099   3.063   2.930  0.5446 -0.1952  0.2369
 3490SOL    HW121929   4.075   3.093   2.843  0.1145 -0.4065  0.2855
 3490SOL    HW221930   4.193   3.082   2.933  0.7939 -1.2859 -0.8511
 3491SOL     OW21931   0.761   1.928  12.539  0.2423 -0.7070 -0.2562
 3491SOL    HW121932   0.821   1.956  12.470  0.7060  0.3665  0.5729
 3491SOL    HW221933   0.682   1.977  12.517 -0.2956 -1.6578 -0.4411
 3492SOL     OW21934   2.880   3.952  11.742 -0.5565  0.9141  0.5498
 3492SOL    HW121935   2.835   4.016  11.687 -0.8122  2.6777  2.8227
 3492SOL    HW221936   2.856   3.979  11.830  1.0320  1.9021  0.6681
 3493SOL     OW21937   2.664   1.428  10.240  0.2419 -0.4956  0.0834
 3493SOL    HW121938   2.694   1.518  10.253  1.0744 -0.7319 -0.1970
 3493SOL    HW221939   2.615   1.420  10.322 -1.3875 -0.6668 -0.9163
 3494SOL     OW21940   2.960   3.313   5.570 -0.1725 -0.6511 -0.0191
 3494SOL    HW121941   3.006   3.346   5.648 -0.2071  0.4320 -0.4622
 3494SOL    HW221942   2.874   3.354   5.574 -0.2936 -1.0515  1.7519
 3495SOL     OW21943   2.376   2.352   0.099 -0.4738 -0.2354  0.2074
 3495SOL    HW121944   2.368   2.259   0.116  1.5283 -0.4752 -0.2045
 3495SOL    HW221945   2.330   2.355   0.015 -0.5332 -2.9843  0.1466
 3496SOL     OW21946   2.688   1.244   2.465  0.1716 -0.0410  0.0530
 3496SOL    HW121947   2.768   1.225   2.514  0.1231 -0.5798 -0.0751
 3496SOL    HW221948   2.649   1.318   2.511 -0.6275 -0.9142  0.7439
 3497SOL     OW21949   1.358   3.344  14.065 -0.4401  0.7833 -0.0763
 3497SOL    HW121950   1.276   3.332  14.113  1.2432 -1.0170  2.3367
 3497SOL    HW221951   1.420   3.319  14.133  1.7044 -1.9571 -3.0683
 3498SOL     OW21952   1.439   2.850   9.748 -0.1867  0.3603 -0.1531
 3498SOL    HW121953   1.456   2.944   9.754 -1.3953  0.4288  2.3486
 3498SOL    HW221954   1.497   2.828   9.822 -0.6164 -1.2649 -0.2956
 3499SOL     OW21955   0.774   3.259  11.572 -0.2724 -0.2934 -0.1370
 3499SOL    HW121956   0.710   3.329  11.561 -0.3880 -0.4204 -0.2828
 3499SOL    HW221957   0.821   3.249  11.489  1.2483  0.0834  0.6864
 3500SOL     OW21958   2.859   3.333  13.689 -0.0623  0.0906  0.2217
 3500SOL    HW121959   2.871   3.238  13.686 -0.4518  0.1177 -2.5534
 3500SOL    HW221960   2.873   3.360  13.598  2.9999 -0.7572  0.4383
 3501SOL     OW21961   4.152   4.013   4.025  0.2663  0.9097 -0.0275
 3501SOL    HW121962   4.070   4.027   4.072  1.6074  4.3502  1.2673
 3501SOL    HW221963   4.126   4.028   3.933 -0.9692  0.7635  0.2941
 3502SOL     OW21964   0.206   4.255   7.246 -0.4668  0.1369  0.2817
 3502SOL    HW121965   0.194   4.184   7.184  0.2462  0.3712 -0.1282
 3502SOL    HW221966   0.262   4.214   7.313  0.8882 -0.0348 -0.9633
 3503SOL     OW21967   0.226   4.217   6.224  0.6887  0.4133 -0.2478
 3503SOL    HW121968   0.300   4.214   6.163  0.1655  0.6535 -0.8881
 3503SOL    HW221969   0.147   4.206   6.172 -0.1888 -1.1837  1.4376
 3504SOL     OW21970   0.034   2.884  16.461 -0.3696 -0.1574  0.1194
 3504SOL    HW121971   0.079   2.810  16.422  1.2844  1.2470 -0.6263
 3504SOL    HW221972   4.666   2.854  16.472  0.1727 -2.0222 -0.5239
 3505SOL     OW21973   0.215   4.262  11.394  0.2051 -0.8408 -0.0905
 3505SOL    HW121974   0.284   4.287  11.455 -0.5300  0.0283  0.3847
 3505SOL    HW221975   0.236   4.320  11.320 -0.0602 -1.0997 -0.3656
 3506SOL     OW21976   1.362   2.609   9.662  1.0186 -0.1762  0.2831
 3506SOL    HW121977   1.334   2.578   9.748 -1.0022  0.7848 -0.0285
 3506SOL    HW221978   1.374   2.702   9.681  1.1899  0.5124 -3.1232
 3507SOL     OW21979   4.005   2.834   4.743  0.2674 -0.4192  0.0002
 3507SOL    HW121980   4.084   2.784   4.763  0.4415  0.6433  1.9749
 3507SOL    HW221981   4.026   2.916   4.787  0.0967 -0.7091  0.6171
 3508SOL     OW21982   2.636   4.062  15.871 -0.2003 -0.3909  0.1213
 3508SOL    HW121983   2.691   4.130  15.910  0.8802  0.1249 -2.2561
 3508SOL    HW221984   2.655   3.986  15.925 -0.6420 -0.7528 -0.2276
 3509SOL     OW21985   3.103   0.852   7.238  0.0502  0.4227  0.4033
 3509SOL    HW121986   3.025   0.802   7.262  0.1660 -0.7368 -1.5564
 3509SOL    HW221987   3.112   0.898   7.321 -1.7638  1.8803 -0.2196
 3510SOL     OW21988   1.155   1.494   2.528  0.3484 -0.0393 -0.3715
 3510SOL    HW121989   1.128   1.510   2.618  1.5390  1.7273 -0.3316
 3510SOL    HW221990   1.246   1.525   2.527  0.3074  0.0505 -1.9338
 3511SOL     OW21991   3.299   4.693   4.773  0.1543 -0.2016  0.2796
 3511SOL    HW121992   3.272   0.050   4.817 -0.2041  0.3667 -0.9994
 3511SOL    HW221993   3.385   4.718   4.740  0.5107 -1.7994 -0.0313
 3512SOL     OW21994   0.098   3.378  17.436 -0.4815  0.4903 -0.3216
 3512SOL    HW121995   0.175   3.433  17.417  2.1139 -2.2417  2.3525
 3512SOL    HW221996   0.113   3.347  17.525 -0.9755 -1.6854 -1.0038
 3513SOL     OW21997   4.505   2.836  15.855 -0.3374 -0.4584  0.0398
 3513SOL    HW121998   4.473   2.771  15.917  0.5910 -1.0305 -0.0874
 3513SOL    HW221999   4.598   2.827  15.876 -1.1067 -2.1470  2.7720
 3514SOL     OW22000   1.944   2.076   5.999 -0.0330 -0.9629  0.2494
 3514SOL    HW122001   1.995   2.120   6.067  0.6228 -1.5737  0.1557
 3514SOL    HW222002   1.962   1.988   6.034 -1.2920 -1.9980 -1.6896
 3515SOL     OW22003   0.469   2.259   2.388  0.0784  0.1810  0.5458
 3515SOL    HW122004   0.549   2.300   2.421 -0.3944  0.1714  1.7094
 3515SOL    HW222005   0.475   2.267   2.293  0.2276 -0.6959  0.4857
 3516SOL     OW22006   0.528   2.972   9.869  0.1602 -0.2796 -0.0149
 3516SOL    HW122007   0.567   2.950   9.954  0.9362  2.0529  0.2400
 3516SOL    HW222008   0.505   2.883   9.845 -0.1691 -0.0624 -0.4939
 3517SOL     OW22009   0.773   2.940   7.274  0.3638 -0.2001 -0.0287
 3517SOL    HW122010   0.802   2.864   7.224  2.2007 -1.1595  2.4725
 3517SOL    HW222011   0.704   2.895   7.324  0.0059  1.4380  0.9681
 3518SOL     OW22012   1.164   2.546   8.039 -0.1546  0.9776  0.0829
 3518SOL    HW122013   1.236   2.580   8.092  1.3006 -2.9237  0.6132
 3518SOL    HW222014   1.186   2.594   7.959  0.5809  2.3733  1.1302
 3519SOL     OW22015   2.919   3.644   7.462 -0.6341  0.2158  0.8019
 3519SOL    HW122016   2.946   3.702   7.391 -0.7851  0.5043  0.9807
 3519SOL    HW222017   2.878   3.566   7.424 -0.4757  0.6910 -0.3249
 3520SOL     OW22018   0.671   0.527   6.612 -0.2335  0.2733  0.6629
 3520SOL    HW122019   0.686   0.594   6.680 -0.0864 -1.1740  2.0636
 3520SOL    HW222020   0.654   0.451   6.668 -0.7670 -1.0326 -1.2823
 3521SOL     OW22021   0.297   2.654   8.543 -0.9442 -0.3961 -0.0126
 3521SOL    HW122022   0.372   2.596   8.554 -0.9514 -0.4354 -0.1705
 3521SOL    HW222023   0.346   2.736   8.553  0.2182 -1.1104  0.1319
 3522SOL     OW22024   2.466   4.309  12.113 -0.6654 -0.2511  0.2389
 3522SOL    HW122025   2.547   4.304  12.062 -1.1854  0.7798 -0.6809
 3522SOL    HW222026   2.416   4.274  12.040 -1.4008  2.5666 -0.6077
 3523SOL     OW22027   4.180   2.170   4.555 -0.0993  0.1731 -0.3989
 3523SOL    HW122028   4.168   2.215   4.472 -0.4683  2.1925  0.7751
 3523SOL    HW222029   4.132   2.229   4.613 -0.5422 -0.1989 -0.3861
 3524SOL     OW22030   3.126   1.652   8.885 -0.1239  0.0449 -0.3670
 3524SOL    HW122031   3.175   1.687   8.959 -1.6756  0.3155  0.5447
 3524SOL    HW222032   3.119   1.730   8.830  2.1709  0.8931  0.5417
 3525SOL     OW22033   3.040   0.332  11.697 -0.1725 -0.4995  0.2505
 3525SOL    HW122034   3.025   0.244  11.733  0.1718 -0.4917  0.4141
 3525SOL    HW222035   3.133   0.346  11.717  0.2325 -1.1364 -1.1924
 3526SOL     OW22036   4.351   4.504   8.957  0.4921  0.0127 -0.1421
 3526SOL    HW122037   4.417   4.544   9.013 -0.3815  1.3430 -0.0446
 3526SOL    HW222038   4.279   4.495   9.020  0.7932  2.2315  0.5255
 3527SOL     OW22039   4.469   3.442   7.438  0.4118  0.0933 -0.3685
 3527SOL    HW122040   4.430   3.449   7.525 -0.4857  0.4109 -0.7938
 3527SOL    HW222041   4.396   3.470   7.383 -1.0748 -1.5626  0.7581
 3528SOL     OW22042   2.798   0.405   9.903 -0.1169  0.0706  0.0684
 3528SOL    HW122043   2.831   0.400   9.813  1.4336 -2.6818  0.7873
 3528SOL    HW222044   2.705   0.410   9.881 -0.3186 -0.4773  0.8053
 3529SOL     OW22045   1.854   0.869  15.534  0.2882 -0.4551  0.2911
 3529SOL    HW122046   1.939   0.865  15.490 -0.4283  0.0840 -1.1218
 3529SOL    HW222047   1.833   0.777  15.517 -0.3244 -0.3954  0.7362
 3530SOL     OW22048   2.902   1.780   7.875  0.9700 -0.0705  0.0760
 3530SOL    HW122049   2.904   1.691   7.910  0.1982 -0.9007 -1.9838
 3530SOL    HW222050   2.851   1.821   7.944  1.6071  1.6804 -0.5016
 3531SOL     OW22051   0.078   3.219   8.439  0.3975 -0.1811 -0.4418
 3531SOL    HW122052   0.000   3.266   8.410 -0.0515 -0.6376  0.0044
 3531SOL    HW222053   0.117   3.202   8.354  0.5730  0.3451 -0.4634
 3532SOL     OW22054   1.308   0.600  13.077  0.2399 -0.2939 -0.1147
 3532SOL    HW122055   1.304   0.524  13.019  0.5293 -0.1845 -0.2783
 3532SOL    HW222056   1.383   0.583  13.134  0.2525  0.2710  0.0341
 3533SOL     OW22057   3.726   1.131   8.523 -0.1650  0.2968  0.4017
 3533SOL    HW122058   3.722   1.172   8.437  2.1073  1.0330  0.6441
 3533SOL    HW222059   3.789   1.066   8.491  0.4913  0.3838  1.4881
 3534SOL     OW22060   4.617   2.700   7.765  0.0087  0.1274 -0.6942
 3534SOL    HW122061   4.575   2.784   7.784  1.6382  1.0698 -1.3244
 3534SOL    HW222062   4.548   2.660   7.711  0.5499  0.7274 -1.8339
 3535SOL     OW22063   0.672   4.322   4.888  0.1793 -0.3033  0.4569
 3535SOL    HW122064   0.718   4.238   4.890 -1.1074 -1.0157  0.3848
 3535SOL    HW222065   0.655   4.342   4.980  1.1107  2.6232 -0.0126
 3536SOL     OW22066   3.740   3.252   8.075  0.0627  0.3582  0.3995
 3536SOL    HW122067   3.670   3.189   8.058 -0.7881  1.2840  0.5320
 3536SOL    HW222068   3.766   3.265   7.984 -0.0777  1.2178  0.4829
 3537SOL     OW22069   3.833   3.529   5.155  0.4778  0.4243  0.6990
 3537SOL    HW122070   3.823   3.462   5.222  0.3338  0.1854  0.4402
 3537SOL    HW222071   3.927   3.540   5.142  0.0663  1.1845 -1.6880
 3538SOL     OW22072   0.844   3.429  10.598  0.5603 -0.5665  0.1069
 3538SOL    HW122073   0.790   3.373  10.653  3.3000 -1.5794  1.7255
 3538SOL    HW222074   0.926   3.380  10.600 -0.6017 -2.3755  3.3082
 3539SOL     OW22075   2.574   1.092   7.467 -0.0464  0.1801 -0.1809
 3539SOL    HW122076   2.592   1.022   7.529  0.3342 -2.5119 -3.3604
 3539SOL    HW222077   2.484   1.116   7.489 -0.3876 -2.4306  1.1544
 3540SOL     OW22078   2.309   3.397   3.914  0.2888 -0.1300  0.1214
 3540SOL    HW122079   2.343   3.384   3.825 -2.1114 -0.9234 -0.6986
 3540SOL    HW222080   2.348   3.319   3.954 -3.0969 -1.6694  0.4273
 3541SOL     OW22081   2.717   3.382  16.757  0.1503  0.0440  0.2572
 3541SOL    HW122082   2.764   3.307  16.719  1.5156  1.2049 -0.3263
 3541SOL    HW222083   2.646   3.342  16.806  0.4198  1.3306  1.6812
 3542SOL     OW22084   2.590   0.180   8.706 -0.4554  0.2737  0.0679
 3542SOL    HW122085   2.615   0.110   8.646 -0.5221 -1.0560  1.6228
 3542SOL    HW222086   2.677   0.200   8.742  0.3344 -2.0405 -0.5734
 3543SOL     OW22087   2.633   1.243   8.779  0.0090 -0.2342 -0.6874
 3543SOL    HW122088   2.617   1.334   8.756 -1.1683 -0.6947 -1.7471
 3543SOL    HW222089   2.688   1.211   8.708 -1.1765  0.6675 -2.0111
 3544SOL     OW22090   1.348   1.601   4.350 -0.1214  0.0304  1.5620
 3544SOL    HW122091   1.433   1.645   4.357 -2.3689  4.2417  2.1853
 3544SOL    HW222092   1.373   1.510   4.366 -1.1744 -0.4266  0.6024
 3545SOL     OW22093   2.498   0.283   6.331 -0.4660 -0.5689  0.2919
 3545SOL    HW122094   2.432   0.250   6.393 -2.1678 -0.1657 -1.2855
 3545SOL    HW222095   2.459   0.367   6.305  0.8363 -0.1986 -0.4453
 3546SOL     OW22096   0.254   4.710   7.153 -0.0204  0.1299  0.0406
 3546SOL    HW122097   0.176   0.018   7.198 -0.5178  0.7303 -1.2149
 3546SOL    HW222098   0.223   0.008   7.065 -0.8017  1.2848  0.5948
 3547SOL     OW22099   1.284   4.640   5.296  0.2950 -0.1457  0.1931
 3547SOL    HW122100   1.378   4.654   5.287 -0.1299  2.3946 -0.2021
 3547SOL    HW222101   1.260   4.695   5.370  0.6598 -1.9258  1.6266
 3548SOL     OW22102   2.069   2.085  14.654 -0.0827  0.9083 -0.2561
 3548SOL    HW122103   1.997   2.147  14.640 -0.3017  0.5705 -0.6410
 3548SOL    HW222104   2.146   2.117  14.608  1.0858 -1.6700 -0.1037
 3549SOL     OW22105   0.920   3.293   9.794 -0.5699  0.6627 -0.0269
 3549SOL    HW122106   0.998   3.249   9.760 -1.1178  0.5855 -1.1774
 3549SOL    HW222107   0.896   3.232   9.863 -3.1964  0.1740 -1.3825
 3550SOL     OW22108   2.674   0.777   4.645  0.1612  0.0284  0.2108
 3550SOL    HW122109   2.652   0.834   4.719 -0.3299 -0.1350  0.1916
 3550SOL    HW222110   2.712   0.701   4.689 -1.1004 -0.7785 -0.1121
 3551SOL     OW22111   4.116   0.507   4.267  0.0856 -0.5633  0.2288
 3551SOL    HW122112   4.210   0.494   4.280 -0.0108 -1.4388  0.0544
 3551SOL    HW222113   4.109   0.601   4.284 -0.4786 -0.5323 -0.1804
 3552SOL     OW22114   0.665   2.010  12.822  0.2082 -0.1589  0.0705
 3552SOL    HW122115   0.633   1.965  12.744  0.9716  0.1477 -0.4164
 3552SOL    HW222116   0.578   2.024  12.861  0.2445  1.0682 -0.2695
 3553SOL     OW22117   4.314   1.855   2.741  0.1978 -0.5050 -0.1838
 3553SOL    HW122118   4.253   1.820   2.806 -1.1100  0.6485 -0.7858
 3553SOL    HW222119   4.266   1.918   2.686  0.0396 -1.6633 -1.3574
 3554SOL     OW22120   2.105   1.150   7.497  0.0069 -0.2256 -0.3567
 3554SOL    HW122121   2.027   1.162   7.443  1.2325 -2.2516 -2.5654
 3554SOL    HW222122   2.074   1.195   7.575  0.2139 -2.5465  1.0723
 3555SOL     OW22123   2.424   2.276   6.446  0.5091  0.1732 -0.4060
 3555SOL    HW122124   2.435   2.347   6.509 -1.4126 -0.2945  0.4531
 3555SOL    HW222125   2.350   2.220   6.469 -0.3131  0.8612 -1.3015
 3556SOL     OW22126   1.164   3.215   3.035  0.1588  0.4954 -0.1397
 3556SOL    HW122127   1.184   3.235   2.943 -0.3526 -0.1012 -0.3817
 3556SOL    HW222128   1.079   3.261   3.037 -0.6511 -0.9744 -0.5072
 3557SOL     OW22129   0.987   4.075   2.487  1.0569  0.3451  0.3993
 3557SOL    HW122130   0.962   4.017   2.559 -0.5788  1.0496  0.4080
 3557SOL    HW222131   1.004   4.158   2.533  1.1285  0.0570  0.8876
 3558SOL     OW22132   0.663   4.138  13.369 -0.8805 -0.1305 -0.5985
 3558SOL    HW122133   0.625   4.226  13.371 -1.7617 -0.4522 -3.2023
 3558SOL    HW222134   0.592   4.079  13.396  0.2477 -0.9147  0.6571
 3559SOL     OW22135   1.046   3.147   8.886  0.3563 -0.0709 -0.0492
 3559SOL    HW122136   1.013   3.176   8.971  1.2844  1.1117 -0.1002
 3559SOL    HW222137   0.973   3.102   8.843  0.3064  0.1238 -0.1658
 3560SOL     OW22138   1.209   1.125   4.771  0.1901  0.3372 -0.2874
 3560SOL    HW122139   1.162   1.057   4.723 -0.1001 -0.7489  1.5429
 3560SOL    HW222140   1.140   1.166   4.824 -1.3749 -1.7000 -0.7526
 3561SOL     OW22141   1.018   0.444   3.633  0.2770 -0.1352  0.2690
 3561SOL    HW122142   0.930   0.482   3.634  0.9268  1.3865  0.0858
 3561SOL    HW222143   1.062   0.527   3.651  2.9695 -1.6941  1.0135
 3562SOL     OW22144   0.741   2.294   6.267 -0.1342 -0.3866 -0.2794
 3562SOL    HW122145   0.756   2.320   6.177 -0.3308  1.3528  0.1911
 3562SOL    HW222146   0.697   2.370   6.306  2.1983  0.3369  0.9090
 3563SOL     OW22147   3.693   0.924   2.788  0.1894  0.0963 -0.4094
 3563SOL    HW122148   3.775   0.966   2.761  1.4547 -0.7034  2.2269
 3563SOL    HW222149   3.729   0.868   2.856  0.2882 -1.3375 -1.6479
 3564SOL     OW22150   3.421   3.945   6.904 -0.2628 -0.0868 -0.2037
 3564SOL    HW122151   3.407   3.901   6.820  1.1402  0.4766 -0.7357
 3564SOL    HW222152   3.475   3.878   6.946  0.0140 -0.6702 -1.5159
 3565SOL     OW22153   3.533   2.410   7.460 -0.1644  0.2081  0.4029
 3565SOL    HW122154   3.602   2.458   7.415  0.3243 -1.1911 -0.3282
 3565SOL    HW222155   3.459   2.471   7.460  0.5446  1.0651  0.4420
 3566SOL     OW22156   4.701   3.293  16.425 -0.5155  0.7476  0.3339
 3566SOL    HW122157   0.001   3.236  16.499 -0.2743 -0.1356 -0.4190
 3566SOL    HW222158   4.715   3.381  16.460  2.7321  1.0528 -1.7504
 3567SOL     OW22159   3.913   3.441  14.812 -0.1032 -0.0074 -0.2880
 3567SOL    HW122160   3.891   3.349  14.796 -1.2215  0.3381 -0.7391
 3567SOL    HW222161   3.930   3.428  14.905 -1.4400 -2.4497 -0.3796
 3568SOL     OW22162   0.463   1.749   2.898 -0.3892 -0.6231  0.4213
 3568SOL    HW122163   0.490   1.657   2.905  0.6575 -0.3003  0.6095
 3568SOL    HW222164   0.436   1.755   2.807  3.3655 -0.8894 -0.7136
 3569SOL     OW22165   1.576   2.602  14.582  0.5617 -0.2825 -0.1452
 3569SOL    HW122166   1.606   2.681  14.536 -0.6972 -0.5122 -1.3570
 3569SOL    HW222167   1.657   2.557  14.607  0.2983 -0.8481 -0.3116
 3570SOL     OW22168   4.546   3.623   5.841 -0.3908 -0.0343 -0.4610
 3570SOL    HW122169   4.496   3.632   5.922 -0.8373 -1.3706 -0.5819
 3570SOL    HW222170   4.631   3.627   5.885  0.7194 -0.8817 -2.5328
 3571SOL     OW22171   0.195   2.049   6.876  0.4129 -0.3021 -0.6155
 3571SOL    HW122172   0.271   2.098   6.907  0.9215  0.1509 -2.5832
 3571SOL    HW222173   0.225   1.960   6.898 -2.1789 -0.8995  0.5083
 3572SOL     OW22174   2.233   1.234   6.268 -0.1867 -0.1385  0.0401
 3572SOL    HW122175   2.323   1.205   6.258 -0.2713 -0.4893  0.2521
 3572SOL    HW222176   2.246   1.327   6.252  0.9418 -0.2474  0.3273
 3573SOL     OW22177   0.159   2.745  12.541  0.1515 -0.0991 -0.7509
 3573SOL    HW122178   0.186   2.826  12.498 -0.1804  0.3937 -0.0449
 3573SOL    HW222179   0.176   2.680  12.473  0.1100  1.8850 -2.6370
 3574SOL     OW22180   2.951   1.914  16.630 -0.5072 -0.3307  0.6200
 3574SOL    HW122181   2.891   1.980  16.664  1.0520  1.9743 -1.0625
 3574SOL    HW222182   2.914   1.831  16.659 -1.7976  0.5131  1.3929
 3575SOL     OW22183   3.445   2.474   8.404 -0.2511 -0.5251 -0.2696
 3575SOL    HW122184   3.405   2.390   8.384 -0.6015 -0.4373  0.0608
 3575SOL    HW222185   3.415   2.515   8.322 -2.8273  0.4939  1.1899
 3576SOL     OW22186   0.893   3.479   4.025 -0.2255 -0.2740 -0.0311
 3576SOL    HW122187   0.798   3.471   4.015 -0.5495  2.1228  1.0559
 3576SOL    HW222188   0.904   3.574   4.036  1.2118 -0.1879 -2.2605
 3577SOL     OW22189   0.188   1.715   4.487 -0.5514 -0.6145 -0.3298
 3577SOL    HW122190   0.140   1.797   4.499 -2.1109 -1.5949  0.2193
 3577SOL    HW222191   0.190   1.699   4.393 -0.7545  2.6603 -0.8770
 3578SOL     OW22192   1.138   1.355   4.374  0.1877 -0.1936  0.2648
 3578SOL    HW122193   1.166   1.365   4.465 -1.1554 -2.1872  0.8950
 3578SOL    HW222194   1.184   1.429   4.334  0.9303 -0.6344  0.3082
 3579SOL     OW22195   0.347   2.790   5.535  0.4472  0.0838 -0.6617
 3579SOL    HW122196   0.346   2.877   5.495 -1.2712  0.0945 -0.6005
 3579SOL    HW222197   0.328   2.741   5.455 -1.0410 -0.4745  0.0427
 3580SOL     OW22198   1.971   4.494  12.655  0.1986 -0.1602 -0.1683
 3580SOL    HW122199   2.016   4.566  12.700 -0.1890  0.8615 -1.4292
 3580SOL    HW222200   2.043   4.441  12.622  0.9197  0.0899  1.0144
 3581SOL     OW22201   4.516   0.577  16.356 -0.1638  0.2898 -0.4013
 3581SOL    HW122202   4.428   0.575  16.320 -0.7678  3.3103  0.9397
 3581SOL    HW222203   4.549   0.488  16.340 -1.4715 -0.3204  0.2924
 3582SOL     OW22204   1.823   0.799   1.683 -0.1663 -0.1778 -0.8191
 3582SOL    HW122205   1.738   0.840   1.697  0.3868  0.0685  1.8609
 3582SOL    HW222206   1.894   0.858   1.707  1.5457 -2.2473 -0.6881
 3583SOL     OW22207   1.672   2.260   0.050  0.7115 -0.2681 -0.0347
 3583SOL    HW122208   1.645   2.178   0.008  0.4099 -0.2778  0.1818
 3583SOL    HW222209   1.764   2.256   0.024  0.7156  0.4488 -0.1342
 3584SOL     OW22210   0.829   1.145   5.187  0.0316 -0.0280 -0.0084
 3584SOL    HW122211   0.791   1.103   5.264  0.6250 -1.0834 -0.2912
 3584SOL    HW222212   0.772   1.115   5.117 -0.2567  0.2904  0.0928
 3585SOL     OW22213   4.719   0.500   8.168 -0.2403 -0.1653  0.3022
 3585SOL    HW122214   4.698   0.449   8.247  1.6224 -1.1148  0.1857
 3585SOL    HW222215   0.064   0.554   8.209  1.2258 -0.6216 -1.5417
 3586SOL     OW22216   4.174   3.011  16.304  0.2568 -0.2230 -0.8273
 3586SOL    HW122217   4.237   3.057  16.248  0.2857 -1.0683 -1.5111
 3586SOL    HW222218   4.102   3.001  16.241 -1.6400  0.2267  1.3023
 3587SOL     OW22219   1.550   0.162  10.141  0.0211  0.0342 -0.2747
 3587SOL    HW122220   1.569   0.113  10.061 -1.0289  1.1354 -1.2028
 3587SOL    HW222221   1.626   0.139  10.195 -0.4246 -4.1569 -1.3961
 3588SOL     OW22222   1.133   0.719  10.023  0.0438  0.2022  0.5027
 3588SOL    HW122223   1.138   0.667   9.943  0.6463  0.3006  0.4747
 3588SOL    HW222224   1.211   0.775  10.021 -0.4497  0.8927  0.6830
 3589SOL     OW22225   2.259   2.021   5.192 -0.2377 -0.3275  0.0834
 3589SOL    HW122226   2.300   2.005   5.277  1.0170 -0.8393 -0.6175
 3589SOL    HW222227   2.174   2.048   5.226  0.2368  1.0397  0.1767
 3590SOL     OW22228   3.471   0.507   7.096  0.0771 -0.0299 -0.8126
 3590SOL    HW122229   3.445   0.580   7.040 -1.9501  0.9087  1.3475
 3590SOL    HW222230   3.433   0.542   7.177 -1.0434 -0.8888 -0.9766
 3591SOL     OW22231   1.900   2.030   1.391 -0.6607  0.9549  0.1051
 3591SOL    HW122232   1.841   2.069   1.326 -0.0227  0.9278 -0.4898
 3591SOL    HW222233   1.842   1.962   1.426 -1.9626  1.4423 -1.0720
 3592SOL     OW22234   4.333   1.155  12.938 -0.1846  0.2537 -0.1072
 3592SOL    HW122235   4.354   1.064  12.918 -1.5628 -0.4918  1.8998
 3592SOL    HW222236   4.282   1.149  13.018 -0.2569 -5.3502 -0.5717
 3593SOL     OW22237   1.546   0.777   2.482 -0.1943  0.4829 -0.0053
 3593SOL    HW122238   1.569   0.753   2.392  0.7556 -1.1669  0.6783
 3593SOL    HW222239   1.503   0.696   2.506  3.4118 -1.1865  0.8295
 3594SOL     OW22240   4.110   0.111  12.976  0.5650 -0.3279 -0.1283
 3594SOL    HW122241   4.157   0.062  13.044  1.6364  2.7529  1.3754
 3594SOL    HW222242   4.161   0.108  12.895  0.6665  1.1814 -0.1339
 3595SOL     OW22243   3.703   0.812  15.398 -0.1145  0.0536 -0.2344
 3595SOL    HW122244   3.619   0.846  15.430  0.5484  2.5117 -1.0726
 3595SOL    HW222245   3.748   0.806  15.482  2.3364  0.1031 -1.5760
 3596SOL     OW22246   1.461   1.788   3.039 -0.1253  0.2961 -0.2225
 3596SOL    HW122247   1.462   1.698   3.005  0.3512 -0.5556  2.0144
 3596SOL    HW222248   1.407   1.765   3.115 -0.5062 -1.1327 -0.9211
 3597SOL     OW22249   2.684   3.616   6.084  0.3200 -0.2767  0.0446
 3597SOL    HW122250   2.712   3.688   6.141  0.4477  0.0837 -0.4714
 3597SOL    HW222251   2.760   3.558   6.085 -0.8315 -1.7804 -0.1308
 3598SOL     OW22252   3.046   4.666   2.539 -0.0506  0.2199  0.0831
 3598SOL    HW122253   3.087   0.018   2.496 -2.3936  1.1505 -0.5117
 3598SOL    HW222254   2.960   4.669   2.499 -0.4263  2.6111  1.0943
 3599SOL     OW22255   0.787   1.372   4.240 -0.2322 -0.0446 -0.3436
 3599SOL    HW122256   0.807   1.458   4.203  2.5051 -0.2387  0.7358
 3599SOL    HW222257   0.796   1.322   4.158  0.3599  1.0987 -0.9691
 3600SOL     OW22258   2.061   2.325   7.030  0.3703 -0.7539  0.2910
 3600SOL    HW122259   2.063   2.239   6.987  1.2864 -0.0681 -1.0271
 3600SOL    HW222260   2.036   2.389   6.963 -0.7788 -1.1676  0.3335
 3601SOL     OW22261   3.649   3.954  12.458  0.2362  0.2937 -0.0825
 3601SOL    HW122262   3.609   3.917  12.379 -2.2732  1.5026  0.6415
 3601SOL    HW222263   3.742   3.952  12.433 -0.5845  0.4852 -3.1695
 3602SOL     OW22264   3.918   4.545   6.770 -0.3211  0.2400  0.0157
 3602SOL    HW122265   3.935   4.626   6.819  0.5608  0.9895 -1.5179
 3602SOL    HW222266   3.977   4.482   6.809 -0.0471  0.1337 -0.5793
 3603SOL     OW22267   1.125   1.394   2.801  0.1818  0.4532 -0.3755
 3603SOL    HW122268   1.175   1.401   2.883 -2.3846 -2.6989  1.4460
 3603SOL    HW222269   1.047   1.443   2.827  0.7962  0.7795  0.8835
 3604SOL     OW22270   3.548   2.159   4.303  0.0551  0.2824 -0.5759
 3604SOL    HW122271   3.498   2.098   4.357  0.3811  0.3394 -0.2151
 3604SOL    HW222272   3.480   2.223   4.281 -1.2134 -0.6870  0.5530
 3605SOL     OW22273   3.263   4.013   8.565  0.3023 -0.2119 -0.6606
 3605SOL    HW122274   3.198   4.078   8.537 -0.4133 -0.7108 -0.1434
 3605SOL    HW222275   3.245   4.003   8.658 -0.3447 -1.3588 -0.9198
 3606SOL     OW22276   4.667   1.209   8.896 -0.4148  0.0522  0.0849
 3606SOL    HW122277   0.001   1.164   8.833 -3.5048 -1.9910 -1.2929
 3606SOL    HW222278   4.670   1.301   8.870  0.7461  0.4416  1.5786
 3607SOL     OW22279   2.643   3.306   4.922  0.1525  0.6760  0.3846
 3607SOL    HW122280   2.634   3.254   5.002  1.0412 -2.6213 -1.6920
 3607SOL    HW222281   2.609   3.394   4.943 -0.5855 -0.2741  3.2269
 3608SOL     OW22282   0.463   3.354  15.797  0.1978 -0.4886 -0.2754
 3608SOL    HW122283   0.417   3.278  15.832 -1.7261 -0.1624 -2.1086
 3608SOL    HW222284   0.454   3.416  15.869 -2.2667  0.6110 -1.5347
 3609SOL     OW22285   4.286   2.526  12.102 -0.8311  0.0512  0.1522
 3609SOL    HW122286   4.211   2.528  12.042 -0.1238 -0.0550 -0.7325
 3609SOL    HW222287   4.245   2.565  12.179 -0.9893  0.9822 -0.4075
 3610SOL     OW22288   0.565   2.265   9.337 -0.4898  0.5601  0.1719
 3610SOL    HW122289   0.649   2.223   9.314 -0.9573  0.0747 -0.6480
 3610SOL    HW222290   0.560   2.337   9.275  2.1520 -0.7661 -1.6398
 3611SOL     OW22291   3.407   1.601   8.589 -0.4473  0.7834 -0.2101
 3611SOL    HW122292   3.488   1.570   8.630  0.7276  1.1080 -2.2857
 3611SOL    HW222293   3.342   1.544   8.631 -0.0106  0.7156  0.3731
 3612SOL     OW22294   1.293   0.987   0.098  0.3454 -0.1394 -0.0518
 3612SOL    HW122295   1.275   0.973   0.191  1.0797 -2.9134 -0.3233
 3612SOL    HW222296   1.375   1.036   0.099  0.7113 -0.7342 -1.3727
 3613SOL     OW22297   3.975   0.541  10.339  0.1668  0.3399  0.1695
 3613SOL    HW122298   3.991   0.559  10.246  1.5322  1.5925  0.6508
 3613SOL    HW222299   4.041   0.473  10.353  0.0949  0.4742  1.1169
 3614SOL     OW22300   2.296   2.540   5.021  0.2169 -0.6148 -0.2605
 3614SOL    HW122301   2.278   2.553   5.114  0.8350  0.5407 -0.3110
 3614SOL    HW222302   2.218   2.572   4.975 -0.3555  0.7259  1.6714
 3615SOL     OW22303   1.471   2.956   4.729 -0.1808 -0.3941  0.0170
 3615SOL    HW122304   1.537   2.965   4.798  0.0103 -0.4930 -0.1503
 3615SOL    HW222305   1.501   2.879   4.681  2.4307  0.5364  0.1456
 3616SOL     OW22306   0.018   2.722   3.053  0.2071  0.2310  0.1988
 3616SOL    HW122307   0.092   2.774   3.084 -0.4033  2.0338 -1.4334
 3616SOL    HW222308   0.008   2.673   3.135 -0.4976 -1.9951 -1.2091
 3617SOL     OW22309   2.083   1.758   1.513 -0.4172 -0.2197 -0.1791
 3617SOL    HW122310   2.115   1.678   1.470 -0.1740 -0.0350 -0.3373
 3617SOL    HW222311   1.995   1.726   1.534 -0.5186 -0.9429 -1.7196
 3618SOL     OW22312   4.372   2.603   3.766  1.0580  0.3297  0.1793
 3618SOL    HW122313   4.441   2.669   3.754 -0.0695  1.1646 -1.6175
 3618SOL    HW222314   4.308   2.653   3.817  1.6268  0.6558  0.5785
 3619SOL     OW22315   1.009   2.472   6.606 -0.1670 -0.2734  0.1644
 3619SOL    HW122316   1.101   2.459   6.630  0.2978  0.2429 -1.3363
 3619SOL    HW222317   0.975   2.548   6.653  1.8672  0.2948  0.7445
 3620SOL     OW22318   0.682   0.116   6.548  0.0300 -0.1410 -0.7293
 3620SOL    HW122319   0.741   0.169   6.494  1.2498 -1.9008 -1.1518
 3620SOL    HW222320   0.735   0.066   6.611 -0.3964 -1.3026 -1.2932
 3621SOL     OW22321   0.593   0.652   5.545  0.0164  0.1891  0.6094
 3621SOL    HW122322   0.572   0.589   5.477 -1.0247 -0.3599  1.4324
 3621SOL    HW222323   0.521   0.637   5.607  0.2662  1.6342  1.2471
 3622SOL     OW22324   1.082   0.040   0.949  0.0711 -0.5150 -0.1081
 3622SOL    HW122325   1.065   4.676   0.983  0.1056 -0.5241 -0.1134
 3622SOL    HW222326   1.012   0.099   0.978 -0.4023 -2.5829  2.9099
 3623SOL     OW22327   0.480   3.971   6.051 -0.1733 -0.2030 -0.0313
 3623SOL    HW122328   0.415   4.022   6.002 -0.2122  0.1885  0.4222
 3623SOL    HW222329   0.419   3.932   6.114  2.7563  0.5041  3.2101
 3624SOL     OW22330   1.842   2.954  13.205 -0.2202 -0.8920  0.1928
 3624SOL    HW122331   1.881   2.925  13.122 -0.9308 -3.1081  0.6218
 3624SOL    HW222332   1.752   2.980  13.189  0.5200  1.0946 -0.7613
 3625SOL     OW22333   2.949   1.623   5.345 -0.0059 -0.4203 -0.0929
 3625SOL    HW122334   2.962   1.543   5.396  3.9534 -0.7943 -1.6895
 3625SOL    HW222335   2.899   1.675   5.408 -1.5897 -0.9997 -0.8643
 3626SOL     OW22336   4.618   1.739   5.951  0.3482 -0.1254  0.3517
 3626SOL    HW122337   4.643   1.785   6.031  3.0380 -0.0962 -0.5150
 3626SOL    HW222338   4.684   1.670   5.944 -1.1874 -1.5145 -0.4615
 3627SOL     OW22339   0.775   3.720   4.065  0.0117 -0.5003  0.2183
 3627SOL    HW122340   0.759   3.784   4.135 -2.3400 -1.0218  0.1633
 3627SOL    HW222341   0.709   3.651   4.072  0.2693 -0.9933 -2.3511
 3628SOL     OW22342   0.236   4.458   3.393 -0.2323  0.7775  0.3347
 3628SOL    HW122343   0.204   4.415   3.472 -3.0098 -0.6869 -1.5983
 3628SOL    HW222344   0.154   4.464   3.345  0.1679 -0.2342 -0.4844
 3629SOL     OW22345   0.898   3.578   3.712  0.0878 -0.4344 -0.1951
 3629SOL    HW122346   0.928   3.610   3.798  1.4273  0.3307 -0.9500
 3629SOL    HW222347   0.912   3.483   3.717  0.7008 -0.2336  1.8748
 3630SOL     OW22348   2.082   4.093   8.788  0.0220  0.1483  0.3589
 3630SOL    HW122349   2.001   4.141   8.775 -1.2140 -2.0605 -0.1079
 3630SOL    HW222350   2.115   4.086   8.698  0.3280  0.9991  0.4089
 3631SOL     OW22351   1.739   4.299  16.332 -0.3024 -1.0572  0.0085
 3631SOL    HW122352   1.669   4.283  16.269  0.7476  0.1637 -1.4640
 3631SOL    HW222353   1.814   4.334  16.285 -0.9495 -0.3049 -0.4581
 3632SOL     OW22354   3.087   2.419   0.109  0.1372  0.2592 -0.4574
 3632SOL    HW122355   3.078   2.483   0.038 -1.3755  0.4259 -0.1144
 3632SOL    HW222356   3.104   2.480   0.180  1.1562 -0.8228  0.2095
 3633SOL     OW22357   2.508   1.312  14.254  0.6364  0.4823 -0.2092
 3633SOL    HW122358   2.540   1.231  14.215  2.2731  2.1129 -2.2290
 3633SOL    HW222359   2.464   1.364  14.187  0.0933  0.5885  0.2264
 3634SOL     OW22360   2.625   1.888  15.261  0.0339 -0.0224  0.3827
 3634SOL    HW122361   2.595   1.879  15.170  1.5007 -0.3223 -0.0870
 3634SOL    HW222362   2.561   1.840  15.313 -1.5657  0.4458 -1.1720
 3635SOL     OW22363   2.355   1.660   1.244 -0.5399  0.1557 -0.5700
 3635SOL    HW122364   2.407   1.725   1.290  0.5758 -1.0999 -0.0702
 3635SOL    HW222365   2.363   1.595   1.313 -1.2713 -0.7157 -1.2960
 3636SOL     OW22366   0.935   3.427   0.942 -0.1448  0.1913  0.1116
 3636SOL    HW122367   0.885   3.417   0.861  0.5789  1.7978 -0.5369
 3636SOL    HW222368   0.913   3.518   0.964  0.1140  1.0728 -3.3050
 3637SOL     OW22369   3.926   3.888  15.905  0.0595 -0.3763 -0.1977
 3637SOL    HW122370   3.918   3.794  15.887 -1.1663  0.0489 -1.8210
 3637SOL    HW222371   3.992   3.922  15.844 -0.9341  1.3623 -0.2849
 3638SOL     OW22372   4.126   2.601   6.634  0.2682  0.2307  0.1673
 3638SOL    HW122373   4.033   2.594   6.615 -0.1348  0.5790  2.0270
 3638SOL    HW222374   4.162   2.538   6.572 -0.3551  1.3992 -1.3954
 3639SOL     OW22375   0.865   2.060   6.136 -0.6543  0.0660 -1.1428
 3639SOL    HW122376   0.781   2.053   6.090 -0.8201 -1.6795 -0.5787
 3639SOL    HW222377   0.846   2.121   6.207  0.3571  0.7868 -1.5093
 3640SOL     OW22378   4.110   4.378  16.800 -0.1244 -0.2706  0.4903
 3640SOL    HW122379   4.183   4.402  16.743 -0.8460 -0.7129 -0.6084
 3640SOL    HW222380   4.140   4.292  16.829  1.1676 -0.1086 -0.3800
 3641SOL     OW22381   0.169   1.498   0.395 -0.1209 -0.6630 -0.2072
 3641SOL    HW122382   0.073   1.500   0.400 -0.0043  1.2413  1.0497
 3641SOL    HW222383   0.186   1.558   0.322  0.3082 -0.5191  0.0121
 3642SOL     OW22384   4.270   3.049  13.735 -0.1425  0.3142 -0.0658
 3642SOL    HW122385   4.316   3.102  13.670 -1.0002 -0.5007 -1.3281
 3642SOL    HW222386   4.326   3.045  13.813  1.1562 -1.0270 -1.0547
 3643SOL     OW22387   0.384   1.477   7.936 -0.5583 -0.6766  0.1248
 3643SOL    HW122388   0.344   1.563   7.924 -0.1999 -0.2668  1.8688
 3643SOL    HW222389   0.301   1.431   7.936 -1.6395  1.2694  0.9844
 3644SOL     OW22390   3.346   1.917   3.828 -0.1487  0.2333 -0.3871
 3644SOL    HW122391   3.272   1.876   3.784 -1.4952  1.0031  1.1294
 3644SOL    HW222392   3.409   1.846   3.834 -1.0149 -0.3224  2.0204
 3645SOL     OW22393   0.693   4.501   7.376 -0.7727  0.3814  0.5851
 3645SOL    HW122394   0.677   4.504   7.282 -0.9609 -2.4055  0.5009
 3645SOL    HW222395   0.735   4.585   7.395 -1.3725  0.5970  0.9341
 3646SOL     OW22396   2.956   4.109  15.268 -0.5332  1.4157  0.4005
 3646SOL    HW122397   2.872   4.064  15.273 -0.2637  0.7624 -0.9896
 3646SOL    HW222398   2.977   4.123  15.360 -4.1296  0.6430  1.3271
 3647SOL     OW22399   1.357   2.712   6.812  0.1320  0.3022  0.0042
 3647SOL    HW122400   1.423   2.736   6.877  0.4441  0.2218 -0.2825
 3647SOL    HW222401   1.401   2.746   6.734  0.6663  0.3527  0.3265
 3648SOL     OW22402   4.046   0.441  15.794 -0.0895 -0.3739  0.0797
 3648SOL    HW122403   4.074   0.529  15.820 -1.0969 -0.1538  0.4104
 3648SOL    HW222404   3.953   0.447  15.816  0.2652 -2.0566  2.0845
 3649SOL     OW22405   0.002   2.454   2.616 -0.5913 -0.5788 -0.2726
 3649SOL    HW122406   0.062   2.379   2.613 -0.6874 -0.8159  2.9967
 3649SOL    HW222407   4.687   2.442   2.703 -3.1455  1.7331 -1.0948
 3650SOL     OW22408   0.527   1.857   1.664  0.6154  0.1424 -0.0148
 3650SOL    HW122409   0.555   1.884   1.576 -0.2932  1.0867 -0.0126
 3650SOL    HW222410   0.606   1.819   1.702 -0.3303 -0.3000  1.4952
 3651SOL     OW22411   1.826   2.814   1.947 -0.7031  0.2380 -0.3888
 3651SOL    HW122412   1.878   2.863   2.011  2.5797 -4.0736  0.2099
 3651SOL    HW222413   1.817   2.886   1.885  1.4474 -0.6802 -1.7697
 3652SOL     OW22414   0.753   3.741   1.978 -0.2996 -0.1819  0.4282
 3652SOL    HW122415   0.813   3.724   1.906 -1.9044 -0.1086 -0.9259
 3652SOL    HW222416   0.672   3.726   1.929  0.8399 -1.3001 -1.1191
 3653SOL     OW22417   2.181   0.006  11.916  0.3385  0.2698 -0.1363
 3653SOL    HW122418   2.145   4.701  12.000 -0.6261 -0.2793 -0.7230
 3653SOL    HW222419   2.265   4.684  11.902  0.5965  1.2127 -1.5663
 3654SOL     OW22420   2.066   2.785   7.943  0.1345 -0.0113 -0.8983
 3654SOL    HW122421   2.034   2.873   7.961 -0.2006 -1.0521  3.4536
 3654SOL    HW222422   1.999   2.778   7.875  0.2044 -1.7779 -0.7948
 3655SOL     OW22423   3.780   3.691   0.179  0.1814 -0.0878  0.1376
 3655SOL    HW122424   3.711   3.705   0.244  0.2496  1.2719 -0.0801
 3655SOL    HW222425   3.853   3.672   0.238  0.2179 -1.1225 -0.2467
 3656SOL     OW22426   4.210   1.683   9.271 -0.0846  0.1212 -0.4167
 3656SOL    HW122427   4.191   1.706   9.362  2.0404  1.7722 -0.4139
 3656SOL    HW222428   4.166   1.598   9.258  2.3890 -0.7468 -3.1687
 3657SOL     OW22429   4.500   1.854   7.025 -0.2870  0.5297  0.5378
 3657SOL    HW122430   4.459   1.890   7.104 -0.5876  1.3408  0.0170
 3657SOL    HW222431   4.584   1.818   7.052  1.1498  0.9158 -3.3270
 3658SOL     OW22432   3.040   3.458  12.835  0.1345  0.8825 -0.3228
 3658SOL    HW122433   3.051   3.499  12.921 -3.2499  0.7866  0.1794
 3658SOL    HW222434   3.128   3.467  12.800 -0.6435  2.1756 -1.9178
 3659SOL     OW22435   0.564   0.900   4.566 -0.3867 -0.3178 -0.8562
 3659SOL    HW122436   0.621   0.976   4.574 -0.8408 -0.0224 -0.5066
 3659SOL    HW222437   0.579   0.857   4.650  0.8434 -0.8072 -1.3177
 3660SOL     OW22438   2.756   1.195   5.906 -0.5087 -0.0963 -0.1573
 3660SOL    HW122439   2.738   1.111   5.948 -0.0985  0.6669  1.5658
 3660SOL    HW222440   2.685   1.202   5.841  0.0655 -2.1581 -1.0061
 3661SOL     OW22441   0.373   0.691   6.451  0.2357  0.3186  0.4673
 3661SOL    HW122442   0.403   0.616   6.400  0.1629 -0.6928  1.9066
 3661SOL    HW222443   0.362   0.765   6.391  3.9953  0.6933  0.2383
 3662SOL     OW22444   0.216   3.138  10.835  0.3077 -0.0364 -0.1507
 3662SOL    HW122445   0.152   3.082  10.879 -0.4951  0.9479 -0.0557
 3662SOL    HW222446   0.265   3.188  10.900 -0.2588  1.2158 -0.6950
 3663SOL     OW22447   3.495   2.431   9.556  0.3176  0.2531  0.5506
 3663SOL    HW122448   3.535   2.449   9.471 -1.0282  0.0528 -0.1186
 3663SOL    HW222449   3.429   2.498   9.574 -0.3331 -0.3716  0.4771
 3664SOL     OW22450   3.210   1.932  10.924 -0.2009 -0.3599 -0.0286
 3664SOL    HW122451   3.141   1.865  10.915 -1.0436  0.9953 -3.9449
 3664SOL    HW222452   3.250   1.884  10.996 -0.7698 -0.1249  0.4428
 3665SOL     OW22453   3.274   0.777  14.196 -0.4829  0.0676  0.1235
 3665SOL    HW122454   3.334   0.811  14.263  1.4768 -0.3426 -1.4391
 3665SOL    HW222455   3.204   0.739  14.249  0.8110 -1.1544  0.9754
 3666SOL     OW22456   0.187   0.741   7.790  0.4016  0.4431  0.1205
 3666SOL    HW122457   0.109   0.727   7.844  0.2925 -0.7274 -0.3502
 3666SOL    HW222458   0.144   0.756   7.705  1.2053  0.5395 -0.2733
 3667SOL     OW22459   2.526   1.043   6.652 -0.0517 -0.0253  0.0473
 3667SOL    HW122460   2.613   1.005   6.660 -0.2456 -0.6707 -0.8939
 3667SOL    HW222461   2.536   1.095   6.573 -0.9405 -1.9231 -1.3160
 3668SOL     OW22462   3.605   1.693   4.293  0.2687 -0.7296 -0.0013
 3668SOL    HW122463   3.688   1.729   4.263  0.2291  0.5938  1.4699
 3668SOL    HW222464   3.542   1.765   4.288  0.3922 -0.7370 -1.5539
 3669SOL     OW22465   2.713   2.262   8.332  0.2347 -0.1920  0.3758
 3669SOL    HW122466   2.714   2.223   8.420 -1.9941 -0.1099  0.4297
 3669SOL    HW222467   2.753   2.343   8.363  3.6145 -1.4470 -0.6706
 3670SOL     OW22468   4.181   1.470   4.464  0.1825  0.3118  0.0756
 3670SOL    HW122469   4.159   1.516   4.383  0.0537 -0.5409 -0.3760
 3670SOL    HW222470   4.182   1.539   4.530 -0.8124 -0.5534  0.9769
 3671SOL     OW22471   2.402   3.427   8.604  0.0954  0.4478  0.0936
 3671SOL    HW122472   2.350   3.508   8.604  1.0035  1.0230 -0.5741
 3671SOL    HW222473   2.461   3.441   8.678  1.6438 -0.1519 -1.0581
 3672SOL     OW22474   4.475   3.384   5.238 -0.2816  0.2584 -0.0764
 3672SOL    HW122475   4.513   3.424   5.161 -1.0581  1.5904  0.2365
 3672SOL    HW222476   4.553   3.377   5.293 -1.5437 -1.3093  1.5096
 3673SOL     OW22477   2.333   2.612   9.735  0.2942  0.0739 -0.2047
 3673SOL    HW122478   2.428   2.618   9.747  0.2032  1.1437 -0.0284
 3673SOL    HW222479   2.310   2.685   9.792  0.3757  1.3248 -1.7765
 3674SOL     OW22480   0.503   3.284   5.720  0.4448  0.3263  0.2599
 3674SOL    HW122481   0.544   3.201   5.742  0.6501  0.7532  1.5321
 3674SOL    HW222482   0.428   3.278   5.780 -0.5458 -0.4595 -1.0589
 3675SOL     OW22483   0.041   3.519   1.388  0.0878 -0.3423 -0.3618
 3675SOL    HW122484   0.076   3.553   1.305 -0.4479  1.0748 -0.0039
 3675SOL    HW222485   4.708   3.593   1.412  1.6402  0.8357 -0.3680
 3676SOL     OW22486   0.584   1.062   2.860 -0.6687 -0.0163  0.1371
 3676SOL    HW122487   0.509   1.089   2.808  0.3517 -0.8352 -1.7538
 3676SOL    HW222488   0.607   0.995   2.795  0.0092 -1.1624  1.5517
 3677SOL     OW22489   1.168   4.688   8.114 -0.3135 -0.2876 -0.3561
 3677SOL    HW122490   1.230   0.038   8.108  1.8604 -2.1866 -1.3078
 3677SOL    HW222491   1.191   4.646   8.196  0.7899 -2.0436 -1.5540
 3678SOL     OW22492   0.013   3.977   4.638 -0.6470  0.3914 -0.0958
 3678SOL    HW122493   0.092   4.028   4.656  0.2561 -0.4120 -1.7862
 3678SOL    HW222494   0.046   3.927   4.564  1.6229  1.7732 -0.0044
 3679SOL     OW22495   4.064   2.424   0.714 -0.6334 -0.0423  0.2375
 3679SOL    HW122496   4.067   2.342   0.764 -1.2945 -1.0643 -1.3986
 3679SOL    HW222497   4.122   2.472   0.773  0.0158 -0.0812 -0.3746
 3680SOL     OW22498   3.079   3.010  12.258 -0.1139  0.6579 -0.4787
 3680SOL    HW122499   3.022   3.036  12.331 -3.1810 -2.1017 -1.8698
 3680SOL    HW222500   3.071   2.917  12.279 -0.7090  0.5512 -1.1714
 3681SOL     OW22501   0.112   3.127  16.626  0.1645 -0.0225  0.4117
 3681SOL    HW122502   0.178   3.089  16.683 -0.8544 -1.2586  0.7661
 3681SOL    HW222503   0.096   3.061  16.559  1.4098  1.4977 -1.3827
 3682SOL     OW22504   3.190   1.843   7.739 -0.1448 -0.2707 -0.4060
 3682SOL    HW122505   3.113   1.900   7.737 -0.8877 -1.2686 -0.4133
 3682SOL    HW222506   3.239   1.862   7.659 -1.1016  1.0198 -0.6969
 3683SOL     OW22507   4.061   4.216   9.574  0.8295 -0.0902 -0.0208
 3683SOL    HW122508   4.074   4.122   9.558 -1.6612 -0.2223 -1.3482
 3683SOL    HW222509   4.004   4.210   9.651  0.1354  0.4271 -0.4917
 3684SOL     OW22510   2.344   2.222  13.355 -0.1552  0.1604 -0.1171
 3684SOL    HW122511   2.348   2.201  13.261 -2.3562 -1.6263  0.1778
 3684SOL    HW222512   2.408   2.292  13.366  0.7001 -0.7889  0.8312
 3685SOL     OW22513   4.612   3.532  17.558  0.1467 -0.7932  0.4470
 3685SOL    HW122514   4.654   3.499  17.479  0.0134  2.4282 -0.9644
 3685SOL    HW222515   4.675   3.513  17.627  1.4492  1.3230 -0.1629
 3686SOL     OW22516   2.270   1.556   8.423  0.2954  0.4364 -0.0836
 3686SOL    HW122517   2.275   1.481   8.363 -0.0643 -0.1140  0.5746
 3686SOL    HW222518   2.176   1.570   8.411 -0.0682 -1.2368  0.7488
 3687SOL     OW22519   2.507   3.505   3.448 -0.4618  0.5345  0.1316
 3687SOL    HW122520   2.586   3.509   3.395  0.2304  0.2253  1.1423
 3687SOL    HW222521   2.452   3.562   3.393 -2.0686 -3.2043 -2.1272
 3688SOL     OW22522   2.899   2.102   2.935 -0.3799  0.1284 -0.0478
 3688SOL    HW122523   2.961   2.139   2.997  0.6074  0.4310 -1.2188
 3688SOL    HW222524   2.815   2.132   2.971 -0.2174  0.1749  0.2897
 3689SOL     OW22525   1.077   2.397   4.294  0.0293  0.2517 -0.5038
 3689SOL    HW122526   1.084   2.417   4.387 -3.1305  2.8380 -0.8381
 3689SOL    HW222527   1.029   2.314   4.303 -0.1435  0.7048  2.6975
 3690SOL     OW22528   2.317   1.737   0.312 -0.1758  0.0726 -0.0171
 3690SOL    HW122529   2.340   1.765   0.401  0.9858 -0.0625 -0.2641
 3690SOL    HW222530   2.384   1.783   0.260  1.4054  1.9326  3.6248
 3691SOL     OW22531   2.973   1.429   3.215  0.5623 -0.4908 -0.0760
 3691SOL    HW122532   2.964   1.376   3.136  0.4348 -0.5262 -0.0379
 3691SOL    HW222533   3.054   1.474   3.191  0.2910  0.8394  1.4949
 3692SOL     OW22534   2.901   0.362   3.116 -0.1287 -0.2857  0.2074
 3692SOL    HW122535   2.813   0.342   3.149  0.4213  0.5329  2.2034
 3692SOL    HW222536   2.894   0.324   3.029  1.4199  1.3240 -0.6204
 3693SOL     OW22537   4.192   1.216   4.242 -0.2349 -0.2264 -0.3030
 3693SOL    HW122538   4.264   1.247   4.297  0.4120  0.8294 -1.7791
 3693SOL    HW222539   4.133   1.186   4.312 -1.2708  1.1149 -0.6077
 3694SOL     OW22540   0.835   3.434  17.209 -0.1192  0.1004  0.2056
 3694SOL    HW122541   0.844   3.373  17.136 -0.7860 -1.0007  1.0464
 3694SOL    HW222542   0.892   3.397  17.276 -0.9948  0.0382  0.9206
 3695SOL     OW22543   3.572   1.947   9.736 -0.0360 -0.0649  0.0839
 3695SOL    HW122544   3.478   1.933   9.738 -0.0978  0.2077 -1.2301
 3695SOL    HW222545   3.573   2.040   9.714  0.5496 -0.0852  0.0265
 3696SOL     OW22546   0.060   0.313   0.506  0.1178 -0.3667 -0.1737
 3696SOL    HW122547   4.706   0.274   0.547 -0.1047  1.5610  1.2481
 3696SOL    HW222548   0.130   0.248   0.499  0.9645  0.3482  1.8079
 3697SOL     OW22549   1.728   1.345   8.513 -0.4802  0.0035  0.0900
 3697SOL    HW122550   1.718   1.380   8.425 -0.0978 -0.6929 -0.2346
 3697SOL    HW222551   1.747   1.421   8.568 -1.1012 -0.2333  0.6464
 3698SOL     OW22552   3.947   1.445   3.630  0.1139 -0.1878 -0.1577
 3698SOL    HW122553   4.042   1.445   3.634  0.1942 -0.3353 -1.7540
 3698SOL    HW222554   3.917   1.359   3.661  0.5124  0.0497  0.8694
 3699SOL     OW22555   2.660   4.425  10.181  0.3118 -0.2987  0.0039
 3699SOL    HW122556   2.747   4.451  10.152  0.8463 -0.9102  1.0160
 3699SOL    HW222557   2.666   4.460  10.270  2.2666 -1.6015  0.3855
 3700SOL     OW22558   1.176   1.893  16.864  0.0018 -0.8860 -0.3376
 3700SOL    HW122559   1.116   1.839  16.812 -0.3826  1.0577 -1.9046
 3700SOL    HW222560   1.166   1.980  16.826  1.3274 -0.2579  0.7383
 3701SOL     OW22561   1.296   0.339   7.001 -0.0115  0.0139 -0.4335
 3701SOL    HW122562   1.235   0.268   6.980 -1.4070  1.0581  0.0553
 3701SOL    HW222563   1.285   0.357   7.095 -1.0666 -1.7652 -0.2004
 3702SOL     OW22564   0.081   2.016   9.611  0.4251 -0.1819 -0.0752
 3702SOL    HW122565   0.133   1.953   9.561  3.0260 -1.5515  4.3446
 3702SOL    HW222566   0.083   1.986   9.702 -1.9726  0.4250  0.1845
 3703SOL     OW22567   3.472   1.860   3.226  0.4313 -0.2659 -0.1030
 3703SOL    HW122568   3.394   1.877   3.174  1.1817 -0.7532 -1.3725
 3703SOL    HW222569   3.544   1.893   3.172  1.1461 -1.2111  0.2832
 3704SOL     OW22570   1.123   2.358   4.016 -0.3519  0.4468 -0.6424
 3704SOL    HW122571   1.108   2.354   4.110 -1.0201  0.3199 -0.7534
 3704SOL    HW222572   1.218   2.344   4.015 -0.3370  0.5317 -0.4892
 3705SOL     OW22573   4.715   1.367   4.422 -0.0829 -0.4746 -0.3193
 3705SOL    HW122574   4.632   1.415   4.429  0.4955  0.5204 -0.3226
 3705SOL    HW222575   0.034   1.386   4.505  0.8375 -1.1023 -0.6429
 3706SOL     OW22576   4.204   0.105   5.486  0.0850 -0.3949 -0.4138
 3706SOL    HW122577   4.125   0.101   5.540  0.0713 -1.7762 -0.5430
 3706SOL    HW222578   4.266   0.134   5.553  0.6531  0.0710 -1.1446
 3707SOL     OW22579   0.702   3.573  11.003  0.0009  0.1484  1.0999
 3707SOL    HW122580   0.727   3.586  11.095  1.0975 -1.8901  1.0864
 3707SOL    HW222581   0.784   3.589  10.957 -0.1165 -1.5605  0.3064
 3708SOL     OW22582   2.761   3.396  14.138 -0.9986  0.3560  0.6369
 3708SOL    HW122583   2.831   3.395  14.073 -0.5662 -0.2872  1.0995
 3708SOL    HW222584   2.746   3.303  14.157 -0.3026  0.0629 -0.2495
 3709SOL     OW22585   2.539   0.286   4.933 -0.5290  0.7330 -0.2611
 3709SOL    HW122586   2.604   0.254   4.871 -1.8701 -1.8141 -0.3735
 3709SOL    HW222587   2.569   0.371   4.963 -1.8006  1.1468 -0.1517
 3710SOL     OW22588   3.919   1.354  15.974  0.1556  0.5055 -0.4094
 3710SOL    HW122589   3.971   1.428  16.004  1.6224 -1.2084  1.2389
 3710SOL    HW222590   3.955   1.281  16.024  0.3381  1.5474  0.9666
 3711SOL     OW22591   1.735   1.690  15.859 -0.5719  0.0300 -0.4612
 3711SOL    HW122592   1.689   1.701  15.775 -0.9662 -0.2651 -0.2818
 3711SOL    HW222593   1.810   1.749  15.850 -2.0055  1.5892 -2.2185
 3712SOL     OW22594   1.770   3.645   2.767 -0.3003  0.1631  0.5269
 3712SOL    HW122595   1.758   3.552   2.786 -0.3742 -0.4110 -2.2360
 3712SOL    HW222596   1.682   3.669   2.738  0.1194  1.5177  0.4069
 3713SOL     OW22597   1.137   0.267   5.029  0.5721 -0.4698 -0.3944
 3713SOL    HW122598   1.101   0.203   5.091  1.2409  1.6617  2.2172
 3713SOL    HW222599   1.214   0.297   5.078  0.9300 -2.0096  0.0147
 3714SOL     OW22600   3.867   1.813   7.156 -0.0505 -0.3436  0.1870
 3714SOL    HW122601   3.852   1.893   7.106 -1.9643 -1.3116 -0.7491
 3714SOL    HW222602   3.946   1.828   7.208  1.2191  0.9854 -2.1245
 3715SOL     OW22603   2.091   2.517   8.015  1.0925 -0.2277  0.2153
 3715SOL    HW122604   2.046   2.530   8.098  1.1120  0.6623  0.0863
 3715SOL    HW222605   2.091   2.602   7.970  0.5394 -1.4769 -2.1845
 3716SOL     OW22606   0.954   0.587   6.908  0.3855  0.2091 -0.0110
 3716SOL    HW122607   1.004   0.606   6.988  2.3783  2.6375 -1.8534
 3716SOL    HW222608   0.902   0.510   6.933 -0.6196  0.9823  0.2976
 3717SOL     OW22609   2.704   4.100   5.053 -0.5410 -0.0411  0.0318
 3717SOL    HW122610   2.695   4.007   5.074 -0.5014  0.0672  0.5400
 3717SOL    HW222611   2.772   4.124   5.116 -2.2162  3.6681  0.4163
 3718SOL     OW22612   0.067   2.631   2.412 -0.0159 -0.4027 -0.3041
 3718SOL    HW122613   0.039   2.607   2.501 -1.2934 -0.5342 -0.7406
 3718SOL    HW222614   0.117   2.551   2.394 -0.8920 -1.3646  1.4926
 3719SOL     OW22615   3.058   2.268   7.070  0.4951  0.3022 -0.0687
 3719SOL    HW122616   2.963   2.280   7.067  0.2709 -1.3725  0.3736
 3719SOL    HW222617   3.077   2.339   7.007  1.7254  1.2414  1.3717
 3720SOL     OW22618   3.709   1.941   8.227  0.2059 -0.1617 -0.2088
 3720SOL    HW122619   3.687   2.001   8.298  2.4476  2.3537 -1.5933
 3720SOL    HW222620   3.636   1.880   8.237  1.0366 -0.8347  1.7694
 3721SOL     OW22621   2.094   3.722  11.238 -0.4904  0.0443 -0.2136
 3721SOL    HW122622   2.101   3.659  11.167  1.0890 -0.6019  0.5064
 3721SOL    HW222623   1.999   3.729  11.245 -0.5405 -0.8197 -0.0595
 3722SOL     OW22624   4.499   3.409   8.157  0.9798 -0.1012  0.2057
 3722SOL    HW122625   4.483   3.360   8.077  2.9860  1.5037 -1.1838
 3722SOL    HW222626   4.541   3.488   8.123 -1.3936  2.1952  2.6203
 3723SOL     OW22627   0.495   1.278   8.708 -0.1625  0.3527  0.2212
 3723SOL    HW122628   0.534   1.364   8.698 -0.7364  0.4397 -1.1958
 3723SOL    HW222629   0.542   1.230   8.639  0.4515 -1.4188  1.8671
 3724SOL     OW22630   1.772   1.128   7.649  0.2519 -0.0315  0.4168
 3724SOL    HW122631   1.791   1.211   7.694 -0.1721 -0.1505  0.8064
 3724SOL    HW222632   1.780   1.064   7.720 -1.8755 -0.0482  0.6294
 3725SOL     OW22633   1.695   1.471  10.356  0.1136 -0.4701 -0.1198
 3725SOL    HW122634   1.676   1.521  10.276  1.0206  1.2320  0.7102
 3725SOL    HW222635   1.654   1.387  10.341 -0.7174 -0.3220  1.3995
 3726SOL     OW22636   4.599   0.020   1.052  0.5472 -0.1142  0.0955
 3726SOL    HW122637   4.621   0.104   1.011  2.1531  0.3002  1.8160
 3726SOL    HW222638   4.673   4.687   1.029  1.1083 -1.1823  4.5097
 3727SOL     OW22639   0.083   4.493   4.743 -0.1074 -0.5622  0.1564
 3727SOL    HW122640   0.000   4.450   4.765  0.4457 -1.6982  0.0357
 3727SOL    HW222641   0.144   4.472   4.814 -0.3432  1.5054  0.9707
 3728SOL     OW22642   4.611   0.096   2.156  0.1398 -0.4997 -0.2058
 3728SOL    HW122643   4.691   0.063   2.116 -0.2660 -1.4614 -0.2316
 3728SOL    HW222644   4.650   0.120   2.240 -0.0535 -0.9017  0.0003
 3729SOL     OW22645   2.335   1.150   3.144 -0.6055 -0.2032  0.1303
 3729SOL    HW122646   2.290   1.180   3.222 -1.4388 -0.2401 -0.3351
 3729SOL    HW222647   2.294   1.213   3.084  0.0243  2.0733  2.1478
 3730SOL     OW22648   2.140   1.499   1.434  0.1977 -0.7542 -0.5071
 3730SOL    HW122649   2.177   1.459   1.356 -0.6652 -0.2951 -1.1548
 3730SOL    HW222650   2.200   1.459   1.497  0.2679  0.8822  0.4750
 3731SOL     OW22651   1.488   1.704   1.406 -0.3102  0.6351  0.5224
 3731SOL    HW122652   1.426   1.703   1.333 -0.9343  0.1501  1.0476
 3731SOL    HW222653   1.427   1.695   1.480  0.5395  0.3858  1.1937
 3732SOL     OW22654   4.143   1.465   9.473  0.5482 -0.1627 -0.1690
 3732SOL    HW122655   4.108   1.553   9.477 -0.1492 -0.5741  2.9188
 3732SOL    HW222656   4.154   1.449   9.567 -1.1824 -0.3684 -0.0079
 3733SOL     OW22657   4.310   2.626  13.149  0.0558  0.4092  0.0275
 3733SOL    HW122658   4.221   2.647  13.119  0.2914  2.8089  1.0211
 3733SOL    HW222659   4.337   2.707  13.192 -2.8366 -0.1339  2.7972
 3734SOL     OW22660   3.600   1.745   2.934  0.4038 -0.1650 -0.5843
 3734SOL    HW122661   3.629   1.667   2.888  0.5814 -1.2585  1.3684
 3734SOL    HW222662   3.649   1.748   3.017 -0.6483 -1.2897  0.0724
 3735SOL     OW22663   1.676   4.659   0.302  0.4552 -0.1024  0.5581
 3735SOL    HW122664   1.671   4.565   0.322 -0.9637 -0.0290  0.5976
 3735SOL    HW222665   1.754   4.667   0.247 -0.2719  1.3947 -0.2543
 3736SOL     OW22666   0.045   0.769   8.800 -0.3089 -0.3784  0.4218
 3736SOL    HW122667   4.717   0.839   8.760 -1.0239 -1.7925 -1.1773
 3736SOL    HW222668   0.130   0.801   8.829 -1.3223  0.9350  1.9383
 3737SOL     OW22669   2.847   3.127  12.857  0.3628  0.1900  0.8302
 3737SOL    HW122670   2.874   3.072  12.931 -0.2593  1.5630  2.0901
 3737SOL    HW222671   2.776   3.174  12.901  0.9429  0.0049  1.9692
 3738SOL     OW22672   0.608   1.709   5.129  0.3001 -0.3335  0.6077
 3738SOL    HW122673   0.590   1.689   5.037 -0.9125  0.9079  0.5685
 3738SOL    HW222674   0.517   1.724   5.155  0.3348 -3.0050  2.2446
 3739SOL     OW22675   0.853   4.193   2.987 -0.4097  0.0332  0.3047
 3739SOL    HW122676   0.803   4.265   2.950 -1.1060 -0.2304  0.7179
 3739SOL    HW222677   0.801   4.121   2.949  1.0482 -0.4848 -0.6709
 3740SOL     OW22678   4.476   0.281   6.790 -0.0126 -0.0679 -0.3402
 3740SOL    HW122679   4.519   0.280   6.876  2.2167  3.9678 -1.4023
 3740SOL    HW222680   4.547   0.270   6.727 -0.1560  2.3540 -0.9176
 3741SOL     OW22681   2.091   0.317   3.197 -0.6651 -0.0909 -0.3939
 3741SOL    HW122682   2.082   0.392   3.256  0.4887 -0.6262  0.4802
 3741SOL    HW222683   2.156   0.262   3.242 -1.6822 -2.4129 -1.7557
 3742SOL     OW22684   1.519   3.519   7.587 -0.1318  0.0287 -0.6700
 3742SOL    HW122685   1.543   3.580   7.518  0.1581  2.3839  1.4908
 3742SOL    HW222686   1.430   3.543   7.613  0.0758  0.0715  0.0048
 3743SOL     OW22687   2.273   4.683   1.498  0.0648  0.0429 -0.2807
 3743SOL    HW122688   2.307   4.685   1.588  0.0340 -1.4392 -0.2345
 3743SOL    HW222689   2.238   4.596   1.477  1.9514 -1.0806  1.2192
 3744SOL     OW22690   0.779   2.368   8.308 -0.5351  0.3986  0.0690
 3744SOL    HW122691   0.740   2.292   8.265 -0.7869  1.5721 -1.7740
 3744SOL    HW222692   0.857   2.382   8.254 -1.0704  2.9334 -0.0231
 3745SOL     OW22693   4.355   2.926   3.471 -0.2170  0.2138  0.4852
 3745SOL    HW122694   4.286   2.861   3.473 -0.1546  0.1986  1.7035
 3745SOL    HW222695   4.344   2.959   3.381  1.4752  1.2288  0.6368
 3746SOL     OW22696   0.176   4.673   5.535 -0.1411 -0.6125  0.4593
 3746SOL    HW122697   0.135   4.601   5.583  1.1059 -3.3033 -2.4995
 3746SOL    HW222698   0.199   4.637   5.450  1.5970  2.7723 -0.4743
 3747SOL     OW22699   2.098   4.505   4.505 -0.3970  0.4902 -0.0084
 3747SOL    HW122700   2.156   4.428   4.499 -1.0694 -0.1487  1.6593
 3747SOL    HW222701   2.020   4.474   4.550  0.4424 -0.6913  0.6425
 3748SOL     OW22702   1.728   1.642   1.738 -0.3397 -0.2784  0.5687
 3748SOL    HW122703   1.720   1.594   1.820  2.0534 -1.7800 -0.0799
 3748SOL    HW222704   1.800   1.598   1.694 -0.9687 -1.5288  0.7910
 3749SOL     OW22705   4.219   1.661   3.968 -0.0572 -0.1907  0.3696
 3749SOL    HW122706   4.211   1.659   4.064  3.7483  0.9049  0.7259
 3749SOL    HW222707   4.265   1.578   3.957 -0.1473 -0.0313 -1.1802
 3750SOL     OW22708   4.210   2.133   8.276  0.3014  0.3708 -0.0351
 3750SOL    HW122709   4.118   2.146   8.298  0.1151 -1.1846  0.0694
 3750SOL    HW222710   4.250   2.219   8.268 -1.1028  1.0012 -0.3487
 3751SOL     OW22711   3.136   2.908   2.405  0.5196 -0.0252 -0.5330
 3751SOL    HW122712   3.209   2.846   2.402 -1.6885 -2.6673 -0.0323
 3751SOL    HW222713   3.067   2.861   2.359 -1.0775  2.1430 -0.3629
 3752SOL     OW22714   0.579   2.814  12.560  0.2805  0.9635  0.2763
 3752SOL    HW122715   0.582   2.909  12.575  1.0296  1.2865 -1.8754
 3752SOL    HW222716   0.496   2.796  12.516  0.1992  1.8956  0.0559
 3753SOL     OW22717   4.108   3.942   9.500 -0.5740  0.0373 -0.5267
 3753SOL    HW122718   4.072   3.931   9.412  0.0175 -0.0484 -0.7569
 3753SOL    HW222719   4.186   3.889   9.485 -1.0986 -0.2660 -2.1320
 3754SOL     OW22720   2.796   1.353   6.319  0.0093 -0.5156  0.3447
 3754SOL    HW122721   2.889   1.335   6.331  0.5449 -0.2964 -3.2189
 3754SOL    HW222722   2.795   1.394   6.232  0.1073  1.7644  1.4162
 3755SOL     OW22723   1.822   0.414   9.845 -0.4634 -0.0475  0.1468
 3755SOL    HW122724   1.769   0.475   9.794  1.5120  0.1069 -1.7471
 3755SOL    HW222725   1.859   0.469   9.914  1.5087 -1.5472  0.2856
 3756SOL     OW22726   1.444   3.560   9.837 -0.1547 -0.4358  0.3315
 3756SOL    HW122727   1.510   3.620   9.801 -1.0900  0.7787  0.6433
 3756SOL    HW222728   1.367   3.598   9.794 -0.4623  0.4254  1.6790
 3757SOL     OW22729   0.900   3.291   2.949 -0.0205  0.6949  0.4989
 3757SOL    HW122730   0.806   3.282   2.933 -0.3324 -0.6916  3.0819
 3757SOL    HW222731   0.908   3.361   3.014 -0.8843  0.3848  0.9233
 3758SOL     OW22732   1.181   3.882   3.002  0.0352 -0.0892 -0.4666
 3758SOL    HW122733   1.119   3.939   3.047  1.5461 -0.3628  1.9334
 3758SOL    HW222734   1.123   3.862   2.928  0.4606 -1.7867 -0.3457
 3759SOL     OW22735   1.297   1.812   6.072  0.6212 -0.0510 -0.0579
 3759SOL    HW122736   1.345   1.762   6.139 -0.5856 -1.0879  0.0398
 3759SOL    HW222737   1.253   1.880   6.123  1.7367 -0.2409  1.1778
 3760SOL     OW22738   2.411   3.165   5.978 -0.2578  0.6617 -0.4059
 3760SOL    HW122739   2.393   3.259   5.974  1.3733  0.9212 -1.9472
 3760SOL    HW222740   2.488   3.158   6.035 -1.9929 -1.7645  1.6694
 3761SOL     OW22741   4.027   1.681   6.428 -0.0114  0.7429  0.4049
 3761SOL    HW122742   4.026   1.709   6.337 -2.5688 -0.3080  0.1098
 3761SOL    HW222743   4.088   1.607   6.421  0.3402  1.0394  0.3495
 3762SOL     OW22744   3.395   1.617   7.055 -0.1576 -0.3009  0.2701
 3762SOL    HW122745   3.489   1.625   7.067 -0.3036 -2.5642  2.8972
 3762SOL    HW222746   3.374   1.627   7.148 -0.3610  1.4579  0.0376
 3763SOL     OW22747   1.322   3.209  12.419  0.3554  0.0459  0.2558
 3763SOL    HW122748   1.408   3.220  12.379  0.0374  0.3410 -0.3505
 3763SOL    HW222749   1.330   3.227  12.513  1.1146 -2.5429  0.7045
 3764SOL     OW22750   2.891   3.936   5.494 -0.2241 -0.4500 -0.2550
 3764SOL    HW122751   2.872   3.990   5.418  1.0873 -0.7990 -0.8327
 3764SOL    HW222752   2.867   3.847   5.468 -1.8322 -0.8337  2.5189
 3765SOL     OW22753   1.898   0.627  10.003 -0.7915 -0.0647  0.3617
 3765SOL    HW122754   1.849   0.593  10.078 -2.3522 -1.4646 -1.2821
 3765SOL    HW222755   1.949   0.700  10.037 -2.2760  0.3554  1.7360
 3766SOL     OW22756   4.531   4.399  16.455 -0.5144  0.2410 -0.1308
 3766SOL    HW122757   4.609   4.415  16.507 -0.5745 -3.3927  1.1274
 3766SOL    HW222758   4.543   4.461  16.383  0.7241 -1.9298 -1.8339
 3767SOL     OW22759   2.073   1.863   2.027  0.1809  0.7120 -0.6418
 3767SOL    HW122760   1.998   1.881   1.971 -1.1844 -0.7416  0.7128
 3767SOL    HW222761   2.136   1.816   1.972  2.3225 -1.9472  4.0687
 3768SOL     OW22762   0.214   1.956  12.726 -0.1769 -0.0397 -0.2168
 3768SOL    HW122763   0.155   1.900  12.777  1.6236 -0.3173  1.5537
 3768SOL    HW222764   0.291   1.930  12.777 -1.0856 -1.2188  0.5586
 3769SOL     OW22765   4.656   3.068   2.974 -0.0311  0.1108 -0.6096
 3769SOL    HW122766   4.566   3.038   2.979 -0.0072  0.1145 -0.0667
 3769SOL    HW222767   4.656   3.120   2.894 -1.6227  1.3569  0.2014
 3770SOL     OW22768   4.213   2.769   0.696 -0.3179  0.7181 -0.5578
 3770SOL    HW122769   4.238   2.837   0.760 -2.4767 -0.1358  1.2056
 3770SOL    HW222770   4.230   2.690   0.747  0.7754  0.5778 -1.1372
 3771SOL     OW22771   1.290   4.345   1.281 -0.2734  0.0878  0.0430
 3771SOL    HW122772   1.212   4.342   1.336 -0.2241  0.5682  0.1413
 3771SOL    HW222773   1.352   4.401   1.328 -1.4499  1.5715 -0.1759
 3772SOL     OW22774   0.828   0.798   0.535  0.3005  0.3103 -0.2003
 3772SOL    HW122775   0.910   0.846   0.530  0.6635 -0.3438 -0.6122
 3772SOL    HW222776   0.838   0.767   0.625  1.6997  0.0479 -0.4451
 3773SOL     OW22777   0.946   0.139   5.560 -0.1489  0.9765 -0.5117
 3773SOL    HW122778   0.876   0.167   5.619 -0.4832 -1.9320  0.5181
 3773SOL    HW222779   1.026   0.137   5.613 -0.1902  1.8102 -0.4302
 3774SOL     OW22780   2.443   1.122   5.864  0.3760 -0.9132 -0.6738
 3774SOL    HW122781   2.366   1.076   5.831  0.1127 -0.8270 -0.1693
 3774SOL    HW222782   2.429   1.204   5.818  3.0813  0.7514  1.4563
 3775SOL     OW22783   4.279   2.430   6.433 -0.4891  0.6862 -0.0211
 3775SOL    HW122784   4.185   2.415   6.422 -0.6202  1.3613  0.1566
 3775SOL    HW222785   4.317   2.402   6.350  1.6689 -1.0343  1.5672
 3776SOL     OW22786   0.632   4.380   8.519  0.7330  0.5337  0.0278
 3776SOL    HW122787   0.720   4.345   8.534  0.5964  0.6688  1.1709
 3776SOL    HW222788   0.632   4.460   8.572  1.7171  0.2543  0.4400
 3777SOL     OW22789   0.936   2.568   0.765  0.0131  0.3660  0.6910
 3777SOL    HW122790   0.863   2.598   0.820 -0.7662  0.5854 -0.4729
 3777SOL    HW222791   0.902   2.560   0.676 -0.7821 -1.0303  1.1185
 3778SOL     OW22792   0.802   1.239   4.031  0.0263  0.4739 -0.3510
 3778SOL    HW122793   0.772   1.207   3.946 -3.9316  3.9218 -0.2508
 3778SOL    HW222794   0.843   1.157   4.060  3.3895  1.3205 -2.6639
 3779SOL     OW22795   0.869   1.363   4.495  0.0423  0.0235  0.3092
 3779SOL    HW122796   0.964   1.355   4.485 -0.0503  1.4501 -1.7128
 3779SOL    HW222797   0.838   1.362   4.404  0.2346 -1.9866  0.2714
 3780SOL     OW22798   3.602   0.164   1.089 -0.0391 -0.1208 -0.0950
 3780SOL    HW122799   3.587   0.110   1.011 -0.7449  2.1899 -1.5666
 3780SOL    HW222800   3.692   0.140   1.111  0.9058  1.2895 -2.3451
 3781SOL     OW22801   0.653   3.862   9.433 -0.1128 -0.0833  0.6754
 3781SOL    HW122802   0.669   3.854   9.527 -0.8312 -0.6012  0.7549
 3781SOL    HW222803   0.723   3.922   9.409  0.0297 -0.5601 -0.0882
 3782SOL     OW22804   1.937   3.081  15.057  0.3576 -0.3229  0.3593
 3782SOL    HW122805   1.931   3.093  14.962  2.5751 -0.0015  0.2743
 3782SOL    HW222806   2.016   3.028  15.066 -0.2174 -1.2039  0.1776
 3783SOL     OW22807   4.391   1.599   2.132  0.0275 -0.2235 -0.3000
 3783SOL    HW122808   4.315   1.604   2.190 -0.9945 -2.7109 -1.4249
 3783SOL    HW222809   4.378   1.674   2.075  1.5292 -0.7966 -1.3968
 3784SOL     OW22810   2.172   4.458  10.484  0.2017  0.6032 -0.2133
 3784SOL    HW122811   2.093   4.498  10.448 -0.2605  1.6858  1.9978
 3784SOL    HW222812   2.139   4.373  10.513 -2.1641  0.7289 -2.4532
 3785SOL     OW22813   0.208   3.925   4.352 -0.3744 -0.1567 -0.2875
 3785SOL    HW122814   0.277   3.875   4.394  1.5325  1.3637 -1.6169
 3785SOL    HW222815   0.152   3.853   4.322 -0.7348  0.0319 -0.0706
 3786SOL     OW22816   0.392   2.474   1.285 -0.0770 -0.1409  0.5173
 3786SOL    HW122817   0.461   2.534   1.313 -0.2787 -0.6464  2.0832
 3786SOL    HW222818   0.443   2.404   1.244 -0.0779  0.9772 -1.4350
 3787SOL     OW22819   3.836   1.570   2.168 -0.9524 -0.0323 -0.3116
 3787SOL    HW122820   3.921   1.575   2.124 -1.1069 -2.1253 -0.8264
 3787SOL    HW222821   3.782   1.593   2.092 -1.4517 -0.5893 -0.1239
 3788SOL     OW22822   1.212   1.853  14.456 -1.0747  0.5870 -0.2928
 3788SOL    HW122823   1.273   1.786  14.425  0.0824  0.9913  1.1360
 3788SOL    HW222824   1.264   1.933  14.449  0.7423 -0.5107  0.8480
 3789SOL     OW22825   1.303   0.012   6.707 -0.9432 -0.5751  0.2717
 3789SOL    HW122826   1.282   0.106   6.706 -1.8848 -0.7736  2.4574
 3789SOL    HW222827   1.221   4.703   6.669 -0.3452 -0.0066 -1.5028
 3790SOL     OW22828   4.611   2.160   2.753  0.3295 -0.1975  0.3112
 3790SOL    HW122829   4.699   2.150   2.715  0.2839 -1.2452  0.4703
 3790SOL    HW222830   4.619   2.133   2.844 -0.2649 -0.4136  0.3007
 3791SOL     OW22831   0.805   2.212  11.352  0.3089 -0.8857  0.2922
 3791SOL    HW122832   0.709   2.208  11.348  0.2287 -0.5668  1.8618
 3791SOL    HW222833   0.826   2.133  11.303  1.4650 -0.5381  0.2414
 3792SOL     OW22834   0.035   2.487  15.708 -0.9506 -0.5156 -0.0116
 3792SOL    HW122835   0.118   2.489  15.660 -1.1662 -0.0142 -0.3732
 3792SOL    HW222836   4.711   2.564  15.675  0.7220  0.1823 -0.7516
 3793SOL     OW22837   0.785   2.411   8.586  0.0812  0.0301  0.1027
 3793SOL    HW122838   0.841   2.350   8.634 -0.3144  0.6559  1.3589
 3793SOL    HW222839   0.808   2.371   8.502  1.0517  3.1513 -1.1255
 3794SOL     OW22840   2.504   3.354   5.215 -0.4197  0.2760  0.0154
 3794SOL    HW122841   2.543   3.441   5.221  1.6489 -0.6336 -0.4240
 3794SOL    HW222842   2.457   3.348   5.299 -0.6394 -0.4145 -0.1517
 3795SOL     OW22843   0.571   3.058   7.960  0.2596  0.0523 -0.1291
 3795SOL    HW122844   0.651   3.071   8.011  1.0473 -1.0992 -1.0769
 3795SOL    HW222845   0.612   3.043   7.875 -0.7610 -1.2519 -0.3799
 3796SOL     OW22846   4.146   1.238   0.878  0.1829 -0.0961  0.2852
 3796SOL    HW122847   4.141   1.151   0.838 -0.8239  0.4944 -0.9012
 3796SOL    HW222848   4.231   1.226   0.920 -0.5541 -1.2879  1.4609
 3797SOL     OW22849   0.963   0.797   6.056  0.6523 -0.4368  0.0250
 3797SOL    HW122850   0.873   0.823   6.036 -0.3940 -1.3598  3.4541
 3797SOL    HW222851   0.963   0.803   6.151 -4.1635 -1.8702  0.1119
 3798SOL     OW22852   2.179   2.475   4.361 -0.2447  0.3856 -0.1267
 3798SOL    HW122853   2.176   2.426   4.443 -0.0646 -1.2249 -1.0890
 3798SOL    HW222854   2.128   2.425   4.297 -3.2135  0.4769  2.1883
 3799SOL     OW22855   1.717   1.068   5.054 -0.1408  0.1322 -0.0149
 3799SOL    HW122856   1.657   1.014   5.105  0.9118 -0.7740  0.2446
 3799SOL    HW222857   1.742   1.015   4.979  0.7427 -0.9261  1.0327
 3800SOL     OW22858   2.071   1.558   5.960  0.5845  0.1177 -0.2788
 3800SOL    HW122859   2.118   1.586   5.881 -1.6264 -0.2217 -1.7125
 3800SOL    HW222860   1.995   1.514   5.922  0.5476  1.3977 -1.6956
 3801SOL     OW22861   1.396   2.597   0.363  0.3163 -0.0071  0.2623
 3801SOL    HW122862   1.460   2.579   0.432 -0.1383 -2.2249  0.1175
 3801SOL    HW222863   1.394   2.511   0.321  0.7421  0.1542 -0.0921
 3802SOL     OW22864   4.025   3.683  12.096  0.2017  0.1480  0.4687
 3802SOL    HW122865   4.075   3.705  12.174  2.4814  0.2914 -1.0342
 3802SOL    HW222866   4.098   3.662  12.039 -0.3336  1.3799 -0.6734
 3803SOL     OW22867   2.582   0.216  14.874 -0.0633  0.0427 -0.1846
 3803SOL    HW122868   2.616   0.273  14.943  0.0328  0.7160 -0.7967
 3803SOL    HW222869   2.663   0.189  14.832 -1.1503 -1.1947 -1.4730
 3804SOL     OW22870   2.492   2.535  11.966 -0.6331 -0.4167  0.3905
 3804SOL    HW122871   2.530   2.511  12.050  2.3391  1.9739 -0.2864
 3804SOL    HW222872   2.502   2.630  11.960 -2.0111 -0.2981 -0.1267
 3805SOL     OW22873   0.545   0.762   5.934  0.6645 -0.4314  0.1930
 3805SOL    HW122874   0.478   0.831   5.931  0.3542 -0.6874  1.2777
 3805SOL    HW222875   0.587   0.780   6.018 -0.2652 -0.9828  0.7778
 3806SOL     OW22876   0.816   3.057   0.668 -0.3621  0.5365  0.1490
 3806SOL    HW122877   0.826   3.052   0.764  0.6560  1.0779  0.0695
 3806SOL    HW222878   0.761   3.133   0.649 -0.0156  0.5054 -0.9579
 3807SOL     OW22879   1.140   0.222   1.497  0.0130 -0.1644 -0.0159
 3807SOL    HW122880   1.095   0.261   1.573 -0.6196 -1.2650  0.1809
 3807SOL    HW222881   1.084   0.147   1.480  1.9608 -0.6344 -4.0884
 3808SOL     OW22882   3.884   0.452   1.839  0.0639  0.4596 -0.0903
 3808SOL    HW122883   3.844   0.523   1.890  1.9407  1.0627  0.5332
 3808SOL    HW222884   3.961   0.489   1.796 -0.4727  2.0926  0.3385
 3809SOL     OW22885   4.668   2.565  17.622  0.1731 -0.2360  0.0901
 3809SOL    HW122886   0.012   2.566  17.690  0.7372 -1.4482 -0.4451
 3809SOL    HW222887   4.678   2.650  17.579  2.1213 -1.6014 -2.1429
 3810SOL     OW22888   1.501   1.222   9.655  0.1013  0.2865  0.2837
 3810SOL    HW122889   1.540   1.153   9.601 -0.6438 -0.7786  1.1073
 3810SOL    HW222890   1.576   1.257   9.702  0.0993 -0.1992  0.6517
 3811SOL     OW22891   3.386   3.724   3.992 -0.2315  0.1936 -0.1098
 3811SOL    HW122892   3.429   3.680   4.065  2.8229  0.9220 -1.4544
 3811SOL    HW222893   3.371   3.653   3.929 -0.3805  0.4745 -0.3943
 3812SOL     OW22894   0.372   0.256   4.727 -0.1824  0.1499 -0.1105
 3812SOL    HW122895   0.300   0.235   4.667 -1.5730  1.7367  0.9998
 3812SOL    HW222896   0.340   0.223   4.811  1.1403 -0.7460  0.0304
 3813SOL     OW22897   4.030   0.023   4.257  0.1005 -0.7190  0.2567
 3813SOL    HW122898   3.947   0.060   4.287  0.5480  0.4818  0.0108
 3813SOL    HW222899   4.093   0.085   4.293  0.6735 -0.9111 -0.4078
 3814SOL     OW22900   2.263   1.272  10.327  0.6472 -0.6303 -0.2601
 3814SOL    HW122901   2.176   1.251  10.360  2.5732  0.0486  5.3263
 3814SOL    HW222902   2.307   1.213  10.389 -0.3938 -1.2237 -0.0881
 3815SOL     OW22903   3.520   3.753   7.311  0.2484 -0.5231 -0.7623
 3815SOL    HW122904   3.542   3.666   7.345  2.9695  1.1723  1.7322
 3815SOL    HW222905   3.516   3.806   7.390  1.0651 -1.9342  0.2286
 3816SOL     OW22906   2.835   4.597   7.139  0.0713 -0.0186 -0.7521
 3816SOL    HW122907   2.886   4.579   7.219  2.4153  0.3321 -2.1726
 3816SOL    HW222908   2.826   4.692   7.150 -1.8724 -0.5196  1.9573
 3817SOL     OW22909   2.212   4.295  11.902 -0.4120  0.6024  0.1337
 3817SOL    HW122910   2.159   4.289  11.823  1.4939  0.1044 -1.0853
 3817SOL    HW222911   2.147   4.265  11.966  0.8055 -0.8652  0.6913
 3818SOL     OW22912   4.331   1.193  17.462 -0.4060  0.3551 -0.4533
 3818SOL    HW122913   4.300   1.117  17.414 -0.8964  0.2766 -0.0114
 3818SOL    HW222914   4.426   1.188  17.475 -0.6183 -0.0192  0.9149
 3819SOL     OW22915   1.709   0.329   4.152 -0.2056 -0.2148  0.1690
 3819SOL    HW122916   1.614   0.337   4.145  0.1425  2.0171 -1.8468
 3819SOL    HW222917   1.729   0.422   4.164 -1.8312  0.2021 -0.3637
 3820SOL     OW22918   2.795   3.826   7.611  0.1303 -0.1293 -0.3682
 3820SOL    HW122919   2.721   3.851   7.555  1.2104 -1.0400 -2.1643
 3820SOL    HW222920   2.845   3.761   7.563  0.2623 -0.3660  0.0895
 3821SOL     OW22921   3.576   1.190   9.045 -0.1247  0.9524  0.1317
 3821SOL    HW122922   3.560   1.194   8.951 -5.6812 -0.3997  1.0127
 3821SOL    HW222923   3.530   1.109   9.068 -0.7750  1.3642  0.2801
 3822SOL     OW22924   1.453   2.701   4.555  0.5467 -0.3128  0.1977
 3822SOL    HW122925   1.388   2.690   4.486 -1.1432 -0.5715  1.8174
 3822SOL    HW222926   1.492   2.614   4.561 -2.3358 -1.6060  0.4965
 3823SOL     OW22927   0.333   1.527   8.413  0.4051  0.5283 -0.1136
 3823SOL    HW122928   0.397   1.464   8.381 -0.5416  0.1542 -1.2615
 3823SOL    HW222929   0.254   1.483   8.382  0.3187 -1.1046  2.3877
 3824SOL     OW22930   2.079   3.744   8.164  0.2293  0.1130  0.4083
 3824SOL    HW122931   2.070   3.838   8.175  1.4292  0.0422  1.9413
 3824SOL    HW222932   2.130   3.742   8.083  1.4832  2.3223  1.1398
 3825SOL     OW22933   3.071   4.180   5.893  0.1536 -0.0927 -0.1755
 3825SOL    HW122934   3.122   4.101   5.912 -0.1982 -0.9509 -2.8038
 3825SOL    HW222935   3.035   4.163   5.806  0.1773  1.8854 -0.5709
 3826SOL     OW22936   0.229   1.035   4.244 -0.0513 -0.4175  0.1583
 3826SOL    HW122937   0.276   1.029   4.327 -1.3244 -0.8056  0.8584
 3826SOL    HW222938   0.143   1.061   4.278  0.8234 -0.8512  2.7363
 3827SOL     OW22939   1.350   0.820   2.244  0.1493 -0.0599  0.3033
 3827SOL    HW122940   1.279   0.765   2.211  0.3651 -0.2255  0.1146
 3827SOL    HW222941   1.390   0.865   2.170 -0.1481  0.4545  0.4543
 3828SOL     OW22942   4.324   2.868   9.167  0.2392 -0.0574 -0.2855
 3828SOL    HW122943   4.249   2.812   9.149 -0.8129  1.0229  0.7108
 3828SOL    HW222944   4.287   2.944   9.212 -0.3076 -0.2632 -0.3876
 3829SOL     OW22945   3.476   1.136   0.300  0.3369 -0.3376 -0.3882
 3829SOL    HW122946   3.561   1.100   0.275  0.7951 -1.0653  2.2222
 3829SOL    HW222947   3.422   1.076   0.249  0.6577  0.6865 -1.9750
 3830SOL     OW22948   0.923   4.371  10.378  0.0655 -0.8420 -0.5983
 3830SOL    HW122949   0.900   4.416  10.459  1.4514 -1.1071 -0.0515
 3830SOL    HW222950   0.872   4.290  10.383 -0.2790 -0.6209 -0.5434
 3831SOL     OW22951   1.270   0.963   6.259 -0.6037 -0.3964  0.3577
 3831SOL    HW122952   1.264   0.934   6.350  1.4418 -0.2370  0.5442
 3831SOL    HW222953   1.312   1.049   6.268  0.5726 -0.6551 -2.5048
 3832SOL     OW22954   0.094   0.880  10.549 -0.6690 -0.0528 -0.1631
 3832SOL    HW122955   0.131   0.900  10.635 -1.4023 -0.9094  0.3548
 3832SOL    HW222956   0.003   0.854  10.565 -1.1049  1.4488 -0.2043
 3833SOL     OW22957   3.944   1.306   2.260 -0.1234 -0.8244  0.8822
 3833SOL    HW122958   3.894   1.258   2.194 -0.5477 -0.9610  1.3081
 3833SOL    HW222959   3.961   1.394   2.227 -1.0496 -0.9748  0.0332
 3834SOL     OW22960   2.695   1.842   3.542  0.9679  0.1356  0.2656
 3834SOL    HW122961   2.633   1.908   3.574 -0.4766 -1.6259  1.1097
 3834SOL    HW222962   2.778   1.888   3.532 -0.1010  1.9975  0.0795
 3835SOL     OW22963   4.254   0.626   6.021 -0.4282  0.3204 -0.4215
 3835SOL    HW122964   4.174   0.637   6.073 -0.2144  3.3541 -0.7409
 3835SOL    HW222965   4.316   0.597   6.088 -1.4281  1.5695  1.0314
 3836SOL     OW22966   2.997   0.362  15.614 -0.1904 -0.0789  0.1920
 3836SOL    HW122967   2.909   0.374  15.580 -0.9698  0.1834  2.3238
 3836SOL    HW222968   3.045   0.425  15.559 -2.1734  1.8835  0.7292
 3837SOL     OW22969   1.280   0.334   7.271 -0.2880 -0.1249  0.0401
 3837SOL    HW122970   1.361   0.366   7.310 -0.6037  0.2428  0.3826
 3837SOL    HW222971   1.295   0.240   7.280  0.5982  0.0630  0.5190
 3838SOL     OW22972   0.788   3.935   3.666 -0.4198  0.1549 -0.4644
 3838SOL    HW122973   0.857   3.961   3.605 -0.8356  0.9754 -0.5956
 3838SOL    HW222974   0.831   3.942   3.751 -1.2311 -1.1683  0.0612
 3839SOL     OW22975   1.367   3.567   3.611  0.4078  0.3383  0.4624
 3839SOL    HW122976   1.325   3.640   3.565  2.2492  0.1701 -1.4896
 3839SOL    HW222977   1.328   3.574   3.698 -0.3578  0.6023  0.0960
 3840SOL     OW22978   3.912   0.102   3.806 -0.0130  0.3853  0.2354
 3840SOL    HW122979   4.000   0.129   3.830 -0.4474  3.0143 -1.1866
 3840SOL    HW222980   3.897   0.036   3.874  0.8226 -0.9006 -0.8380
 3841SOL     OW22981   2.656   2.368  10.912  0.3824 -0.2605  0.4613
 3841SOL    HW122982   2.632   2.414  10.832  0.8194  0.3696  0.6915
 3841SOL    HW222983   2.567   2.362  10.949 -0.8964  0.8566 -2.5050
 3842SOL     OW22984   2.353   4.635   5.757 -0.4195  0.1222 -0.6401
 3842SOL    HW122985   2.348   4.543   5.732  0.2879 -0.6682  2.0676
 3842SOL    HW222986   2.449   4.633   5.759 -0.4532  1.2637  1.8567
 3843SOL     OW22987   0.433   3.616   3.835  0.5705  0.2240  0.6061
 3843SOL    HW122988   0.502   3.645   3.775 -3.3348  3.8651 -2.0439
 3843SOL    HW222989   0.434   3.670   3.914 -0.9572 -2.5074  2.5165
 3844SOL     OW22990   0.249   2.417   2.406  0.1246 -0.1977 -0.6008
 3844SOL    HW122991   0.277   2.499   2.449 -0.8553  0.3050 -0.9319
 3844SOL    HW222992   0.332   2.375   2.383  0.3514  0.3679 -0.8412
 3845SOL     OW22993   3.538   1.075   7.344 -0.4352  0.3898 -0.0791
 3845SOL    HW122994   3.610   1.100   7.403  0.0718  0.3347 -0.6789
 3845SOL    HW222995   3.512   1.166   7.326  0.2759  0.6353  0.1301
 3846SOL     OW22996   0.439   3.795   4.825 -0.4642  0.2557 -0.1539
 3846SOL    HW122997   0.377   3.802   4.897 -0.0621 -0.0261  0.2168
 3846SOL    HW222998   0.488   3.718   4.853 -0.9762 -0.9286 -2.5713
 3847SOL     OW22999   2.274   3.961   0.642 -0.3541 -0.1185  0.3872
 3847SOL    HW123000   2.186   3.929   0.661  0.0433 -0.8489  0.9747
 3847SOL    HW223001   2.264   4.008   0.559  0.0264  1.0657  1.0072
 3848SOL     OW23002   3.993   2.132   7.788  0.4719  0.1022  0.1770
 3848SOL    HW123003   3.938   2.110   7.863 -1.3478  1.4580 -0.7578
 3848SOL    HW223004   4.061   2.071   7.817  1.7874  0.7508 -1.5745
 3849SOL     OW23005   0.077   2.291  10.853 -0.9737 -0.5450 -0.4135
 3849SOL    HW123006   0.012   2.359  10.869  0.0391 -0.0779  1.7069
 3849SOL    HW223007   0.074   2.251  10.940 -2.8632 -1.3367 -0.8405
 3850SOL     OW23008   2.937   1.621   3.801  0.2513  0.8204  0.3326
 3850SOL    HW123009   2.929   1.543   3.745  1.1663 -0.4283  1.9344
 3850SOL    HW223010   2.969   1.576   3.879  3.2012 -0.0523 -1.3375
 3851SOL     OW23011   0.646   0.326   8.291  0.1803  0.0192  0.5658
 3851SOL    HW123012   0.715   0.292   8.234 -0.0571  0.4153  0.0432
 3851SOL    HW223013   0.683   0.361   8.372  1.1836 -0.4366  0.3079
 3852SOL     OW23014   0.684   1.365   5.325  0.0047  0.0648 -0.1638
 3852SOL    HW123015   0.770   1.335   5.355 -0.9960 -0.0645  2.5551
 3852SOL    HW223016   0.629   1.288   5.310 -1.2408  0.7752  0.7818
 3853SOL     OW23017   2.827   3.843  15.735 -0.8596 -0.0001  0.1048
 3853SOL    HW123018   2.781   3.824  15.817  1.1108 -0.5329  1.0811
 3853SOL    HW223019   2.752   3.849  15.676  1.0351 -0.2116 -2.2838
 3854SOL     OW23020   1.703   4.144   1.626  0.4763  0.3043  0.3043
 3854SOL    HW123021   1.663   4.116   1.544 -3.5301  0.8376  2.0801
 3854SOL    HW223022   1.795   4.127   1.607  0.4176 -2.0745  2.0370
 3855SOL     OW23023   2.340   3.150   6.600  0.2573 -0.1756  0.0638
 3855SOL    HW123024   2.333   3.093   6.524  0.7573  1.2569 -1.0671
 3855SOL    HW223025   2.426   3.190   6.585  0.4599  0.5553  2.9975
 3856SOL     OW23026   4.338   3.232   2.991 -0.0163  0.3153  0.1050
 3856SOL    HW123027   4.321   3.324   3.014  1.7807  0.8860 -0.9352
 3856SOL    HW223028   4.395   3.233   2.914  0.9360  0.5029  0.8142
 3857SOL     OW23029   4.147   0.796   4.033  0.1428 -0.0677  0.0438
 3857SOL    HW123030   4.079   0.729   4.044  0.7927 -0.8678 -0.6886
 3857SOL    HW223031   4.203   0.739   3.979  0.5247  1.0411 -0.7245
 3858SOL     OW23032   4.512   2.690   8.685 -0.0082  0.2261  0.0531
 3858SOL    HW123033   4.484   2.636   8.611 -0.3064  0.8588 -0.3025
 3858SOL    HW223034   4.428   2.734   8.700  1.1525  2.8580 -1.1696
 3859SOL     OW23035   0.184   1.294   3.442 -0.3921 -0.4894  0.0340
 3859SOL    HW123036   0.136   1.332   3.368 -0.5086 -2.4482 -0.9014
 3859SOL    HW223037   0.132   1.323   3.517 -3.4959  0.2546 -2.3627
 3860SOL     OW23038   4.423   3.447   7.040 -0.6315 -0.1064  0.4064
 3860SOL    HW123039   4.454   3.374   6.986 -0.4168 -0.5326  1.1078
 3860SOL    HW223040   4.507   3.493   7.037 -0.4370 -0.6431 -2.1826
 3861SOL     OW23041   4.146   3.381   4.892  0.0264  0.7106  0.1879
 3861SOL    HW123042   4.232   3.421   4.878  1.2469 -1.3860  1.6572
 3861SOL    HW223043   4.171   3.288   4.899  1.1355  0.8975 -1.2211
 3862SOL     OW23044   4.016   2.477   1.361 -0.5033 -0.4919  0.3941
 3862SOL    HW123045   3.976   2.536   1.297 -1.7581 -0.2018  1.4349
 3862SOL    HW223046   3.935   2.464   1.410 -0.2006  1.3923  1.4139
 3863SOL     OW23047   3.714   2.182   6.105 -0.2829 -0.2417  0.1180
 3863SOL    HW123048   3.791   2.216   6.149  0.8796 -1.9105 -0.6037
 3863SOL    HW223049   3.731   2.088   6.100  2.3332  0.2348  0.4369
 3864SOL     OW23050   2.117   3.743  14.544  0.3917 -0.3897  0.3751
 3864SOL    HW123051   2.178   3.669  14.548  0.2071 -0.5017  1.0236
 3864SOL    HW223052   2.043   3.694  14.579  1.7211 -2.1772  0.6939
 3865SOL     OW23053   1.017   3.512   6.757 -0.6600 -0.9785  0.2508
 3865SOL    HW123054   1.097   3.508   6.809 -0.6465  0.3849  0.3484
 3865SOL    HW223055   0.985   3.600   6.774 -1.3025 -1.3666  1.0233
 3866SOL     OW23056   0.602   3.377   0.968  0.4874 -0.0811 -0.2378
 3866SOL    HW123057   0.514   3.393   0.936  0.7819  1.7182 -0.1613
 3866SOL    HW223058   0.618   3.286   0.943 -3.0081  0.1640 -3.2590
 3867SOL     OW23059   4.432   0.936  13.118 -0.2821  0.3676 -0.0987
 3867SOL    HW123060   4.392   0.956  13.203  0.7930 -0.6679  0.6420
 3867SOL    HW223061   4.391   0.853  13.094 -0.1525  0.0803  0.6691
 3868SOL     OW23062   3.624   1.381   2.042  0.0801  0.0880 -0.2706
 3868SOL    HW123063   3.709   1.343   2.066 -0.2028 -0.2689  0.1619
 3868SOL    HW223064   3.589   1.307   1.991  0.3148 -0.8083  0.8691
 3869SOL     OW23065   3.161   4.129  14.522 -0.0573  0.2609 -0.2217
 3869SOL    HW123066   3.192   4.192  14.456 -1.3261 -1.3848 -2.3877
 3869SOL    HW223067   3.129   4.192  14.587 -1.2646 -2.2289  1.6189
 3870SOL     OW23068   3.225   3.580   7.329  0.6086 -0.5035  0.3801
 3870SOL    HW123069   3.241   3.637   7.254 -0.2752  0.2724  0.7806
 3870SOL    HW223070   3.199   3.640   7.400 -1.1428  0.9827 -1.5464
 3871SOL     OW23071   4.152   4.359   8.368  0.5314 -0.8284  0.2258
 3871SOL    HW123072   4.219   4.406   8.318 -0.7525 -0.0811 -0.7973
 3871SOL    HW223073   4.128   4.436   8.419  1.2370 -0.1607 -0.4565
 3872SOL     OW23074   4.692   2.493   6.739 -0.2733 -0.3349 -0.4888
 3872SOL    HW123075   4.600   2.474   6.759  1.1432 -2.3950  3.8285
 3872SOL    HW223076   4.714   2.409   6.701  0.7054 -0.2294 -0.1427
 3873SOL     OW23077   4.111   0.045   1.196 -0.4851 -0.5744 -0.1605
 3873SOL    HW123078   4.178   0.112   1.181  0.1212 -1.2213 -0.3636
 3873SOL    HW223079   4.136   4.716   1.120  0.8346 -1.5395  0.9468
 3874SOL     OW23080   3.158   1.715   6.485 -0.0204 -0.5673 -0.2398
 3874SOL    HW123081   3.227   1.649   6.482 -1.2467 -1.8096 -1.4898
 3874SOL    HW223082   3.166   1.755   6.571  1.5847 -0.1312 -0.5845
 3875SOL     OW23083   4.643   1.184   6.162  0.5900 -0.3233  0.7650
 3875SOL    HW123084   4.584   1.195   6.237 -1.4025 -1.2343 -0.6763
 3875SOL    HW223085   4.604   1.230   6.088 -3.0169  0.6784  3.2786
 3876SOL     OW23086   2.267   4.180   9.890 -0.3082  0.2184  0.4444
 3876SOL    HW123087   2.294   4.165   9.799 -1.2825 -1.1923  0.3887
 3876SOL    HW223088   2.342   4.160   9.947 -0.5334  0.0306  0.6744
 3877SOL     OW23089   2.749   4.426   4.615 -0.2297  0.2808  0.6384
 3877SOL    HW123090   2.806   4.353   4.588  1.6807  1.8967  0.2682
 3877SOL    HW223091   2.662   4.388   4.624  0.3098 -0.9626  0.5633
 3878SOL     OW23092   0.333   3.347  16.525  0.6197 -0.4322 -0.4817
 3878SOL    HW123093   0.330   3.425  16.470 -0.7458  0.0532  0.2788
 3878SOL    HW223094   0.268   3.287  16.489 -1.2625  0.5452  1.2719
 3879SOL     OW23095   1.642   3.108   2.024  0.7102 -0.1682 -0.2417
 3879SOL    HW123096   1.671   3.050   1.954  1.2562  0.0421 -0.1823
 3879SOL    HW223097   1.586   3.049   2.076  0.1113 -0.6665 -1.4645
 3880SOL     OW23098   1.823   2.136   2.424  0.1622  0.2494 -0.0791
 3880SOL    HW123099   1.853   2.083   2.350 -0.3373 -0.5934  0.3232
 3880SOL    HW223100   1.876   2.107   2.497  0.8930 -0.9712 -1.0906
 3881SOL     OW23101   1.387   0.096   6.204  0.1694 -0.0598 -0.0362
 3881SOL    HW123102   1.341   0.158   6.260  0.0192  0.8071 -1.1239
 3881SOL    HW223103   1.354   0.014   6.240  3.6270 -2.2558 -1.8967
 3882SOL     OW23104   0.035   1.969   7.955  0.1581 -0.7276  0.1573
 3882SOL    HW123105   0.035   2.058   7.920  0.5021 -1.4263 -1.6518
 3882SOL    HW223106   0.118   1.945   7.914  0.3933 -4.5788  2.9067
 3883SOL     OW23107   3.078   2.053   7.975 -0.1863 -0.9752  0.3857
 3883SOL    HW123108   3.008   2.085   8.032  0.9292 -0.2749  1.3870
 3883SOL    HW223109   3.027   1.989   7.926 -1.2532  0.7094 -0.6900
 3884SOL     OW23110   2.351   0.979   0.416 -0.1371  0.0714  0.4358
 3884SOL    HW123111   2.337   1.025   0.499 -1.4981 -0.0733  0.2914
 3884SOL    HW223112   2.442   1.004   0.403  0.0834 -0.7357  0.4456
 3885SOL     OW23113   1.497   0.371   1.245 -0.1956 -0.2698 -0.0219
 3885SOL    HW123114   1.413   0.350   1.286 -0.1974 -0.8476 -0.3151
 3885SOL    HW223115   1.568   0.356   1.308 -1.3799 -1.6460  0.9894
 3886SOL     OW23116   1.647   3.187  17.400 -0.2639 -0.1967 -0.1611
 3886SOL    HW123117   1.719   3.145  17.447  1.0160 -1.1678 -3.0241
 3886SOL    HW223118   1.689   3.262  17.359 -2.3967  2.2857  2.1917
 3887SOL     OW23119   3.952   4.531  12.339 -0.1001  0.0999  0.2607
 3887SOL    HW123120   3.883   4.508  12.277 -0.1225 -2.2961  1.1710
 3887SOL    HW223121   3.938   4.458  12.399 -3.2669 -0.7456 -1.5301
 3888SOL     OW23122   1.814   3.506  17.529 -0.4108  0.5582  0.4929
 3888SOL    HW123123   1.777   3.553  17.454 -0.1024  1.6788  1.0267
 3888SOL    HW223124   1.908   3.510  17.511 -1.2361  2.1235 -3.6173
 3889SOL     OW23125   0.304   4.170   6.729 -0.0893  0.3752 -0.1359
 3889SOL    HW123126   0.233   4.228   6.702 -2.6152 -1.0737  3.4410
 3889SOL    HW223127   0.353   4.157   6.648  0.0490  0.9886 -0.1541
 3890SOL     OW23128   0.669   4.529  10.177 -0.6088  0.1964  0.4558
 3890SOL    HW123129   0.630   4.458  10.229 -0.7870  1.6722  2.3306
 3890SOL    HW223130   0.600   4.595  10.189 -1.5164 -0.8030  0.7230
 3891SOL     OW23131   1.216   0.417   4.814  0.0823  0.5656 -0.2507
 3891SOL    HW123132   1.141   0.466   4.846 -1.5236 -1.2866 -1.1907
 3891SOL    HW223133   1.223   0.348   4.881 -0.4123 -0.8598 -1.6671
 3892SOL     OW23134   2.703   3.285  15.625  0.0265 -0.5019 -0.2352
 3892SOL    HW123135   2.733   3.368  15.587 -0.9351 -0.4864 -0.9654
 3892SOL    HW223136   2.609   3.290  15.610  0.2383  0.9408 -1.1499
 3893SOL     OW23137   2.184   2.052   0.650 -0.5670 -0.2228 -0.7851
 3893SOL    HW123138   2.120   2.061   0.580 -1.5662  0.3784  0.2013
 3893SOL    HW223139   2.239   1.978   0.623  0.1014 -0.9344  2.5110
 3894SOL     OW23140   1.577   2.235   7.612  0.1312  0.1776 -0.0403
 3894SOL    HW123141   1.497   2.228   7.665 -1.8129 -1.2531 -3.1520
 3894SOL    HW223142   1.552   2.300   7.547 -1.9772 -0.3982  0.1715
 3895SOL     OW23143   2.140   0.192   7.884  0.0661  0.6937 -0.8946
 3895SOL    HW123144   2.150   0.287   7.888 -1.6418  0.8041  0.7131
 3895SOL    HW223145   2.079   0.183   7.957  0.3235  1.6382 -0.5632
 3896SOL     OW23146   2.949   1.936  13.623  0.4668  0.5441 -0.7738
 3896SOL    HW123147   2.927   1.995  13.695 -0.2322  0.9601 -1.3320
 3896SOL    HW223148   2.896   1.858  13.638 -0.8985  1.7004  0.3759
 3897SOL     OW23149   1.659   2.502  12.245  0.0029  0.2324  0.0311
 3897SOL    HW123150   1.583   2.518  12.189 -0.2345 -0.6381  0.0905
 3897SOL    HW223151   1.620   2.439  12.306  1.3168  1.3414  2.0350
 3898SOL     OW23152   1.757   3.344  12.182  0.3175  0.2154  0.1868
 3898SOL    HW123153   1.753   3.432  12.144 -2.9052 -0.8083 -1.8923
 3898SOL    HW223154   1.769   3.292  12.103 -2.7540 -0.5702  0.2031
 3899SOL     OW23155   3.647   1.572  10.540 -0.2413 -0.1714 -0.5537
 3899SOL    HW123156   3.693   1.509  10.485 -2.2768 -2.0563 -0.0833
 3899SOL    HW223157   3.631   1.519  10.618  1.2125 -2.0340 -1.5229
 3900SOL     OW23158   1.526   0.396   7.316 -0.1263 -0.0228  0.5078
 3900SOL    HW123159   1.559   0.351   7.394 -0.1714  0.8207  1.0094
 3900SOL    HW223160   1.558   0.482   7.342 -0.7740  1.1363 -2.5195
 3901SOL     OW23161   2.770   0.462   3.740  0.0763 -0.2543  0.0475
 3901SOL    HW123162   2.713   0.389   3.716 -0.7117  1.0739 -2.1373
 3901SOL    HW223163   2.820   0.465   3.658 -0.6953 -0.0606 -0.4170
 3902SOL     OW23164   3.003   3.413   6.907  0.2332  0.5898 -0.2499
 3902SOL    HW123165   2.938   3.443   6.970 -1.0520  0.3586 -1.4883
 3902SOL    HW223166   3.065   3.368   6.966  0.0942  0.4749 -0.1927
 3903SOL     OW23167   1.916   4.379   0.011 -0.1411 -0.3602 -0.1850
 3903SOL    HW123168   1.893   4.360  17.614 -0.4452  1.2457 -0.4488
 3903SOL    HW223169   1.831   4.415   0.035  1.4233  2.7902  0.7258
 3904SOL     OW23170   0.456   4.356  10.819  0.5356  0.5118 -0.1798
 3904SOL    HW123171   0.422   4.281  10.867  2.5083 -1.0810 -1.2360
 3904SOL    HW223172   0.454   4.435  10.872 -2.0289  0.1688  0.2437
 3905SOL     OW23173   0.220   0.243   1.908  0.1491  0.4941 -0.7459
 3905SOL    HW123174   0.192   0.256   1.998 -0.1072  2.0935 -1.0616
 3905SOL    HW223175   0.246   0.150   1.907  1.0614  0.7520  0.0247
 3906SOL     OW23176   0.175   0.812  12.126  0.3857  0.5232  0.8665
 3906SOL    HW123177   0.119   0.746  12.085  0.9976  0.8664 -0.5546
 3906SOL    HW223178   0.254   0.816  12.071 -1.4769  1.7052 -1.6948
 3907SOL     OW23179   3.407   3.100   2.220  0.7671  0.6412 -0.2030
 3907SOL    HW123180   3.376   3.147   2.143 -0.1101  2.1114  1.0513
 3907SOL    HW223181   3.501   3.098   2.201  0.5820  0.7992 -1.1371
 3908SOL     OW23182   3.725   0.572   6.249  0.0448  0.9583 -0.0043
 3908SOL    HW123183   3.781   0.508   6.293 -0.0862 -0.2553 -1.5829
 3908SOL    HW223184   3.789   0.602   6.184  0.3403  1.2595  0.4336
 3909SOL     OW23185   2.606   0.679   7.184 -0.0526  0.6083 -0.0546
 3909SOL    HW123186   2.595   0.660   7.091  0.5578 -0.3017  0.0651
 3909SOL    HW223187   2.699   0.669   7.200 -0.4148 -1.7280  0.6352
 3910SOL     OW23188   4.391   2.570   8.038 -0.3411  0.0032 -0.4642
 3910SOL    HW123189   4.324   2.501   8.039  1.7271 -2.0369 -0.9533
 3910SOL    HW223190   4.387   2.590   7.944 -0.8654  0.8261 -0.2560
 3911SOL     OW23191   1.271   2.303  14.838  0.0765  0.8491  0.2717
 3911SOL    HW123192   1.239   2.347  14.759 -0.4805  0.5260  0.3189
 3911SOL    HW223193   1.366   2.319  14.837  0.1933  0.1846  1.1131
 3912SOL     OW23194   1.791   4.592   6.843  0.8247 -0.2427 -0.0905
 3912SOL    HW123195   1.756   4.637   6.766  2.0293 -1.7992 -1.5649
 3912SOL    HW223196   1.769   4.657   6.909 -0.1881  1.9333 -2.5710
 3913SOL     OW23197   0.476   1.590   5.487 -0.3644  0.6123  0.2816
 3913SOL    HW123198   0.387   1.575   5.456  0.0945  1.0664 -1.2811
 3913SOL    HW223199   0.500   1.508   5.530 -2.8555  1.1180  2.6081
 3914SOL     OW23200   3.304   3.668  16.137 -0.2979  0.1101 -0.0638
 3914SOL    HW123201   3.272   3.674  16.047 -0.9181  2.2281  0.2832
 3914SOL    HW223202   3.317   3.761  16.158 -1.4680  0.3239 -0.2737
 3915SOL     OW23203   1.728   3.082  13.944  0.0372  0.0596 -0.3600
 3915SOL    HW123204   1.771   3.017  13.889 -1.0116 -2.5625  1.9563
 3915SOL    HW223205   1.800   3.116  13.998  0.3896  1.7029 -1.8315
 3916SOL     OW23206   3.494   4.579   3.296 -0.2018 -0.6946 -0.3600
 3916SOL    HW123207   3.588   4.579   3.314 -0.4669  1.2903  1.0031
 3916SOL    HW223208   3.484   4.646   3.228  1.1971  0.2503  0.3830
 3917SOL     OW23209   2.182   0.611   3.160  0.2451 -0.0094 -0.0673
 3917SOL    HW123210   2.268   0.609   3.117 -0.5436  0.0725 -1.6594
 3917SOL    HW223211   2.124   0.591   3.087 -0.6552  0.7982  0.4311
 3918SOL     OW23212   0.395   1.509   3.293  0.4189 -0.0277  0.2570
 3918SOL    HW123213   0.343   1.589   3.297  0.2614 -0.0823 -0.8529
 3918SOL    HW223214   0.464   1.542   3.351  0.9560 -0.1343 -0.3201
 3919SOL     OW23215   3.995   0.775   0.741 -0.5683  0.5054 -0.6950
 3919SOL    HW123216   3.977   0.767   0.835  0.3255 -0.4610 -0.6104
 3919SOL    HW223217   3.982   0.687   0.707  3.3634 -0.7626  1.1478
 3920SOL     OW23218   0.950   4.443   9.596 -0.2893  0.4189  0.3785
 3920SOL    HW123219   0.923   4.439   9.687 -0.0135 -1.1185  0.3917
 3920SOL    HW223220   0.874   4.400   9.556  0.9991  0.3981 -2.0614
 3921SOL     OW23221   2.360   1.531   4.699  0.1449 -0.2889 -0.1417
 3921SOL    HW123222   2.299   1.586   4.748  0.7382 -0.6613  1.0108
 3921SOL    HW223223   2.438   1.538   4.755 -1.7654 -1.1625  2.5736
 3922SOL     OW23224   0.591   2.648  15.091 -0.2426  0.0434  0.2197
 3922SOL    HW123225   0.605   2.555  15.110 -1.8813  0.0372  1.4221
 3922SOL    HW223226   0.564   2.674  15.179 -1.9647 -2.0144  0.3124
 3923SOL     OW23227   0.976   2.587  12.269 -0.8322  0.6714  0.8471
 3923SOL    HW123228   0.920   2.520  12.308 -2.7809  1.4105 -0.7050
 3923SOL    HW223229   0.934   2.658  12.318 -1.8484  0.0643  0.8487
 3924SOL     OW23230   3.072   1.185   8.497 -0.3636 -0.7780  0.2072
 3924SOL    HW123231   3.027   1.108   8.461  1.6448 -1.4201 -0.9134
 3924SOL    HW223232   3.040   1.187   8.587 -0.2510  0.2476  0.2233
 3925SOL     OW23233   3.757   2.912   5.872  0.5675  0.0215 -0.0339
 3925SOL    HW123234   3.830   2.952   5.826  0.8522 -2.0473 -1.3986
 3925SOL    HW223235   3.690   2.978   5.856  0.7615  0.2279  0.0174
 3926SOL     OW23236   1.778   2.203   7.238  0.8407  0.0608  0.2410
 3926SOL    HW123237   1.707   2.139   7.238  0.0058  0.9816 -1.0353
 3926SOL    HW223238   1.741   2.278   7.193 -1.0459 -0.4815  0.8821
 3927SOL     OW23239   4.520   1.720   4.282 -0.6147  0.4334  0.6335
 3927SOL    HW123240   4.428   1.746   4.275 -0.7642 -0.7348 -1.7931
 3927SOL    HW223241   4.561   1.787   4.226  2.1239 -3.3437 -1.8367
 3928SOL     OW23242   2.795   2.672   4.895  0.4664  0.3778 -0.0334
 3928SOL    HW123243   2.710   2.638   4.869 -0.2469  1.2175  1.1926
 3928SOL    HW223244   2.763   2.751   4.939  2.3470  0.8817  0.4299
 3929SOL     OW23245   3.963   4.478   2.882 -0.2497 -0.1958  0.2453
 3929SOL    HW123246   3.909   4.401   2.900 -0.0444 -0.1064  1.2545
 3929SOL    HW223247   3.941   4.494   2.790 -0.9334  0.1620  0.4653
 3930SOL     OW23248   0.154   4.704   1.200 -0.2154 -0.7930  0.5110
 3930SOL    HW123249   0.244   4.673   1.187 -0.5931 -1.3305 -0.8960
 3930SOL    HW223250   0.125   4.705   1.109  0.1013  1.1857  0.4180
 3931SOL     OW23251   1.549   1.971   1.904 -0.6105 -0.4542 -0.3323
 3931SOL    HW123252   1.483   2.031   1.870 -0.1478 -1.3120 -2.7098
 3931SOL    HW223253   1.545   1.904   1.836  2.1551 -1.6359  0.6476
 3932SOL     OW23254   3.687   1.627   6.020  0.1355 -0.7002 -0.6104
 3932SOL    HW123255   3.701   1.602   5.929 -0.4291 -0.6532 -0.7069
 3932SOL    HW223256   3.725   1.551   6.065  0.3269  0.2275  0.8128
 3933SOL     OW23257   0.946   3.380   6.355 -0.5152 -0.3099  0.2559
 3933SOL    HW123258   0.974   3.462   6.314 -0.5092 -0.0562  0.7712
 3933SOL    HW223259   0.954   3.321   6.280  0.4627 -0.8244  0.7601
 3934SOL     OW23260   2.773   4.374   4.913 -0.2119  0.3253 -0.0332
 3934SOL    HW123261   2.772   4.406   4.823 -0.3793  0.6056  0.0679
 3934SOL    HW223262   2.727   4.291   4.900  0.8510 -0.4067  0.8347
 3935SOL     OW23263   3.240   4.641  13.940 -0.0480  0.0815  0.2451
 3935SOL    HW123264   3.239   4.678  14.028 -3.6196  0.4099  0.0595
 3935SOL    HW223265   3.328   4.650  13.904 -0.0441  1.6838  0.7020
 3936SOL     OW23266   0.737   2.589   0.993  0.6846  0.0042  0.1264
 3936SOL    HW123267   0.738   2.570   1.087 -1.6691  0.3272  0.2362
 3936SOL    HW223268   0.798   2.662   0.992  2.6063 -1.5740  1.7114
 3937SOL     OW23269   0.468   4.566   5.634 -0.0618 -0.6125  0.0678
 3937SOL    HW123270   0.414   4.607   5.701  1.8533  1.1490  0.5245
 3937SOL    HW223271   0.413   4.488   5.629  1.6820 -2.0406  2.9090
 3938SOL     OW23272   4.487   1.202  13.313 -0.6125  0.3533 -0.2898
 3938SOL    HW123273   4.496   1.270  13.380  1.4469  0.5052 -0.7139
 3938SOL    HW223274   4.423   1.143  13.355  0.4147 -0.4346  0.1801
 3939SOL     OW23275   3.347   3.024  10.151  0.0592 -0.1055 -0.0947
 3939SOL    HW123276   3.260   3.032  10.112  0.9070  1.9694 -1.6379
 3939SOL    HW223277   3.375   2.942  10.111  2.4935  0.0810  1.2317
 3940SOL     OW23278   1.452   1.272   1.852 -0.1583  0.6141  0.3996
 3940SOL    HW123279   1.373   1.224   1.878 -0.2882  1.6719  1.9256
 3940SOL    HW223280   1.427   1.362   1.835 -1.4327  0.8263  3.4187
 3941SOL     OW23281   3.402   3.085   3.485  0.1714  0.1115 -0.3321
 3941SOL    HW123282   3.334   3.021   3.463  0.4248 -0.2680 -0.0087
 3941SOL    HW223283   3.425   3.118   3.398  1.2655 -0.9345 -0.4493
 3942SOL     OW23284   0.528   3.284   7.697  0.2273 -0.0505  0.3480
 3942SOL    HW123285   0.524   3.220   7.626 -0.7471 -2.7461  2.8451
 3942SOL    HW223286   0.616   3.321   7.691  1.2419 -2.4295  0.3911
 3943SOL     OW23287   1.832   1.735  10.930 -0.5459  0.3085 -0.0918
 3943SOL    HW123288   1.740   1.750  10.908 -0.8699 -1.0701  0.2932
 3943SOL    HW223289   1.844   1.785  11.010 -0.8458  0.6880 -0.2895
 3944SOL     OW23290   4.269   4.666  17.493 -0.1008 -0.3073  0.5285
 3944SOL    HW123291   4.308   4.643  17.577  3.4641 -2.0418 -1.5838
 3944SOL    HW223292   4.286   0.037  17.495  0.0847 -0.3576  1.1730
 3945SOL     OW23293   2.402   0.348   6.660  0.3767  0.0456 -0.4754
 3945SOL    HW123294   2.336   0.405   6.701 -0.8917 -0.6173 -1.6354
 3945SOL    HW223295   2.337   0.291   6.620 -0.5927  1.6959 -1.2597
 3946SOL     OW23296   3.434   2.337   6.064  0.1847 -0.3206 -0.1261
 3946SOL    HW123297   3.488   2.358   6.140  0.4729 -1.2478 -0.0732
 3946SOL    HW223298   3.381   2.265   6.099  1.2226 -0.3224  1.4687
 3947SOL     OW23299   2.377   3.620  11.279  0.6179  0.0166 -0.0090
 3947SOL    HW123300   2.417   3.672  11.349 -0.3852  0.2273  0.4071
 3947SOL    HW223301   2.288   3.616  11.312  0.8313 -0.5685  0.5037
 3948SOL     OW23302   4.568   1.140  11.200  0.5680  0.3158 -0.3319
 3948SOL    HW123303   4.646   1.154  11.254 -0.1178 -0.9868  1.0115
 3948SOL    HW223304   4.499   1.133  11.266  0.5684 -3.1239 -0.6767
 3949SOL     OW23305   4.213   0.039  10.823 -0.0297 -0.2209  0.1489
 3949SOL    HW123306   4.280   4.714  10.872  0.4502 -1.4139 -1.6630
 3949SOL    HW223307   4.141   0.014  10.880  3.2518 -2.3228  3.3959
 3950SOL     OW23308   4.671   3.511   3.708  0.2571 -0.4022 -0.2875
 3950SOL    HW123309   0.042   3.525   3.716  0.5793 -2.5619 -0.3773
 3950SOL    HW223310   4.659   3.437   3.768  0.8375  0.8587  1.3733
 3951SOL     OW23311   4.447   1.259   6.324  0.3612  0.1743 -0.4248
 3951SOL    HW123312   4.461   1.351   6.300  0.4870 -0.1443 -1.6027
 3951SOL    HW223313   4.485   1.266   6.411 -0.5896  2.0104 -0.1670
 3952SOL     OW23314   1.035   4.475  10.119 -0.0562 -0.5517 -0.2347
 3952SOL    HW123315   1.005   4.487  10.209 -1.2552 -3.8764 -0.1710
 3952SOL    HW223316   1.002   4.555  10.078 -1.4873 -0.3639  1.2758
 3953SOL     OW23317   1.590   2.800   8.460 -0.5462 -0.0334 -0.4633
 3953SOL    HW123318   1.526   2.855   8.505  0.4689 -0.5226  1.5416
 3953SOL    HW223319   1.651   2.873   8.453  1.6099 -1.9223 -1.5205
 3954SOL     OW23320   2.114   4.255   6.754  0.4336  0.0796 -0.3520
 3954SOL    HW123321   2.112   4.329   6.815 -1.3500 -0.3782  0.1514
 3954SOL    HW223322   2.031   4.213   6.779  0.6558  0.7084  1.4589
 3955SOL     OW23323   2.705   1.271   3.244  0.0437  0.2926  0.2736
 3955SOL    HW123324   2.637   1.212   3.276  0.0457 -0.9534 -2.0025
 3955SOL    HW223325   2.786   1.255   3.292 -0.2033 -0.6933  0.3604
 3956SOL     OW23326   2.360   0.920   1.997 -0.0300  0.3788 -0.2740
 3956SOL    HW123327   2.268   0.893   1.987  0.6165 -1.7021 -0.6048
 3956SOL    HW223328   2.370   0.925   2.092  0.9753 -0.3261 -0.3472
 3957SOL     OW23329   2.700   2.385   5.086 -0.1682  0.4225  0.5280
 3957SOL    HW123330   2.751   2.367   5.007 -1.3791  0.5474 -0.2798
 3957SOL    HW223331   2.689   2.480   5.080 -2.5019  0.1189 -0.0137
 3958SOL     OW23332   1.503   0.726   7.034  0.1612  0.4573 -0.0294
 3958SOL    HW123333   1.499   0.644   6.985  1.1228  0.0510  0.5672
 3958SOL    HW223334   1.582   0.704   7.083 -0.1357  0.8648  0.6389
 3959SOL     OW23335   1.970   0.422  16.782  0.2884 -0.3695  0.3311
 3959SOL    HW123336   1.897   0.484  16.789  0.0905 -0.5135 -0.4865
 3959SOL    HW223337   1.957   0.369  16.861 -0.1818 -0.8754 -0.0899
 3960SOL     OW23338   4.439   3.395   8.723  0.3936  0.1633  0.0981
 3960SOL    HW123339   4.507   3.378   8.788  0.3797  0.0799  0.0907
 3960SOL    HW223340   4.497   3.431   8.656  1.0039  0.4312  0.7649
 3961SOL     OW23341   0.192   1.208   6.231 -0.1419  0.1779 -0.0375
 3961SOL    HW123342   0.098   1.227   6.234 -0.0926  0.4641 -0.2802
 3961SOL    HW223343   0.208   1.217   6.137  1.5631 -0.5256  0.1957
 3962SOL     OW23344   3.034   3.854  16.040 -0.0124 -0.3418  0.6587
 3962SOL    HW123345   3.100   3.817  15.980  0.1976 -1.2791  1.4602
 3962SOL    HW223346   2.974   3.779  16.040 -0.8839  0.3598 -0.1659
 3963SOL     OW23347   2.332   3.954  13.115  0.0324  0.2195  0.0208
 3963SOL    HW123348   2.292   3.873  13.146  2.0212 -0.4054  1.0197
 3963SOL    HW223349   2.376   3.990  13.192 -0.9266 -1.2447  1.2540
 3964SOL     OW23350   0.927   3.371   2.021  0.1708  0.0008 -0.7005
 3964SOL    HW123351   0.985   3.320   1.965  0.2946 -0.7984  0.1498
 3964SOL    HW223352   0.896   3.444   1.968  0.2025  0.1756 -0.4765
 3965SOL     OW23353   1.506   3.270   3.601 -0.3032  0.6485  0.1320
 3965SOL    HW123354   1.464   3.355   3.586 -2.2463  0.0684  2.3420
 3965SOL    HW223355   1.572   3.266   3.531 -1.3553  1.0034 -0.8816
 3966SOL     OW23356   2.417   3.703   7.719 -0.3783  0.2713  0.4490
 3966SOL    HW123357   2.508   3.697   7.751 -0.4856  0.6437  0.8286
 3966SOL    HW223358   2.407   3.787   7.674  0.2613  1.1443  1.9542
 3967SOL     OW23359   3.467   0.685   2.365  0.7210 -0.1909 -0.2396
 3967SOL    HW123360   3.380   0.646   2.354  1.0795 -1.2608  0.6969
 3967SOL    HW223361   3.512   0.621   2.420  0.1056 -1.0441 -0.7379
 3968SOL     OW23362   2.159   1.147   1.823  0.1402  0.3684 -0.0375
 3968SOL    HW123363   2.077   1.147   1.773 -0.3377  4.2597  0.7274
 3968SOL    HW223364   2.225   1.141   1.755 -1.2738 -3.5875 -1.0570
 3969SOL     OW23365   4.183   1.973   4.964  0.3738 -0.0943 -0.6149
 3969SOL    HW123366   4.202   1.884   4.994 -2.3140 -0.7959 -1.0626
 3969SOL    HW223367   4.111   2.006   5.018 -0.3252  0.6632 -2.0311
 3970SOL     OW23368   3.798   2.506   4.967  0.1870  0.2061  0.6488
 3970SOL    HW123369   3.729   2.570   4.979  1.5841  1.6748  0.9139
 3970SOL    HW223370   3.749   2.434   4.928 -0.7118  0.7519  0.7708
 3971SOL     OW23371   2.632   3.991  16.226 -0.2476 -0.2710 -0.0362
 3971SOL    HW123372   2.641   4.003  16.321 -2.1018 -0.0807  0.1204
 3971SOL    HW223373   2.695   4.056  16.197 -0.1816 -0.5870 -0.5921
 3972SOL     OW23374   0.662   2.856   8.918  0.0963  0.1364  0.2518
 3972SOL    HW123375   0.711   2.937   8.904  0.6674 -0.3981 -0.8626
 3972SOL    HW223376   0.726   2.810   8.972 -0.0289  0.1550  0.4178
 3973SOL     OW23377   0.507   0.111   2.277 -0.1439 -0.4017 -0.1022
 3973SOL    HW123378   0.558   0.112   2.196  1.9403 -1.6111  1.1919
 3973SOL    HW223379   0.569   0.066   2.335  0.2566  1.4065  0.8458
 3974SOL     OW23380   3.328   1.977   8.030  0.2077 -0.0191 -0.8432
 3974SOL    HW123381   3.238   2.009   8.037  0.8846  1.5706  0.5866
 3974SOL    HW223382   3.312   1.888   7.999  1.1792 -0.3932 -0.2751
 3975SOL     OW23383   0.090   4.673   9.473  0.2770 -0.8906  0.0214
 3975SOL    HW123384   0.009   4.662   9.523  0.6333  1.0364  1.0528
 3975SOL    HW223385   0.052   4.690   9.387 -0.0177 -2.8656 -0.2390
 3976SOL     OW23386   4.410   4.071   2.945  0.1067 -0.0844  0.0827
 3976SOL    HW123387   4.374   3.998   2.995 -1.9681  0.1674 -1.0868
 3976SOL    HW223388   4.474   4.038   2.881 -1.7840  0.4916 -2.0841
 3977SOL     OW23389   3.628   4.231   4.331  0.2532  0.0294  0.3956
 3977SOL    HW123390   3.701   4.232   4.393  2.0926  1.0234 -1.8112
 3977SOL    HW223391   3.602   4.323   4.342  1.3496  0.7287 -2.9192
 3978SOL     OW23392   1.255   3.106   4.721 -0.2000 -0.1950 -0.0523
 3978SOL    HW123393   1.264   3.153   4.804 -1.3724  1.1991 -0.6994
 3978SOL    HW223394   1.329   3.046   4.728 -0.3380 -0.3761 -0.1507
 3979SOL     OW23395   1.972   3.236   6.401 -0.2031 -0.0980  0.3848
 3979SOL    HW123396   2.052   3.242   6.350 -0.8991  2.4450 -0.4456
 3979SOL    HW223397   1.993   3.321   6.441 -0.2730  1.0740 -2.0582
 3980SOL     OW23398   2.533   1.418   8.279  0.1496  0.2790 -0.4171
 3980SOL    HW123399   2.586   1.416   8.200 -2.3518 -3.0778 -2.0526
 3980SOL    HW223400   2.478   1.340   8.265  2.3176 -1.3210 -0.0116
 3981SOL     OW23401   0.723   3.620   8.078 -0.6131  0.0808 -0.5345
 3981SOL    HW123402   0.693   3.531   8.100 -0.0251 -0.1544 -0.6995
 3981SOL    HW223403   0.817   3.613   8.088 -0.6461 -0.6913 -0.7542
 3982SOL     OW23404   3.189   3.362   2.956 -0.5413  0.2078  0.3787
 3982SOL    HW123405   3.189   3.296   2.887  1.5768  0.6239  0.0036
 3982SOL    HW223406   3.200   3.443   2.906  2.3286  0.5990  1.6666
 3983SOL     OW23407   3.829   4.264   7.505  0.3188 -0.5438  0.3695
 3983SOL    HW123408   3.844   4.273   7.599  1.1069 -0.3676  0.2253
 3983SOL    HW223409   3.736   4.285   7.495  0.7486  1.1671 -0.0149
 3984SOL     OW23410   3.848   1.808   5.009 -0.4121  0.7188 -0.5306
 3984SOL    HW123411   3.911   1.754   4.962 -1.1478  1.3457 -2.2196
 3984SOL    HW223412   3.801   1.841   4.933 -1.4484  0.6180  0.0621
 3985SOL     OW23413   1.679   4.602  11.265 -0.3091 -0.3221 -0.1100
 3985SOL    HW123414   1.770   4.610  11.236 -0.4296  0.1989 -0.3532
 3985SOL    HW223415   1.675   4.508  11.252 -4.2636 -0.0554 -0.8355
 3986SOL     OW23416   2.500   0.947   9.187  0.3099 -0.6321 -0.0330
 3986SOL    HW123417   2.525   0.990   9.269 -0.2752 -0.0166 -0.1777
 3986SOL    HW223418   2.447   0.878   9.227 -1.3323  0.1882 -0.8030
 3987SOL     OW23419   3.746   3.598   1.961  0.3412  0.0736 -0.2288
 3987SOL    HW123420   3.757   3.637   1.875  0.4553 -1.5072 -0.9433
 3987SOL    HW223421   3.765   3.506   1.942 -0.9146 -0.1121 -0.5928
 3988SOL     OW23422   3.569   1.059  13.118  0.0406 -0.2938  0.2175
 3988SOL    HW123423   3.637   0.996  13.140  0.7122  1.0133  1.8544
 3988SOL    HW223424   3.498   0.996  13.105 -0.5655  0.5571 -0.6146
 3989SOL     OW23425   0.982   0.156   7.769 -0.4333  0.5292  0.5405
 3989SOL    HW123426   1.061   0.168   7.822  0.2021  0.4532 -0.3898
 3989SOL    HW223427   0.907   0.185   7.822  0.6212 -1.0271  2.9095
 3990SOL     OW23428   2.595   4.625   2.129 -0.2774 -0.2626  0.6793
 3990SOL    HW123429   2.676   4.641   2.177 -0.2858  1.2673  0.1828
 3990SOL    HW223430   2.537   4.595   2.199 -2.1513  2.4772  0.2932
 3991SOL     OW23431   4.045   0.999   7.931 -0.4267  0.6786 -0.7317
 3991SOL    HW123432   4.015   1.056   8.001 -0.2143 -0.4147  0.2667
 3991SOL    HW223433   4.113   0.950   7.979 -1.2947 -0.4168 -0.6167
 3992SOL     OW23434   1.786   2.492   4.213 -0.5320 -0.6807 -0.5273
 3992SOL    HW123435   1.693   2.510   4.198 -0.3016  1.3585  0.5863
 3992SOL    HW223436   1.805   2.574   4.258 -2.6284 -0.3023 -0.3366
 3993SOL     OW23437   0.880   4.151   8.035  0.4545  0.4563  0.0814
 3993SOL    HW123438   0.962   4.157   8.084  1.7572 -0.4795 -1.9903
 3993SOL    HW223439   0.906   4.207   7.961  4.1116 -0.4669  0.6735
 3994SOL     OW23440   2.902   1.979   7.702 -0.1417 -0.1601  0.1478
 3994SOL    HW123441   2.894   1.928   7.622 -1.7332 -0.5798  0.5600
 3994SOL    HW223442   2.901   1.909   7.767  0.6173  1.8766  2.3604
 3995SOL     OW23443   1.414   1.494   2.112  0.8790  0.1142 -0.2054
 3995SOL    HW123444   1.493   1.509   2.163  0.5097 -1.5172  0.8622
 3995SOL    HW223445   1.431   1.404   2.082  0.3919 -1.3051  3.7897
 3996SOL     OW23446   2.313   1.870  17.641  0.0666  0.4193 -0.4094
 3996SOL    HW123447   2.387   1.898   0.001 -0.0816 -0.6241  0.3354
 3996SOL    HW223448   2.357   1.816  17.576 -2.6115 -2.6785  0.3565
 3997SOL     OW23449   0.971   4.059   5.772 -0.3962  0.3230 -0.5745
 3997SOL    HW123450   0.931   4.145   5.766  1.1106  1.0750  0.1494
 3997SOL    HW223451   0.971   4.054   5.867 -0.3263  1.7211 -0.5086
 3998SOL     OW23452   2.487   4.382   5.224  0.2033 -0.0005 -0.2439
 3998SOL    HW123453   2.580   4.390   5.206  0.3487  2.6826  1.6960
 3998SOL    HW223454   2.468   4.330   5.146 -4.8324 -1.5764  2.0046
 3999SOL     OW23455   4.670   3.539   7.012  0.2996  0.6948  0.0943
 3999SOL    HW123456   4.723   3.501   6.941 -0.6615  0.8132 -0.6730
 3999SOL    HW223457   4.669   3.628   6.978 -1.4913  1.0657  1.1708
 4000SOL     OW23458   1.505   4.643  11.497  0.3441  0.3919  0.1681
 4000SOL    HW123459   1.471   4.566  11.542  0.9074 -1.3671 -2.4151
 4000SOL    HW223460   1.556   4.596  11.431  2.7122  2.4085  0.5872
 4001SOL     OW23461   1.299   1.196  10.286 -0.1495  0.2323  0.9094
 4001SOL    HW123462   1.217   1.218  10.330  0.5157  1.9280  1.2819
 4001SOL    HW223463   1.305   1.269  10.225  0.2223 -1.6832 -1.3380
 4002SOL     OW23464   3.654   3.104   7.271 -0.5568 -0.1330  0.5032
 4002SOL    HW123465   3.655   3.139   7.360  1.0747  0.1647  0.3651
 4002SOL    HW223466   3.690   3.017   7.288  0.7781 -0.3942 -3.5985
 4003SOL     OW23467   2.492   4.490  11.255  0.2426 -0.7177 -0.5059
 4003SOL    HW123468   2.586   4.507  11.262  0.6194 -2.4543 -1.2178
 4003SOL    HW223469   2.469   4.559  11.318 -0.8643 -0.7109 -0.9149
 4004SOL     OW23470   2.929   0.690   7.364 -0.0796 -0.4015 -0.3300
 4004SOL    HW123471   2.937   0.725   7.453 -0.6180 -0.6245 -0.1959
 4004SOL    HW223472   2.952   0.598   7.372  3.0193  0.4900  0.8264
 4005SOL     OW23473   2.203   4.155   5.638 -0.0553  0.0870 -0.0573
 4005SOL    HW123474   2.196   4.200   5.722  1.9810  1.4317 -0.6339
 4005SOL    HW223475   2.249   4.071   5.648 -1.1475 -0.3232  1.4627
 4006SOL     OW23476   4.544   3.771   4.184  0.2257 -0.0631 -0.5510
 4006SOL    HW123477   4.582   3.792   4.099  1.5918 -1.0890 -0.1941
 4006SOL    HW223478   4.453   3.758   4.158 -0.2029 -0.0360  0.9499
 4007SOL     OW23479   3.028   2.658  14.796 -0.0962 -0.3459  0.0958
 4007SOL    HW123480   3.048   2.678  14.704 -3.8707  0.2239 -0.6228
 4007SOL    HW223481   2.991   2.570  14.794  0.3132 -0.4433 -4.0213
 4008SOL     OW23482   2.700   1.152   7.123 -0.2350 -0.2560  0.1147
 4008SOL    HW123483   2.660   1.218   7.179 -1.9436 -0.9932 -0.2248
 4008SOL    HW223484   2.625   1.100   7.092  0.2857 -0.6862 -0.4379
 4009SOL     OW23485   2.340   3.702  17.570  0.2236  0.3757 -0.1395
 4009SOL    HW123486   2.420   3.726  17.522 -1.2482 -1.7130 -3.6614
 4009SOL    HW223487   2.362   3.667  17.656 -1.4446 -0.0855  0.1014
 4010SOL     OW23488   4.287   1.816   4.279 -0.4615  0.1737  0.7446
 4010SOL    HW123489   4.244   1.886   4.327  0.5979  0.8105  0.7576
 4010SOL    HW223490   4.211   1.771   4.241 -1.3547  0.9830  1.5619
 4011SOL     OW23491   3.161   3.692  14.453  0.2824  0.1069  0.5045
 4011SOL    HW123492   3.099   3.763  14.439  1.1866  1.1931  1.9234
 4011SOL    HW223493   3.109   3.624  14.411  2.3463 -0.7041 -0.7803
 4012SOL     OW23494   1.955   2.811   3.007 -0.2276  0.2539 -0.1681
 4012SOL    HW123495   2.030   2.863   2.977  0.2393 -1.2064 -1.5553
 4012SOL    HW223496   1.987   2.787   3.094 -1.2110  1.1214  0.4421
 4013SOL     OW23497   4.187   0.710   2.840  0.1232 -0.6316 -0.3878
 4013SOL    HW123498   4.245   0.645   2.800  1.7856  0.0359  0.9168
 4013SOL    HW223499   4.207   0.780   2.778 -0.5147  0.4293  0.5890
 4014SOL     OW23500   3.506   0.617   6.703 -0.3701  0.2561 -0.1130
 4014SOL    HW123501   3.431   0.622   6.762  0.1028  0.8526  0.4342
 4014SOL    HW223502   3.566   0.679   6.745 -0.6493  1.0537 -0.8758
 4015SOL     OW23503   4.522   0.236  14.371 -0.3323  0.2831  0.4123
 4015SOL    HW123504   4.462   0.182  14.320  0.9261 -0.3939 -0.3551
 4015SOL    HW223505   4.497   0.322  14.335 -1.3866  0.5779  1.8434
 4016SOL     OW23506   1.309   2.279   3.369 -0.3321  0.0739 -0.1882
 4016SOL    HW123507   1.348   2.321   3.292  1.7224 -2.1707 -0.3765
 4016SOL    HW223508   1.286   2.191   3.337 -0.1156 -0.7269  1.8868
 4017SOL     OW23509   3.651   4.037   4.600 -0.4740 -0.2290  0.4868
 4017SOL    HW123510   3.721   4.100   4.615 -1.0711  0.5110  0.1714
 4017SOL    HW223511   3.585   4.064   4.664 -1.1294 -1.1232  0.1835
 4018SOL     OW23512   0.108   1.993   3.644 -0.6965 -0.2164 -0.6720
 4018SOL    HW123513   0.125   1.912   3.692 -1.0489  0.6542  0.8972
 4018SOL    HW223514   0.168   2.055   3.686 -2.5089  0.5205  0.7929
 4019SOL     OW23515   4.360   1.904   2.235  0.4121 -0.1241 -0.1692
 4019SOL    HW123516   4.370   1.998   2.218 -2.8189  0.0513 -1.1674
 4019SOL    HW223517   4.357   1.881   2.142  2.5703 -1.7143  0.1482
 4020SOL     OW23518   4.617   3.815   4.911 -0.2668 -0.0531 -0.4286
 4020SOL    HW123519   4.641   3.875   4.841  2.1214  0.8163  1.1184
 4020SOL    HW223520   4.576   3.878   4.970  2.1014  0.6780  0.4435
 4021SOL     OW23521   4.417   0.465  13.223 -0.2962  0.0415 -0.1038
 4021SOL    HW123522   4.455   0.490  13.139  2.4498 -0.2888  1.0455
 4021SOL    HW223523   4.363   0.542  13.238 -1.8941 -0.9264 -0.8206
 4022SOL     OW23524   3.430   4.005  13.905  0.0763 -1.2280  0.4960
 4022SOL    HW123525   3.340   3.979  13.927  0.9467 -0.7252  4.5569
 4022SOL    HW223526   3.466   3.982  13.990  0.3954  0.5073  0.8219
 4023SOL     OW23527   3.901   0.871  10.222 -0.3809 -0.8606  0.5646
 4023SOL    HW123528   3.871   0.961  10.233  0.0319 -0.8353  1.4584
 4023SOL    HW223529   3.942   0.860  10.308  1.4533  0.6542 -0.0887
 4024SOL     OW23530   4.682   1.976  11.945 -0.2753 -0.1450  0.2546
 4024SOL    HW123531   4.672   2.043  12.014 -1.7054 -2.3889  2.2386
 4024SOL    HW223532   4.593   1.946  11.924 -0.3029  1.1177 -1.4367
 4025SOL     OW23533   1.464   4.291  13.572  0.8217  0.0832  0.1738
 4025SOL    HW123534   1.394   4.282  13.507  0.3534 -0.2569  0.7310
 4025SOL    HW223535   1.476   4.384  13.590 -1.2267  0.4103 -0.1639
 4026SOL     OW23536   0.371   4.479   4.021  0.2350 -0.5914  0.0866
 4026SOL    HW123537   0.340   4.476   3.931  0.0771 -1.3527  0.1667
 4026SOL    HW223538   0.284   4.476   4.060  0.1963 -0.5688  0.0027
 4027SOL     OW23539   4.141   4.187   2.882  0.0484  0.1883  0.2005
 4027SOL    HW123540   4.138   4.274   2.921 -1.9221  0.2770 -0.1815
 4027SOL    HW223541   4.235   4.168   2.895 -0.0378  1.1182  2.2040
 4028SOL     OW23542   2.393   4.209   6.741 -0.2376  0.5104  0.2599
 4028SOL    HW123543   2.400   4.299   6.710  0.7765  1.1906  2.4048
 4028SOL    HW223544   2.301   4.211   6.768 -0.4604 -0.1723 -0.4468
 4029SOL     OW23545   4.142   4.047  10.947  0.1344 -0.2429  0.0561
 4029SOL    HW123546   4.229   4.063  10.983  0.9139 -2.3615 -0.8735
 4029SOL    HW223547   4.103   3.984  11.008  1.1056  2.2857  3.2570
 4030SOL     OW23548   3.125   1.862   5.766  0.1112 -0.1495 -0.5689
 4030SOL    HW123549   3.086   1.948   5.783  1.8003  0.9005 -1.9515
 4030SOL    HW223550   3.184   1.879   5.693  1.7288  1.0598  1.0411
 4031SOL     OW23551   3.996   2.697   9.250  0.0510 -0.6820 -0.2055
 4031SOL    HW123552   4.012   2.771   9.190  1.3298 -0.5614  0.2688
 4031SOL    HW223553   3.970   2.748   9.327  0.1987 -0.2543 -0.4338
 4032SOL     OW23554   1.008   1.672   6.289 -0.4536  0.0513 -0.1957
 4032SOL    HW123555   0.950   1.644   6.361  1.4439  1.8410  2.0402
 4032SOL    HW223556   1.003   1.767   6.284  3.0325  0.3537  1.8634
 4033SOL     OW23557   0.718   4.280   3.736  0.4966  0.3049  0.2817
 4033SOL    HW123558   0.813   4.277   3.742  0.4571 -3.7723 -1.0115
 4033SOL    HW223559   0.705   4.370   3.767 -0.6733  0.4137 -0.4880
 4034SOL     OW23560   0.731   2.474   4.529 -0.1599 -0.3128  0.3597
 4034SOL    HW123561   0.658   2.512   4.578 -0.7057 -1.7107  0.6352
 4034SOL    HW223562   0.794   2.432   4.588 -0.3047 -0.2064  0.5886
 4035SOL     OW23563   3.921   4.624   9.427 -0.2472 -0.3766 -0.1951
 4035SOL    HW123564   3.863   4.695   9.455  0.6358  1.6815 -3.4982
 4035SOL    HW223565   3.873   4.617   9.344 -1.9008  2.6661  0.4997
 4036SOL     OW23566   1.474   0.431  10.072 -0.2975 -0.4758  0.3480
 4036SOL    HW123567   1.515   0.347  10.090 -1.0032 -1.0232 -0.5666
 4036SOL    HW223568   1.540   0.488  10.111 -0.8963  0.9576 -0.7195
 4037SOL     OW23569   2.987   2.389   4.511 -0.2298  0.2618 -0.2870
 4037SOL    HW123570   3.017   2.475   4.539  0.4480  0.2869 -1.1153
 4037SOL    HW223571   2.893   2.385   4.529  0.3372 -0.3634  2.6844
 4038SOL     OW23572   3.174   4.603   3.064  0.2780 -0.3114 -0.0206
 4038SOL    HW123573   3.107   4.667   3.043  1.6419  1.5740  1.3576
 4038SOL    HW223574   3.190   4.632   3.153 -2.8827  1.2495  0.0109
 4039SOL     OW23575   0.370   1.142  13.555  0.1032 -0.0663  0.2027
 4039SOL    HW123576   0.427   1.219  13.560 -1.2663  0.8723  1.3502
 4039SOL    HW223577   0.371   1.126  13.460  0.1377  0.0176  0.1883
 4040SOL     OW23578   2.060   2.305   0.848  0.0525  0.1487 -0.3449
 4040SOL    HW123579   2.092   2.222   0.883  1.6356  0.1960 -1.7008
 4040SOL    HW223580   1.985   2.275   0.798  2.1750  0.2279 -3.5512
 4041SOL     OW23581   0.782   4.031   4.914 -0.6621  0.8141  0.1301
 4041SOL    HW123582   0.737   4.008   4.833  1.4630 -0.2270 -0.7497
 4041SOL    HW223583   0.726   4.005   4.987 -1.0511 -0.2206 -0.5489
 4042SOL     OW23584   0.664   3.123   2.362 -0.1196  0.3826 -0.1350
 4042SOL    HW123585   0.695   3.192   2.303 -1.3213  1.8301  0.9401
 4042SOL    HW223586   0.745   3.073   2.374  0.8896  1.9305 -0.4365
 4043SOL     OW23587   4.632   2.700   8.043 -0.1316  0.3629 -0.3124
 4043SOL    HW123588   4.566   2.642   8.079  0.8106  0.8721  2.2385
 4043SOL    HW223589   4.630   2.689   7.948  1.4652 -0.1705 -0.2825
 4044SOL     OW23590   0.550   3.143   7.469 -0.0676  0.4573 -0.4320
 4044SOL    HW123591   0.574   3.076   7.406  0.6217  0.7965 -0.5358
 4044SOL    HW223592   0.463   3.169   7.439  0.3455 -0.4003 -2.3755
 4045SOL     OW23593   1.218   3.628   1.598  0.4789  0.1001  0.6284
 4045SOL    HW123594   1.283   3.574   1.553 -0.9506 -0.4504 -0.7698
 4045SOL    HW223595   1.226   3.716   1.562  0.9349 -0.4788 -0.6909
 4046SOL     OW23596   0.924   3.519   7.853 -0.1695  0.0060  0.0097
 4046SOL    HW123597   0.960   3.434   7.879  2.5642  1.6772  1.6544
 4046SOL    HW223598   0.949   3.553   7.938 -2.6260 -0.2218  0.8212
 4047SOL     OW23599   3.082   4.435  16.308  0.1615 -0.1616  0.3102
 4047SOL    HW123600   3.063   4.417  16.216  1.4874  0.7086 -0.1340
 4047SOL    HW223601   3.037   4.360  16.347  1.7212 -1.2049  0.0852
 4048SOL     OW23602   3.522   1.162   4.036 -0.2470  0.7972  0.0762
 4048SOL    HW123603   3.519   1.066   4.044 -1.7862  0.8294 -0.0913
 4048SOL    HW223604   3.534   1.178   4.129  2.5945  1.2334 -0.3943
 4049SOL     OW23605   2.120   0.851   0.374  0.2160  0.1408  0.2138
 4049SOL    HW123606   2.074   0.845   0.458  2.0353 -0.3311  1.1888
 4049SOL    HW223607   2.191   0.910   0.398 -0.9590  1.0840  1.3788
 4050SOL     OW23608   4.494   0.911   2.862 -0.0742  0.4111  0.2492
 4050SOL    HW123609   4.516   0.922   2.770 -0.7006  3.0352  0.4155
 4050SOL    HW223610   4.585   0.897   2.889 -0.9909  0.5343  3.3857
 4051SOL     OW23611   0.692   0.068   5.020 -0.3373 -0.5761  0.0729
 4051SOL    HW123612   0.735   0.141   5.063 -1.7137 -1.1155  2.3579
 4051SOL    HW223613   0.746   0.049   4.944 -1.2140  0.8624 -0.9113
 4052SOL     OW23614   4.073   3.613   0.907  0.3353 -0.4818  0.6366
 4052SOL    HW123615   3.990   3.580   0.874 -0.5132 -0.5914  2.8512
 4052SOL    HW223616   4.072   3.701   0.869 -0.4017  0.1956  2.1941
 4053SOL     OW23617   2.662   2.233   9.832  0.3294  0.2449  0.5792
 4053SOL    HW123618   2.597   2.230   9.762  1.5776  2.5423 -0.6653
 4053SOL    HW223619   2.601   2.233   9.906  0.6244  1.8809  0.8385
 4054SOL     OW23620   1.467   0.038   7.962  0.1137 -0.2483  0.0089
 4054SOL    HW123621   1.406   0.107   7.991 -1.7119 -2.0104  0.3598
 4054SOL    HW223622   1.472   4.712   8.044 -1.0582 -0.4557 -0.0371
 4055SOL     OW23623   3.253   0.028   5.283 -0.4959  1.0756 -0.6027
 4055SOL    HW123624   3.313   0.072   5.344  0.3621 -1.8706  0.6871
 4055SOL    HW223625   3.167   0.058   5.314 -1.4117 -3.1881  1.0300
 4056SOL     OW23626   3.383   2.546   3.824  0.0185  0.0681 -0.1277
 4056SOL    HW123627   3.466   2.499   3.836  0.4975  1.9996  3.9751
 4056SOL    HW223628   3.410   2.625   3.870 -0.1080  0.1188 -0.1418
 4057SOL     OW23629   0.296   2.060   2.400  0.0123  0.1121  0.2691
 4057SOL    HW123630   0.360   2.131   2.390  0.5160 -0.6975 -2.2323
 4057SOL    HW223631   0.292   2.049   2.305 -1.2395  1.1170  0.1972
 4058SOL     OW23632   2.491   1.860   1.635 -0.2034  0.2903  0.1435
 4058SOL    HW123633   2.554   1.800   1.674 -0.2639  0.3488  0.3304
 4058SOL    HW223634   2.513   1.862   1.542  0.2151  0.0817  0.2383
 4059SOL     OW23635   3.181   0.006  12.369  0.2536  0.1769 -0.0291
 4059SOL    HW123636   3.253   4.676  12.402 -1.5893 -2.5529 -0.3867
 4059SOL    HW223637   3.117   4.659  12.357  2.1012 -1.7345  1.2364
 4060SOL     OW23638   3.442   2.656   6.074 -0.1898  0.3771  0.8646
 4060SOL    HW123639   3.381   2.719   6.038 -0.3928  0.0004  0.5502
 4060SOL    HW223640   3.405   2.569   6.060 -0.9583  0.8701 -0.1115
 4061SOL     OW23641   1.891   1.184   4.297 -0.2009  0.1452  0.1335
 4061SOL    HW123642   1.836   1.263   4.297 -2.3217 -1.3164  2.8349
 4061SOL    HW223643   1.974   1.224   4.321  0.4887 -0.8404 -0.6271
 4062SOL     OW23644   2.900   3.155   1.228  0.3075 -0.0558 -0.1564
 4062SOL    HW123645   2.821   3.101   1.220  0.9696 -1.1619  0.8841
 4062SOL    HW223646   2.962   3.082   1.216 -0.3371 -0.6148 -0.0927
 4063SOL     OW23647   4.304   1.599   7.866  0.0347 -0.1447  0.5331
 4063SOL    HW123648   4.311   1.627   7.957 -1.6381 -1.6361  1.1108
 4063SOL    HW223649   4.278   1.509   7.885  0.3521  0.3804  3.4014
 4064SOL     OW23650   1.788   0.653   1.280  0.2888 -0.1223  0.3937
 4064SOL    HW123651   1.764   0.686   1.194  0.9698  0.0806  0.2790
 4064SOL    HW223652   1.715   0.678   1.336  1.4410 -0.7270  2.1753
 4065SOL     OW23653   4.621   0.498  16.987 -0.4139  0.7766 -0.2342
 4065SOL    HW123654   4.582   0.585  16.987 -0.1317  0.8937 -0.9466
 4065SOL    HW223655   4.577   0.468  16.908 -1.8458 -0.5875  1.0575
 4066SOL     OW23656   0.882   3.025   8.266  0.1436 -0.5838 -0.6551
 4066SOL    HW123657   0.853   3.116   8.256 -0.3103 -0.6957 -0.3954
 4066SOL    HW223658   0.796   2.996   8.297  0.4906  0.3521  1.1306
 4067SOL     OW23659   1.818   0.691  12.906  0.5513  0.1217 -0.2633
 4067SOL    HW123660   1.814   0.679  12.811 -1.6163 -0.8747 -0.0292
 4067SOL    HW223661   1.793   0.605  12.940  0.7379 -0.0400 -0.5306
 4068SOL     OW23662   1.938   3.114   3.615 -0.6692 -0.0842 -0.3184
 4068SOL    HW123663   1.908   3.200   3.584 -1.0760  0.5141  1.6771
 4068SOL    HW223664   1.981   3.078   3.538  2.3043  2.5348  0.0853
 4069SOL     OW23665   2.610   3.184  13.845 -0.4768 -0.1316  0.1516
 4069SOL    HW123666   2.541   3.118  13.847 -0.9193  0.3771  1.7492
 4069SOL    HW223667   2.613   3.215  13.754  0.5465  1.2412  0.6396
 4070SOL     OW23668   0.285   0.239  11.363  0.0315 -0.1009  0.2047
 4070SOL    HW123669   0.241   0.156  11.344  0.2981 -0.1998  0.0181
 4070SOL    HW223670   0.293   0.226  11.458  1.2590  0.3843  0.1684
 4071SOL     OW23671   4.300   0.174   2.958  0.1286  0.5208  0.1194
 4071SOL    HW123672   4.376   0.152   3.013  0.3356  0.2505 -0.2692
 4071SOL    HW223673   4.237   0.188   3.028 -0.3649 -2.2111  0.2496
 4072SOL     OW23674   1.593   0.630   2.004  0.3876  0.3421  0.5923
 4072SOL    HW123675   1.537   0.556   2.025 -1.2662  1.5030  0.2764
 4072SOL    HW223676   1.661   0.603   1.941 -0.0542 -0.3392  0.4065
 4073SOL     OW23677   4.596   0.180   7.045  0.1690 -0.4000  0.0742
 4073SOL    HW123678   4.612   0.103   6.992  0.3992  0.6466 -1.3768
 4073SOL    HW223679   4.507   0.171   7.079 -0.1984 -1.7067 -1.2360
 4074SOL     OW23680   2.256   2.243   5.774  0.1295 -0.8117 -0.5863
 4074SOL    HW123681   2.289   2.165   5.729  0.2588 -1.3203  0.3839
 4074SOL    HW223682   2.171   2.249   5.730  0.8613  1.4706 -1.6450
 4075SOL     OW23683   3.415   2.914  15.524 -0.6030  0.1058 -0.3770
 4075SOL    HW123684   3.495   2.929  15.474 -0.4872  2.0908  0.4192
 4075SOL    HW223685   3.399   2.822  15.500 -1.3680 -0.0267  0.6587
 4076SOL     OW23686   4.374   1.156  11.440 -0.4432 -0.4649 -0.0690
 4076SOL    HW123687   4.299   1.140  11.496  0.5467 -1.2212  1.0473
 4076SOL    HW223688   4.342   1.238  11.402  1.4407  1.5550  2.6009
 4077SOL     OW23689   0.458   4.722   5.173  0.2943  0.3732  0.0199
 4077SOL    HW123690   0.506   0.004   5.090 -0.1564  2.3313 -0.1257
 4077SOL    HW223691   0.519   0.033   5.238 -1.5646  0.4637  1.7336
 4078SOL     OW23692   0.886   0.476   9.784  0.7370  0.1618 -0.3322
 4078SOL    HW123693   0.852   0.518   9.862  2.7494  1.6944 -0.2743
 4078SOL    HW223694   0.837   0.394   9.782  0.5578  0.2934 -1.7847
 4079SOL     OW23695   0.609   3.992  12.433  0.0939 -0.5531  0.0583
 4079SOL    HW123696   0.673   4.027  12.372  1.5609 -1.9695  0.7596
 4079SOL    HW223697   0.569   3.926  12.377  1.0775 -1.3455  0.2905
 4080SOL     OW23698   3.774   3.334   3.114 -0.2856 -0.0350  1.2867
 4080SOL    HW123699   3.804   3.423   3.097 -0.2196 -0.5206 -1.0907
 4080SOL    HW223700   3.859   3.298   3.140 -0.7209  0.0958  2.9118
 4081SOL     OW23701   3.789   4.594   5.742  0.5564  0.2236 -0.4597
 4081SOL    HW123702   3.698   4.579   5.769  0.5961  0.0519 -0.4231
 4081SOL    HW223703   3.834   4.527   5.794  1.5335  1.0961 -0.1788
 4082SOL     OW23704   3.276   1.405   1.866  0.5763  1.0561 -0.0425
 4082SOL    HW123705   3.271   1.489   1.821  2.2287  1.4640  0.5068
 4082SOL    HW223706   3.364   1.382   1.837 -0.3128 -1.7592 -0.4307
 4083SOL     OW23707   0.240   0.527  16.313  0.0623 -0.9979 -0.1703
 4083SOL    HW123708   0.256   0.615  16.347  0.8507 -2.8325  4.1510
 4083SOL    HW223709   0.310   0.473  16.350  1.1589  0.2655 -0.4038
 4084SOL     OW23710   3.118   2.858   6.278  0.3707  0.6249  0.1815
 4084SOL    HW123711   3.110   2.782   6.334  0.6463  1.5092  1.4266
 4084SOL    HW223712   3.128   2.924   6.346  0.4293  1.8339 -0.9892
 4085SOL     OW23713   0.919   1.610  14.443 -0.9723 -0.1414  0.3061
 4085SOL    HW123714   0.856   1.641  14.378 -1.0537 -0.3667  0.2764
 4085SOL    HW223715   0.911   1.515  14.436  1.4580 -0.3939  0.6982
 4086SOL     OW23716   2.568   4.306   6.943 -0.3498  0.8394 -0.3634
 4086SOL    HW123717   2.531   4.262   6.866 -0.6750 -1.2527  0.9802
 4086SOL    HW223718   2.536   4.395   6.926 -0.7028  0.5956 -0.9750
 4087SOL     OW23719   4.339   4.709   1.732 -0.2648 -0.6970  0.0973
 4087SOL    HW123720   4.285   4.700   1.653 -0.1000 -0.2061 -0.0699
 4087SOL    HW223721   4.417   4.656   1.716  0.8538  1.1749 -0.6991
 4088SOL     OW23722   1.756   0.105   3.272  0.5632  0.7260  0.1785
 4088SOL    HW123723   1.756   0.086   3.178  2.0214  0.4377  0.2295
 4088SOL    HW223724   1.673   0.153   3.271 -1.0267 -2.0551 -1.9451
 4089SOL     OW23725   3.126   2.318   6.466 -0.0543  0.6892  0.7167
 4089SOL    HW123726   3.053   2.315   6.404 -0.2492  1.8208  0.8911
 4089SOL    HW223727   3.111   2.243   6.524  1.0583 -0.4793 -0.4967
 4090SOL     OW23728   0.212   1.282   1.979  0.3468 -0.4043 -0.2933
 4090SOL    HW123729   0.218   1.244   1.891 -0.4482 -4.2191  1.3193
 4090SOL    HW223730   0.256   1.215   2.031 -0.5561 -0.8979 -0.1645
 4091SOL     OW23731   0.192   4.500  13.178 -0.5163  0.2703 -0.1054
 4091SOL    HW123732   0.251   4.435  13.216 -1.5108  0.7601  2.2264
 4091SOL    HW223733   0.221   4.577  13.226  0.3554 -0.2507  0.2132
 4092SOL     OW23734   2.725   0.115   4.097 -0.0084  0.3425 -0.3870
 4092SOL    HW123735   2.785   0.095   4.168  1.0662 -2.1618 -2.0042
 4092SOL    HW223736   2.669   0.177   4.145  1.2633  0.9787  0.2617
 4093SOL     OW23737   4.394   4.594   0.912 -0.1637  0.4280 -0.1584
 4093SOL    HW123738   4.412   4.500   0.917  1.1393  0.8421  2.9965
 4093SOL    HW223739   4.467   4.630   0.962 -0.9251 -0.9134  1.9505
 4094SOL     OW23740   2.178   3.860   1.421 -0.5308 -0.0766 -0.6464
 4094SOL    HW123741   2.247   3.841   1.357 -0.0900 -1.0333  0.1095
 4094SOL    HW223742   2.100   3.838   1.370 -0.8252  1.6803 -0.9554
 4095SOL     OW23743   1.685   2.527   8.452 -0.2386 -0.1562 -0.3770
 4095SOL    HW123744   1.660   2.619   8.441 -0.3955  0.0298  1.5932
 4095SOL    HW223745   1.655   2.506   8.540  0.1936 -1.2036 -0.4770
 4096SOL     OW23746   4.373   0.097  12.407 -0.3093 -0.7010 -0.2482
 4096SOL    HW123747   4.346   0.076  12.318 -0.8714  1.3945 -0.5811
 4096SOL    HW223748   4.339   0.187  12.403  2.8001  0.5668  1.5349
 4097SOL     OW23749   0.088   3.967   3.389 -0.0988 -0.1695  0.6145
 4097SOL    HW123750   0.170   3.996   3.429  0.1864  0.9661 -0.7801
 4097SOL    HW223751   0.102   3.873   3.403 -1.4650 -0.4202  0.2666
 4098SOL     OW23752   2.038   1.776  11.446 -0.0813 -0.3892  0.2954
 4098SOL    HW123753   2.122   1.817  11.467  1.1990 -1.8043 -2.1043
 4098SOL    HW223754   2.050   1.697  11.498  1.4958  0.4632  1.2475
 4099SOL     OW23755   3.976   3.211   3.644 -0.1145 -0.0108 -0.1959
 4099SOL    HW123756   4.026   3.245   3.719  1.0006 -0.4664 -0.7315
 4099SOL    HW223757   3.885   3.239   3.648  0.7242  2.6805 -0.0029
 4100SOL     OW23758   2.181   1.794   5.583 -0.3493  0.3193 -0.0729
 4100SOL    HW123759   2.189   1.759   5.672 -3.7467 -1.3492 -0.4355
 4100SOL    HW223760   2.206   1.717   5.532 -0.4829 -0.0555  0.4230
 4101SOL     OW23761   1.270   0.887   1.299 -0.1867  0.2171  0.1074
 4101SOL    HW123762   1.220   0.928   1.369 -1.2296  0.1476 -0.5834
 4101SOL    HW223763   1.302   0.962   1.249 -0.3930  1.1067  1.3182
 4102SOL     OW23764   4.416   0.218   4.988  0.0499 -0.7145 -0.3321
 4102SOL    HW123765   4.486   0.282   4.983 -1.7194  1.1418 -1.2976
 4102SOL    HW223766   4.345   0.278   5.009 -0.4687 -1.5986  0.4610
 4103SOL     OW23767   3.282   4.636  15.043  0.8783 -0.3823 -0.6258
 4103SOL    HW123768   3.231   4.566  15.083  0.6530  2.1654  3.5204
 4103SOL    HW223769   3.369   4.597  15.041  0.8515 -0.3670 -2.2282
 4104SOL     OW23770   2.431   0.349  13.768  0.3259 -0.4689  0.0267
 4104SOL    HW123771   2.365   0.288  13.737  0.5572 -1.0762  0.7305
 4104SOL    HW223772   2.383   0.419  13.814 -1.4984 -2.3881  1.0653
 4105SOL     OW23773   3.339   4.119   2.070  0.0495 -0.0471 -0.0440
 4105SOL    HW123774   3.244   4.118   2.085  0.0154  3.1257 -0.1210
 4105SOL    HW223775   3.366   4.044   2.123  1.1788  1.1130  1.0366
 4106SOL     OW23776   0.041   2.078  17.608  0.6473 -0.1576  0.6097
 4106SOL    HW123777   0.014   2.167  17.584  0.1530 -0.4757 -0.0251
 4106SOL    HW223778   4.714   2.024  17.546  1.4811 -1.7213  1.3039
 4107SOL     OW23779   3.798   0.130   6.132 -0.4440 -0.3041  0.3274
 4107SOL    HW123780   3.832   0.048   6.166 -0.5506  0.6092  2.6495
 4107SOL    HW223781   3.708   0.104   6.117  0.2619 -2.6370  0.2460
 4108SOL     OW23782   1.313   4.101   2.316  0.1819  0.2510 -0.1156
 4108SOL    HW123783   1.384   4.073   2.374 -0.6384  2.6579  2.0454
 4108SOL    HW223784   1.309   4.196   2.325  1.3854  0.3033 -0.1184
 4109SOL     OW23785   2.900   4.314   3.995 -0.2261  0.7768  0.0241
 4109SOL    HW123786   2.825   4.358   3.955  0.5363  2.4207  0.3879
 4109SOL    HW223787   2.867   4.225   3.990  0.2374  0.6681 -1.1431
 4110SOL     OW23788   2.318   4.694  16.031 -0.3155 -0.2878 -0.1129
 4110SOL    HW123789   2.372   0.009  16.100 -0.1079 -0.3426 -0.2460
 4110SOL    HW223790   2.260   4.632  16.074  0.2383 -1.2284 -0.7292
 4111SOL     OW23791   2.634   3.535   8.240  0.0369  0.1834  0.1403
 4111SOL    HW123792   2.690   3.611   8.255 -2.2498  1.6898  1.1500
 4111SOL    HW223793   2.698   3.490   8.185  0.5431  1.2812 -0.1550
 4112SOL     OW23794   1.597   1.390  15.915 -0.0854  0.2480  0.0663
 4112SOL    HW123795   1.659   1.323  15.886 -0.2782  0.6148 -1.2059
 4112SOL    HW223796   1.635   1.466  15.871 -2.0550  1.2509  0.1038
 4113SOL     OW23797   0.412   1.120   6.765  0.0983  0.5444  0.0391
 4113SOL    HW123798   0.395   1.030   6.737 -1.3588  0.1423  2.1521
 4113SOL    HW223799   0.394   1.115   6.859  0.3758  2.5258  0.1970
 4114SOL     OW23800   0.195   0.854   7.029  0.3982  0.9262 -0.5103
 4114SOL    HW123801   0.286   0.872   7.005  0.8592 -0.7930 -0.0702
 4114SOL    HW223802   0.153   0.930   6.989 -0.5780  0.7965  0.2455
 4115SOL     OW23803   0.667   2.391   7.768 -0.1711  0.4553 -0.0781
 4115SOL    HW123804   0.762   2.392   7.763 -0.2241  1.5061 -0.9041
 4115SOL    HW223805   0.648   2.475   7.809 -0.8587  0.5360 -0.5541
 4116SOL     OW23806   2.291   3.242  14.033  0.1832 -0.3340  0.1632
 4116SOL    HW123807   2.215   3.243  14.091 -1.4556 -1.1179 -1.9889
 4116SOL    HW223808   2.238   3.238  13.954  0.8002  0.7045 -0.3114
 4117SOL     OW23809   2.988   2.920   3.613 -0.1010 -0.2822 -0.4620
 4117SOL    HW123810   2.930   2.891   3.544  0.2764  1.4987 -1.5184
 4117SOL    HW223811   3.068   2.928   3.562  2.2172 -0.8539  3.0279
 4118SOL     OW23812   2.909   1.037   4.259 -0.1417 -0.3502 -0.7556
 4118SOL    HW123813   2.848   1.007   4.327  0.0530  1.9601  0.4313
 4118SOL    HW223814   2.932   0.954   4.218  0.5066 -0.8652  0.6263
 4119SOL     OW23815   1.425   0.448  13.309 -0.4826  0.9673  0.6094
 4119SOL    HW123816   1.505   0.397  13.322 -1.7542 -1.0984  0.4564
 4119SOL    HW223817   1.357   0.386  13.281  1.4451 -0.1589 -1.5786
 4120SOL     OW23818   1.470   0.028   0.476  0.1709  0.5575  0.0311
 4120SOL    HW123819   1.404   0.025   0.407  0.3812 -1.9644 -0.0574
 4120SOL    HW223820   1.548   4.715   0.433  1.4589  1.9057  1.2093
 4121SOL     OW23821   3.064   1.969   4.969  0.2163  0.2053  0.7282
 4121SOL    HW123822   3.112   1.995   5.047 -1.4004  1.8269  1.1826
 4121SOL    HW223823   3.117   1.894   4.942 -0.2545  0.2175 -0.2177
 4122SOL     OW23824   1.783   0.379   1.359 -0.0646  0.1764  0.0032
 4122SOL    HW123825   1.875   0.354   1.356 -0.0439  0.1054  1.3025
 4122SOL    HW223826   1.790   0.473   1.345 -1.2514  0.4224  1.0794
 4123SOL     OW23827   3.987   2.872   6.184  0.2215  0.5944 -0.2150
 4123SOL    HW123828   3.975   2.873   6.278 -0.0618 -3.0321 -0.2330
 4123SOL    HW223829   3.905   2.830   6.158 -0.1127  0.1533  1.6189
 4124SOL     OW23830   1.066   4.010   7.143 -0.5324  0.2730 -0.2729
 4124SOL    HW123831   1.021   3.925   7.143 -0.5380  0.2776 -0.6336
 4124SOL    HW223832   1.158   3.984   7.136  0.0750  2.4957 -0.6077
 4125SOL     OW23833   2.132   2.927  10.303  0.5448 -0.3479 -0.1949
 4125SOL    HW123834   2.136   2.995  10.372 -0.8450 -0.1094 -0.3542
 4125SOL    HW223835   2.224   2.906  10.284  0.7989  0.5207  0.0224
 4126SOL     OW23836   3.334   1.723   2.870  0.4628 -0.0634 -0.4487
 4126SOL    HW123837   3.424   1.748   2.889  0.6224 -2.0717  1.4413
 4126SOL    HW223838   3.340   1.703   2.777 -0.4611  0.8737 -0.7260
 4127SOL     OW23839   3.813   1.359  10.429  0.8580 -0.3228 -0.2249
 4127SOL    HW123840   3.878   1.320  10.488  0.8156  0.0183  0.0501
 4127SOL    HW223841   3.800   1.296  10.358  0.4442 -0.4489 -0.0342
 4128SOL     OW23842   3.883   2.302   2.513  0.4202  0.2978 -0.2253
 4128SOL    HW123843   3.882   2.307   2.418  1.9155 -3.0056 -0.4254
 4128SOL    HW223844   3.933   2.381   2.534  3.3692 -1.4757 -0.5248
 4129SOL     OW23845   0.841   1.026   7.758 -0.4102 -0.6884  0.4007
 4129SOL    HW123846   0.789   0.948   7.778 -2.3810  0.2183 -1.1467
 4129SOL    HW223847   0.785   1.074   7.696  1.0047  2.1976  1.3819
 4130SOL     OW23848   1.119   2.314  14.589  0.1154 -0.2903  0.5789
 4130SOL    HW123849   1.140   2.404  14.561 -0.0079 -0.2979  0.4605
 4130SOL    HW223850   1.025   2.303  14.578 -0.1929  1.8065  0.9776
 4131SOL     OW23851   3.835   2.548  15.103  0.4370 -0.4637 -0.1028
 4131SOL    HW123852   3.898   2.573  15.171  1.6401  1.1512 -1.8011
 4131SOL    HW223853   3.866   2.458  15.098  1.5300  0.0525 -2.4903
 4132SOL     OW23854   1.182   0.839   2.901 -0.9859  0.3347 -0.2602
 4132SOL    HW123855   1.271   0.856   2.869 -0.9182 -0.4324 -0.4815
 4132SOL    HW223856   1.172   0.911   2.963 -1.1723  0.9237 -0.9713
 4133SOL     OW23857   0.028   0.707   7.522 -0.5615 -0.3050  0.1523
 4133SOL    HW123858   4.698   0.627   7.523 -0.5060 -0.3381  0.5971
 4133SOL    HW223859   0.032   0.729   7.429  0.9075 -0.4917  0.1626
 4134SOL     OW23860   2.662   2.193   3.039  0.1308  0.3409  0.1054
 4134SOL    HW123861   2.678   2.199   3.133 -1.5488 -2.1983  0.5409
 4134SOL    HW223862   2.567   2.180   3.038  0.3433 -1.0026 -1.9910
 4135SOL     OW23863   1.203   0.591   1.427 -0.0176 -0.3413 -0.0715
 4135SOL    HW123864   1.223   0.673   1.382  0.9409 -0.3936  0.2586
 4135SOL    HW223865   1.127   0.619   1.479 -0.6192 -0.0930 -1.0766
 4136SOL     OW23866   3.405   2.185   8.581 -0.1442 -0.0482  0.1486
 4136SOL    HW123867   3.324   2.226   8.610  1.8767  1.9311  2.8761
 4136SOL    HW223868   3.381   2.093   8.567  2.7375 -1.0687  2.1044
 4137SOL     OW23869   0.049   0.148   7.264 -0.6326 -0.4405 -0.3285
 4137SOL    HW123870   4.706   0.157   7.196 -2.4524 -1.6477  1.2696
 4137SOL    HW223871   4.714   0.141   7.340 -1.3923 -0.9803 -0.9590
 4138SOL     OW23872   4.289   4.199  10.509  0.1459 -0.3371  0.1721
 4138SOL    HW123873   4.251   4.278  10.548 -2.7076 -0.9439 -1.4162
 4138SOL    HW223874   4.360   4.228  10.452  1.2333 -2.5693  0.4166
 4139SOL     OW23875   2.720   1.505   7.372 -0.3301  0.1204  0.0010
 4139SOL    HW123876   2.808   1.489   7.338  0.0999 -1.9224  2.0494
 4139SOL    HW223877   2.727   1.471   7.461  3.3720 -0.5078 -0.5420
 4140SOL     OW23878   0.130   1.976   4.068  0.1716 -0.2981  0.2441
 4140SOL    HW123879   0.175   2.060   4.066  0.4905 -0.4800 -0.0353
 4140SOL    HW223880   0.168   1.927   3.996  0.7832  0.5120  0.0251
 4141SOL     OW23881   3.723   0.506   9.121 -0.1929 -0.2011  0.0470
 4141SOL    HW123882   3.648   0.550   9.080 -1.1067 -1.2289  0.6121
 4141SOL    HW223883   3.748   0.569   9.189 -0.0052  0.6315 -0.7917
 4142SOL     OW23884   0.656   1.040   6.612 -0.3580 -0.0440 -0.2248
 4142SOL    HW123885   0.618   1.124   6.635 -1.4430 -1.2529  2.3761
 4142SOL    HW223886   0.576   0.996   6.582 -0.5588  1.6319 -2.1905
 4143SOL     OW23887   2.868   0.219  10.399 -0.4759 -0.4170  0.7956
 4143SOL    HW123888   2.885   0.269  10.318  0.8131  0.0225  1.3323
 4143SOL    HW223889   2.788   0.174  10.374 -2.3504  3.8668 -0.9984
 4144SOL     OW23890   3.824   3.345   8.727 -0.3139 -0.6888 -0.1002
 4144SOL    HW123891   3.758   3.369   8.792 -0.3512  0.7288 -0.6581
 4144SOL    HW223892   3.895   3.309   8.780  0.2328 -1.8727 -1.6505
 4145SOL     OW23893   2.849   4.428   6.925  0.2787 -0.3504  0.5226
 4145SOL    HW123894   2.759   4.397   6.919  0.4576 -0.8615  0.5154
 4145SOL    HW223895   2.851   4.483   7.004  0.3793 -0.6155  0.7021
 4146SOL     OW23896   2.377   3.670   3.245 -0.0281  0.2626  0.0665
 4146SOL    HW123897   2.294   3.664   3.292  0.3584 -0.6185  0.6250
 4146SOL    HW223898   2.336   3.686   3.159  1.8177  0.1237 -0.8399
 4147SOL     OW23899   2.144   4.475   2.530  0.1828 -0.5084  0.3290
 4147SOL    HW123900   2.230   4.443   2.559 -0.7132 -0.8896  2.5572
 4147SOL    HW223901   2.155   4.449   2.439  0.0713 -1.7004  0.6444
 4148SOL     OW23902   2.865   3.568   3.973 -0.4314 -0.2313  0.1092
 4148SOL    HW123903   2.865   3.569   3.877  0.7764  1.3943  0.1297
 4148SOL    HW223904   2.864   3.474   3.990 -0.3526 -0.3328 -0.4407
 4149SOL     OW23905   1.669   3.499   3.979 -0.2507  0.2488 -0.0024
 4149SOL    HW123906   1.591   3.451   4.007  1.0269 -1.6202  0.3068
 4149SOL    HW223907   1.612   3.553   3.925  1.9587  0.6622 -1.9182
 4150SOL     OW23908   0.366   2.491   6.405 -0.7267  0.6752  0.2388
 4150SOL    HW123909   0.367   2.400   6.376  1.8166  0.4297  1.0476
 4150SOL    HW223910   0.400   2.491   6.495 -0.2933  2.4240  0.0804
 4151SOL     OW23911   0.376   0.944  11.044 -0.5204  0.1276 -0.1236
 4151SOL    HW123912   0.459   0.918  11.084 -1.0021  1.4386  1.7428
 4151SOL    HW223913   0.318   0.885  11.092  0.5883 -0.3627  0.6123
 4152SOL     OW23914   4.223   3.813   5.773  0.7430 -0.7187  0.0335
 4152SOL    HW123915   4.284   3.771   5.834  1.5257  0.9329  0.4094
 4152SOL    HW223916   4.144   3.759   5.779  0.8049 -0.7498  0.5999
 4153SOL     OW23917   0.080   1.244   5.439 -0.1428 -0.2287  0.3904
 4153SOL    HW123918   0.048   1.267   5.352 -0.8819  0.3010  0.7942
 4153SOL    HW223919   0.047   1.154   5.448 -2.7831  0.4835 -1.9520
 4154SOL     OW23920   0.679   3.348   8.573 -0.0192  0.2589  0.3152
 4154SOL    HW123921   0.723   3.267   8.547  0.5576  0.2148  1.4255
 4154SOL    HW223922   0.726   3.352   8.656 -1.2442 -0.0648  1.0373
 4155SOL     OW23923   4.049   0.722  14.600  0.4156  0.1484  0.6192
 4155SOL    HW123924   4.055   0.784  14.673 -2.5273  1.0047  0.1309
 4155SOL    HW223925   4.072   0.642  14.647  0.5144 -1.8672 -2.8550
 4156SOL     OW23926   1.626   3.873   9.156  0.5431 -0.3530  0.5218
 4156SOL    HW123927   1.676   3.799   9.191  0.2018 -0.5858  0.5217
 4156SOL    HW223928   1.570   3.877   9.233 -2.2152  0.5005 -1.5236
 4157SOL     OW23929   2.901   0.951  17.661  0.4047  0.2989  0.2088
 4157SOL    HW123930   2.985   0.983  17.628  0.5090  1.2925  1.4380
 4157SOL    HW223931   2.924   0.933   0.058  4.9714 -2.2882 -1.4745
 4158SOL     OW23932   0.728   0.930   4.265 -0.2499 -0.0792  0.2224
 4158SOL    HW123933   0.760   0.962   4.350 -0.3420  1.4410 -0.3145
 4158SOL    HW223934   0.791   0.965   4.202  1.5823 -1.0978  1.4732
 4159SOL     OW23935   3.945   3.026   8.112  0.2575 -0.4449  0.5465
 4159SOL    HW123936   3.881   3.097   8.122  0.3664  0.1991 -3.4485
 4159SOL    HW223937   4.022   3.058   8.159  0.0909 -0.3940  0.7850
 4160SOL     OW23938   3.430   3.141   6.761 -0.5948  0.2200  0.6154
 4160SOL    HW123939   3.353   3.083   6.755 -1.0389  0.7817  0.8451
 4160SOL    HW223940   3.392   3.215   6.714  2.4109  1.2246 -0.1940
 4161SOL     OW23941   3.533   0.562   9.476 -0.0470  0.2971 -0.4314
 4161SOL    HW123942   3.562   0.592   9.562  1.5276 -0.1096 -0.8284
 4161SOL    HW223943   3.534   0.468   9.494  2.6711  0.6039  0.9653
 4162SOL     OW23944   1.732   3.301   3.400 -0.0051 -0.3805  0.0739
 4162SOL    HW123945   1.758   3.352   3.323 -0.4846  0.4042  0.4359
 4162SOL    HW223946   1.800   3.339   3.457 -1.6775  2.1477  0.3726
 4163SOL     OW23947   1.375   1.459   5.700  0.5423  0.2250 -0.1072
 4163SOL    HW123948   1.289   1.417   5.702  1.8721 -2.5436 -0.4295
 4163SOL    HW223949   1.375   1.490   5.609  1.2034 -0.3542 -0.2995
 4164SOL     OW23950   2.053   2.093  12.425  0.1129  0.1300  0.4489
 4164SOL    HW123951   2.039   1.999  12.417  1.6756 -0.0842  0.3023
 4164SOL    HW223952   2.108   2.085  12.503  1.9394 -1.2261 -1.0006
 4165SOL     OW23953   1.435   4.655   1.577  0.0150 -0.5474 -0.2556
 4165SOL    HW123954   1.355   4.602   1.574  0.3259 -1.0798  1.1627
 4165SOL    HW223955   1.479   4.632   1.495  0.7695 -0.7444  0.2122
 4166SOL     OW23956   4.596   4.303   9.658 -0.2915 -0.0540 -0.3218
 4166SOL    HW123957   4.591   4.381   9.713  2.7498 -1.3295  1.7446
 4166SOL    HW223958   4.542   4.234   9.697 -0.2981  0.1339  0.0027
 4167SOL     OW23959   0.041   0.241   7.714 -0.1883 -0.3139 -0.0635
 4167SOL    HW123960   0.054   0.311   7.778  0.8187 -0.5647 -0.0001
 4167SOL    HW223961   0.009   0.172   7.772 -0.4702  0.2321  0.4389
 4168SOL     OW23962   0.927   4.671  10.733  0.6728 -0.0807 -0.0652
 4168SOL    HW123963   0.934   4.656  10.827 -0.5409  1.7847  0.3212
 4168SOL    HW223964   1.019   4.656  10.708  1.0103  3.5963 -1.0772
 4169SOL     OW23965   3.620   2.412   4.405 -0.4146  0.3256 -0.4813
 4169SOL    HW123966   3.608   2.317   4.404  0.2562  0.2482 -1.1679
 4169SOL    HW223967   3.617   2.436   4.312 -2.4621  1.6849 -0.0598
 4170SOL     OW23968   3.282   3.445   7.742 -0.5230 -0.2801  0.0616
 4170SOL    HW123969   3.211   3.498   7.707 -0.5590 -0.3178  0.0783
 4170SOL    HW223970   3.324   3.430   7.657 -0.7392  1.0368 -0.2871
 4171SOL     OW23971   3.953   2.852   7.137  0.1355 -0.3094 -0.4944
 4171SOL    HW123972   3.971   2.760   7.158 -1.9714 -1.3229 -3.1537
 4171SOL    HW223973   3.895   2.871   7.210 -1.7629 -1.2525 -1.7587
 4172SOL     OW23974   2.619   4.415   1.209 -0.0445 -0.1098 -0.0914
 4172SOL    HW123975   2.558   4.346   1.233  1.8235 -2.1243 -1.2136
 4172SOL    HW223976   2.584   4.453   1.129  0.7683  1.5875  0.3622
 4173SOL     OW23977   1.729   1.804   1.456  0.0234  0.0603 -0.5059
 4173SOL    HW123978   1.641   1.770   1.439 -0.5717  1.8878 -1.0638
 4173SOL    HW223979   1.759   1.729   1.508 -0.2077  1.3535  1.4914
 4174SOL     OW23980   4.598   3.151  11.521  0.2873 -0.3616 -0.5591
 4174SOL    HW123981   4.519   3.139  11.574  0.4181 -1.5712 -0.6262
 4174SOL    HW223982   4.648   3.076  11.556  1.5871 -1.0011 -3.7942
 4175SOL     OW23983   1.106   0.363   6.342  0.4738 -0.0407 -0.7784
 4175SOL    HW123984   1.142   0.341   6.257  1.4735  1.1918 -0.6860
 4175SOL    HW223985   1.139   0.450   6.366 -0.1398  0.5535 -2.1193
 4176SOL     OW23986   2.744   3.473   4.414  0.5774  0.1035  0.0896
 4176SOL    HW123987   2.649   3.457   4.417  1.0461 -2.6197  0.4164
 4176SOL    HW223988   2.771   3.404   4.353  1.9186 -0.1914  1.0242
 4177SOL     OW23989   0.611   3.408   8.205  0.0500 -0.0740 -0.3067
 4177SOL    HW123990   0.580   3.332   8.255  0.0269  0.8176  1.0569
 4177SOL    HW223991   0.540   3.416   8.142  0.0330  0.4239 -0.2244
 4178SOL     OW23992   3.556   1.870   7.494  0.1389 -0.3532 -0.2519
 4178SOL    HW123993   3.593   1.957   7.480  0.5066 -0.8148 -2.2065
 4178SOL    HW223994   3.610   1.826   7.428  1.1723  0.7417 -0.1263
 4179SOL     OW23995   1.281   2.991   2.314  0.6276 -0.4524  0.3112
 4179SOL    HW123996   1.294   3.070   2.260 -0.4338 -1.0081 -0.7657
 4179SOL    HW223997   1.222   3.022   2.382 -0.3660  0.2413 -0.8756
 4180SOL     OW23998   3.067   4.690   7.814  0.1422  0.0541 -0.1493
 4180SOL    HW123999   3.044   0.059   7.802  1.5479  0.4768  0.3120
 4180SOL    HW224000   3.162   4.690   7.802  0.2737 -3.0033  1.0169
 4181SOL     OW24001   1.619   0.922  12.526 -0.3539 -0.4881  0.3520
 4181SOL    HW124002   1.611   0.841  12.576  0.9972 -1.6596 -1.3470
 4181SOL    HW224003   1.542   0.927  12.469  0.2362 -1.7991 -0.5512
 4182SOL     OW24004   4.219   3.089   8.982  0.1161 -0.2711  0.0144
 4182SOL    HW124005   4.283   3.152   9.016  1.5537 -1.0577 -1.1831
 4182SOL    HW224006   4.260   3.065   8.898  1.5608  3.4259 -0.3388
 4183SOL     OW24007   1.231   4.497   4.615  0.0313  0.3285 -0.3010
 4183SOL    HW124008   1.267   4.550   4.686  1.0749 -2.4685  1.2622
 4183SOL    HW224009   1.292   4.423   4.620  0.6750  0.7563 -1.5410
 4184SOL     OW24010   0.939   2.500  12.628 -0.5337  0.3981 -0.4399
 4184SOL    HW124011   1.025   2.457  12.631 -1.4099 -1.2785  0.3163
 4184SOL    HW224012   0.882   2.424  12.638  1.2632 -0.8119  0.5985
 4185SOL     OW24013   4.151   0.757   9.106 -0.7278 -0.3093 -0.4461
 4185SOL    HW124014   4.189   0.779   9.191  0.3968  0.8400 -1.2467
 4185SOL    HW224015   4.171   0.839   9.060 -1.8450 -1.4470 -2.9168
 4186SOL     OW24016   0.573   3.432  11.322 -0.1324 -0.5803  0.3368
 4186SOL    HW124017   0.653   3.454  11.274 -0.9465  0.9170 -0.3152
 4186SOL    HW224018   0.517   3.411  11.248  2.0943  0.6973 -1.7278
 4187SOL     OW24019   1.981   1.592   8.404  0.0793 -0.3290 -0.2304
 4187SOL    HW124020   1.934   1.651   8.345 -0.6564 -0.0390  0.6596
 4187SOL    HW224021   1.907   1.566   8.459  2.2044  0.8066  3.0985
 4188SOL     OW24022   0.024   0.118   8.535  0.0606  0.0454 -0.4763
 4188SOL    HW124023   4.672   0.083   8.486  0.2174 -1.7949  0.5952
 4188SOL    HW224024   0.076   0.041   8.555 -0.9514  0.0536  2.2371
 4189SOL     OW24025   4.124   2.362  17.621  0.0463  0.0343  0.0042
 4189SOL    HW124026   4.207   2.407  17.631 -1.5444  2.6951  1.1784
 4189SOL    HW224027   4.094   2.381  17.532  0.1663 -2.4085 -0.5796
 4190SOL     OW24028   2.330   3.525  12.975 -0.0944 -0.1574 -0.5661
 4190SOL    HW124029   2.350   3.447  13.027 -1.1215 -0.1595 -0.1635
 4190SOL    HW224030   2.293   3.585  13.038  1.2722  1.2675 -1.1233
 4191SOL     OW24031   0.054   3.298   5.345 -0.0668  0.1520 -0.0506
 4191SOL    HW124032   0.077   3.315   5.253  0.8182 -1.6438 -0.1468
 4191SOL    HW224033   0.142   3.304   5.383 -0.2338  2.5112 -0.0396
 4192SOL     OW24034   0.085   1.563  13.052 -0.4807  0.1853  0.1460
 4192SOL    HW124035   0.127   1.646  13.076 -0.9511  0.6432 -0.6204
 4192SOL    HW224036   0.005   1.592  13.008 -0.9982 -0.1925  0.8376
 4193SOL     OW24037   1.155   4.692   1.982  0.4305  0.1377 -0.6526
 4193SOL    HW124038   1.233   4.663   1.936  1.5890  2.7846 -0.3786
 4193SOL    HW224039   1.099   0.002   1.912 -1.5378 -1.1281  0.2902
 4194SOL     OW24040   4.492   2.069   6.036  0.2060 -0.2475 -0.4269
 4194SOL    HW124041   4.474   2.044   6.127  0.1110  2.2839  0.2538
 4194SOL    HW224042   4.418   2.120   6.003  2.1324  1.0048 -2.8247
 4195SOL     OW24043   4.323   0.207   7.523 -0.3246  0.7689  0.5427
 4195SOL    HW124044   4.354   0.247   7.442 -1.6897 -0.7522 -0.7421
 4195SOL    HW224045   4.263   0.142   7.485 -0.8332 -0.0442  2.6980
 4196SOL     OW24046   2.493   0.018  13.583 -0.1142 -0.4181 -0.1787
 4196SOL    HW124047   2.543   0.055  13.656 -0.0885 -1.1020  0.1450
 4196SOL    HW224048   2.535   0.064  13.510 -3.6021 -0.1443 -2.0067
 4197SOL     OW24049   2.027   4.700   4.128  0.4382 -0.6046  0.0066
 4197SOL    HW124050   2.048   0.040   4.060  0.7969 -0.4121  0.3011
 4197SOL    HW224051   1.939   0.012   4.146  0.6337 -0.0112 -0.2085
 4198SOL     OW24052   3.134   2.565   5.409 -0.6403 -0.1346 -0.6662
 4198SOL    HW124053   3.160   2.489   5.355 -2.2057 -0.7932 -0.4938
 4198SOL    HW224054   3.109   2.515   5.486  1.2079 -1.5769 -0.9867
 4199SOL     OW24055   2.968   2.878  15.042  0.5932  0.7537 -0.1180
 4199SOL    HW124056   2.931   2.799  15.083 -2.0308  1.4966 -1.1067
 4199SOL    HW224057   2.927   2.944  15.098 -2.9820 -0.0358 -1.8205
 4200SOL     OW24058   4.714   1.722  14.349  0.1322 -0.6780 -0.3038
 4200SOL    HW124059   0.082   1.696  14.364  0.2085 -1.1445 -1.6283
 4200SOL    HW224060   4.723   1.817  14.352 -2.6316 -0.3524 -2.3278
 4201SOL     OW24061   1.755   0.825   7.287  0.4820  0.0520 -0.1272
 4201SOL    HW124062   1.797   0.905   7.317 -0.8010  1.7579 -2.8590
 4201SOL    HW224063   1.831   0.789   7.243  1.7104  0.4327  1.6957
 4202SOL     OW24064   0.832   0.047   8.626  0.6649 -0.1983  0.5509
 4202SOL    HW124065   0.891   0.020   8.696 -0.1861  0.1213  1.3927
 4202SOL    HW224066   0.862   4.720   8.551  3.1144  0.4476  1.1007
 4203SOL     OW24067   2.226   0.806   3.339  0.2784 -0.0961  0.4578
 4203SOL    HW124068   2.168   0.776   3.409  1.0908  0.2034  1.2601
 4203SOL    HW224069   2.197   0.744   3.271  2.7970 -0.1009 -0.6253
 4204SOL     OW24070   1.440   2.216   4.736 -0.0247  0.5538  0.3698
 4204SOL    HW124071   1.526   2.250   4.714 -0.9210  2.6126  0.0476
 4204SOL    HW224072   1.466   2.131   4.773 -0.5083 -0.0845 -0.7551
 4205SOL     OW24073   1.316   2.933   5.852 -0.1223 -0.5992  0.0230
 4205SOL    HW124074   1.224   2.933   5.824 -0.1803 -1.0071  0.2024
 4205SOL    HW224075   1.350   2.867   5.791  2.6625 -0.6470  1.6304
 4206SOL     OW24076   0.984   2.968   3.131  0.4995  0.0287  0.3059
 4206SOL    HW124077   0.905   3.010   3.166  0.4168  0.0215  0.1282
 4206SOL    HW224078   1.038   3.042   3.104 -0.0688  1.2807  2.5995
 4207SOL     OW24079   4.571   4.421   0.573  0.3550  0.3116  0.5904
 4207SOL    HW124080   4.604   4.488   0.633  2.0453  0.5890 -0.6321
 4207SOL    HW224081   4.477   4.416   0.594 -0.1278  0.7771 -1.4566
 4208SOL     OW24082   1.024   1.674   0.404  0.5350  0.1780 -0.1290
 4208SOL    HW124083   1.076   1.673   0.323  0.9242 -1.7428  0.1491
 4208SOL    HW224084   0.989   1.762   0.394 -0.9059 -0.6386 -2.2014
 4209SOL     OW24085   1.637   2.334   3.864 -0.1249 -0.2933  0.4041
 4209SOL    HW124086   1.602   2.348   3.776  0.6650  0.0620  0.1464
 4209SOL    HW224087   1.678   2.248   3.865  1.5444  0.5052 -0.5553
 4210SOL     OW24088   0.686   1.300  13.840  0.3165  0.1381 -0.6055
 4210SOL    HW124089   0.696   1.318  13.746  1.3163  2.0488 -0.1253
 4210SOL    HW224090   0.604   1.251  13.843  0.8079 -0.8554 -3.4530
 4211SOL     OW24091   2.774   1.932   1.337  0.4677  0.5927 -0.2309
 4211SOL    HW124092   2.765   2.028   1.335 -1.4188  0.4618  2.2008
 4211SOL    HW224093   2.854   1.918   1.287 -1.0122 -0.4733 -2.2632
 4212SOL     OW24094   1.391   2.369  11.759  0.5997 -0.6768  0.3747
 4212SOL    HW124095   1.416   2.350  11.850  1.6121  1.3292  0.5138
 4212SOL    HW224096   1.296   2.365  11.759  0.5686 -0.0743  1.5404
 4213SOL     OW24097   1.048   1.935   0.333  0.0375  0.0432 -0.1437
 4213SOL    HW124098   1.133   1.967   0.363 -0.0392 -0.9969  1.2066
 4213SOL    HW224099   1.011   2.013   0.292 -0.6626 -0.3144 -0.1812
 4214SOL     OW24100   4.276   4.094  13.809  0.0396  0.6578  0.4229
 4214SOL    HW124101   4.230   4.125  13.731 -1.8992  0.0152  1.2977
 4214SOL    HW224102   4.229   4.011  13.815  1.3080  0.0490  1.9102
 4215SOL     OW24103   0.758   2.090   5.676 -0.6743 -0.5721 -0.0653
 4215SOL    HW124104   0.842   2.109   5.716 -1.1258  1.3388 -0.0290
 4215SOL    HW224105   0.780   2.080   5.584  0.5313 -2.3899  0.4233
 4216SOL     OW24106   3.805   2.510   6.547  0.4662  0.2458 -0.4023
 4216SOL    HW124107   3.741   2.538   6.482  1.3448  0.3582 -1.2234
 4216SOL    HW224108   3.752   2.506   6.626 -0.9639  1.4595 -1.2996
 4217SOL     OW24109   0.641   0.511   5.863  0.5482  0.1512 -0.2450
 4217SOL    HW124110   0.703   0.543   5.929 -0.6526  1.8656  0.0471
 4217SOL    HW224111   0.612   0.596   5.831 -0.5639 -0.1584 -0.0481
 4218SOL     OW24112   4.269   4.664   2.521 -0.0465  0.0662 -0.2980
 4218SOL    HW124113   4.283   0.025   2.564  0.3134 -0.2277  0.1569
 4218SOL    HW224114   4.176   4.679   2.505 -0.0249  0.1829 -0.3148
 4219SOL     OW24115   3.471   3.278  16.340  0.4750 -0.1512 -0.2505
 4219SOL    HW124116   3.551   3.225  16.340  3.0446  3.7513  1.1495
 4219SOL    HW224117   3.508   3.348  16.287 -2.0080  1.4765  0.1871
 4220SOL     OW24118   1.772   1.732   0.891  0.1658  0.3874  0.4188
 4220SOL    HW124119   1.800   1.668   0.826  0.5794  0.2586  0.7227
 4220SOL    HW224120   1.851   1.728   0.945  0.1560  3.8280  0.6824
 4221SOL     OW24121   2.139   2.663   7.428  0.2270  0.0916  0.2355
 4221SOL    HW124122   2.111   2.732   7.488 -0.4504  1.2590 -1.4236
 4221SOL    HW224123   2.148   2.707   7.344  0.5744 -1.6265 -0.6424
 4222SOL     OW24124   1.387   3.398   7.286 -0.3746  0.4681  0.1003
 4222SOL    HW124125   1.418   3.488   7.281  1.0339 -0.1459 -2.1901
 4222SOL    HW224126   1.460   3.351   7.326 -0.0812 -1.8661 -3.1450
 4223SOL     OW24127   0.367   0.589   5.701 -0.5541  0.1650  0.3571
 4223SOL    HW124128   0.314   0.534   5.644 -1.1758  1.0022  0.1286
 4223SOL    HW224129   0.311   0.612   5.775  1.1645  1.9622  1.0871
 4224SOL     OW24130   4.722   1.346   4.943 -0.0941  0.7456  0.6640
 4224SOL    HW124131   0.071   1.351   5.006  0.9785  0.1468 -0.5165
 4224SOL    HW224132   0.030   1.280   4.881  2.2376  2.0982  0.3356
 4225SOL     OW24133   2.878   3.640  10.731 -0.4726  0.4716  0.1401
 4225SOL    HW124134   2.949   3.694  10.697 -0.3304  0.6981  0.7936
 4225SOL    HW224135   2.823   3.708  10.772  0.5715  0.4979  1.4846
 4226SOL     OW24136   1.561   4.588   5.955 -0.0317 -0.0059 -0.2230
 4226SOL    HW124137   1.545   4.658   6.018 -0.1404 -0.0070 -0.2483
 4226SOL    HW224138   1.636   4.544   5.995 -0.3679  0.1962  0.6324
 4227SOL     OW24139   2.797   3.702   0.553 -0.4161 -0.3880  0.2844
 4227SOL    HW124140   2.890   3.682   0.556  0.0981  1.9758  0.0268
 4227SOL    HW224141   2.764   3.627   0.603 -0.0730 -0.8089 -0.1316
 4228SOL     OW24142   4.126   2.132   3.943 -0.0418 -0.1378 -0.3921
 4228SOL    HW124143   4.090   2.055   3.899 -0.5422 -0.4028  0.4829
 4228SOL    HW224144   4.220   2.138   3.926 -0.4439 -0.3986 -2.6797
 4229SOL     OW24145   4.217   2.883   7.132  0.3316 -0.0459 -1.1551
 4229SOL    HW124146   4.127   2.903   7.109 -0.1818  0.4062  1.2903
 4229SOL    HW224147   4.216   2.838   7.217  0.1234 -0.5636 -1.4319
 4230SOL     OW24148   2.355   1.250   7.585  0.3041 -0.1977  0.3404
 4230SOL    HW124149   2.278   1.247   7.527  0.4405 -1.6398  0.2546
 4230SOL    HW224150   2.374   1.342   7.567  0.0049 -0.0907  0.5639
 4231SOL     OW24151   2.459   0.375   1.429  0.4338 -0.4830 -0.5065
 4231SOL    HW124152   2.548   0.409   1.421 -0.5875  1.7966 -2.4166
 4231SOL    HW224153   2.447   0.354   1.521 -0.9325 -3.1195 -1.2966
 4232SOL     OW24154   3.646   1.659   6.711 -0.2938 -0.4334 -0.3554
 4232SOL    HW124155   3.726   1.708   6.693 -1.0464  1.3647  1.1394
 4232SOL    HW224156   3.659   1.604   6.789  1.1820  0.4522  0.0228
 4233SOL     OW24157   2.002   4.088   5.450  0.1142 -0.0245 -0.3739
 4233SOL    HW124158   2.069   4.116   5.513  2.3327 -0.0944 -2.6880
 4233SOL    HW224159   1.948   4.030   5.505 -1.5627  0.2448 -1.7571
 4234SOL     OW24160   0.216   1.350  17.314  0.2161  0.2713  0.1976
 4234SOL    HW124161   0.307   1.376  17.322  0.0950  0.9220 -0.5672
 4234SOL    HW224162   0.177   1.357  17.401 -0.2945  2.9242 -0.2468
 4235SOL     OW24163   1.345   1.298   2.692  0.1874 -0.1459 -0.6279
 4235SOL    HW124164   1.274   1.361   2.705 -2.6744 -3.2990 -1.0866
 4235SOL    HW224165   1.390   1.331   2.615  0.2987  1.0897 -0.0299
 4236SOL     OW24166   0.189   1.228   0.623 -0.1435  0.3733  0.3645
 4236SOL    HW124167   0.274   1.253   0.660  0.2880  0.6590 -0.8072
 4236SOL    HW224168   0.126   1.285   0.666 -1.4877 -0.0243 -1.0906
 4237SOL     OW24169   0.123   3.408   2.499 -0.3337 -0.2025 -0.3527
 4237SOL    HW124170   0.124   3.493   2.455 -0.1812 -1.2604 -2.3725
 4237SOL    HW224171   0.160   3.345   2.437  1.4779  1.3603 -0.8765
 4238SOL     OW24172   0.127   1.693   7.369 -0.3948  0.0367 -0.6409
 4238SOL    HW124173   0.065   1.624   7.393 -1.0280  1.9119  3.0735
 4238SOL    HW224174   0.213   1.658   7.395  0.8449  2.0024 -2.1200
 4239SOL     OW24175   1.144   0.267   4.010  0.7179 -0.1594  0.2284
 4239SOL    HW124176   1.135   0.187   3.958 -0.8412  1.7064 -2.3661
 4239SOL    HW224177   1.087   0.252   4.086  0.3416 -0.7771 -0.1765
 4240SOL     OW24178   2.213   0.634   7.558 -0.2280 -0.3524  0.3081
 4240SOL    HW124179   2.258   0.716   7.580 -0.0544  0.0479 -1.5041
 4240SOL    HW224180   2.163   0.608   7.635 -1.5715  1.5778  0.1074
 4241SOL     OW24181   1.123   4.662   6.033  0.1027 -0.4150  1.1925
 4241SOL    HW124182   1.082   4.583   6.068  1.1190 -0.9503  1.1665
 4241SOL    HW224183   1.211   4.628   6.044 -0.8775 -3.7764 -1.4358
 4242SOL     OW24184   1.667   1.992   4.812 -0.6564 -0.2729  0.1772
 4242SOL    HW124185   1.714   1.909   4.822 -0.4785 -0.2099 -0.1138
 4242SOL    HW224186   1.668   2.016   4.905  0.2269 -0.9862  0.3547
 4243SOL     OW24187   3.094   4.699   1.822  0.1554  0.1826 -0.2053
 4243SOL    HW124188   3.154   4.628   1.845 -1.3024 -1.1155 -0.4423
 4243SOL    HW224189   3.092   4.696   1.727  1.4805 -0.2995 -0.2203
 4244SOL     OW24190   1.037   3.178   5.271  0.1066  0.4496 -0.6885
 4244SOL    HW124191   1.045   3.129   5.353 -1.3815  2.8166  0.8558
 4244SOL    HW224192   1.130   3.174   5.246  0.8291 -0.9067  2.1258
 4245SOL     OW24193   1.097   3.924   9.398 -0.0627 -0.0399  0.1374
 4245SOL    HW124194   1.040   3.878   9.336  0.3039 -0.2341 -0.0518
 4245SOL    HW224195   1.031   3.976   9.445  0.3172 -0.0110  0.6436
 4246SOL     OW24196   4.441   1.784   5.531  0.2183  0.2109  0.3599
 4246SOL    HW124197   4.376   1.831   5.585  0.4455 -0.3860  1.1449
 4246SOL    HW224198   4.518   1.783   5.588  0.3323 -0.7520  0.1836
 4247SOL     OW24199   3.246   3.105   5.949  0.0919 -0.4849 -0.7050
 4247SOL    HW124200   3.338   3.122   5.928 -0.6625  2.5312 -1.4964
 4247SOL    HW224201   3.259   3.015   5.978 -2.4477 -0.8736 -0.8032
 4248SOL     OW24202   0.718   0.139   2.090 -0.0188  0.0954 -0.2080
 4248SOL    HW124203   0.732   0.172   2.001  1.0831  1.3330  0.4406
 4248SOL    HW224204   0.798   0.090   2.108  0.7312  0.7707 -1.7008
 4249SOL     OW24205   4.292   2.121  14.308  0.3722 -0.5388  0.5071
 4249SOL    HW124206   4.372   2.163  14.339  1.0988 -1.3364 -0.2913
 4249SOL    HW224207   4.270   2.176  14.233  0.3749 -1.5075 -0.2090
 4250SOL     OW24208   2.858   1.809   4.705  0.4990 -0.3232  0.1493
 4250SOL    HW124209   2.898   1.724   4.723  0.6425 -0.4872 -0.9530
 4250SOL    HW224210   2.910   1.845   4.633  2.8695 -0.6398  1.7078
 4251SOL     OW24211   3.499   2.478  14.925 -0.0160 -0.2059  1.2640
 4251SOL    HW124212   3.415   2.433  14.930 -1.1039  1.8979  1.8560
 4251SOL    HW224213   3.556   2.409  14.890  1.0429 -0.1436  2.8829
 4252SOL     OW24214   2.023   0.829   2.564 -0.3931  0.1356 -0.3212
 4252SOL    HW124215   2.043   0.916   2.529  1.1153 -0.2391 -0.3973
 4252SOL    HW224216   1.948   0.859   2.614 -0.7500 -2.0901  0.4488
 4253SOL     OW24217   1.556   3.818   4.742  0.1189  0.8002 -0.5451
 4253SOL    HW124218   1.521   3.883   4.682  1.3748  1.1066 -0.9451
 4253SOL    HW224219   1.605   3.886   4.787  1.0239 -0.9586  1.1423
 4254SOL     OW24220   4.379   1.805  12.783 -0.4732  0.3962  0.3898
 4254SOL    HW124221   4.383   1.729  12.725 -0.7797  0.6210  0.0772
 4254SOL    HW224222   4.453   1.779  12.839 -0.1216  2.2231  0.7853
 4255SOL     OW24223   0.496   1.321   3.728  0.5093  0.3137 -0.6528
 4255SOL    HW124224   0.503   1.413   3.704  1.1651  0.1107 -1.2270
 4255SOL    HW224225   0.521   1.321   3.821  2.0255 -1.5726 -1.0710
 4256SOL     OW24226   2.786   2.918   5.325 -0.5149 -0.1292 -0.5289
 4256SOL    HW124227   2.798   3.000   5.372 -2.3961 -1.0840  1.6115
 4256SOL    HW224228   2.826   2.847   5.376 -2.5105 -1.4039 -0.7421
 4257SOL     OW24229   0.565   3.057   2.833  0.3684  0.4814 -0.3026
 4257SOL    HW124230   0.517   3.053   2.750  0.2867  1.1027 -0.2878
 4257SOL    HW224231   0.550   2.970   2.869  0.0508  0.3968 -0.6433
 4258SOL     OW24232   0.565   3.179  16.324  0.5844 -0.3533  0.6059
 4258SOL    HW124233   0.601   3.254  16.278 -2.4168  0.8502  0.2190
 4258SOL    HW224234   0.470   3.194  16.326  0.8914  1.4624  1.8373
 4259SOL     OW24235   4.305   0.879   7.640  0.2556 -0.0764 -0.9940
 4259SOL    HW124236   4.318   0.835   7.723 -0.1111  0.8298 -0.4551
 4259SOL    HW224237   4.359   0.820   7.587 -0.3430 -0.0542 -1.6278
 4260SOL     OW24238   1.501   0.592  14.877  0.0994 -0.2325 -0.0289
 4260SOL    HW124239   1.421   0.575  14.927 -0.8095  2.8993 -0.3897
 4260SOL    HW224240   1.506   0.518  14.816 -0.7847 -1.3230  1.2451
 4261SOL     OW24241   0.185   3.503   9.075 -0.4947  0.0827 -0.1522
 4261SOL    HW124242   0.143   3.574   9.124 -0.8610 -0.5011  0.3763
 4261SOL    HW224243   0.269   3.546   9.059 -0.1784  0.0650  1.5171
 4262SOL     OW24244   4.426   3.133   5.093 -0.0950  0.3327 -0.1069
 4262SOL    HW124245   4.451   3.058   5.147 -0.7192 -0.1595 -0.4955
 4262SOL    HW224246   4.455   3.211   5.139  0.6277  1.5963 -2.6774
 4263SOL     OW24247   4.214   1.317   7.852  0.0815  0.3283  0.1954
 4263SOL    HW124248   4.127   1.326   7.891 -0.8877 -2.3954 -1.2892
 4263SOL    HW224249   4.209   1.268   7.770 -3.4974  0.3406  0.4075
 4264SOL     OW24250   2.943   1.545   8.040  0.0076  0.1303 -0.1228
 4264SOL    HW124251   2.967   1.510   8.125 -1.7913  4.7311  2.2919
 4264SOL    HW224252   3.011   1.509   7.983  0.1644 -1.6444  1.2135
 4265SOL     OW24253   1.245   2.180   2.308 -0.5137 -0.0067 -0.2248
 4265SOL    HW124254   1.314   2.167   2.242 -1.6311 -0.4220 -1.3053
 4265SOL    HW224255   1.294   2.249   2.354 -1.4463  0.1576  0.5152
 4266SOL     OW24256   4.280   2.302   2.309 -0.1826 -0.2517 -0.2364
 4266SOL    HW124257   4.325   2.272   2.230 -1.6763 -0.7868 -0.8729
 4266SOL    HW224258   4.355   2.335   2.360  0.6428  1.7200 -2.7632
 4267SOL     OW24259   0.498   3.580   5.010  0.2890  0.2889 -0.5229
 4267SOL    HW124260   0.460   3.492   5.008 -1.2111  0.9000  0.7427
 4267SOL    HW224261   0.525   3.589   5.101  0.9685  0.7069 -0.7650
 4268SOL     OW24262   1.298   1.527   0.774 -0.9514  0.5090 -0.4943
 4268SOL    HW124263   1.232   1.589   0.805 -0.4081  0.5712  0.5487
 4268SOL    HW224264   1.374   1.542   0.831 -0.6616  0.7617 -0.9490
 4269SOL     OW24265   2.383   4.198  12.961 -0.6604 -0.1987 -0.0362
 4269SOL    HW124266   2.357   4.116  13.001 -1.9635 -0.2595 -1.0043
 4269SOL    HW224267   2.363   4.256  13.034 -0.1522 -0.0154 -0.0413
 4270SOL     OW24268   4.309   4.409   0.560  0.4991  0.1281 -0.0650
 4270SOL    HW124269   4.255   4.375   0.631 -1.4454 -0.2379 -1.7036
 4270SOL    HW224270   4.278   4.347   0.493  0.8013  0.0936 -0.1720
 4271SOL     OW24271   0.224   2.949   3.520 -0.0317 -0.1290 -0.0600
 4271SOL    HW124272   0.224   2.857   3.544  0.4148 -0.6220 -1.9737
 4271SOL    HW224273   0.135   2.975   3.541  0.4532  1.8937 -0.4949
 4272SOL     OW24274   4.609   3.969   7.348  0.1148  0.1274  0.2959
 4272SOL    HW124275   4.552   4.044   7.366  0.9604  0.7918  0.2134
 4272SOL    HW224276   4.664   3.954   7.426 -0.3272  0.1065  0.6013
 4273SOL     OW24277   1.487   0.369   1.866  0.1926  0.3540  0.3469
 4273SOL    HW124278   1.547   0.298   1.887 -1.1048 -1.4390 -1.9502
 4273SOL    HW224279   1.527   0.407   1.787 -2.9848 -0.7947 -1.8152
 4274SOL     OW24280   2.068   0.604   2.418 -0.3588  0.5685  0.3100
 4274SOL    HW124281   2.041   0.644   2.501  0.6959 -2.5729  2.1726
 4274SOL    HW224282   2.105   0.675   2.366  4.6574 -1.6250  0.9303
 4275SOL     OW24283   3.961   0.439   5.806 -0.3865 -0.8418  0.1490
 4275SOL    HW124284   3.991   0.424   5.717 -0.4860 -0.0348 -0.0218
 4275SOL    HW224285   3.955   0.350   5.841  0.1940 -0.2561  1.7548
 4276SOL     OW24286   1.873   3.268   5.946 -0.1290  0.4123  0.0491
 4276SOL    HW124287   1.850   3.203   5.880  2.1857 -0.3906  0.0132
 4276SOL    HW224288   1.806   3.336   5.934  2.0383  2.6159  0.3784
 4277SOL     OW24289   3.381   1.749  14.676  0.0598 -0.0912  0.3277
 4277SOL    HW124290   3.290   1.775  14.691  0.0850  0.2207 -0.0492
 4277SOL    HW224291   3.419   1.742  14.763 -2.4101  0.4375  1.4360
 4278SOL     OW24292   2.175   0.766   8.425  0.3250  0.1793  0.0707
 4278SOL    HW124293   2.194   0.840   8.368  2.6591 -0.7508 -0.3794
 4278SOL    HW224294   2.171   0.811   8.509  0.8398  0.4051 -0.0228
 4279SOL     OW24295   2.215   0.423   5.202 -0.0713  0.4118  0.6311
 4279SOL    HW124296   2.309   0.404   5.196  0.1211  1.3646  0.6956
 4279SOL    HW224297   2.187   0.411   5.293 -0.8932 -0.9099  0.2131
 4280SOL     OW24298   4.297   3.848  16.274 -0.2748 -0.1560  0.1346
 4280SOL    HW124299   4.364   3.856  16.343  1.4739 -3.0258 -1.2407
 4280SOL    HW224300   4.306   3.758  16.244  2.3636 -0.9269  3.2381
 4281SOL     OW24301   3.961   3.722   2.907 -0.6627  0.2368 -0.1050
 4281SOL    HW124302   4.042   3.765   2.882 -0.3302 -1.0939 -1.2931
 4281SOL    HW224303   3.935   3.677   2.827  1.5843  1.0635 -1.2935
 4282SOL     OW24304   1.314   3.473   8.943  0.0192  0.3799  0.1093
 4282SOL    HW124305   1.219   3.476   8.927 -0.0820  0.4300  0.7195
 4282SOL    HW224306   1.321   3.426   9.026  0.4305 -0.4666 -0.4037
 4283SOL     OW24307   1.170   2.250   4.802  0.0758 -0.2808  0.2115
 4283SOL    HW124308   1.176   2.206   4.887 -0.9114 -1.6637 -0.4120
 4283SOL    HW224309   1.264   2.249   4.786  0.0489  0.9128 -0.0128
 4284SOL     OW24310   2.005   0.925  13.504 -0.1832  0.1214 -0.9552
 4284SOL    HW124311   1.985   0.981  13.430 -1.0971 -0.5782 -1.2371
 4284SOL    HW224312   2.097   0.900  13.492  0.2724  2.4523 -2.3217
 4285SOL     OW24313   0.526   3.800  12.287 -0.0627 -0.1163  0.5563
 4285SOL    HW124314   0.527   3.802  12.191  1.4094  1.3637  0.6113
 4285SOL    HW224315   0.599   3.748  12.320  0.4057 -0.1038 -0.4611
 4286SOL     OW24316   0.246   4.500   3.784  0.0762  0.1851  0.1343
 4286SOL    HW124317   0.283   4.556   3.716  0.6660  0.8052  0.9690
 4286SOL    HW224318   0.220   4.429   3.726  0.2264 -1.2695  1.8373
 4287SOL     OW24319   3.821   1.384   4.788 -0.0901 -0.1033 -0.3161
 4287SOL    HW124320   3.784   1.413   4.704  1.0145  1.8180 -0.1426
 4287SOL    HW224321   3.867   1.304   4.763 -0.5015 -0.3634 -0.2479
 4288SOL     OW24322   3.661   0.630   7.738  0.1896 -0.3145 -0.9523
 4288SOL    HW124323   3.737   0.659   7.788 -0.3955 -1.0844  0.3826
 4288SOL    HW224324   3.669   0.686   7.661 -3.0278  0.3735 -0.8093
 4289SOL     OW24325   0.350   3.578   8.283 -0.1118 -0.5793  0.2125
 4289SOL    HW124326   0.395   3.518   8.343  1.9890  1.5599  0.7640
 4289SOL    HW224327   0.262   3.543   8.268 -0.0899 -0.3847 -0.3584
 4290SOL     OW24328   0.932   4.085   8.422  0.2558  0.2688 -0.2371
 4290SOL    HW124329   0.974   4.065   8.506  0.3297  1.4937  0.0135
 4290SOL    HW224330   0.851   4.035   8.428  0.0236  0.5571 -0.9897
 4291SOL     OW24331   0.971   4.610   2.156  0.2170  0.4266  0.3597
 4291SOL    HW124332   1.039   4.641   2.095 -0.1933  0.1224 -0.2498
 4291SOL    HW224333   0.963   4.683   2.217 -0.2319 -0.9012  1.8983
 4292SOL     OW24334   2.489   2.633   7.874  0.0283 -0.4413 -0.3870
 4292SOL    HW124335   2.470   2.609   7.783 -0.1222 -0.8482 -0.2477
 4292SOL    HW224336   2.560   2.570   7.893  1.1943  0.6798 -1.0567
 4293SOL     OW24337   2.629   0.981   8.883  0.3378 -0.3774 -0.4728
 4293SOL    HW124338   2.640   1.067   8.845 -1.2166 -0.2639 -0.6896
 4293SOL    HW224339   2.636   1.005   8.976 -1.4004  1.5811 -0.8512
 4294SOL     OW24340   1.299   4.252   3.377 -0.2075  0.3259  0.0504
 4294SOL    HW124341   1.295   4.340   3.338  0.0033  0.7005  0.8768
 4294SOL    HW224342   1.214   4.216   3.350  2.3042 -2.6184 -3.8572
 4295SOL     OW24343   0.831   3.675  10.487 -0.4866 -0.4920  0.8953
 4295SOL    HW124344   0.829   3.590  10.530 -1.4029 -0.3938  1.0374
 4295SOL    HW224345   0.918   3.678  10.447 -1.7992  1.6496 -1.7762
 4296SOL     OW24346   1.841   1.077   8.411 -0.5039  0.6872  0.5944
 4296SOL    HW124347   1.849   1.105   8.319  0.2345 -1.0120  0.1487
 4296SOL    HW224348   1.842   0.982   8.400 -1.2964  0.6672  0.6852
 4297SOL     OW24349   3.991   4.400   8.084 -0.2562  0.0763 -0.5619
 4297SOL    HW124350   4.019   4.318   8.044 -3.3957 -0.9260 -0.6886
 4297SOL    HW224351   3.966   4.356   8.166  1.5410 -2.4123 -1.3518
 4298SOL     OW24352   0.764   1.562   8.307 -0.1012 -0.1118 -0.4198
 4298SOL    HW124353   0.737   1.526   8.222 -0.1890  1.6280 -1.1262
 4298SOL    HW224354   0.771   1.487   8.366  0.9147  0.3358  0.0268
 4299SOL     OW24355   2.665   4.380  13.879  0.3719  0.9112  0.1739
 4299SOL    HW124356   2.655   4.433  13.959 -1.6987  0.8162 -0.0251
 4299SOL    HW224357   2.636   4.292  13.902  1.3193  0.5646  0.0512
 4300SOL     OW24358   3.948   0.624   4.011  0.1985 -0.3329  0.3965
 4300SOL    HW124359   3.876   0.602   3.952 -0.2595  0.3889  0.6927
 4300SOL    HW224360   4.002   0.545   4.015  0.7456 -0.0992 -2.2722
 4301SOL     OW24361   0.952   1.957  14.347 -0.7614 -0.6215  0.0585
 4301SOL    HW124362   1.041   1.975  14.318 -0.4754 -0.6400  0.9334
 4301SOL    HW224363   0.930   2.038  14.394  0.4114  0.3233 -1.0344
 4302SOL     OW24364   1.666   2.184   0.324  0.4484  0.1811  0.0529
 4302SOL    HW124365   1.632   2.200   0.236  2.4341  2.0719 -0.4041
 4302SOL    HW224366   1.755   2.220   0.319 -0.0150  1.2047 -0.7605
 4303SOL     OW24367   2.198   1.388  10.612 -0.3148  0.2988  0.4991
 4303SOL    HW124368   2.133   1.344  10.556 -0.5455  1.1622  0.0945
 4303SOL    HW224369   2.138   1.428  10.675 -0.9991  0.2865 -0.1460
 4304SOL     OW24370   2.343   4.582   5.390 -0.1985  0.3446 -0.1075
 4304SOL    HW124371   2.295   4.528   5.453  0.3393  0.4625  0.4063
 4304SOL    HW224372   2.355   4.531   5.310  0.2406 -0.5293  0.5144
 4305SOL     OW24373   4.592   2.145   6.474 -0.1081  0.5868 -0.0215
 4305SOL    HW124374   4.533   2.220   6.476  0.7425  1.2074  1.7056
 4305SOL    HW224375   4.595   2.116   6.565  1.3104  0.2934 -0.1597
 4306SOL     OW24376   1.452   1.961   4.230  0.0565 -0.0803 -0.4702
 4306SOL    HW124377   1.540   1.997   4.228  0.0808 -0.0881  0.2955
 4306SOL    HW224378   1.477   1.881   4.277 -0.5840 -0.2032 -0.3324
 4307SOL     OW24379   4.625   3.149   6.051 -0.2802 -0.5565 -0.2597
 4307SOL    HW124380   4.660   3.098   5.977 -0.0743 -0.4271 -0.2531
 4307SOL    HW224381   4.532   3.128   6.049 -0.1187 -1.1732 -1.4575
 4308SOL     OW24382   3.188   0.340  16.740  0.0032 -0.0384  1.1108
 4308SOL    HW124383   3.264   0.322  16.683 -0.8248  1.9535 -0.6281
 4308SOL    HW224384   3.224   0.281  16.807 -0.0263 -0.1906  0.9921
 4309SOL     OW24385   1.009   2.964  10.068  0.3983  1.0470 -0.3549
 4309SOL    HW124386   1.092   2.975  10.022 -0.2371  0.4935 -1.6238
 4309SOL    HW224387   1.012   2.889  10.127  5.6263  1.6873  0.2333
 4310SOL     OW24388   3.319   1.984  10.695  0.1974 -0.4296 -0.5850
 4310SOL    HW124389   3.287   1.958  10.781  0.7238 -2.6547 -1.0521
 4310SOL    HW224390   3.362   2.069  10.709  1.8563 -1.3549 -0.0512
 4311SOL     OW24391   0.936   2.739  16.920  0.0907 -0.0366  0.2289
 4311SOL    HW124392   0.972   2.738  16.832  2.1844  2.0529  1.0786
 4311SOL    HW224393   0.984   2.674  16.970  0.1031  0.9975  1.5652
 4312SOL     OW24394   3.938   3.814   6.035  0.4628  0.1690 -0.1101
 4312SOL    HW124395   3.900   3.738   6.080 -1.2063  0.5388 -0.8701
 4312SOL    HW224396   3.913   3.810   5.942 -0.9574 -0.3132  0.2787
 4313SOL     OW24397   1.804   2.274  11.810 -0.2307 -0.4549  0.2834
 4313SOL    HW124398   1.896   2.283  11.786 -0.0071 -0.1939  1.2627
 4313SOL    HW224399   1.818   2.274  11.904  0.6962  0.7689  0.1495
 4314SOL     OW24400   2.312   1.062   7.077 -0.6234  0.3173  0.6310
 4314SOL    HW124401   2.358   1.014   7.145  0.4533 -1.2995 -1.2597
 4314SOL    HW224402   2.383   1.077   7.015 -0.2079 -2.0084  0.5742
 4315SOL     OW24403   3.877   3.350   0.620  0.2789 -0.1401  0.0037
 4315SOL    HW124404   3.816   3.278   0.631  3.3485 -2.7744 -0.1984
 4315SOL    HW224405   3.957   3.310   0.656  0.4512  1.9209  1.9256
 4316SOL     OW24406   0.519   2.442   4.065  0.2474 -0.0191 -0.0664
 4316SOL    HW124407   0.554   2.373   4.009  1.2474 -0.4384  1.0709
 4316SOL    HW224408   0.541   2.412   4.153  3.1879 -2.8535 -1.7618
 4317SOL     OW24409   1.600   4.136   2.921  0.3947  0.2255 -0.4359
 4317SOL    HW124410   1.561   4.048   2.918 -0.0541  0.3757  0.9379
 4317SOL    HW224411   1.526   4.179   2.880  0.4658 -2.4163 -3.4067
 4318SOL     OW24412   0.855   3.285   4.560 -0.2908  0.1764 -0.1041
 4318SOL    HW124413   0.918   3.215   4.541 -0.9437  0.0095 -1.6069
 4318SOL    HW224414   0.835   3.305   4.469  1.2941  0.0268 -0.4955
 4319SOL     OW24415   2.044   2.419   2.724  0.6524  0.4932  0.0125
 4319SOL    HW124416   2.051   2.510   2.693  0.4998  0.9012  1.1900
 4319SOL    HW224417   2.008   2.424   2.812  1.4789 -1.0350  0.4317
 4320SOL     OW24418   2.148   3.857  10.090  0.2382  0.7369 -1.0090
 4320SOL    HW124419   2.124   3.855   9.997 -0.9626  0.2930 -0.6983
 4320SOL    HW224420   2.214   3.926  10.089  3.3013 -2.1494  1.5054
 4321SOL     OW24421   1.049   1.402   7.476 -0.1742  0.2160 -0.4650
 4321SOL    HW124422   0.965   1.362   7.499  0.5308 -0.6558  0.5866
 4321SOL    HW224423   1.053   1.475   7.538  0.2590  0.9178 -1.3172
 4322SOL     OW24424   0.274   1.796   5.813  0.6005  0.1085 -0.2753
 4322SOL    HW124425   0.363   1.825   5.833  0.9599  1.5530 -3.7631
 4322SOL    HW224426   0.268   1.719   5.868 -0.8126  0.7937  0.5349
 4323SOL     OW24427   0.446   1.837   4.213  0.4222  0.1181  0.4613
 4323SOL    HW124428   0.515   1.784   4.253  0.9580  0.4206 -0.0637
 4323SOL    HW224429   0.448   1.926   4.247 -0.1483  0.4721 -0.4256
 4324SOL     OW24430   0.007   1.234  14.257 -0.7657  0.2003  0.5233
 4324SOL    HW124431   4.685   1.176  14.196 -1.7220  0.9391  0.5206
 4324SOL    HW224432   0.022   1.160  14.316 -1.0387 -1.5707 -1.6239
 4325SOL     OW24433   2.052   0.698   8.037  0.8634 -0.6751 -0.3613
 4325SOL    HW124434   1.997   0.624   8.061 -1.7966  1.4995  0.2729
 4325SOL    HW224435   2.121   0.697   8.104 -1.4792 -0.0968  2.0675
 4326SOL     OW24436   4.049   1.616   9.725 -0.6784 -0.1065 -0.2780
 4326SOL    HW124437   3.993   1.678   9.772 -0.0597  0.6127 -0.4742
 4326SOL    HW224438   4.078   1.673   9.654  1.0787  0.2442  0.7042
 4327SOL     OW24439   4.657   3.285   3.852 -0.0611 -0.5775  0.1641
 4327SOL    HW124440   4.705   3.214   3.809  2.6966  1.8192 -0.7223
 4327SOL    HW224441   4.576   3.246   3.887  0.9791 -1.7574  1.2774
 4328SOL     OW24442   2.068   3.385   2.454  0.1703 -0.4565 -0.5495
 4328SOL    HW124443   2.106   3.359   2.538  1.1283 -1.1953 -1.2039
 4328SOL    HW224444   1.979   3.401   2.485  0.1448 -1.8599  0.0969
 4329SOL     OW24445   0.745   1.875   3.314  0.2149 -0.1036  0.0077
 4329SOL    HW124446   0.797   1.818   3.257 -0.6955  0.2069 -1.1328
 4329SOL    HW224447   0.661   1.864   3.270 -0.0382 -1.8512  0.8969
 4330SOL     OW24448   2.891   3.022   7.571 -0.1692  0.3394  0.3517
 4330SOL    HW124449   2.931   2.950   7.620  2.3317 -0.0950 -2.3257
 4330SOL    HW224450   2.838   3.058   7.643  0.5598 -1.8259  1.9618
 4331SOL     OW24451   3.739   2.713   6.053  0.2926 -0.6197 -0.1634
 4331SOL    HW124452   3.749   2.783   5.988  0.7583  0.8833  1.5051
 4331SOL    HW224453   3.648   2.691   6.033 -0.2079  0.9812  0.3530
 4332SOL     OW24454   4.655   3.685   6.542 -0.0421  1.4460  0.1323
 4332SOL    HW124455   4.614   3.704   6.626 -0.1146  1.2090  0.1517
 4332SOL    HW224456   4.574   3.681   6.491 -1.6103  0.1278  2.7053
 4333SOL     OW24457   2.001   2.229   8.786 -1.0879 -0.0808 -0.2501
 4333SOL    HW124458   2.014   2.253   8.878 -0.6725 -1.4962  0.0550
 4333SOL    HW224459   2.083   2.188   8.756 -0.4195 -0.2734  1.8595
 4334SOL     OW24460   2.414   4.540   6.175  0.2204  0.4984 -0.3609
 4334SOL    HW124461   2.468   4.499   6.108  0.3620 -0.3643  0.2669
 4334SOL    HW224462   2.405   4.630   6.146  1.5488  0.4234 -1.0067
 4335SOL     OW24463   3.142   2.781  12.896 -0.0549 -0.2231  0.4002
 4335SOL    HW124464   3.212   2.787  12.961 -0.0462 -0.6718  0.4320
 4335SOL    HW224465   3.061   2.798  12.945  0.4066 -0.0197  1.1038
 4336SOL     OW24466   3.341   1.733   2.012  0.1351 -0.5102 -0.2264
 4336SOL    HW124467   3.381   1.761   2.095  0.7466 -0.7445 -0.4370
 4336SOL    HW224468   3.248   1.747   2.029  0.2598  0.2915 -0.2271
 4337SOL     OW24469   1.836   3.223   5.592  0.4444  0.1702  0.2557
 4337SOL    HW124470   1.814   3.150   5.534 -0.6391  0.7592 -0.0849
 4337SOL    HW224471   1.786   3.202   5.672 -0.3782 -0.7439 -0.4921
 4338SOL     OW24472   2.093   0.219   6.072  0.0422 -0.2000  0.0548
 4338SOL    HW124473   2.006   0.250   6.098  0.2811 -1.2086  2.0621
 4338SOL    HW224474   2.073   0.172   5.990  1.1783 -1.7093  0.6394
 4339SOL     OW24475   1.263   4.071   5.038 -0.3439  0.2088  0.3334
 4339SOL    HW124476   1.193   4.105   4.982 -1.4171 -1.4884  0.6496
 4339SOL    HW224477   1.342   4.113   5.003 -0.5721  0.2245 -0.1665
 4340SOL     OW24478   0.479   2.668  12.195 -0.9012  0.0276  0.2655
 4340SOL    HW124479   0.443   2.735  12.254 -0.9578  0.2422 -0.0108
 4340SOL    HW224480   0.436   2.693  12.113  0.7805  0.0803 -0.6007
 4341SOL     OW24481   3.206   2.488   5.820  0.3506  0.2305  0.2321
 4341SOL    HW124482   3.301   2.499   5.815  0.2414  1.8199  1.5131
 4341SOL    HW224483   3.185   2.413   5.764 -1.1320  0.3744  0.5904
 4342SOL     OW24484   4.183   3.443  12.290 -0.2353  0.1156 -0.4012
 4342SOL    HW124485   4.199   3.530  12.328  0.4243  0.3725 -1.2720
 4342SOL    HW224486   4.258   3.393  12.322 -1.3756 -1.3374 -0.0292
 4343SOL     OW24487   2.638   2.378   6.833  0.0914 -0.6296  0.0735
 4343SOL    HW124488   2.612   2.366   6.924 -2.7886 -0.8392 -0.7681
 4343SOL    HW224489   2.627   2.287   6.805 -2.8589 -0.2864  0.1125
 4344SOL     OW24490   4.373   0.249  10.174 -0.5564 -0.0238 -0.3154
 4344SOL    HW124491   4.447   0.292  10.130  0.2545  0.2379  1.3312
 4344SOL    HW224492   4.371   0.301  10.254  0.6739 -0.8600  0.2555
 4345SOL     OW24493   0.414   3.322   5.048 -0.4397  0.4846 -0.4821
 4345SOL    HW124494   0.497   3.277   5.033 -0.6275  0.1882 -0.6325
 4345SOL    HW224495   0.360   3.251   5.084 -0.9865  0.7663 -0.7523
 4346SOL     OW24496   4.597   3.280   1.784  0.2440 -0.1760  0.1753
 4346SOL    HW124497   4.641   3.263   1.868 -1.0500  0.8209  1.0581
 4346SOL    HW224498   4.666   3.326   1.736 -0.9029  0.3954 -0.8988
 4347SOL     OW24499   2.395   4.467   6.667 -0.2275  0.1090 -0.2836
 4347SOL    HW124500   2.422   4.466   6.576  2.0325 -0.6513  0.3933
 4347SOL    HW224501   2.460   4.529   6.699 -0.4059  0.1318  0.0374
 4348SOL     OW24502   1.921   1.195  12.604  0.7844  0.2043 -0.3362
 4348SOL    HW124503   1.938   1.282  12.640 -0.5857  0.4804 -0.3791
 4348SOL    HW224504   1.837   1.174  12.645 -0.0986  1.3683 -1.5451
 4349SOL     OW24505   3.079   0.797   8.166  0.2797  0.1759  0.1910
 4349SOL    HW124506   3.118   0.772   8.082  2.0977  1.4024  0.6840
 4349SOL    HW224507   3.134   0.871   8.189 -1.2277  2.0235 -2.1793
 4350SOL     OW24508   2.934   0.002   4.243 -0.4129 -0.4010 -0.7369
 4350SOL    HW124509   2.894   4.691   4.323  1.5766  1.4388  1.0471
 4350SOL    HW224510   2.999   0.066   4.272  1.0814 -2.9727  1.5959
 4351SOL     OW24511   4.232   2.437  14.561 -0.3516  0.2993  0.3307
 4351SOL    HW124512   4.182   2.355  14.553 -0.5285  0.4153  0.2466
 4351SOL    HW224513   4.179   2.487  14.499  0.7464 -2.1581 -2.6269
 4352SOL     OW24514   4.343   4.355  15.139 -0.0356 -0.1505  0.0365
 4352SOL    HW124515   4.337   4.269  15.096 -2.3252 -0.4680  0.9650
 4352SOL    HW224516   4.431   4.386  15.119 -0.1418  0.0783 -0.0727
 4353SOL     OW24517   1.471   2.550   9.293 -0.2661 -0.1898 -0.2513
 4353SOL    HW124518   1.421   2.489   9.348  0.0208 -0.7931 -0.6538
 4353SOL    HW224519   1.467   2.631   9.344 -0.1948 -0.0514 -0.4675
 4354SOL     OW24520   0.730   2.666   6.972  0.1761 -0.0179 -0.5602
 4354SOL    HW124521   0.780   2.669   7.054 -0.3485  1.3742 -0.2892
 4354SOL    HW224522   0.792   2.664   6.900 -0.2467 -2.0667 -0.8581
 4355SOL     OW24523   0.227   2.793  11.808 -0.0225 -1.1315 -0.2215
 4355SOL    HW124524   0.276   2.867  11.844 -2.0661  0.2573 -0.2413
 4355SOL    HW224525   0.258   2.795  11.718 -2.7253  1.0687 -1.1458
 4356SOL     OW24526   1.110   4.643   2.630 -0.4163 -0.2744 -0.3751
 4356SOL    HW124527   1.181   4.706   2.617  0.2586 -1.0397 -0.3596
 4356SOL    HW224528   1.161   4.564   2.646  0.3339  0.8284  2.6732
 4357SOL     OW24529   2.400   3.152   4.003 -0.4802  0.3754  0.4236
 4357SOL    HW124530   2.432   3.063   3.985 -1.8645 -0.4058  1.8563
 4357SOL    HW224531   2.480   3.203   4.011 -1.3406  1.6863  0.5784
 4358SOL     OW24532   4.139   3.483   4.182 -0.6243 -0.4318  0.1842
 4358SOL    HW124533   4.140   3.569   4.225 -1.0688 -0.6556  0.6411
 4358SOL    HW224534   4.102   3.517   4.101 -0.5920  1.4965  0.9715
 4359SOL     OW24535   1.646   3.163   3.861  0.0401 -0.1592 -0.5632
 4359SOL    HW124536   1.573   3.206   3.905  1.6073  1.4996  0.3820
 4359SOL    HW224537   1.611   3.162   3.772 -3.1054 -2.0807  0.6793
 4360SOL     OW24538   0.816   0.421  12.898  0.0329 -0.0977  0.1441
 4360SOL    HW124539   0.832   0.339  12.851  0.6700 -0.4247  0.9286
 4360SOL    HW224540   0.760   0.462  12.833 -0.1573  0.9069  0.9396
 4361SOL     OW24541   4.434   3.577   2.730  0.9516  0.7368 -0.4056
 4361SOL    HW124542   4.523   3.612   2.725  1.3121 -0.2514 -0.8236
 4361SOL    HW224543   4.416   3.583   2.636  0.4363  1.7177 -0.2503
 4362SOL     OW24544   2.813   0.100   0.359  0.1828  0.0062 -0.5801
 4362SOL    HW124545   2.906   0.122   0.361  0.4396 -1.0829 -0.8690
 4362SOL    HW224546   2.769   0.185   0.366 -1.0491 -0.7848  1.0268
 4363SOL     OW24547   4.435   0.776   9.116 -0.1186 -0.0388  0.4468
 4363SOL    HW124548   4.384   0.824   9.181 -0.7878  1.5697 -1.2633
 4363SOL    HW224549   4.450   0.688   9.151  0.8094  0.3893  1.1244
 4364SOL     OW24550   0.093   1.755   6.401 -0.7657  0.0273  0.5215
 4364SOL    HW124551   0.078   1.768   6.307 -0.0787 -0.4999  0.3420
 4364SOL    HW224552   0.145   1.833   6.419 -1.2590  0.1303  1.5175
 4365SOL     OW24553   2.088   2.701  11.026  0.4084  0.0831 -1.0007
 4365SOL    HW124554   2.177   2.701  10.991  0.5775  0.0237 -0.5736
 4365SOL    HW224555   2.103   2.618  11.071  0.7072  1.5422  1.6059
 4366SOL     OW24556   1.782   2.980   7.367  0.3825  0.1257 -0.7714
 4366SOL    HW124557   1.758   2.891   7.392 -1.8567  1.4017  1.6295
 4366SOL    HW224558   1.744   3.022   7.444  1.1878  1.4790 -1.1046
 4367SOL     OW24559   0.961   3.085   2.138 -0.1614 -0.0264  0.3849
 4367SOL    HW124560   0.973   3.162   2.194  0.3657 -0.1725  0.4741
 4367SOL    HW224561   0.923   3.020   2.198 -2.0171  1.7340  1.1322
 4368SOL     OW24562   2.285   0.487   7.897 -0.2830  0.1560  0.0521
 4368SOL    HW124563   2.287   0.554   7.965  1.3145  0.2848 -0.1298
 4368SOL    HW224564   2.223   0.522   7.833 -0.1066  1.4685  0.6092
 4369SOL     OW24565   4.565   3.309   6.263 -0.2165 -0.1944  0.2642
 4369SOL    HW124566   4.544   3.265   6.346 -2.5489  1.2247  0.4076
 4369SOL    HW224567   4.598   3.246   6.199  0.6951  1.2297 -0.6611
 4370SOL     OW24568   2.884   2.558   3.967 -0.3220  0.3586  0.3217
 4370SOL    HW124569   2.926   2.621   3.909  2.1078 -2.4142 -0.9430
 4370SOL    HW224570   2.841   2.509   3.897 -1.6575 -0.3364  1.6226
 4371SOL     OW24571   0.402   3.617   5.927 -0.2797  0.0086 -0.3176
 4371SOL    HW124572   0.392   3.695   5.981 -1.7002 -0.5117  0.1680
 4371SOL    HW224573   0.455   3.563   5.986  1.1429 -0.6850 -2.2057
 4372SOL     OW24574   3.607   2.510   6.324 -0.0715 -0.0179 -0.2178
 4372SOL    HW124575   3.571   2.576   6.264 -0.9134  2.0845  2.5801
 4372SOL    HW224576   3.548   2.508   6.400 -0.6760  0.1568 -0.6811
 4373SOL     OW24577   2.351   3.883  17.267 -0.1004  0.6929 -0.2487
 4373SOL    HW124578   2.359   3.978  17.264 -1.4794  0.8960  2.5433
 4373SOL    HW224579   2.410   3.869  17.341 -1.4428  0.7989  0.8592
 4374SOL     OW24580   3.241   1.659   5.950 -0.5601 -0.0416 -0.0467
 4374SOL    HW124581   3.322   1.689   5.991  0.0794 -1.5997 -0.1456
 4374SOL    HW224582   3.181   1.733   5.956  1.2987  1.4784 -0.2058
 4375SOL     OW24583   0.554   0.333   7.228  0.3964 -0.4779 -0.4512
 4375SOL    HW124584   0.518   0.250   7.259 -0.4093  0.9247  2.4251
 4375SOL    HW224585   0.580   0.368   7.314  1.8792 -2.7785  0.0443
 4376SOL     OW24586   1.868   3.675   4.035 -0.2378  0.5041  0.3312
 4376SOL    HW124587   1.813   3.628   3.973  0.4798  1.8658 -1.3725
 4376SOL    HW224588   1.853   3.762   3.997  0.4181  1.6496  2.7015
 4377SOL     OW24589   1.715   2.700   3.836  0.3128  0.0003  0.7251
 4377SOL    HW124590   1.676   2.614   3.822 -0.5859 -0.0164  3.3242
 4377SOL    HW224591   1.780   2.701   3.766 -1.0607  1.1898 -0.5361
 4378SOL     OW24592   0.199   2.196   2.622 -0.2203 -0.1328 -0.4684
 4378SOL    HW124593   0.192   2.189   2.527  2.2803  0.2272 -0.6991
 4378SOL    HW224594   0.293   2.194   2.642 -0.3081  0.0300 -0.0326
 4379SOL     OW24595   1.197   1.817  12.407 -0.0919  0.1426  0.2603
 4379SOL    HW124596   1.225   1.797  12.318 -0.2582 -0.1237  0.2672
 4379SOL    HW224597   1.253   1.890  12.435 -1.4194  1.8893 -1.6629
 4380SOL     OW24598   4.114   0.828  12.377  0.7296  0.1728 -0.2000
 4380SOL    HW124599   4.199   0.833  12.333  0.6308  1.5776 -0.2410
 4380SOL    HW224600   4.068   0.907  12.347  0.1369  0.2954  1.0377
 4381SOL     OW24601   4.408   3.871  12.448  0.1883 -0.1373  0.3906
 4381SOL    HW124602   4.356   3.792  12.463  0.4945 -0.6054 -1.0786
 4381SOL    HW224603   4.490   3.843  12.489  1.5249  2.5111 -0.4474
 4382SOL     OW24604   0.034   2.244  15.278  0.4487 -0.6506 -0.5033
 4382SOL    HW124605   4.696   2.227  15.349 -0.8332  0.2291 -1.3954
 4382SOL    HW224606   0.017   2.179  15.210  1.7003 -0.9110 -0.5688
 4383SOL     OW24607   3.559   0.966  17.425  0.4457  0.2198 -0.6800
 4383SOL    HW124608   3.602   1.030  17.369 -0.5223 -0.5578 -2.3067
 4383SOL    HW224609   3.623   0.894  17.423 -0.7488 -0.8493 -0.1510
 4384SOL     OW24610   2.533   1.110  11.137  0.8538 -0.4873 -0.4199
 4384SOL    HW124611   2.476   1.093  11.212  1.1081 -0.3082 -0.1866
 4384SOL    HW224612   2.618   1.087  11.172 -0.0038 -0.8381  1.4141
 4385SOL     OW24613   2.644   0.873   5.117  0.0142  0.0291  0.2298
 4385SOL    HW124614   2.734   0.901   5.134  0.1998  0.6931 -1.8837
 4385SOL    HW224615   2.608   0.923   5.190  1.7551  0.0556  1.0783
 4386SOL     OW24616   0.372   3.947  17.084  0.4113 -0.0727 -0.2256
 4386SOL    HW124617   0.376   4.040  17.106 -1.0601 -0.4601  1.7008
 4386SOL    HW224618   0.433   3.914  17.150  0.3198 -0.8946 -0.5384
 4387SOL     OW24619   1.626   3.510   6.947  0.6075 -0.2041 -0.5061
 4387SOL    HW124620   1.658   3.577   6.887 -2.4670  0.1761 -1.6856
 4387SOL    HW224621   1.688   3.517   7.020 -1.4572 -1.0912  1.3363
 4388SOL     OW24622   3.359   0.776  10.987  0.5839 -0.2511  0.1123
 4388SOL    HW124623   3.414   0.799  11.062  1.8712  2.8545 -1.7612
 4388SOL    HW224624   3.423   0.798  10.919 -3.3672 -1.0300 -3.8328
 4389SOL     OW24625   2.437   3.915   1.748 -0.3314 -0.4194 -0.1309
 4389SOL    HW124626   2.415   3.860   1.673 -2.3507 -0.0615  0.1897
 4389SOL    HW224627   2.531   3.905   1.766 -0.3444  0.0087  0.1694
 4390SOL     OW24628   2.300   3.259   3.233  0.6447 -0.6956 -0.0375
 4390SOL    HW124629   2.376   3.214   3.269 -0.0820 -1.4717  0.5224
 4390SOL    HW224630   2.309   3.234   3.141  1.8557  1.0628 -0.4017
 4391SOL     OW24631   2.367   3.801  14.764  0.3525  0.1174 -0.8960
 4391SOL    HW124632   2.292   3.791  14.824  1.3167  3.0720  0.8047
 4391SOL    HW224633   2.330   3.771  14.681  0.1603 -2.2318  0.0147
 4392SOL     OW24634   3.291   2.874   9.033 -0.1720  0.1074  0.1573
 4392SOL    HW124635   3.385   2.876   9.017  0.0815  1.1223  1.7787
 4392SOL    HW224636   3.258   2.855   8.945 -0.3252 -2.0945  0.6911
 4393SOL     OW24637   4.114   0.716   5.797  0.1427 -0.1841  0.1432
 4393SOL    HW124638   4.145   0.661   5.868  2.2933 -1.2227 -1.6171
 4393SOL    HW224639   4.095   0.661   5.722 -1.6321 -0.4550  0.7937
 4394SOL     OW24640   4.641   3.438   3.007  0.4604 -0.0818 -0.5755
 4394SOL    HW124641   4.670   3.388   2.930  1.4408  0.1500 -0.3608
 4394SOL    HW224642   0.003   3.465   3.043 -0.0582  0.8637 -0.0436
 4395SOL     OW24643   0.466   2.313  10.432 -0.2698 -0.3561  0.0450
 4395SOL    HW124644   0.417   2.366  10.370 -1.8819  0.8288  2.3271
 4395SOL    HW224645   0.509   2.384  10.480 -0.6924 -0.0028 -0.1057
 4396SOL     OW24646   3.897   4.050  16.794 -0.7025  0.6341  0.1384
 4396SOL    HW124647   3.856   3.996  16.862 -0.6307  1.7774  1.0828
 4396SOL    HW224648   3.839   4.041  16.718 -1.5834  0.6115  0.8105
 4397SOL     OW24649   4.700   0.462   5.329 -0.6857 -0.1133  0.0326
 4397SOL    HW124650   4.698   0.548   5.287  0.5442 -0.2262 -0.2693
 4397SOL    HW224651   4.615   0.420   5.315  0.1459 -1.8465  0.1858
 4398SOL     OW24652   1.688   1.438   3.608  0.5039 -0.0699  0.1121
 4398SOL    HW124653   1.745   1.407   3.679 -1.7029 -2.6891  0.7310
 4398SOL    HW224654   1.722   1.389   3.534  1.7556  0.3660  0.4062
 4399SOL     OW24655   2.321   1.397   1.649 -0.1653  0.2852  0.2567
 4399SOL    HW124656   2.335   1.311   1.608  1.8774  2.4619 -3.5439
 4399SOL    HW224657   2.410   1.429   1.663 -1.6058  2.7488  3.8353
 4400SOL     OW24658   1.700   1.180   1.858 -0.3425  0.1209 -0.4006
 4400SOL    HW124659   1.731   1.237   1.929 -1.5569 -0.5358  0.6448
 4400SOL    HW224660   1.610   1.209   1.844 -0.7301 -0.5843  0.7107
 4401SOL     OW24661   1.046   0.727   1.084  0.1742 -0.3456 -0.6817
 4401SOL    HW124662   1.134   0.690   1.084  1.0239  1.6790  0.8140
 4401SOL    HW224663   1.019   0.713   1.174 -1.9063 -1.3381 -1.4587
 4402SOL     OW24664   3.279   3.134   9.847  0.0226  0.0735  0.3832
 4402SOL    HW124665   3.235   3.089   9.919 -3.1133  0.2825 -1.4016
 4402SOL    HW224666   3.220   3.153   9.774 -1.3372 -0.8923  1.2447
 4403SOL     OW24667   1.221   3.149   6.923  0.1843 -0.1340  0.5387
 4403SOL    HW124668   1.263   3.086   6.982 -1.0708 -1.8812 -0.4216
 4403SOL    HW224669   1.280   3.224   6.929 -0.1209  0.3474 -2.3969
 4404SOL     OW24670   3.802   3.670  17.327  0.2203 -0.1887  0.0413
 4404SOL    HW124671   3.893   3.677  17.355  0.3804  0.3860 -0.6283
 4404SOL    HW224672   3.775   3.762  17.324  0.6442 -0.0042  1.5656
 4405SOL     OW24673   3.049   2.413   9.996  0.6364  0.0204 -0.1717
 4405SOL    HW124674   2.965   2.390  10.034  1.2756  1.9265  2.3601
 4405SOL    HW224675   3.031   2.373   9.911  1.1619 -3.5053  1.3834
 4406SOL     OW24676   2.221   0.192  13.651  0.4530 -0.5437 -0.1889
 4406SOL    HW124677   2.228   0.106  13.691  0.0036  0.5667  2.2491
 4406SOL    HW224678   2.282   0.187  13.577 -1.5760 -0.2282 -1.9116
 4407SOL     OW24679   3.431   3.099   0.443  0.1281 -0.0156  0.1246
 4407SOL    HW124680   3.500   3.163   0.462 -0.0942  0.1132  0.4969
 4407SOL    HW224681   3.432   3.106   0.347  2.8193  0.7875  0.2265
 4408SOL     OW24682   4.350   4.526   5.020 -0.0076 -0.6178  0.0482
 4408SOL    HW124683   4.273   4.515   4.963 -2.0858  4.0925  1.9478
 4408SOL    HW224684   4.306   4.563   5.096 -0.0786 -0.1634 -0.2127
 4409SOL     OW24685   3.824   0.623   5.995  0.5727  0.1172  0.0995
 4409SOL    HW124686   3.740   0.603   5.953 -0.0236 -1.1922  1.9467
 4409SOL    HW224687   3.876   0.552   5.960  0.6714 -0.3667  1.2320
 4410SOL     OW24688   3.767   3.123   6.436 -0.1126  0.1907 -0.3058
 4410SOL    HW124689   3.761   3.044   6.490  0.0614  0.3613 -0.0386
 4410SOL    HW224690   3.840   3.170   6.476 -0.1739 -0.7322  0.8927
 4411SOL     OW24691   1.479   2.837   6.236 -0.1456 -0.4683 -0.4712
 4411SOL    HW124692   1.453   2.928   6.219 -0.1536 -0.3833  0.0152
 4411SOL    HW224693   1.472   2.796   6.149 -2.3565 -0.8656 -0.1235
 4412SOL     OW24694   1.170   1.809   9.651 -0.2294 -0.4924 -0.0697
 4412SOL    HW124695   1.254   1.853   9.661 -0.9503  1.0319 -0.7012
 4412SOL    HW224696   1.150   1.828   9.560  0.4298  0.8099  0.0622
 4413SOL     OW24697   3.046   4.043   6.255 -0.0902  0.4158  0.0262
 4413SOL    HW124698   3.083   4.123   6.216  2.0198 -2.2166 -3.4571
 4413SOL    HW224699   2.990   4.009   6.185  0.0048  1.8848 -0.7804
 4414SOL     OW24700   1.155   1.556  12.802 -0.2996 -0.5327 -0.0140
 4414SOL    HW124701   1.185   1.496  12.870 -2.6543  0.2006  1.6713
 4414SOL    HW224702   1.192   1.507  12.729  0.7867 -1.3053  1.0488
 4415SOL     OW24703   2.185   3.478   5.283  0.1701 -0.2189 -0.3590
 4415SOL    HW124704   2.247   3.410   5.311 -0.0703  0.4144  1.6932
 4415SOL    HW224705   2.114   3.437   5.333  0.4549 -1.1316 -0.6881
 4416SOL     OW24706   2.841   4.223   6.520  0.5403  0.6424  0.1877
 4416SOL    HW124707   2.888   4.273   6.453  0.3676 -1.5877 -1.6011
 4416SOL    HW224708   2.887   4.252   6.599 -0.0010 -1.1796  1.1619
 4417SOL     OW24709   4.245   3.112   4.883  0.2681 -1.0834 -0.3962
 4417SOL    HW124710   4.203   3.035   4.921 -3.7949  0.7024 -1.2349
 4417SOL    HW224711   4.312   3.124   4.949  0.0623  1.2509 -0.6320
 4418SOL     OW24712   1.274   2.765   0.186 -0.2727 -0.4090  0.0385
 4418SOL    HW124713   1.325   2.709   0.245 -0.2120  0.8876  1.2042
 4418SOL    HW224714   1.295   2.856   0.208 -0.1523 -0.7369  1.2899
 4419SOL     OW24715   1.590   0.216   2.980  0.4763 -0.0302  0.2244
 4419SOL    HW124716   1.658   0.275   3.012 -0.4934  1.5495 -0.6612
 4419SOL    HW224717   1.618   0.208   2.889  1.5505 -0.8464  0.6152
 4420SOL     OW24718   4.388   3.014   5.707 -0.5100  0.5657  0.1717
 4420SOL    HW124719   4.427   2.927   5.712 -2.7233 -0.5446 -1.8091
 4420SOL    HW224720   4.394   3.030   5.801  1.3456  0.2835  0.1021
 4421SOL     OW24721   2.285   0.833  13.435 -0.1201 -0.0229 -0.3015
 4421SOL    HW124722   2.381   0.838  13.437 -0.3967  3.5651  3.2678
 4421SOL    HW224723   2.280   0.798  13.346  1.3902  2.7868 -1.4712
 4422SOL     OW24724   3.015   0.979  12.323  0.4693 -0.1678  0.1947
 4422SOL    HW124725   3.095   1.014  12.361  0.4832  0.3055 -0.2573
 4422SOL    HW224726   2.946   1.034  12.360  1.0589  0.0070  1.0388
 4423SOL     OW24727   1.661   1.390   4.850  0.5791 -1.3860  0.3956
 4423SOL    HW124728   1.588   1.329   4.839 -0.7048  0.0729  0.7765
 4423SOL    HW224729   1.704   1.357   4.929 -1.2695 -3.7489  0.4044
 4424SOL     OW24730   4.358   0.158   1.157 -0.3545  0.2722  0.3184
 4424SOL    HW124731   4.375   0.239   1.207 -0.7678  1.7305 -1.9142
 4424SOL    HW224732   4.441   0.141   1.112 -1.7461 -2.0030 -1.3768
 4425SOL     OW24733   0.649   4.110   8.173  0.1509  0.0309  0.3798
 4425SOL    HW124734   0.713   4.132   8.105  3.6909  2.0906  4.3170
 4425SOL    HW224735   0.699   4.069   8.244 -1.3385 -0.3437  1.2064
 4426SOL     OW24736   3.561   0.933   3.763 -0.5891 -0.2270  0.0380
 4426SOL    HW124737   3.545   1.026   3.750  0.2615 -0.0471  0.2528
 4426SOL    HW224738   3.557   0.908   3.855  1.7658  0.1469  0.2543
 4427SOL     OW24739   2.055   0.615   5.023 -0.6854 -0.1876 -0.4407
 4427SOL    HW124740   1.979   0.637   5.076 -0.2210 -0.3738  0.3051
 4427SOL    HW224741   2.112   0.581   5.092  0.5008 -0.7926 -1.6942
 4428SOL     OW24742   2.116   1.448   1.809 -0.2030 -0.2448  0.5365
 4428SOL    HW124743   2.159   1.518   1.858 -0.3437  0.3474 -0.1733
 4428SOL    HW224744   2.188   1.418   1.754  0.9158  1.5554  1.0421
 4429SOL     OW24745   3.828   2.471   8.952 -0.2821  0.3204 -0.1905
 4429SOL    HW124746   3.779   2.410   8.898 -1.9874 -0.3456  2.1096
 4429SOL    HW224747   3.918   2.440   8.945 -0.6657 -0.7040 -0.5107
 4430SOL     OW24748   3.186   1.349   5.273 -0.4927 -0.7839  0.0980
 4430SOL    HW124749   3.124   1.359   5.344 -0.3350  0.5405  0.0478
 4430SOL    HW224750   3.193   1.434   5.229 -0.5735  0.0090  1.6186
 4431SOL     OW24751   0.557   0.466   4.471 -0.0299 -0.1550 -0.3775
 4431SOL    HW124752   0.540   0.372   4.475  0.1901 -0.0528  3.0713
 4431SOL    HW224753   0.635   0.471   4.415  0.3360  0.2020  0.1542
 4432SOL     OW24754   0.080   1.929   0.579  0.5310  0.3099  0.4473
 4432SOL    HW124755   0.145   1.963   0.518  0.1655  0.2176 -0.0021
 4432SOL    HW224756   0.090   1.987   0.654 -1.0572  2.1434 -0.7524
 4433SOL     OW24757   1.746   1.840   6.441 -0.3238 -0.0340  0.3370
 4433SOL    HW124758   1.689   1.766   6.459  0.9891 -0.7962  1.3218
 4433SOL    HW224759   1.820   1.818   6.497 -0.2514  1.5424  0.8518
 4434SOL     OW24760   3.324   1.690   3.542 -0.4931  0.7103  0.0490
 4434SOL    HW124761   3.283   1.699   3.456  2.1686 -2.4542 -1.5418
 4434SOL    HW224762   3.244   1.697   3.594  0.4804  0.5299  1.5881
 4435SOL     OW24763   2.957   2.772   7.621  0.0652  0.0326  0.3887
 4435SOL    HW124764   3.003   2.744   7.543 -0.9783  0.0056 -0.2190
 4435SOL    HW224765   2.950   2.688   7.666 -0.3272 -1.0022 -1.6070
 4436SOL     OW24766   3.743   3.674   5.572  0.0071  0.4704 -0.4091
 4436SOL    HW124767   3.656   3.714   5.572 -0.4524 -0.4921 -2.3040
 4436SOL    HW224768   3.794   3.734   5.517  1.3059 -0.4419 -0.1830
 4437SOL     OW24769   3.270   3.853   7.204  0.1350 -0.5796  0.1036
 4437SOL    HW124770   3.317   3.928   7.166 -2.3151  1.7233  1.6084
 4437SOL    HW224771   3.322   3.845   7.284 -2.5909  0.7529  1.9882
 4438SOL     OW24772   3.501   1.640   3.873  0.1328 -0.5592 -0.0136
 4438SOL    HW124773   3.537   1.600   3.794 -2.2802 -0.9574 -0.9177
 4438SOL    HW224774   3.579   1.693   3.882  0.4164 -1.3009  2.0387
 4439SOL     OW24775   3.815   3.340   5.350  0.1911  0.2573  0.2923
 4439SOL    HW124776   3.831   3.385   5.433 -1.0626 -0.1653  0.7668
 4439SOL    HW224777   3.894   3.287   5.358  0.6520  1.4234  3.5379
 4440SOL     OW24778   4.651   0.545   6.442  0.2633 -0.2511 -0.1247
 4440SOL    HW124779   4.582   0.521   6.503 -0.8664  2.8604 -0.1822
 4440SOL    HW224780   0.007   0.550   6.496  2.3345  0.3644 -3.1968
 4441SOL     OW24781   2.592   4.104   6.009  0.2065 -0.1739  0.1804
 4441SOL    HW124782   2.498   4.091   5.997  0.1108 -1.7626  2.6408
 4441SOL    HW224783   2.625   4.063   5.929  1.1499  2.0772 -0.5998
 4442SOL     OW24784   2.214   0.638   7.279  0.2354 -0.3448 -0.5424
 4442SOL    HW124785   2.207   0.618   7.373  1.9135 -0.3308 -0.4243
 4442SOL    HW224786   2.304   0.669   7.270  0.2091 -0.2175 -0.3685
 4443SOL     OW24787   3.370   2.375   3.055  0.3101 -0.5790 -0.1763
 4443SOL    HW124788   3.383   2.458   3.102 -1.0613  0.1215 -1.0110
 4443SOL    HW224789   3.349   2.318   3.129  0.5218 -1.6273 -0.9221
 4444SOL     OW24790   1.285   3.514   6.874  0.3477 -0.1600 -0.2191
 4444SOL    HW124791   1.276   3.460   6.953 -1.0904 -0.3671 -0.5390
 4444SOL    HW224792   1.339   3.586   6.906  0.5249 -0.1444 -0.5530
 4445SOL     OW24793   0.266   2.500  10.707 -0.0928 -0.1961  0.4117
 4445SOL    HW124794   0.205   2.436  10.744 -0.3333 -0.4115 -0.3560
 4445SOL    HW224795   0.349   2.458  10.730 -0.6057 -1.5235 -0.1940
 4446SOL     OW24796   2.563   2.295   1.307 -0.7681  0.3255 -0.1730
 4446SOL    HW124797   2.645   2.259   1.340 -0.5675 -0.6261 -1.7234
 4446SOL    HW224798   2.580   2.283   1.213 -0.7886 -1.0370  0.0063
 4447SOL     OW24799   3.876   1.676  16.962  0.2784 -0.2189 -0.1842
 4447SOL    HW124800   3.877   1.726  17.044 -0.4740 -0.7587  0.1522
 4447SOL    HW224801   3.806   1.724  16.917  0.0512  0.9305  1.3898
 4448SOL     OW24802   0.513   0.817   8.642  0.8436 -0.6044  0.3155
 4448SOL    HW124803   0.519   0.855   8.554 -0.9726 -0.5447  0.2048
 4448SOL    HW224804   0.608   0.814   8.652  1.1668  3.0469 -1.5689
 4449SOL     OW24805   1.120   1.192  13.121  0.0646  0.2921 -0.1402
 4449SOL    HW124806   1.073   1.122  13.076 -1.3658  2.0438 -1.3736
 4449SOL    HW224807   1.209   1.169  13.095 -0.3054 -0.1390 -1.0162
 4450SOL     OW24808   2.383   0.302  14.564  0.3414  0.1937 -0.0241
 4450SOL    HW124809   2.292   0.281  14.584 -0.0887 -0.2107 -2.3411
 4450SOL    HW224810   2.381   0.391  14.528  2.4001  0.6651  0.9850
 4451SOL     OW24811   0.043   0.401   2.352  0.3341  0.5047 -0.2934
 4451SOL    HW124812   4.673   0.422   2.348  0.0552 -0.9045 -1.0843
 4451SOL    HW224813   0.041   0.308   2.375 -0.4466  0.9002  1.2345
 4452SOL     OW24814   1.296   1.314   6.081  0.0267 -0.0687 -0.3547
 4452SOL    HW124815   1.207   1.346   6.090  0.4754  1.3443 -0.8581
 4452SOL    HW224816   1.287   1.254   6.007 -1.2599 -0.2897 -0.0098
 4453SOL     OW24817   1.608   0.231   7.596  0.2205 -0.3882  0.1212
 4453SOL    HW124818   1.663   0.245   7.673  1.5060  0.5290 -0.9643
 4453SOL    HW224819   1.536   0.292   7.608  0.3867 -0.8388  3.5459
 4454SOL     OW24820   4.671   1.279   3.264  0.4989 -0.4259 -0.1180
 4454SOL    HW124821   4.683   1.198   3.214 -0.5150  0.4819 -1.8760
 4454SOL    HW224822   4.591   1.312   3.222  1.1014 -1.0450 -1.7478
 4455SOL     OW24823   3.933   4.106   2.721 -0.1653 -0.0665 -0.6566
 4455SOL    HW124824   4.008   4.134   2.772  0.0651 -0.3835 -0.8267
 4455SOL    HW224825   3.938   4.139   2.631  0.2828  2.8159  0.4316
 4456SOL     OW24826   3.117   4.286   6.140  0.9745  0.8654 -0.7062
 4456SOL    HW124827   3.181   4.353   6.118  1.6742  0.9138  1.5435
 4456SOL    HW224828   3.101   4.248   6.053  1.6246 -1.8385  0.3318
 4457SOL     OW24829   0.883   3.079  10.347 -0.1444  0.0915 -0.0191
 4457SOL    HW124830   0.849   3.166  10.369 -0.2730 -0.1861  0.9179
 4457SOL    HW224831   0.927   3.098  10.265  0.0973  1.4037  0.4155
 4458SOL     OW24832   3.075   2.485  15.957  0.1152 -0.4201 -0.3392
 4458SOL    HW124833   3.105   2.407  16.002 -0.6642  0.9266  2.5506
 4458SOL    HW224834   3.123   2.551  16.007 -0.9538  0.1552 -0.0485
 4459SOL     OW24835   1.958   3.194   1.385  0.0538 -0.2931  0.4764
 4459SOL    HW124836   2.038   3.228   1.426  1.3838 -0.8570 -1.6804
 4459SOL    HW224837   1.902   3.206   1.462  1.1876 -0.4040  1.3329
 4460SOL     OW24838   3.822   2.086   8.005  0.0051 -0.1981  0.6615
 4460SOL    HW124839   3.812   2.022   8.076 -0.1830  0.5642  1.3282
 4460SOL    HW224840   3.810   2.175   8.039 -1.0904  0.3750 -1.2679
 4461SOL     OW24841   3.099   0.008   3.561 -0.4938  0.1242  0.0194
 4461SOL    HW124842   3.020   4.703   3.607  1.7167 -4.9066  0.7773
 4461SOL    HW224843   3.108   0.095   3.600  3.3254 -0.8864  1.4271
 4462SOL     OW24844   0.612   2.001  11.567 -0.1420 -0.5866 -0.1973
 4462SOL    HW124845   0.596   2.095  11.560 -0.7633 -0.5800  1.3684
 4462SOL    HW224846   0.697   2.005  11.613  0.6642  0.4344 -1.7744
 4463SOL     OW24847   1.412   0.450  14.501 -0.2103 -0.0512  0.1337
 4463SOL    HW124848   1.368   0.449  14.416 -0.4851 -2.2099  0.2951
 4463SOL    HW224849   1.356   0.495  14.563  1.3677  2.0456  0.0194
 4464SOL     OW24850   4.130   0.897   2.213  0.2160 -0.3242  0.1321
 4464SOL    HW124851   4.156   0.988   2.230  1.9666 -0.7887 -0.0696
 4464SOL    HW224852   4.125   0.861   2.302 -1.8165  1.0707  0.5774
 4465SOL     OW24853   0.801   3.673   4.592 -0.8402 -0.1552  0.1017
 4465SOL    HW124854   0.853   3.603   4.554 -1.8682  0.3197 -2.1594
 4465SOL    HW224855   0.868   3.740   4.577 -1.2625 -0.3067 -2.4309
 4466SOL     OW24856   2.430   3.965   4.920 -0.3172 -0.2339 -0.3688
 4466SOL    HW124857   2.445   3.908   4.995 -2.0237  2.6665  2.1721
 4466SOL    HW224858   2.495   3.926   4.861 -0.6843 -0.4571 -0.6286
 4467SOL     OW24859   2.670   2.954   1.183  0.0125 -0.2567 -0.1581
 4467SOL    HW124860   2.744   2.893   1.179  0.9302  0.8115  0.3742
 4467SOL    HW224861   2.600   2.900   1.220  0.6401 -0.4064  0.8335
 4468SOL     OW24862   2.052   0.974  11.308 -0.9120 -0.0788 -0.0994
 4468SOL    HW124863   2.065   0.879  11.320  0.3114  0.0483 -0.4032
 4468SOL    HW224864   1.994   0.963  11.233 -2.2045  0.7561  0.7742
 4469SOL     OW24865   1.233   2.391  12.264 -0.0122 -0.0994 -0.6622
 4469SOL    HW124866   1.172   2.433  12.325  2.1589  1.4925  0.4194
 4469SOL    HW224867   1.266   2.316  12.314 -0.8516 -0.1706 -0.2085
 4470SOL     OW24868   2.571   2.905   8.140 -0.0217 -0.1041  0.4003
 4470SOL    HW124869   2.603   2.816   8.127  0.0286  0.1290 -1.0893
 4470SOL    HW224870   2.477   2.903   8.119  0.0154 -0.4425  0.2739
 4471SOL     OW24871   0.010   4.535   2.661 -0.4250 -0.0946  0.7491
 4471SOL    HW124872   4.654   4.498   2.621 -0.5702 -0.0974  1.0298
 4471SOL    HW224873   0.082   4.480   2.632  0.9582  2.5416 -0.8246
 4472SOL     OW24874   2.537   3.306   6.911  0.3687  0.2719 -0.1883
 4472SOL    HW124875   2.454   3.265   6.886 -0.6874 -0.1866  4.2090
 4472SOL    HW224876   2.601   3.252   6.864 -0.6287 -1.1779  0.1100
 4473SOL     OW24877   3.075   1.813   1.993 -0.1178  0.1975  0.0452
 4473SOL    HW124878   3.107   1.771   1.913  0.0501 -2.2476  1.4067
 4473SOL    HW224879   3.005   1.755   2.022  0.6372 -0.1338  1.2232
 4474SOL     OW24880   2.276   3.146   4.911  0.0970 -0.4687 -0.4377
 4474SOL    HW124881   2.291   3.210   4.841  2.7841 -0.8714 -0.2223
 4474SOL    HW224882   2.312   3.068   4.870  1.0804 -0.3625  0.2302
 4475SOL     OW24883   4.553   1.361   6.559  0.6754  0.0385 -0.0035
 4475SOL    HW124884   4.545   1.310   6.640 -2.1631 -0.0523 -0.3540
 4475SOL    HW224885   4.570   1.449   6.591  1.5946 -0.1901  0.1572
 4476SOL     OW24886   1.452   0.342   2.387 -0.1363 -0.5685 -0.3358
 4476SOL    HW124887   1.474   0.256   2.422  0.1109 -0.3349  0.0853
 4476SOL    HW224888   1.498   0.320   2.306 -1.8334 -1.7324 -0.9765
 4477SOL     OW24889   1.502   3.988   3.912  0.4106  0.1667  0.1496
 4477SOL    HW124890   1.503   3.901   3.872  2.0501  1.0030 -1.6541
 4477SOL    HW224891   1.561   3.970   3.985 -2.1296  0.6377  2.3016
 4478SOL     OW24892   0.718   1.789  10.709  0.0665  0.6065 -0.0592
 4478SOL    HW124893   0.634   1.834  10.700  0.2170  0.8876 -0.0568
 4478SOL    HW224894   0.703   1.714  10.766 -0.8756  2.4222  2.1065
 4479SOL     OW24895   3.399   1.607   7.329  0.3564 -0.1195  0.0753
 4479SOL    HW124896   3.487   1.596   7.364  0.6676 -0.7877 -0.9271
 4479SOL    HW224897   3.339   1.621   7.402  0.3676 -0.1157  0.0839
 4480SOL     OW24898   3.029   4.345   2.175  0.3240  1.1535  0.1248
 4480SOL    HW124899   3.096   4.334   2.243  0.0963 -0.2556  0.1331
 4480SOL    HW224900   3.041   4.436   2.151 -0.2187  1.2888  0.3572
 4481SOL     OW24901   1.829   4.064   6.936  0.1096  0.0015 -0.2845
 4481SOL    HW124902   1.850   4.056   6.843  0.6108 -2.0946  0.0070
 4481SOL    HW224903   1.809   4.158   6.930 -0.6798 -0.0285  1.8407
 4482SOL     OW24904   3.206   1.317  12.459  0.1760  0.0625 -0.7704
 4482SOL    HW124905   3.176   1.400  12.498 -2.0049 -1.1032  0.0336
 4482SOL    HW224906   3.298   1.341  12.447  1.0935 -2.4174  1.5420
 4483SOL     OW24907   3.369   2.584   7.316  0.2515 -0.4041 -0.0702
 4483SOL    HW124908   3.385   2.505   7.264 -0.6736 -0.5067 -0.1917
 4483SOL    HW224909   3.408   2.662   7.276 -0.0588  0.3456  1.0987
 4484SOL     OW24910   3.887   2.951  13.036  0.3368 -0.3034 -0.2044
 4484SOL    HW124911   3.831   2.895  13.089 -1.1963  0.4642 -0.9957
 4484SOL    HW224912   3.905   3.030  13.087  0.6296 -0.9659  0.7256
 4485SOL     OW24913   0.286   4.381  10.526  0.0898 -0.1440 -0.0879
 4485SOL    HW124914   0.240   4.320  10.468  1.2961 -0.9431 -0.2119
 4485SOL    HW224915   0.349   4.322  10.568 -0.8169 -0.2015  1.2292
 4486SOL     OW24916   3.937   4.257  12.273  0.1702  0.3807  0.7484
 4486SOL    HW124917   3.956   4.167  12.247  1.7007  1.5806 -2.3538
 4486SOL    HW224918   3.860   4.277  12.219  1.0908  2.4674  0.2005
 4487SOL     OW24919   2.728   1.504  12.514 -0.2191  0.1410  0.3371
 4487SOL    HW124920   2.723   1.533  12.423 -2.0602 -0.3914  0.2655
 4487SOL    HW224921   2.776   1.422  12.503 -0.7058  0.0894 -1.3841
 4488SOL     OW24922   4.697   1.987  17.368  0.1112  0.4993  0.6696
 4488SOL    HW124923   4.606   2.015  17.364  0.0102 -0.4088 -3.0995
 4488SOL    HW224924   0.015   2.032  17.294  2.7780  0.0039  1.8352
 4489SOL     OW24925   4.256   0.945   7.176  0.7190 -0.0952  0.2412
 4489SOL    HW124926   4.197   1.007   7.134  0.4019  0.9192  2.1527
 4489SOL    HW224927   4.190   0.886   7.212 -0.2473  0.9565  0.1833
 4490SOL     OW24928   4.262   3.801  15.914 -0.1150  0.2935  0.1188
 4490SOL    HW124929   4.171   3.797  15.942 -0.1384 -0.1138 -0.0110
 4490SOL    HW224930   4.255   3.801  15.818 -1.3152  1.3940  0.2095
 4491SOL     OW24931   2.367   4.303   3.834  0.1236 -1.0958  0.7288
 4491SOL    HW124932   2.453   4.265   3.817  0.4097 -0.5644  0.9823
 4491SOL    HW224933   2.333   4.285   3.746 -0.3669  1.4573  0.3709
 4492SOL     OW24934   3.499   2.571   3.204 -0.3384 -0.6339  0.4279
 4492SOL    HW124935   3.481   2.665   3.203 -0.3740 -0.6394  0.6570
 4492SOL    HW224936   3.591   2.560   3.179 -0.2080 -0.6421  0.9253
 4493SOL     OW24937   3.400   1.640  10.895 -0.0771  0.2341  0.1123
 4493SOL    HW124938   3.427   1.731  10.883 -0.6095  0.3667 -0.0751
 4493SOL    HW224939   3.314   1.647  10.937 -0.7489 -1.1887 -1.0233
 4494SOL     OW24940   0.863   2.889   1.629 -0.0575 -0.0310  0.3887
 4494SOL    HW124941   0.816   2.881   1.712  1.3117  2.1160  1.3878
 4494SOL    HW224942   0.868   2.796   1.606 -0.8602  0.1080 -0.3421
 4495SOL     OW24943   1.570   1.442   5.892  0.0568  0.0182 -0.0925
 4495SOL    HW124944   1.500   1.437   5.828  0.7876 -0.0739 -0.8832
 4495SOL    HW224945   1.521   1.504   5.946 -0.1586  0.4967 -0.8362
 4496SOL     OW24946   0.055   0.073   1.425 -0.2444 -0.0924  0.0068
 4496SOL    HW124947   0.126   0.043   1.482 -0.6546 -3.2646 -1.1530
 4496SOL    HW224948   0.094   0.054   1.339  2.2988  0.6878  0.9822
 4497SOL     OW24949   4.061   3.300   0.875 -0.1495 -0.2281  0.0915
 4497SOL    HW124950   3.997   3.288   0.946 -1.1053 -1.1381 -0.9276
 4497SOL    HW224951   4.051   3.221   0.822 -0.0658  0.6833 -1.2600
 4498SOL     OW24952   2.414   3.575   4.093 -0.0719 -0.3234 -0.4255
 4498SOL    HW124953   2.413   3.669   4.073  0.0151 -0.1317  0.4791
 4498SOL    HW224954   2.343   3.538   4.042  0.9963 -0.7845 -1.5831
 4499SOL     OW24955   1.649   2.702   9.521 -0.3617 -0.8051  0.4276
 4499SOL    HW124956   1.604   2.746   9.593  1.1738 -1.8159  2.0146
 4499SOL    HW224957   1.663   2.612   9.553 -2.0339 -0.1201  3.0423
 4500SOL     OW24958   1.658   0.568   9.263 -0.3078 -0.3794 -0.8665
 4500SOL    HW124959   1.695   0.548   9.177 -0.0890  0.3179 -0.9304
 4500SOL    HW224960   1.576   0.518   9.262  0.5669 -1.8422  0.3054
 4501SOL     OW24961   0.500   2.250   8.981  0.3376  0.1724 -0.5762
 4501SOL    HW124962   0.405   2.248   8.966  0.5579  0.8837 -2.0563
 4501SOL    HW224963   0.510   2.177   9.042 -2.1541  0.2679 -0.0623
 4502SOL     OW24964   2.239   2.787  10.761  0.7602  0.1046  0.1573
 4502SOL    HW124965   2.193   2.718  10.713 -0.5448  2.6009 -2.1318
 4502SOL    HW224966   2.181   2.840  10.817  2.6626  1.3967  0.8893
 4503SOL     OW24967   4.563   1.294   2.589  0.1047  0.4168  0.2907
 4503SOL    HW124968   4.536   1.368   2.643 -1.7646 -1.3225  1.7225
 4503SOL    HW224969   4.644   1.330   2.551 -1.0379  2.1602 -0.5007
 4504SOL     OW24970   1.977   4.385  16.219  0.6266 -0.3617  0.5092
 4504SOL    HW124971   2.047   4.326  16.192 -1.1351 -1.4659 -1.6373
 4504SOL    HW224972   2.026   4.454  16.263 -0.9148  1.1212 -0.0992
 4505SOL     OW24973   0.155   3.569   1.123  0.3869 -0.2128 -0.1428
 4505SOL    HW124974   0.113   3.509   1.062  0.9357  1.0850 -1.8027
 4505SOL    HW224975   0.249   3.553   1.109  0.3493 -1.7159  1.3823
 4506SOL     OW24976   2.635   0.373  13.554  0.4631  0.4950 -0.9692
 4506SOL    HW124977   2.540   0.365  13.553  0.2964  1.9840  1.7920
 4506SOL    HW224978   2.661   0.344  13.642 -0.5605  1.0633 -0.4887
 4507SOL     OW24979   2.489   4.602   3.430  0.0822 -0.0393 -0.7087
 4507SOL    HW124980   2.424   4.632   3.494 -0.2242 -0.8045 -0.6615
 4507SOL    HW224981   2.425   4.577   3.364  0.6965  0.4290 -1.4712
 4508SOL     OW24982   0.559   2.382   6.642 -0.0651 -0.0825 -0.3410
 4508SOL    HW124983   0.483   2.328   6.621 -2.0699  2.4108  0.5087
 4508SOL    HW224984   0.588   2.404   6.553 -0.8911 -1.4285 -0.9409
 4509SOL     OW24985   0.304   2.382   9.366  0.2919 -0.0678 -0.6284
 4509SOL    HW124986   0.333   2.438   9.437  2.1284 -0.9743 -0.6727
 4509SOL    HW224987   0.382   2.331   9.347 -0.2838 -0.8069 -0.9981
 4510SOL     OW24988   1.047   4.172  12.108  0.0493  0.0266  0.2080
 4510SOL    HW124989   1.103   4.196  12.181  0.3441  1.7558 -0.5950
 4510SOL    HW224990   1.103   4.200  12.035 -2.4573  0.5788 -1.5108
 4511SOL     OW24991   0.776   1.625   5.445  0.0201  0.4152  0.0710
 4511SOL    HW124992   0.692   1.663   5.473 -1.0005 -0.8581 -1.2773
 4511SOL    HW224993   0.750   1.550   5.392  1.4206 -1.0936  1.5304
 4512SOL     OW24994   0.712   2.508   6.459  0.3348 -0.1810  0.3432
 4512SOL    HW124995   0.764   2.502   6.540 -0.3615  1.8632  0.9340
 4512SOL    HW224996   0.744   2.595   6.435  2.1105 -0.5696  1.2830
 4513SOL     OW24997   1.898   2.951   3.812  0.4305 -0.6702 -0.3051
 4513SOL    HW124998   1.982   2.979   3.848  1.1039  0.4334 -2.7137
 4513SOL    HW224999   1.890   2.997   3.728 -0.2238  1.2777  0.8497
 4514SOL     OW25000   0.522   3.667   9.782  0.7755  0.0966 -0.3832
 4514SOL    HW125001   0.602   3.614   9.784 -1.1998 -2.8167  2.0448
 4514SOL    HW225002   0.536   3.727   9.855 -0.7042 -1.0741  0.8595
 4515SOL     OW25003   0.893   1.590  13.383  0.1776 -0.8500 -0.3575
 4515SOL    HW125004   0.900   1.515  13.324 -0.8056 -0.6594 -0.7214
 4515SOL    HW225005   0.982   1.625  13.381  0.5286 -1.7446  0.0409
 4516SOL     OW25006   3.866   3.753  17.621  0.3725  0.0549  0.2676
 4516SOL    HW125007   3.834   3.711   0.007  0.3156 -0.2727  0.0755
 4516SOL    HW225008   3.898   3.670  17.585 -1.4936 -1.1945  1.5008
 4517SOL     OW25009   3.438   2.530   8.131  0.1023 -0.4814  0.2629
 4517SOL    HW125010   3.509   2.534   8.067 -0.3219  1.0417 -0.1027
 4517SOL    HW225011   3.390   2.469   8.075 -0.7650 -0.7545  1.3287
 4518SOL     OW25012   1.547   2.960   1.336 -0.4374 -0.4528 -0.1108
 4518SOL    HW125013   1.558   2.889   1.399  0.7288 -1.2142 -1.1943
 4518SOL    HW225014   1.573   2.918   1.254  1.1352 -0.4392  0.3881
 4519SOL     OW25015   1.979   1.970   9.243 -0.7721 -0.0987 -0.1717
 4519SOL    HW125016   1.906   2.031   9.253  0.1571  1.2432 -1.4738
 4519SOL    HW225017   1.936   1.895   9.283 -0.1566  0.3255  1.2580
 4520SOL     OW25018   0.260   3.910   5.705 -0.0154 -0.6611  0.4956
 4520SOL    HW125019   0.209   3.935   5.782  2.0440 -2.5388  2.4696
 4520SOL    HW225020   0.278   3.819   5.725 -1.9482 -1.6278 -2.2325
 4521SOL     OW25021   0.253   3.573  16.309 -0.5411  0.3182  0.1258
 4521SOL    HW125022   0.226   3.658  16.274 -1.6457 -0.3644 -0.6918
 4521SOL    HW225023   0.343   3.587  16.336 -0.9672  1.8808  0.7680
 4522SOL     OW25024   1.653   0.404   3.338 -0.1159 -0.0839  0.2495
 4522SOL    HW125025   1.703   0.485   3.328  0.0318  0.1624  3.0282
 4522SOL    HW225026   1.696   0.371   3.417  1.9276  1.9011 -0.0385
 4523SOL     OW25027   2.332   4.043  10.169  0.4620  0.5918 -0.0558
 4523SOL    HW125028   2.345   4.032  10.264  0.5955  1.5944  0.0443
 4523SOL    HW225029   2.288   4.128  10.175 -0.0733  0.3835 -1.1834
 4524SOL     OW25030   1.028   1.834   4.985  0.1771  0.3924  0.2685
 4524SOL    HW125031   1.107   1.860   5.032 -0.0373  1.0341  0.2864
 4524SOL    HW225032   1.012   1.757   5.040 -0.8751  0.5170  0.1440
 4525SOL     OW25033   2.998   2.309  13.349  0.2056 -0.5816  0.1719
 4525SOL    HW125034   2.950   2.227  13.344 -1.1439  0.0622  2.7736
 4525SOL    HW225035   3.055   2.297  13.425  0.6130  0.0116 -0.0372
 4526SOL     OW25036   4.670   0.826  16.318 -0.1684 -0.1132 -0.2374
 4526SOL    HW125037   4.614   0.749  16.333  1.0703 -0.8732  0.5144
 4526SOL    HW225038   4.613   0.901  16.335 -1.4029 -1.0437 -0.1659
 4527SOL     OW25039   1.378   3.176  17.499  0.0815  0.3209  0.4281
 4527SOL    HW125040   1.339   3.095  17.467 -0.9580  0.5889  1.0159
 4527SOL    HW225041   1.471   3.163  17.481  0.3926  0.4312  1.9920
 4528SOL     OW25042   4.698   2.510   3.232  0.0536 -0.2465 -0.2693
 4528SOL    HW125043   4.662   2.436   3.281  1.5257 -1.1417 -0.5510
 4528SOL    HW225044   0.067   2.494   3.214  0.0940  0.8301 -1.0676
 4529SOL     OW25045   1.693   4.257  12.954  0.1648 -0.5285  0.1718
 4529SOL    HW125046   1.783   4.289  12.945  0.2425 -0.1236  2.4598
 4529SOL    HW225047   1.705   4.179  13.008  1.1649  1.0542  2.2173
 4530SOL     OW25048   1.859   1.559   3.166 -0.6239  0.8463  0.1655
 4530SOL    HW125049   1.790   1.518   3.112  0.2726 -0.5374  0.0568
 4530SOL    HW225050   1.875   1.632   3.107  0.0098  2.2306  2.0697
 4531SOL     OW25051   0.146   2.761   7.589  0.4247 -0.4961 -0.7724
 4531SOL    HW125052   0.113   2.701   7.522  0.6786 -0.5514 -0.8501
 4531SOL    HW225053   0.125   2.719   7.672  1.4047  1.1047  0.2932
 4532SOL     OW25054   0.302   0.900   1.300  0.2344 -0.2589 -0.2783
 4532SOL    HW125055   0.288   0.923   1.392  1.7402  0.2164 -0.1702
 4532SOL    HW225056   0.213   0.909   1.264  0.4555  1.3240 -0.3915
 4533SOL     OW25057   2.344   3.820   6.387 -0.7340 -0.5843  0.1750
 4533SOL    HW125058   2.319   3.824   6.480  1.4397 -0.2496  0.7404
 4533SOL    HW225059   2.439   3.818   6.400 -0.2652 -1.9511 -3.4284
 4534SOL     OW25060   3.297   0.489   3.176 -0.0215 -0.4268 -0.1833
 4534SOL    HW125061   3.226   0.533   3.222  0.5323 -1.5126  1.6760
 4534SOL    HW225062   3.350   0.564   3.149  1.6008 -1.3116  0.6160
 4535SOL     OW25063   1.223   2.313   8.498  0.1129 -0.1511 -0.4117
 4535SOL    HW125064   1.282   2.246   8.533 -0.2209 -0.8192 -1.1340
 4535SOL    HW225065   1.232   2.303   8.404 -0.0757 -0.1668 -0.4273
 4536SOL     OW25066   4.639   0.526   1.328 -0.3846  0.3686 -0.3721
 4536SOL    HW125067   4.673   0.458   1.271  0.2250 -0.4605  0.9883
 4536SOL    HW225068   4.723   0.541   1.371 -1.2571  0.5329  1.2844
 4537SOL     OW25069   1.841   2.883   6.837 -0.0434 -0.0067 -0.1951
 4537SOL    HW125070   1.803   2.944   6.900 -0.8469 -1.2383  0.5251
 4537SOL    HW225071   1.767   2.855   6.782  0.7005 -1.6578 -0.3497
 4538SOL     OW25072   0.113   2.185   5.363  0.2182 -0.5616  0.6272
 4538SOL    HW125073   0.040   2.219   5.311 -0.3525 -0.3470  1.5656
 4538SOL    HW225074   0.068   2.193   5.447 -0.7719  0.5403 -0.0020
 4539SOL     OW25075   3.950   4.227   8.301 -0.6008 -0.4348  0.6082
 4539SOL    HW125076   3.906   4.210   8.384 -2.7900  1.6035 -0.1404
 4539SOL    HW225077   4.032   4.265   8.332 -2.7147  2.7417  2.2781
 4540SOL     OW25078   2.306   0.818   4.753  0.2278  0.7401 -0.1269
 4540SOL    HW125079   2.394   0.856   4.758 -0.2901  1.8807  0.2672
 4540SOL    HW225080   2.322   0.731   4.788 -0.8961  1.7080  2.7429
 4541SOL     OW25081   4.370   3.207   2.274  0.2330 -0.2137  0.1004
 4541SOL    HW125082   4.321   3.197   2.355 -1.3732  0.3532 -0.7977
 4541SOL    HW225083   4.329   3.286   2.238 -1.2630  0.2353  2.8294
 4542SOL     OW25084   1.025   0.136  17.541 -0.0278 -0.0497  1.3247
 4542SOL    HW125085   1.004   0.049  17.573 -3.2984  0.0790 -0.4990
 4542SOL    HW225086   1.005   0.188  17.618  0.4042  0.4151  1.1282
 4543SOL     OW25087   2.437   1.692   7.054 -0.3721  0.4303 -0.0527
 4543SOL    HW125088   2.459   1.754   6.984  0.1818  0.9940  0.6313
 4543SOL    HW225089   2.343   1.682   7.039 -0.3178  0.6730 -0.5810
 4544SOL     OW25090   4.622   2.488  10.826  0.0532 -0.3827  0.0418
 4544SOL    HW125091   4.680   2.561  10.805  1.5389 -0.8259  2.5836
 4544SOL    HW225092   4.543   2.517  10.779 -0.4256 -0.4734  0.7877
 4545SOL     OW25093   2.246   4.131   4.763 -0.6508 -0.0965 -0.6367
 4545SOL    HW125094   2.284   4.050   4.796 -1.0605 -0.5655 -1.3280
 4545SOL    HW225095   2.259   4.131   4.668  0.3437 -0.2620 -0.5024
 4546SOL     OW25096   4.668   3.345  12.727 -0.5531  0.7497  0.3191
 4546SOL    HW125097   4.702   3.418  12.780  1.7043  0.0544 -0.1533
 4546SOL    HW225098   4.706   3.278  12.784  0.7429  0.6488 -0.6691
 4547SOL     OW25099   2.225   2.006   7.550  0.8580 -0.0603  0.1835
 4547SOL    HW125100   2.252   2.042   7.465 -0.7424 -0.4481 -0.4939
 4547SOL    HW225101   2.131   1.995   7.534  0.7783  1.1581 -0.1922
 4548SOL     OW25102   1.650   0.350   8.464 -0.2264 -0.1350 -0.2379
 4548SOL    HW125103   1.642   0.281   8.530  0.2712 -0.1424 -0.1830
 4548SOL    HW225104   1.657   0.426   8.523  3.0892 -0.0888 -0.6794
 4549SOL     OW25105   3.175   3.407   6.479 -0.1883 -0.3092  0.5322
 4549SOL    HW125106   3.129   3.481   6.518  1.1609  1.3982 -1.1208
 4549SOL    HW225107   3.229   3.387   6.556  0.5130 -0.5368 -0.0141
 4550SOL     OW25108   3.465   3.297   4.959 -0.3223  0.2420  0.1357
 4550SOL    HW125109   3.468   3.231   4.890 -0.0824  2.1528 -1.6858
 4550SOL    HW225110   3.457   3.375   4.904 -1.5236 -0.6649 -0.9925
 4551SOL     OW25111   2.001   4.530  12.350 -0.0216  0.2610 -0.2463
 4551SOL    HW125112   1.954   4.580  12.284 -0.1550 -2.0982 -1.9277
 4551SOL    HW225113   1.959   4.547  12.435  0.3905 -0.7260  0.1554
 4552SOL     OW25114   4.023   0.575   5.178  0.3488 -0.1082 -0.2359
 4552SOL    HW125115   4.020   0.601   5.270 -0.2317  1.1406 -0.6052
 4552SOL    HW225116   3.974   0.646   5.135 -1.5369  0.5799  3.0593
 4553SOL     OW25117   0.865   3.153   3.668 -0.2643  0.2786 -0.1349
 4553SOL    HW125118   0.826   3.108   3.743 -0.2508  2.0618  0.9507
 4553SOL    HW225119   0.802   3.195   3.609 -1.7478  0.5906  1.6764
 4554SOL     OW25120   0.990   4.406  11.625 -0.3752  0.1050 -0.5397
 4554SOL    HW125121   1.013   4.490  11.666 -0.3318 -0.0354 -0.2764
 4554SOL    HW225122   1.077   4.366  11.623 -1.1699 -1.6548  0.3976
 4555SOL     OW25123   0.308   4.647  14.602  0.3773 -0.1992  0.0381
 4555SOL    HW125124   0.279   4.577  14.661  0.8906 -0.3330  0.1355
 4555SOL    HW225125   0.234   4.706  14.615 -0.0731 -1.0170  1.2711
 4556SOL     OW25126   4.183   3.427  15.976 -0.1465 -0.1119 -0.4557
 4556SOL    HW125127   4.122   3.387  15.914 -1.3386  0.1091  0.5770
 4556SOL    HW225128   4.248   3.358  15.989 -1.1575 -1.2463 -1.5279
 4557SOL     OW25129   2.413   0.758   4.267  0.2309 -0.6938  0.1535
 4557SOL    HW125130   2.323   0.727   4.266  0.2486 -0.7420 -0.2108
 4557SOL    HW225131   2.458   0.677   4.291 -2.3938 -2.3597 -0.5686
 4558SOL     OW25132   0.980   4.033   3.505 -0.2472 -0.0836  0.1760
 4558SOL    HW125133   1.009   4.079   3.426 -2.4649  1.2604  0.1397
 4558SOL    HW225134   1.032   4.079   3.570 -0.4346  0.4026 -0.0193
 4559SOL     OW25135   2.807   3.398  15.144  0.0347  0.1731  0.8806
 4559SOL    HW125136   2.873   3.449  15.191  0.7169 -0.9097  1.0911
 4559SOL    HW225137   2.733   3.455  15.166 -0.8740  0.7914 -3.8372
 4560SOL     OW25138   3.265   3.076   5.538  0.5182  0.0174 -0.4908
 4560SOL    HW125139   3.333   3.016   5.507  0.1958 -0.9859  0.7204
 4560SOL    HW225140   3.213   3.027   5.603  1.2270  0.8781  0.7300
 4561SOL     OW25141   3.979   2.453   7.720 -0.2458  0.5295  0.5886
 4561SOL    HW125142   3.944   2.480   7.805  0.8056 -1.2641  1.5907
 4561SOL    HW225143   4.009   2.363   7.732 -1.7068  0.1347  1.2018
 4562SOL     OW25144   2.725   2.430   4.628 -0.1140  0.4363 -0.3517
 4562SOL    HW125145   2.653   2.378   4.593  1.6054  0.4177 -3.8593
 4562SOL    HW225146   2.698   2.516   4.596  2.4808  1.1607 -0.5645
 4563SOL     OW25147   0.421   1.125   1.153 -0.0741 -0.4988 -0.0227
 4563SOL    HW125148   0.373   1.065   1.211  1.0241 -1.5138 -0.1698
 4563SOL    HW225149   0.448   1.058   1.091  3.4657  0.7203  0.2429
 4564SOL     OW25150   3.864   3.664   6.947 -0.3600 -0.4034 -0.0140
 4564SOL    HW125151   3.902   3.707   6.870 -0.9823 -2.0975 -1.2511
 4564SOL    HW225152   3.822   3.589   6.906  1.4925 -1.4500 -0.0023
 4565SOL     OW25153   2.141   0.568   4.631 -0.2478  0.3024 -0.0538
 4565SOL    HW125154   2.222   0.609   4.662  0.7688 -1.2954 -0.5787
 4565SOL    HW225155   2.168   0.478   4.613 -3.4504 -0.2556 -2.1638
 4566SOL     OW25156   2.486   3.349  16.465 -0.1379  0.2094 -0.7973
 4566SOL    HW125157   2.548   3.290  16.423 -0.6162  0.2062 -1.5091
 4566SOL    HW225158   2.539   3.409  16.518  0.7921  0.8275 -2.4359
 4567SOL     OW25159   2.330   3.395   9.194  0.1539  0.0967 -0.0480
 4567SOL    HW125160   2.240   3.363   9.183  0.1496 -0.7683  2.3146
 4567SOL    HW225161   2.381   3.315   9.184  0.4259  0.2697 -0.0530
 4568SOL     OW25162   3.934   0.105   3.522 -0.3404 -0.6723 -0.4854
 4568SOL    HW125163   3.846   0.140   3.504 -0.4319 -0.8881 -0.4585
 4568SOL    HW225164   3.925   0.090   3.617  2.5822 -2.0679 -0.4482
 4569SOL     OW25165   2.134   1.509   0.364 -0.2166  1.1861  0.7242
 4569SOL    HW125166   2.222   1.520   0.400 -0.5852  0.2894  1.8850
 4569SOL    HW225167   2.127   1.589   0.312  1.4526 -1.1365 -3.0804
 4570SOL     OW25168   2.377   0.495   3.594  0.1917  0.1476  0.0245
 4570SOL    HW125169   2.416   0.531   3.673  2.3999 -0.5070 -0.7829
 4570SOL    HW225170   2.437   0.421   3.585  0.8921  0.8478 -0.9543
 4571SOL     OW25171   4.540   0.155   1.533  0.1128 -0.9652 -0.1538
 4571SOL    HW125172   4.616   0.148   1.475 -0.7887 -1.3930 -1.2770
 4571SOL    HW225173   4.583   0.127   1.614  0.1483 -2.3433 -0.6596
 4572SOL     OW25174   3.057   3.304  16.211  0.3500  0.0957 -0.2252
 4572SOL    HW125175   3.116   3.339  16.144  1.4077  0.8948  1.1292
 4572SOL    HW225176   3.041   3.223  16.161  0.0129  0.5911 -0.9285
 4573SOL     OW25177   1.283   0.448   8.555  0.3749  0.0250 -0.1665
 4573SOL    HW125178   1.257   0.508   8.485  0.4028  1.4571  1.0595
 4573SOL    HW225179   1.200   0.453   8.603  0.4186  2.1774 -0.3126
 4574SOL     OW25180   2.731   0.535   3.444 -0.0059  0.0316  0.5667
 4574SOL    HW125181   2.807   0.593   3.440  0.6642 -0.8476  0.6615
 4574SOL    HW225182   2.650   0.586   3.440  1.3769  2.1070 -0.9449
 4575SOL     OW25183   2.099   1.090   6.067 -0.1453 -0.5987 -0.3091
 4575SOL    HW125184   2.151   1.120   6.142  0.5142  0.8337 -1.3305
 4575SOL    HW225185   2.114   1.163   6.006 -1.4066  0.6707  0.9138
 4576SOL     OW25186   2.086   2.902  11.323 -0.1993  0.2408 -0.1682
 4576SOL    HW125187   2.147   2.866  11.387 -1.5729 -3.8055 -1.1373
 4576SOL    HW225188   2.023   2.943  11.383 -0.2393 -0.3516  0.1911
 4577SOL     OW25189   4.007   3.736   8.309  0.5721  0.0201 -0.3146
 4577SOL    HW125190   3.966   3.719   8.225  2.3509  1.2398 -1.4392
 4577SOL    HW225191   3.941   3.701   8.369  0.2467  0.5774 -0.3466
 4578SOL     OW25192   2.397   2.531  17.245 -0.5708 -0.0933  0.2944
 4578SOL    HW125193   2.436   2.448  17.273 -1.7643 -0.9564 -0.6025
 4578SOL    HW225194   2.399   2.518  17.150  0.5827 -0.2197  0.3400
 4579SOL     OW25195   2.503   1.462   8.575 -0.4607  0.0797 -0.0901
 4579SOL    HW125196   2.500   1.399   8.503  1.8459  0.7591 -0.7880
 4579SOL    HW225197   2.412   1.492   8.564 -0.0633  2.4351  3.0433
 4580SOL     OW25198   3.628   1.365   5.031  0.6856  0.2367  0.0341
 4580SOL    HW125199   3.705   1.348   5.085  0.7239  0.4708  0.0547
 4580SOL    HW225200   3.666   1.397   4.949  0.3356  0.7776  0.0777
 4581SOL     OW25201   0.059   2.647   8.438 -0.0072 -0.0700 -0.1464
 4581SOL    HW125202   0.012   2.567   8.461 -1.0543  0.2301 -1.2465
 4581SOL    HW225203   0.137   2.626   8.490 -1.1341  2.8684  2.7341
 4582SOL     OW25204   3.202   2.014   3.424 -0.1299  0.1060  0.0362
 4582SOL    HW125205   3.212   1.941   3.363  0.2445  1.1454 -1.1389
 4582SOL    HW225206   3.238   1.979   3.506 -1.2856  0.8741  0.8776
 4583SOL     OW25207   0.446   3.052   2.195 -0.0866  0.0371 -0.3195
 4583SOL    HW125208   0.422   2.972   2.241 -0.1380 -0.3525 -1.0192
 4583SOL    HW225209   0.529   3.065   2.240 -1.0420 -0.6068  1.5971
 4584SOL     OW25210   1.756   3.675   4.627  0.4982  0.1225  0.6634
 4584SOL    HW125211   1.670   3.707   4.652  0.0893 -1.1786  0.9318
 4584SOL    HW225212   1.790   3.631   4.705  0.9177 -0.4418  0.1715
 4585SOL     OW25213   0.260   1.480   4.606  0.0951  0.0624 -0.2270
 4585SOL    HW125214   0.210   1.553   4.570 -0.0014  1.2303  2.2819
 4585SOL    HW225215   0.215   1.469   4.690  0.7599  1.7221  0.3473
 4586SOL     OW25216   3.475   4.611   3.759 -0.3331 -0.1771  0.0881
 4586SOL    HW125217   3.429   4.682   3.714  0.7729  0.1562 -0.5278
 4586SOL    HW225218   3.404   4.549   3.746  0.8840 -1.8298  1.2878
 4587SOL     OW25219   1.946   4.681   0.451 -0.6758  0.0383 -0.5242
 4587SOL    HW125220   2.009   4.700   0.521 -0.2365 -0.8957 -0.6687
 4587SOL    HW225221   1.962   4.589   0.432 -0.9172  0.2993 -1.9502
 4588SOL     OW25222   1.788   2.041   5.774  0.8045  0.1736 -0.3804
 4588SOL    HW125223   1.727   1.972   5.801 -0.9564  1.7321 -0.3677
 4588SOL    HW225224   1.852   2.036   5.845 -0.2338 -3.0631  0.3394
 4589SOL     OW25225   2.770   3.612  11.569 -0.3178  0.3244 -0.1065
 4589SOL    HW125226   2.708   3.631  11.639  0.3541 -0.2083  0.6429
 4589SOL    HW225227   2.821   3.693  11.567 -0.0867  0.1780 -0.2649
 4590SOL     OW25228   0.869   1.797   8.442  0.2597 -0.3172  0.5160
 4590SOL    HW125229   0.791   1.791   8.496  0.8235 -3.4966  0.9707
 4590SOL    HW225230   0.856   1.733   8.372 -0.1035 -0.6561  0.9044
 4591SOL     OW25231   0.560   3.580   2.227  0.0274 -0.5948  0.4123
 4591SOL    HW125232   0.619   3.524   2.176 -0.3888  0.3214 -1.0712
 4591SOL    HW225233   0.624   3.610   2.292 -0.3695 -2.6255  1.7261
 4592SOL     OW25234   3.640   3.983   5.585  0.6484 -0.8090  0.2148
 4592SOL    HW125235   3.547   3.978   5.560  0.7114  0.3118 -0.2621
 4592SOL    HW225236   3.668   4.031   5.507 -0.2432  1.1984  1.1314
 4593SOL     OW25237   1.316   0.121  10.601 -0.0279  0.2913  0.0459
 4593SOL    HW125238   1.388   0.132  10.664 -1.1703  0.4673  1.3122
 4593SOL    HW225239   1.362   0.053  10.551 -0.4949 -1.3877  1.8668
 4594SOL     OW25240   3.575   3.449   8.245 -0.0343  0.7094  0.2203
 4594SOL    HW125241   3.639   3.519   8.234  0.5513  0.4216  1.8595
 4594SOL    HW225242   3.509   3.464   8.177 -0.3844 -0.1264  0.3639
 4595SOL     OW25243   0.810   1.338  14.974  0.2325 -0.3479  0.4613
 4595SOL    HW125244   0.745   1.303  15.034 -2.0677  1.1500 -1.1772
 4595SOL    HW225245   0.820   1.265  14.913 -1.5836  0.0848 -0.3502
 4596SOL     OW25246   0.345   0.716   7.459  0.4313  0.2526  0.0613
 4596SOL    HW125247   0.295   0.716   7.540 -1.2291  1.9095 -0.9554
 4596SOL    HW225248   0.374   0.807   7.449 -0.2885  0.4038 -0.6832
 4597SOL     OW25249   0.189   2.677  15.325  0.2840 -0.3284 -0.1298
 4597SOL    HW125250   0.115   2.616  15.334  0.8503 -0.8751  0.7283
 4597SOL    HW225251   0.228   2.651  15.242  0.9520 -0.8799  0.3585
 4598SOL     OW25252   1.286   3.821   1.232  0.2049  0.2674  0.0539
 4598SOL    HW125253   1.275   3.868   1.315  1.3948 -1.4771  1.1918
 4598SOL    HW225254   1.380   3.838   1.220  0.4079 -1.4901 -0.8426
 4599SOL     OW25255   0.879   2.994   9.186  0.4657 -0.4153  0.0829
 4599SOL    HW125256   0.937   2.934   9.138 -2.3953 -2.0554 -1.3146
 4599SOL    HW225257   0.835   2.931   9.243 -0.1262  0.6053  0.7456
 4600SOL     OW25258   0.379   4.373   4.483  0.2929  0.4734 -0.0753
 4600SOL    HW125259   0.440   4.384   4.409  1.1437  2.5760  0.9503
 4600SOL    HW225260   0.442   4.332   4.543  1.2322  0.3991 -1.1090
 4601SOL     OW25261   3.048   0.967   3.249  0.4942  0.0078  0.1998
 4601SOL    HW125262   2.987   0.918   3.305 -0.2768  0.5442 -0.1651
 4601SOL    HW225263   3.001   0.985   3.168  0.9323 -0.0113 -0.0566
 4602SOL     OW25264   2.332   2.991   3.627 -0.2783  0.7041 -0.0089
 4602SOL    HW125265   2.290   2.961   3.546  3.2131 -1.6613 -0.9188
 4602SOL    HW225266   2.425   2.971   3.619 -0.4975 -1.5793  3.7547
 4603SOL     OW25267   4.343   1.282   8.072 -0.1435 -0.1776  0.0351
 4603SOL    HW125268   4.272   1.297   8.135 -1.5223 -1.2324 -1.2528
 4603SOL    HW225269   4.296   1.300   7.991  0.2228  0.7122  0.0253
 4604SOL     OW25270   3.042   1.779   8.445 -0.8125 -0.0082 -0.1362
 4604SOL    HW125271   2.948   1.797   8.449 -1.1194 -0.5803 -4.9707
 4604SOL    HW225272   3.044   1.772   8.350 -2.8146  0.4831 -0.2007
 4605SOL     OW25273   1.701   1.916   2.973  0.6162 -0.3288 -0.8478
 4605SOL    HW125274   1.723   1.970   3.049 -0.9905 -0.8491 -0.0119
 4605SOL    HW225275   1.615   1.890   3.006  0.5023  0.3914 -0.5856
 4606SOL     OW25276   3.208   2.401   7.536  0.2759  0.0411 -0.2035
 4606SOL    HW125277   3.219   2.334   7.604 -1.3505  1.4325  1.4456
 4606SOL    HW225278   3.206   2.345   7.459 -0.3285 -1.8049  1.1347
 4607SOL     OW25279   0.167   1.279   9.852 -0.1604 -0.4628  0.4848
 4607SOL    HW125280   0.237   1.223   9.819  0.3454 -0.0217  0.8225
 4607SOL    HW225281   0.192   1.267   9.943  0.9847  0.4152  0.2786
 4608SOL     OW25282   2.537   1.241   3.496 -0.3300  0.3725 -0.4076
 4608SOL    HW125283   2.451   1.204   3.519  0.3618 -2.3758 -2.1418
 4608SOL    HW225284   2.507   1.324   3.461  1.4133  1.3398  0.4207
 4609SOL     OW25285   1.172   4.486   8.883 -0.2647 -0.0608 -0.4889
 4609SOL    HW125286   1.133   4.511   8.967 -1.3968 -0.5591 -0.8701
 4609SOL    HW225287   1.264   4.474   8.907 -0.8048 -0.1416  1.5926
 4610SOL     OW25288   2.392   4.344   7.840 -0.4609  0.1249  0.3725
 4610SOL    HW125289   2.452   4.269   7.840  0.5765  0.9681  2.2005
 4610SOL    HW225290   2.367   4.343   7.748 -0.1466 -1.0792  0.3010
 4611SOL     OW25291   2.591   2.062   6.429  0.2159  0.2473  0.1334
 4611SOL    HW125292   2.650   2.063   6.353 -0.7449  1.8350 -0.6029
 4611SOL    HW225293   2.560   2.153   6.429 -0.9383 -0.1455 -0.8034
 4612SOL     OW25294   1.301   2.488   5.029  0.4317  0.0199  0.0712
 4612SOL    HW125295   1.234   2.496   5.097 -0.2242  0.8009 -0.6810
 4612SOL    HW225296   1.258   2.520   4.951 -0.0863 -2.0470 -0.4958
 4613SOL     OW25297   2.789   1.676   4.076  0.3798  0.3107  0.2781
 4613SOL    HW125298   2.868   1.622   4.078 -0.1021 -0.4028  0.0194
 4613SOL    HW225299   2.738   1.621   4.016  0.1548  1.8504 -0.9306
 4614SOL     OW25300   1.306   0.395   8.930  0.3169 -0.6303 -0.4815
 4614SOL    HW125301   1.247   0.355   8.994  0.2259 -0.4493 -0.4499
 4614SOL    HW225302   1.354   0.319   8.898  0.1218 -1.0447  0.2013
 4615SOL     OW25303   2.657   3.850   0.749 -0.1000 -0.5330 -0.1176
 4615SOL    HW125304   2.729   3.828   0.689  0.2784 -0.5832  0.3532
 4615SOL    HW225305   2.581   3.818   0.701 -0.7644  0.4651  0.2786
 4616SOL     OW25306   3.504   0.551   5.373 -0.3496 -0.0551 -0.6245
 4616SOL    HW125307   3.417   0.586   5.357 -0.6063 -0.9692 -1.2318
 4616SOL    HW225308   3.538   0.598   5.449 -0.6685 -0.9902  0.0950
 4617SOL     OW25309   2.870   1.477   1.980  0.1861 -0.1362 -0.5348
 4617SOL    HW125310   2.821   1.454   2.059 -0.2723 -2.4311 -1.4782
 4617SOL    HW225311   2.817   1.433   1.913  0.1574 -0.0691 -0.5565
 4618SOL     OW25312   0.654   1.519   8.709 -0.1759 -1.0866 -0.8847
 4618SOL    HW125313   0.632   1.556   8.795 -0.4585 -0.4959 -1.2170
 4618SOL    HW225314   0.630   1.588   8.648 -0.5776 -1.2651 -0.9284
 4619SOL     OW25315   0.128   2.477   7.733  0.7550  0.1055  0.3970
 4619SOL    HW125316   0.079   2.438   7.661  0.7639  1.0474 -0.1184
 4619SOL    HW225317   0.063   2.473   7.804  1.0838  2.9205  0.8535
 4620SOL     OW25318   1.387   3.341   9.666  0.1567 -0.0607  0.5477
 4620SOL    HW125319   1.444   3.374   9.597 -1.3686  2.4516  0.4772
 4620SOL    HW225320   1.385   3.421   9.718 -2.0097 -0.7219  1.5047
 4621SOL     OW25321   0.874   3.296   4.273  0.9829 -0.8196 -0.3350
 4621SOL    HW125322   0.871   3.325   4.182  0.2607  3.1810  0.9405
 4621SOL    HW225323   0.890   3.202   4.269  1.7384 -0.5991 -2.2375
 4622SOL     OW25324   4.433   1.259   2.312  0.3294 -0.1301  0.0729
 4622SOL    HW125325   4.492   1.241   2.385  0.1282 -0.3374  0.1846
 4622SOL    HW225326   4.453   1.350   2.291 -1.1500  0.3436  0.7626
 4623SOL     OW25327   2.355   4.564   2.824  0.1946  0.4094 -0.4574
 4623SOL    HW125328   2.430   4.569   2.884  0.5608  0.9099 -0.9683
 4623SOL    HW225329   2.316   4.642   2.862 -0.3922  0.0193 -0.2569
 4624SOL     OW25330   1.768   1.837   7.300 -0.0554 -0.4761 -0.2569
 4624SOL    HW125331   1.768   1.759   7.357  3.3289 -1.1529 -1.2250
 4624SOL    HW225332   1.686   1.815   7.255  0.1275  1.0281 -1.3140
 4625SOL     OW25333   1.358   0.813   1.788 -0.2615 -0.1105  0.2430
 4625SOL    HW125334   1.378   0.820   1.881  1.0520 -2.5311  0.1381
 4625SOL    HW225335   1.422   0.870   1.744  2.0049 -1.4766  1.7825
 4626SOL     OW25336   2.839   4.146   5.292 -0.6101  0.0914 -0.5849
 4626SOL    HW125337   2.931   4.124   5.278 -0.1310  1.3638  0.4873
 4626SOL    HW225338   2.845   4.159   5.387 -1.7571  0.1621 -0.5136
 4627SOL     OW25339   0.933   1.131  11.432  0.1956 -0.2474 -0.1977
 4627SOL    HW125340   0.897   1.101  11.516 -0.2918 -3.7244 -1.6626
 4627SOL    HW225341   0.856   1.159  11.382  0.2939  0.8909  0.2873
 4628SOL     OW25342   3.904   2.803   0.557 -0.7154  0.5282  0.1837
 4628SOL    HW125343   3.853   2.872   0.515  0.2481  0.9409 -0.3177
 4628SOL    HW225344   3.842   2.735   0.584  0.4853 -0.1933  1.1421
 4629SOL     OW25345   1.631   0.697   6.240  0.4300  0.1983  0.3271
 4629SOL    HW125346   1.634   0.705   6.335  1.1628  1.2525  0.2291
 4629SOL    HW225347   1.697   0.629   6.225  0.7050  0.3220  0.9523
 4630SOL     OW25348   1.831   4.716   9.977  0.0436 -0.2824  0.2201
 4630SOL    HW125349   1.743   4.689   9.952 -0.9064  2.4828  0.5538
 4630SOL    HW225350   1.860   0.048   9.904 -1.0947  1.4679  1.1000
 4631SOL     OW25351   3.840   1.010   2.332 -0.2326 -0.0478  0.0954
 4631SOL    HW125352   3.863   1.072   2.263 -2.5075  2.4019  1.5412
 4631SOL    HW225353   3.871   0.928   2.293 -2.2487 -0.6419 -0.2695
 4632SOL     OW25354   2.535   2.066   9.194 -0.0499  0.3818 -0.0365
 4632SOL    HW125355   2.460   2.056   9.252 -1.1297  0.7491 -1.3992
 4632SOL    HW225356   2.551   1.983   9.149 -2.1806  0.5124 -0.9988
 4633SOL     OW25357   2.789   3.801   2.049  0.0681  0.1913 -0.2429
 4633SOL    HW125358   2.869   3.749   2.052 -0.4494 -0.5534  0.5607
 4633SOL    HW225359   2.743   3.768   2.126 -0.2302 -0.1790 -0.5760
 4634SOL     OW25360   0.620   4.051   5.146 -0.6544  0.1860  0.0986
 4634SOL    HW125361   0.683   4.004   5.199  0.4227  2.9003  1.2038
 4634SOL    HW225362   0.538   4.008   5.170  0.6927 -1.0341  2.3585
 4635SOL     OW25363   0.739   0.128   5.763  0.2367 -0.5789 -0.8158
 4635SOL    HW125364   0.660   0.137   5.816  0.7824  0.2376 -0.1507
 4635SOL    HW225365   0.809   0.120   5.827  0.6313  2.1453 -0.9180
 4636SOL     OW25366   3.879   1.803   8.476  0.3552 -0.8247 -0.0277
 4636SOL    HW125367   3.884   1.749   8.555  2.1409  0.8693  1.0465
 4636SOL    HW225368   3.876   1.888   8.522 -0.8137  0.7811 -3.1111
 4637SOL     OW25369   3.749   0.701   7.489 -0.3518 -0.1925  0.3663
 4637SOL    HW125370   3.768   0.633   7.426 -1.4151  0.8518 -1.0840
 4637SOL    HW225371   3.834   0.746   7.488 -0.4708 -0.0220 -1.7409
 4638SOL     OW25372   3.734   0.649  16.727 -0.0545 -0.1438 -0.1069
 4638SOL    HW125373   3.797   0.718  16.746 -0.6219  0.3941 -0.1802
 4638SOL    HW225374   3.717   0.662  16.633  0.2991 -2.3941 -0.4837
 4639SOL     OW25375   1.482   3.816   7.998  0.6045 -0.1358 -0.0060
 4639SOL    HW125376   1.548   3.880   8.026 -0.6289  1.3577 -0.5256
 4639SOL    HW225377   1.537   3.754   7.950 -0.9069  0.1249 -2.0720
 4640SOL     OW25378   0.876   4.241  16.740 -0.1761  0.5366  0.1412
 4640SOL    HW125379   0.818   4.202  16.674  0.4544  0.5242 -0.3976
 4640SOL    HW225380   0.960   4.228  16.696 -0.4218  1.6314 -0.6497
 4641SOL     OW25381   4.189   0.075   7.339  0.1750 -0.1580  0.0289
 4641SOL    HW125382   4.096   0.096   7.340  0.5038  1.2158  1.1524
 4641SOL    HW225383   4.190   0.029   7.255  0.3833 -1.8006  0.9183
 4642SOL     OW25384   3.012   2.894   8.270  0.2199 -0.2225  0.1444
 4642SOL    HW125385   3.014   2.818   8.328  2.6062 -0.1844  0.1227
 4642SOL    HW225386   3.018   2.857   8.182 -0.2184 -0.1717  0.0945
 4643SOL     OW25387   0.206   0.826   9.144 -0.4168  0.6427  0.8390
 4643SOL    HW125388   0.280   0.886   9.145 -0.1392  0.2847  1.4302
 4643SOL    HW225389   0.145   0.892   9.110 -1.1271 -1.8210 -2.6074
 4644SOL     OW25390   3.858   3.060   5.231  0.2116  0.7196  0.1691
 4644SOL    HW125391   3.801   3.114   5.287 -2.0754 -0.4220 -1.0614
 4644SOL    HW225392   3.940   3.094   5.266  0.3192  1.8757 -1.2351
 4645SOL     OW25393   2.638   0.092  10.099  0.2414 -0.2356  0.1578
 4645SOL    HW125394   2.612   0.039  10.175 -0.3447 -1.6688 -1.0532
 4645SOL    HW225395   2.610   0.181  10.118  3.9823  0.7155  1.1996
 4646SOL     OW25396   3.072   1.523  16.774  0.0253 -0.3129 -0.0002
 4646SOL    HW125397   3.030   1.516  16.688 -0.1587 -3.6999  0.3610
 4646SOL    HW225398   3.046   1.449  16.828 -1.1822  0.8120  0.9411
 4647SOL     OW25399   1.022   3.960   7.553 -0.8979 -0.3913  0.4838
 4647SOL    HW125400   1.014   3.970   7.648 -0.1784  1.8261  0.2953
 4647SOL    HW225401   0.967   4.033   7.524  0.6367  0.6606  0.1923
 4648SOL     OW25402   0.139   1.136   8.695 -0.8497 -0.5637  0.1813
 4648SOL    HW125403   0.179   1.053   8.670 -0.1433 -0.9109  2.4223
 4648SOL    HW225404   0.220   1.185   8.705  0.6159 -3.0453  0.4583
 4649SOL     OW25405   4.635   1.203  16.988  0.4183  0.4290  0.0411
 4649SOL    HW125406   4.583   1.249  17.054 -0.1707 -0.4843  0.2064
 4649SOL    HW225407   4.717   1.198  17.038 -0.2619  0.7140  1.1654
 4650SOL     OW25408   1.597   3.829   2.605 -0.3872  0.3660 -0.2809
 4650SOL    HW125409   1.680   3.876   2.598 -0.3037  0.5831  2.2256
 4650SOL    HW225410   1.544   3.883   2.663 -1.4798  0.1028 -1.0284
 4651SOL     OW25411   4.643   1.966   5.793 -0.4213 -0.1297  0.1819
 4651SOL    HW125412   4.600   2.032   5.847  0.6154  2.2842 -1.9346
 4651SOL    HW225413   4.633   1.889   5.848 -0.2181  1.1150  1.9668
 4652SOL     OW25414   0.850   3.142   7.938  0.4931  0.2421 -0.1094
 4652SOL    HW125415   0.827   3.116   7.849  3.8270  1.0108 -1.2075
 4652SOL    HW225416   0.945   3.153   7.928  0.8216 -0.1125  2.7360
 4653SOL     OW25417   0.033   3.819   6.917  0.2155  0.3159 -0.4158
 4653SOL    HW125418   0.056   3.910   6.899 -0.4453  0.6089  0.1992
 4653SOL    HW225419   0.113   3.779   6.883 -0.4039 -2.3843  1.2720
 4654SOL     OW25420   3.247   4.546   6.366 -0.7361 -0.0490  0.3601
 4654SOL    HW125421   3.252   4.615   6.300 -0.0478 -1.0534 -0.6395
 4654SOL    HW225422   3.276   4.466   6.323 -0.8792  1.1307 -1.8963
 4655SOL     OW25423   1.973   0.029   1.390  0.7515 -0.2210  0.4848
 4655SOL    HW125424   2.044   0.061   1.446  2.3613 -3.1090  0.0851
 4655SOL    HW225425   1.967   4.662   1.420 -3.1648 -0.3156 -0.5614
 4656SOL     OW25426   0.129   2.546   1.211  0.1651 -0.2895  0.7627
 4656SOL    HW125427   0.224   2.550   1.222  0.2238  3.1426 -1.2004
 4656SOL    HW225428   0.114   2.477   1.276 -0.6245 -0.6779  0.1731
 4657SOL     OW25429   4.499   3.663   4.431 -0.3169  0.5591  0.1570
 4657SOL    HW125430   4.409   3.693   4.438 -0.4615  0.2966 -0.6383
 4657SOL    HW225431   4.527   3.718   4.358  1.8502 -0.8339 -0.0665
 4658SOL     OW25432   2.207   4.462   9.959 -0.1717  0.5584 -0.0640
 4658SOL    HW125433   2.280   4.467  10.021 -1.2969 -0.7146  1.3532
 4658SOL    HW225434   2.220   4.377   9.917  0.3772 -0.1799  1.6157
 4659SOL     OW25435   3.307   1.617  14.147 -0.0860 -0.4342 -1.1213
 4659SOL    HW125436   3.248   1.605  14.073 -0.7522  2.0216 -0.9885
 4659SOL    HW225437   3.249   1.618  14.223  1.1512 -0.0566 -0.1894
 4660SOL     OW25438   3.284   4.458   5.988  0.2774 -0.3093 -0.0749
 4660SOL    HW125439   3.241   4.477   5.904  1.7235 -0.2925 -0.8172
 4660SOL    HW225440   3.306   4.544   6.024 -0.4408 -0.5362  0.8886
 4661SOL     OW25441   4.299   1.228   4.537 -0.0321  0.3543 -0.5439
 4661SOL    HW125442   4.261   1.315   4.523  0.6431  0.4811 -1.5973
 4661SOL    HW225443   4.372   1.245   4.597  0.4315 -0.4823 -0.8787
 4662SOL     OW25444   4.515   1.609  10.200  0.0540 -0.0293  0.3550
 4662SOL    HW125445   4.547   1.684  10.250 -2.3300  0.4089  1.2304
 4662SOL    HW225446   4.589   1.550  10.213  0.8058  0.4794 -1.6571
 4663SOL     OW25447   3.161   0.706  16.251  0.1196  0.2006  0.2655
 4663SOL    HW125448   3.165   0.757  16.171 -1.2145 -3.8785 -2.3952
 4663SOL    HW225449   3.226   0.735  16.315  0.4516  0.6235 -0.2661
 4664SOL     OW25450   4.254   4.667   5.247 -0.2528 -0.1704 -0.2361
 4664SOL    HW125451   4.241   4.692   5.338 -1.9208 -1.6725 -0.0559
 4664SOL    HW225452   4.223   0.024   5.205  1.5214  1.1704  1.0371
 4665SOL     OW25453   2.095   2.706  10.175 -0.0162  0.1906  0.7082
 4665SOL    HW125454   2.162   2.729  10.111 -0.2248 -0.2260  0.3394
 4665SOL    HW225455   2.094   2.788  10.224  1.0712  0.8628 -0.3854
 4666SOL     OW25456   4.554   0.722   5.870 -0.5633  0.1155 -0.0676
 4666SOL    HW125457   4.616   0.753   5.936 -1.1559 -0.6877  0.8718
 4666SOL    HW225458   4.479   0.775   5.897 -0.1564  0.1283  1.0267
 4667SOL     OW25459   1.411   3.633  13.372 -0.1441  0.3151 -0.0624
 4667SOL    HW125460   1.387   3.628  13.465 -0.0722 -2.6830 -0.2036
 4667SOL    HW225461   1.461   3.552  13.371  0.3723  0.5671  3.2641
 4668SOL     OW25462   1.783   4.512   1.273 -0.6127 -0.0853  0.0375
 4668SOL    HW125463   1.834   4.477   1.346  2.2732  2.5728 -0.6965
 4668SOL    HW225464   1.767   4.436   1.217  0.7389 -1.1400  1.0721
 4669SOL     OW25465   4.306   3.929  14.488  0.2355 -0.3205  0.0004
 4669SOL    HW125466   4.365   3.981  14.434 -0.8748  0.0247 -0.9018
 4669SOL    HW225467   4.300   3.984  14.566 -0.8494  0.7926 -0.8614
 4670SOL     OW25468   3.560   2.201   3.445 -0.8502 -0.3152  0.3865
 4670SOL    HW125469   3.503   2.216   3.370  0.3743  1.3435 -0.2312
 4670SOL    HW225470   3.543   2.109   3.465 -3.9761 -0.0744 -1.1919
 4671SOL     OW25471   3.665   1.545   1.040 -0.7229 -0.0124  0.3441
 4671SOL    HW125472   3.647   1.589   1.123 -0.1988  0.0975  0.4023
 4671SOL    HW225473   3.761   1.548   1.041 -0.6738  0.0086 -3.0119
 4672SOL     OW25474   3.168   2.696   7.454 -0.2746 -0.5660 -0.3699
 4672SOL    HW125475   3.176   2.778   7.406  0.8484 -1.1376 -1.1432
 4672SOL    HW225476   3.231   2.645   7.404  2.2340  1.2233  0.9419
 4673SOL     OW25477   2.649   3.779   7.087 -0.1831  0.5672 -0.1967
 4673SOL    HW125478   2.568   3.767   7.038 -0.2317 -1.5956  0.4274
 4673SOL    HW225479   2.662   3.874   7.075 -1.3518  0.8755  1.0307
 4674SOL     OW25480   0.278   1.648   2.571 -0.1612  0.8324 -0.0078
 4674SOL    HW125481   0.259   1.741   2.579  1.2717  1.1090  0.1612
 4674SOL    HW225482   0.243   1.623   2.485  2.4690 -0.8311 -0.5680
 4675SOL     OW25483   2.245   2.068  10.525 -0.3690 -0.1851  0.3120
 4675SOL    HW125484   2.152   2.046  10.527 -0.4137  0.0201  0.4719
 4675SOL    HW225485   2.248   2.133  10.596 -0.8647  1.2992 -1.0222
 4676SOL     OW25486   0.972   1.332  10.140 -0.2272 -0.2256  0.1857
 4676SOL    HW125487   1.058   1.369  10.119  0.2901 -1.5500  0.0015
 4676SOL    HW225488   0.991   1.304  10.229 -0.7829  1.2309  0.7606
 4677SOL     OW25489   2.915   3.721   6.853 -0.4290  0.2790 -0.0870
 4677SOL    HW125490   2.835   3.669   6.860 -0.5908  0.5815  0.3420
 4677SOL    HW225491   2.895   3.799   6.905  2.0475  1.2640 -0.6282
 4678SOL     OW25492   4.435   3.247   3.557  0.2189  0.0827 -0.0900
 4678SOL    HW125493   4.514   3.301   3.548 -0.3997  0.7872 -1.2985
 4678SOL    HW225494   4.404   3.278   3.642  0.3684 -3.4029  1.2376
 4679SOL     OW25495   2.020   3.269   0.968 -0.1258  0.8952  0.2431
 4679SOL    HW125496   1.963   3.257   1.045  2.9962 -0.4959  2.3371
 4679SOL    HW225497   1.974   3.341   0.925  0.3845 -0.0932 -1.9113
 4680SOL     OW25498   1.439   2.155  13.269  0.2507  0.0999  0.1091
 4680SOL    HW125499   1.523   2.174  13.309 -0.0635 -0.9914  1.2910
 4680SOL    HW225500   1.413   2.218  13.202 -1.3072 -0.9915 -0.3105
 4681SOL     OW25501   1.278   1.294   5.184  0.1234 -0.0779  0.0984
 4681SOL    HW125502   1.316   1.349   5.116 -2.2333  1.2866 -0.1075
 4681SOL    HW225503   1.186   1.301   5.161  0.4732 -0.0774 -1.2916
 4682SOL     OW25504   0.706   0.874   7.182  0.6001  0.7210  0.5417
 4682SOL    HW125505   0.791   0.831   7.182 -0.5082 -1.4577  0.2095
 4682SOL    HW225506   0.719   0.955   7.232  1.0785  0.7289  0.3973
 4683SOL     OW25507   2.280   2.001   2.189  0.5618 -0.5209  0.2691
 4683SOL    HW125508   2.354   2.004   2.129 -1.0870 -1.1434 -1.7651
 4683SOL    HW225509   2.216   1.954   2.136 -0.6933  1.6801 -0.1803
 4684SOL     OW25510   3.739   0.639   3.834 -0.4443  0.0254 -0.1716
 4684SOL    HW125511   3.782   0.697   3.771  1.2181  1.2002  2.0361
 4684SOL    HW225512   3.666   0.692   3.865 -1.0978 -2.2186  2.1283
 4685SOL     OW25513   1.107   2.306   8.837 -0.0775 -0.9142 -0.1267
 4685SOL    HW125514   1.119   2.340   8.748 -0.5919  1.1730  0.6203
 4685SOL    HW225515   1.127   2.384   8.887  1.7362 -0.9978 -0.7261
 4686SOL     OW25516   0.612   3.229   0.662  0.3038  0.1508  0.4072
 4686SOL    HW125517   0.534   3.197   0.708 -0.5006 -0.8117 -1.5949
 4686SOL    HW225518   0.570   3.283   0.595 -1.2303 -0.2490  1.0380
 4687SOL     OW25519   0.236   4.537  11.598 -0.0215  0.0319  0.2329
 4687SOL    HW125520   0.262   4.597  11.529  0.9209 -0.5170  0.1015
 4687SOL    HW225521   0.318   4.487  11.600 -0.3112 -0.3964  1.4472
 4688SOL     OW25522   1.930   1.222   1.723  0.6789  0.0118  0.1443
 4688SOL    HW125523   1.903   1.311   1.702 -0.7441 -0.2792  0.7481
 4688SOL    HW225524   1.858   1.187   1.775  0.4527 -1.5398 -1.1884
 4689SOL     OW25525   2.958   0.036  14.226 -0.3158 -0.1864 -0.0985
 4689SOL    HW125526   3.032   4.699  14.229  0.2952  0.5253 -1.1323
 4689SOL    HW225527   2.896   4.685  14.226 -1.4776  0.7949 -0.4189
 4690SOL     OW25528   3.532   2.432   8.671 -0.5236 -0.3817  0.2476
 4690SOL    HW125529   3.452   2.432   8.723 -1.4064  2.0985 -1.0769
 4690SOL    HW225530   3.512   2.446   8.578 -0.1139 -0.7829  0.1027
 4691SOL     OW25531   3.931   0.175   5.876 -0.6434  0.2910 -0.0450
 4691SOL    HW125532   3.978   0.100   5.913 -2.2013 -0.4028  0.4981
 4691SOL    HW225533   3.850   0.173   5.926 -1.5286  0.1762 -1.5102
 4692SOL     OW25534   0.494   4.482  13.081 -0.7386 -0.0723  0.0991
 4692SOL    HW125535   0.457   4.423  13.146 -0.8590 -0.5769 -0.4264
 4692SOL    HW225536   0.585   4.495  13.107 -1.2078  1.3257  1.0893
 4693SOL     OW25537   2.295   4.045  14.114 -0.1862  0.6414 -0.7407
 4693SOL    HW125538   2.371   3.986  14.115 -1.3263 -0.8492 -0.8162
 4693SOL    HW225539   2.235   3.985  14.159  1.6972 -0.7135 -0.0367
 4694SOL     OW25540   0.277   2.154   3.791  0.4631  0.0276  0.5583
 4694SOL    HW125541   0.251   2.197   3.872  3.1434  0.8593  0.9774
 4694SOL    HW225542   0.328   2.080   3.824 -0.3901 -0.5881  0.4811
 4695SOL     OW25543   1.665   4.279   1.207  0.3478  0.5720 -0.0211
 4695SOL    HW125544   1.700   4.208   1.154  2.8386 -0.9087  3.5965
 4695SOL    HW225545   1.622   4.230   1.277 -0.6605  0.1862 -0.9111
 4696SOL     OW25546   0.256   2.540   3.178 -0.4655 -0.1976  0.0152
 4696SOL    HW125547   0.252   2.627   3.219 -2.2305 -0.0632 -0.4481
 4696SOL    HW225548   0.346   2.508   3.171 -1.0370 -2.0743  1.3557
 4697SOL     OW25549   0.660   3.078   8.738  0.2689 -0.6442  0.5535
 4697SOL    HW125550   0.715   3.085   8.661 -0.8910  0.2565 -0.1973
 4697SOL    HW225551   0.615   3.163   8.737 -3.1823 -2.4337  0.7381
 4698SOL     OW25552   2.021   1.826   7.187  0.5944  0.7609  0.2682
 4698SOL    HW125553   1.931   1.840   7.214  1.0070  0.1703  1.9672
 4698SOL    HW225554   2.049   1.787   7.270 -1.8368  1.5157  1.4156
 4699SOL     OW25555   3.925   0.672   5.553  0.1631 -0.1844 -0.3284
 4699SOL    HW125556   3.989   0.734   5.520  1.7133 -2.2263 -1.1929
 4699SOL    HW225557   3.985   0.599   5.567  2.7281  2.0544  0.3015
 4700SOL     OW25558   1.231   1.999  10.535 -0.2262  0.3293  0.4057
 4700SOL    HW125559   1.255   2.066  10.598 -0.6670  1.0471 -0.1844
 4700SOL    HW225560   1.266   2.023  10.449  2.3287  1.6075  1.7955
 4701SOL     OW25561   3.245   2.938   1.874 -0.2843  0.4681 -0.1362
 4701SOL    HW125562   3.307   2.866   1.887 -0.7117 -0.4290 -3.1536
 4701SOL    HW225563   3.255   2.968   1.784 -1.1063 -0.8933 -0.6798
 4702SOL     OW25564   0.667   2.135   3.944  0.1150 -0.1678 -0.0859
 4702SOL    HW125565   0.718   2.080   4.004 -0.3549 -0.6170 -0.0953
 4702SOL    HW225566   0.705   2.124   3.857 -0.4661 -0.7834 -0.2614
 4703SOL     OW25567   2.793   4.284   2.276 -0.3011 -0.4634 -0.3467
 4703SOL    HW125568   2.814   4.247   2.361  1.1166  2.1193  0.4190
 4703SOL    HW225569   2.875   4.321   2.244 -0.4286 -0.0398 -0.1940
 4704SOL     OW25570   4.290   2.556  17.463  0.7129  0.4286  0.3245
 4704SOL    HW125571   4.208   2.536  17.416  1.9289 -0.6767 -1.3544
 4704SOL    HW225572   4.256   2.613  17.532 -0.9459 -2.4626  1.8878
 4705SOL     OW25573   2.601   1.909   9.830  0.6867  1.4603  0.2193
 4705SOL    HW125574   2.650   1.827   9.835 -1.4059  0.1262 -1.2635
 4705SOL    HW225575   2.629   1.943   9.745  2.3186 -0.6274 -0.0553
 4706SOL     OW25576   0.890   1.374   8.699 -0.4546  0.2895  0.4772
 4706SOL    HW125577   0.805   1.417   8.692 -1.2815 -1.4384 -0.1811
 4706SOL    HW225578   0.949   1.411   8.633 -0.9406  2.3156  1.1907
 4707SOL     OW25579   2.965   2.650   2.401  0.1404 -0.0419 -0.2617
 4707SOL    HW125580   3.020   2.597   2.343 -0.0249 -0.2848 -0.1958
 4707SOL    HW225581   2.877   2.634   2.366 -0.5605  0.5619  1.2422
 4708SOL     OW25582   3.184   4.200  11.587 -0.4641  0.0002  0.4805
 4708SOL    HW125583   3.254   4.141  11.559  0.7880  0.6484  2.2837
 4708SOL    HW225584   3.107   4.152  11.555 -0.6568  0.3821  0.3704
 4709SOL     OW25585   1.942   0.004   7.178 -0.6773 -0.2760 -0.4179
 4709SOL    HW125586   1.917   0.047   7.259  0.1471 -0.0870 -0.2647
 4709SOL    HW225587   1.952   4.634   7.201  1.4493 -0.1333 -0.6999
 4710SOL     OW25588   2.849   2.331   4.856 -0.4113 -0.0639 -0.3140
 4710SOL    HW125589   2.804   2.356   4.775  1.0310  1.3856 -0.6658
 4710SOL    HW225590   2.824   2.240   4.835 -0.0181 -0.5909  1.5309
 4711SOL     OW25591   4.645   3.101  15.509  0.0750  0.6310  0.5124
 4711SOL    HW125592   4.696   3.023  15.487 -1.3920 -0.2151  0.0973
 4711SOL    HW225593   4.607   3.126  15.425 -0.1293  1.7773  0.9474
 4712SOL     OW25594   2.874   1.522   8.859 -0.3966 -0.0635  0.2918
 4712SOL    HW125595   2.952   1.577   8.847 -2.5135  2.5802 -1.5342
 4712SOL    HW225596   2.808   1.574   8.814 -1.1124 -2.1876 -1.0980
 4713SOL     OW25597   2.984   1.116   7.131  0.4631  0.0145 -0.0988
 4713SOL    HW125598   3.006   1.029   7.165  0.8524  0.5455  0.9876
 4713SOL    HW225599   2.889   1.108   7.119  0.0121  1.5174  2.4932
 4714SOL     OW25600   0.582   0.897   7.782  0.1845  0.1411 -0.1505
 4714SOL    HW125601   0.515   0.867   7.843  1.5123 -2.4481  0.0486
 4714SOL    HW225602   0.602   0.815   7.737 -3.0671  0.8914 -2.8721
 4715SOL     OW25603   2.560   0.145   0.198 -0.4187 -0.0940 -0.5728
 4715SOL    HW125604   2.558   0.241   0.200 -1.1745 -0.1491  1.0700
 4715SOL    HW225605   2.642   0.122   0.242  0.0790  0.9805 -0.9328
 4716SOL     OW25606   2.893   0.752  16.183 -0.0333 -0.0257  0.5021
 4716SOL    HW125607   2.914   0.763  16.276  0.8039  0.3924  0.2619
 4716SOL    HW225608   2.978   0.723  16.149 -1.1904 -1.5539 -1.0725
 4717SOL     OW25609   1.576   2.116   0.580 -0.6659 -0.0904  0.3588
 4717SOL    HW125610   1.589   2.127   0.486 -1.0468 -1.5411  0.1414
 4717SOL    HW225611   1.638   2.045   0.597 -0.6692 -0.2092 -0.1313
 4718SOL     OW25612   1.149   0.673   3.145  0.5877  0.1118  0.4745
 4718SOL    HW125613   1.145   0.717   3.060 -2.3849 -0.0607  0.5216
 4718SOL    HW225614   1.237   0.705   3.165  0.6472  0.5008 -0.4080
 4719SOL     OW25615   1.520   0.558   2.957  0.2781 -0.1908 -0.0563
 4719SOL    HW125616   1.549   0.520   2.874  0.7581  0.6020 -0.2559
 4719SOL    HW225617   1.478   0.481   2.995 -0.5820  0.3375  0.0567
 4720SOL     OW25618   0.255   2.689   3.643 -0.0531 -0.2605 -0.0580
 4720SOL    HW125619   0.345   2.659   3.628  0.6037  1.8901 -0.4204
 4720SOL    HW225620   0.219   2.602   3.662 -1.4590 -0.3230 -2.9474
 4721SOL     OW25621   4.355   0.683   7.089  0.2816  0.6071 -0.1142
 4721SOL    HW125622   4.335   0.633   7.169  4.3617  0.7488  0.9996
 4721SOL    HW225623   4.415   0.753   7.113 -0.4119  0.4426  2.1007
 4722SOL     OW25624   4.009   4.058  12.580 -0.4182 -0.1624  0.1552
 4722SOL    HW125625   3.967   4.021  12.658 -2.6670 -0.2727 -1.1012
 4722SOL    HW225626   3.991   3.990  12.515 -0.1030  0.1823 -0.2855
 4723SOL     OW25627   1.609   0.971   1.713  0.1206  0.1252 -0.1952
 4723SOL    HW125628   1.615   1.032   1.640 -0.4703 -0.2329 -0.5439
 4723SOL    HW225629   1.626   1.029   1.786  1.4887 -0.7270  0.1575
 4724SOL     OW25630   0.475   4.686   4.592 -0.2175 -0.0642 -0.0767
 4724SOL    HW125631   0.516   0.005   4.517  0.8782 -0.1037  0.5087
 4724SOL    HW225632   0.533   4.611   4.604 -1.1390 -0.8488 -0.5060
 4725SOL     OW25633   2.615   0.139  11.921  0.2205 -0.2991 -0.8450
 4725SOL    HW125634   2.658   0.214  11.962  0.3413 -0.9013  0.1105
 4725SOL    HW225635   2.674   0.133  11.846  1.4995  0.8788  0.0673
 4726SOL     OW25636   0.625   4.134  17.005  0.1901  0.0860  0.0257
 4726SOL    HW125637   0.607   4.072  17.075 -0.1834 -1.7617 -1.6946
 4726SOL    HW225638   0.711   4.167  17.032  0.3182 -0.5036  0.3288
 4727SOL     OW25639   2.820   0.898   5.436 -0.6240  0.5127  0.5766
 4727SOL    HW125640   2.739   0.936   5.403  0.0491  1.4229 -0.0191
 4727SOL    HW225641   2.876   0.974   5.421  0.7959 -0.6093  0.2947
 4728SOL     OW25642   0.383   2.960   9.233  0.2338  0.3620 -0.0515
 4728SOL    HW125643   0.408   2.995   9.147  0.8286  1.5165  0.5928
 4728SOL    HW225644   0.291   2.986   9.230  0.9154  2.7462 -0.2532
 4729SOL     OW25645   0.921   1.911  11.427 -0.1668 -0.3390 -0.4923
 4729SOL    HW125646   1.015   1.897  11.422  0.3732  3.3443 -1.1752
 4729SOL    HW225647   0.908   1.947  11.514 -0.2135 -0.8929 -0.2710
 4730SOL     OW25648   1.310   1.283   8.082  0.2279  0.4616 -0.1511
 4730SOL    HW125649   1.320   1.190   8.059  0.5214  0.3397  0.4739
 4730SOL    HW225650   1.250   1.276   8.155 -1.6795  0.8766 -1.6869
 4731SOL     OW25651   3.730   1.203   7.948 -0.1988  0.2760 -0.0016
 4731SOL    HW125652   3.739   1.130   8.009  1.0893 -1.2194 -1.9690
 4731SOL    HW225653   3.659   1.248   7.993  1.0228  0.1970  2.0471
 4732SOL     OW25654   1.954   3.399  15.071  0.8119 -0.6202 -0.2779
 4732SOL    HW125655   2.044   3.369  15.090  0.6029 -1.8051 -1.1393
 4732SOL    HW225656   1.929   3.460  15.140 -0.9239 -0.1726 -1.3186
 4733SOL     OW25657   4.624   3.030   2.482  0.4728  0.0354 -0.4526
 4733SOL    HW125658   4.564   3.035   2.557  3.0216  0.0975  1.6247
 4733SOL    HW225659   4.580   3.103   2.439 -1.7849 -2.5351 -2.4826
 4734SOL     OW25660   0.766   3.825  10.704  0.1265  0.3404  0.4464
 4734SOL    HW125661   0.788   3.789  10.618  0.5430 -0.3932  0.8590
 4734SOL    HW225662   0.852   3.821  10.746  1.9231 -1.1871 -3.3273
 4735SOL     OW25663   1.311   1.761   7.105  0.1444  0.1196 -0.8264
 4735SOL    HW125664   1.220   1.783   7.084  0.7179  1.9130 -1.4466
 4735SOL    HW225665   1.358   1.816   7.043  0.3499  0.8906  0.0018
 4736SOL     OW25666   3.025   1.402   5.534  0.5415  0.0129  0.1016
 4736SOL    HW125667   3.112   1.383   5.570 -0.3175 -0.2161  2.0693
 4736SOL    HW225668   2.995   1.468   5.597 -1.0243  0.3798 -1.0310
 4737SOL     OW25669   0.822   2.995   5.006  0.2908  0.8033  0.0956
 4737SOL    HW125670   0.875   3.008   4.926 -1.8770  1.6923 -1.1908
 4737SOL    HW225671   0.888   2.965   5.068 -0.1503 -0.9487 -0.2918
 4738SOL     OW25672   0.077   2.906  15.420  0.0383 -0.2362  0.2021
 4738SOL    HW125673   0.112   2.830  15.374 -0.4559  0.0048 -0.5562
 4738SOL    HW225674   0.146   2.967  15.393 -1.0950  0.0281 -2.0233
 4739SOL     OW25675   1.142   1.440  16.585  0.1153 -0.3452 -0.7184
 4739SOL    HW125676   1.138   1.428  16.491 -1.1362 -1.5244 -0.5181
 4739SOL    HW225677   1.087   1.515  16.608  0.8696  0.7942 -2.6574
 4740SOL     OW25678   2.759   3.490  10.423  0.3139  0.4317 -0.2058
 4740SOL    HW125679   2.829   3.525  10.478  0.3042  0.2012 -0.0465
 4740SOL    HW225680   2.702   3.449  10.488 -1.1487 -1.4141 -2.6868
 4741SOL     OW25681   1.898   2.600  10.015 -0.2198  0.1597 -0.3373
 4741SOL    HW125682   1.843   2.590  10.093  0.9874 -1.0236  0.3563
 4741SOL    HW225683   1.979   2.629  10.057 -0.3409  2.2264 -1.5367
 4742SOL     OW25684   3.036   3.287   8.566 -0.6336  1.0887  0.9208
 4742SOL    HW125685   2.981   3.217   8.603 -1.7434  0.4502 -1.8586
 4742SOL    HW225686   2.990   3.369   8.585  1.4858  2.4021  0.2749
 4743SOL     OW25687   2.030   0.854   6.011  0.0079  0.2069 -0.5240
 4743SOL    HW125688   1.938   0.877   5.998  0.1785  0.9657 -0.3661
 4743SOL    HW225689   2.064   0.943   6.016  2.2736 -0.7549  0.9265
 4744SOL     OW25690   1.071   1.558   8.025 -0.4024 -0.1796 -0.5017
 4744SOL    HW125691   1.123   1.595   8.096 -1.5067  1.2633 -0.4434
 4744SOL    HW225692   1.043   1.635   7.976  0.0451  0.2391 -0.1050
 4745SOL     OW25693   3.375   3.989   7.683  0.1067 -0.0498 -0.3320
 4745SOL    HW125694   3.292   3.984   7.730  2.0176  0.0792  2.9976
 4745SOL    HW225695   3.418   4.051   7.741 -0.1985  0.1881 -0.3572
 4746SOL     OW25696   2.458   4.306  10.605  0.5377  0.4224  0.5527
 4746SOL    HW125697   2.399   4.306  10.680  0.3737 -1.6398  0.4223
 4746SOL    HW225698   2.387   4.314  10.542 -1.3614  0.9280  2.7479
 4747SOL     OW25699   2.569   0.083  14.511  0.5308  0.3864  0.2088
 4747SOL    HW125700   2.520   0.149  14.561 -0.9972 -0.7117  0.1627
 4747SOL    HW225701   2.501   0.016  14.520 -0.0083  0.8812 -0.1361
 4748SOL     OW25702   3.886   2.036   3.291 -0.0343  0.4001  0.2932
 4748SOL    HW125703   3.977   2.010   3.303  0.7386  1.8382 -2.5078
 4748SOL    HW225704   3.880   2.097   3.217 -3.7029 -0.9351 -0.5231
 4749SOL     OW25705   3.100   2.082   6.624  0.1541  0.2087  0.0990
 4749SOL    HW125706   3.047   2.004   6.642  0.5166  0.2385  1.2917
 4749SOL    HW225707   3.185   2.041   6.605 -0.6831 -1.1367 -0.8410
 4750SOL     OW25708   1.426   2.324   3.598  0.3029  0.1759 -0.2817
 4750SOL    HW125709   1.485   2.250   3.584  0.8831  0.5468  0.1832
 4750SOL    HW225710   1.365   2.304   3.528 -0.6949  0.8899  0.3747
 4751SOL     OW25711   2.005   1.564   3.618  0.0762 -0.2904 -0.3289
 4751SOL    HW125712   1.998   1.497   3.687  0.5496 -0.1947 -0.1884
 4751SOL    HW225713   1.968   1.638   3.667  0.2780 -2.4355  3.0674
 4752SOL     OW25714   0.409   3.465   7.990  0.1769 -0.0845  0.2619
 4752SOL    HW125715   0.378   3.555   7.980  0.4245  0.0159  0.3918
 4752SOL    HW225716   0.464   3.459   7.911  1.2558  2.0191  0.8549
 4753SOL     OW25717   1.781   2.361   2.613 -0.7848 -0.1209 -0.2478
 4753SOL    HW125718   1.877   2.357   2.617 -0.9014 -0.6234  2.1147
 4753SOL    HW225719   1.766   2.286   2.556  0.1862 -0.9711  0.5973
 4754SOL     OW25720   0.874   4.546  14.399 -0.0297 -0.3347 -0.2433
 4754SOL    HW125721   0.918   4.585  14.324 -0.2995 -0.4215 -0.4453
 4754SOL    HW225722   0.785   4.581  14.405 -0.9680 -2.5798 -0.9584
 4755SOL     OW25723   4.612   0.096   5.750  0.3854 -0.2411 -0.7524
 4755SOL    HW125724   4.534   0.061   5.793  1.6411 -1.3806  0.5707
 4755SOL    HW225725   4.583   0.086   5.659  0.1576 -0.6667 -0.6324
 4756SOL     OW25726   4.405   1.268   0.619 -0.1778 -0.0588 -0.1220
 4756SOL    HW125727   4.500   1.272   0.614 -0.1130 -1.7062 -0.3253
 4756SOL    HW225728   4.386   1.355   0.584  1.5575 -0.1364 -1.2194
 4757SOL     OW25729   1.846   0.671  10.266  0.4727 -0.2263  0.1134
 4757SOL    HW125730   1.890   0.590  10.291  1.2328  0.0545 -0.3142
 4757SOL    HW225731   1.897   0.743  10.302 -1.3877  0.5931  1.1017
 4758SOL     OW25732   0.559   3.055   7.114  0.3510 -0.0949 -0.1061
 4758SOL    HW125733   0.535   3.025   7.026  1.6846  0.2922 -0.6099
 4758SOL    HW225734   0.648   3.020   7.113  0.9793  1.3952  3.3721
 4759SOL     OW25735   0.190   1.172   4.811  0.8320  0.6085 -0.1102
 4759SOL    HW125736   0.275   1.149   4.773  2.2274  1.9375  2.1797
 4759SOL    HW225737   0.137   1.126   4.747  3.9248 -0.4579 -1.8693
 4760SOL     OW25738   3.652   0.561  10.574  0.8030 -0.1756  0.0128
 4760SOL    HW125739   3.619   0.623  10.509  1.7174  0.1383 -0.1513
 4760SOL    HW225740   3.726   0.612  10.608  1.5848 -1.3537  0.0903
 4761SOL     OW25741   4.205   3.489   8.249  0.1308 -0.3922  0.3025
 4761SOL    HW125742   4.274   3.425   8.234  0.3298 -0.2466  0.6075
 4761SOL    HW225743   4.254   3.565   8.281  2.3802 -0.6985 -2.4017
 4762SOL     OW25744   0.623   2.154   0.274 -0.0446 -0.2898  0.4439
 4762SOL    HW125745   0.640   2.227   0.333  0.2169 -0.8957  1.1160
 4762SOL    HW225746   0.527   2.159   0.274 -0.1697 -3.1886 -2.9104
 4763SOL     OW25747   3.178   3.085   8.169 -0.3130 -0.0248 -0.1232
 4763SOL    HW125748   3.117   3.021   8.203  1.5294 -1.1179  1.1064
 4763SOL    HW225749   3.258   3.065   8.217  0.8277  0.1856 -1.9248
 4764SOL     OW25750   1.665   4.094   1.975 -0.9514  0.6726 -0.6293
 4764SOL    HW125751   1.690   4.173   1.927  0.7079  0.9950  0.7489
 4764SOL    HW225752   1.579   4.126   2.001 -0.4929  1.7194 -0.3888
 4765SOL     OW25753   3.566   2.649   4.537  0.2201 -0.1708 -0.3865
 4765SOL    HW125754   3.588   2.567   4.493  0.5424 -1.4981  2.2613
 4765SOL    HW225755   3.539   2.616   4.622 -1.3652 -0.2896 -0.9452
 4766SOL     OW25756   0.321   1.997   0.484  0.0243 -0.0093  0.3770
 4766SOL    HW125757   0.361   2.022   0.568  2.8647 -1.2163 -0.5933
 4766SOL    HW225758   0.342   2.068   0.423 -2.0309  0.2189 -0.0535
 4767SOL     OW25759   1.182   1.758   5.825  0.4261  0.1807 -0.2860
 4767SOL    HW125760   1.187   1.675   5.872 -2.6509 -0.4487 -1.0685
 4767SOL    HW225761   1.216   1.822   5.887 -1.3299  0.0062  0.8579
 4768SOL     OW25762   0.023   3.211  14.334 -0.4425 -0.3264 -0.1213
 4768SOL    HW125763   0.010   3.278  14.267  1.6079  2.1243  1.9671
 4768SOL    HW225764   0.082   3.255  14.395 -0.3172  0.0794 -0.5341
 4769SOL     OW25765   0.710   1.385   8.120  0.0345 -0.2236 -0.1277
 4769SOL    HW125766   0.743   1.394   8.031 -0.7872  1.4986 -0.2579
 4769SOL    HW225767   0.622   1.349   8.108 -0.6763  1.2030  0.8693
 4770SOL     OW25768   2.095   3.309   4.102  0.9642 -0.1353  0.4272
 4770SOL    HW125769   2.006   3.304   4.067  0.0127 -0.4967  2.8707
 4770SOL    HW225770   2.148   3.332   4.026 -0.9266  1.7181 -0.3289
 4771SOL     OW25771   2.082   3.078   4.423 -0.2426 -0.3830  0.2550
 4771SOL    HW125772   1.994   3.103   4.449 -0.1547  1.4569 -1.1452
 4771SOL    HW225773   2.118   3.075   4.511 -1.0344 -1.4224  0.5410
 4772SOL     OW25774   0.692   4.082  10.628 -0.4083  0.2234 -0.4482
 4772SOL    HW125775   0.719   3.998  10.666  0.6047 -0.0680 -1.8071
 4772SOL    HW225776   0.730   4.147  10.687  0.1474  0.2702 -0.8609
 4773SOL     OW25777   1.155   2.670  17.215 -0.4099  0.2425 -0.6043
 4773SOL    HW125778   1.063   2.642  17.215 -0.4759  0.4984 -2.4492
 4773SOL    HW225779   1.190   2.605  17.276 -1.6525 -1.5610 -1.8312
 4774SOL     OW25780   3.132   0.096  14.928 -0.6315 -0.2379 -0.1199
 4774SOL    HW125781   3.178   0.039  14.990 -1.4268  0.3900  1.0299
 4774SOL    HW225782   3.120   0.179  14.974  1.1964 -0.2145  0.3070
 4775SOL     OW25783   3.679   3.413   6.202 -0.1148 -0.4506 -0.0361
 4775SOL    HW125784   3.657   3.402   6.294 -0.1859  3.2309  0.3864
 4775SOL    HW225785   3.742   3.484   6.207 -1.6503  1.1261 -3.0089
 4776SOL     OW25786   2.058   2.389   1.119  0.2965 -0.1844 -0.1414
 4776SOL    HW125787   2.028   2.392   1.028  0.0381  1.4761 -0.0030
 4776SOL    HW225788   2.085   2.297   1.117  4.3303  0.9367  4.1254
 4777SOL     OW25789   0.206   4.291   8.896 -0.2431  0.1186  0.1614
 4777SOL    HW125790   0.134   4.348   8.869 -1.1908 -1.5454 -0.8031
 4777SOL    HW225791   0.254   4.347   8.958 -0.1339  0.2701 -0.0612
 4778SOL     OW25792   0.216   4.425   5.007 -0.4047 -0.5033 -0.0832
 4778SOL    HW125793   0.304   4.446   4.975 -0.7134  0.0280 -0.5775
 4778SOL    HW225794   0.241   4.378   5.087  2.1343  0.4571 -0.3307
 4779SOL     OW25795   2.230   3.367   7.383 -0.3850 -0.8091  0.0214
 4779SOL    HW125796   2.199   3.328   7.302 -1.5652  0.9875 -0.3885
 4779SOL    HW225797   2.324   3.349   7.372 -0.5776 -2.2012  0.7086
 4780SOL     OW25798   0.953   1.031   4.149  0.0198 -0.0377 -0.3865
 4780SOL    HW125799   1.010   0.965   4.188  0.5052  0.4950 -0.1991
 4780SOL    HW225800   0.952   1.083   4.229  3.4367 -0.2354 -0.2303
 4781SOL     OW25801   1.972   3.797   2.868  0.2562  0.4237  0.5492
 4781SOL    HW125802   1.904   3.734   2.846  1.4211 -0.9675  0.9042
 4781SOL    HW225803   1.924   3.878   2.851  1.6321  1.0528 -0.4111
 4782SOL     OW25804   0.605   4.502   4.368  0.2437 -0.0575  0.4509
 4782SOL    HW125805   0.681   4.476   4.420  0.2722  1.5667  1.2263
 4782SOL    HW225806   0.628   4.480   4.278  1.6093  2.0992  0.2802
 4783SOL     OW25807   2.589   4.136   7.810  0.2999 -0.1451 -0.2004
 4783SOL    HW125808   2.647   4.069   7.846  1.1940 -0.7770 -2.8220
 4783SOL    HW225809   2.646   4.212   7.825 -0.5040  0.7216 -1.5599
 4784SOL     OW25810   2.415   0.558   4.799  0.4659 -0.0835 -0.1764
 4784SOL    HW125811   2.434   0.466   4.819 -0.2266  0.0555  1.1842
 4784SOL    HW225812   2.505   0.581   4.824  0.9703 -0.1459 -1.9385
 4785SOL     OW25813   0.567   3.636  11.923  0.2216  0.1844 -0.1995
 4785SOL    HW125814   0.647   3.587  11.941  0.7554 -0.1112 -3.2487
 4785SOL    HW225815   0.508   3.566  11.894 -0.9975  0.4634  1.6280
 4786SOL     OW25816   2.861   4.593   1.130  0.3693  0.2698  0.1318
 4786SOL    HW125817   2.818   4.621   1.049  0.6823  2.0127  0.5691
 4786SOL    HW225818   2.938   4.649   1.116  0.8668 -0.1299  1.2750
 4787SOL     OW25819   1.954   2.021  11.260  0.0764  0.3946  0.7115
 4787SOL    HW125820   1.926   2.099  11.211  1.7159 -0.3975 -1.5052
 4787SOL    HW225821   2.046   2.034  11.240 -0.7526  2.3794 -1.9708
 4788SOL     OW25822   3.973   0.523   2.858  0.2637 -0.4334 -0.0319
 4788SOL    HW125823   4.008   0.493   2.942  0.6944 -1.9173 -0.7561
 4788SOL    HW225824   4.036   0.594   2.842 -2.0648  1.2153 -1.8964
 4789SOL     OW25825   0.348   1.225  10.975 -0.2062  0.3208  0.0133
 4789SOL    HW125826   0.295   1.145  10.974 -0.6378  0.6179 -2.1002
 4789SOL    HW225827   0.278   1.281  11.010  0.2618  0.4072  0.7926
 4790SOL     OW25828   0.324   3.880   6.556  0.1453 -0.1391 -0.0571
 4790SOL    HW125829   0.236   3.882   6.519  0.9156 -2.5002 -2.0063
 4790SOL    HW225830   0.346   3.966   6.521 -0.9687 -0.1701 -0.8328
 4791SOL     OW25831   2.838   2.435   8.497  0.3468  0.1514  0.5956
 4791SOL    HW125832   2.863   2.463   8.585  1.0449 -2.2848  1.1823
 4791SOL    HW225833   2.823   2.522   8.460 -3.3496  0.1675  2.1957
 4792SOL     OW25834   1.164   1.267  12.820 -0.2317 -0.5110  0.2704
 4792SOL    HW125835   1.093   1.214  12.857 -1.6769  1.7045  0.6472
 4792SOL    HW225836   1.188   1.202  12.753 -0.2502  0.7767 -0.9850
 4793SOL     OW25837   1.188   4.093   9.657 -0.3570  0.1656 -0.3358
 4793SOL    HW125838   1.196   4.101   9.561  1.5534  1.8967 -0.0560
 4793SOL    HW225839   1.270   4.140   9.673 -0.4108 -0.5769  2.0258
 4794SOL     OW25840   1.845   2.328  16.369  0.0685  0.3591 -0.6106
 4794SOL    HW125841   1.937   2.301  16.367  0.3785  1.2381  2.0243
 4794SOL    HW225842   1.803   2.242  16.372  2.9569 -0.9138  2.7877
 4795SOL     OW25843   3.239   2.827   6.031  0.1966  0.4422 -0.0583
 4795SOL    HW125844   3.159   2.793   5.990  0.3858  0.7379 -0.6752
 4795SOL    HW225845   3.204   2.835   6.120 -0.4319 -3.3411  0.0138
 4796SOL     OW25846   1.613   3.910   6.882  0.5143 -0.2312 -0.6219
 4796SOL    HW125847   1.541   3.926   6.943  0.4585  0.4053 -0.8515
 4796SOL    HW225848   1.684   3.958   6.924  0.1186  0.6075 -0.9008
 4797SOL     OW25849   1.219   4.278   6.390  0.0971  0.2477 -0.0425
 4797SOL    HW125850   1.219   4.273   6.294  1.9343  0.9015 -0.0910
 4797SOL    HW225851   1.313   4.271   6.408  0.4532 -0.6516 -2.2749
 4798SOL     OW25852   0.744   0.137   5.361 -0.2758  0.2626  0.0565
 4798SOL    HW125853   0.680   0.116   5.430  1.6614 -1.2691  1.3852
 4798SOL    HW225854   0.812   0.178   5.414  0.8482 -0.2396 -1.0246
 4799SOL     OW25855   3.717   1.600   7.759  0.7530 -0.0692  0.2042
 4799SOL    HW125856   3.752   1.645   7.835  0.3838 -0.2999  0.5155
 4799SOL    HW225857   3.633   1.645   7.747  1.6695  1.8550  1.0690
 4800SOL     OW25858   2.377   4.239   8.360  0.7544 -0.4629 -0.0761
 4800SOL    HW125859   2.429   4.188   8.297  0.9777 -1.1447  0.6591
 4800SOL    HW225860   2.430   4.319   8.364 -0.0554  0.1828 -2.1481
 4801SOL     OW25861   0.607   2.325   4.287  0.0070 -0.1398  0.2826
 4801SOL    HW125862   0.701   2.311   4.278 -0.1535 -0.9379 -0.2534
 4801SOL    HW225863   0.596   2.369   4.371  0.3161 -0.6863  0.6082
 4802SOL     OW25864   1.631   1.008  16.497  0.4806 -0.0713  0.1478
 4802SOL    HW125865   1.698   0.947  16.526 -0.8226 -2.0609 -0.9367
 4802SOL    HW225866   1.681   1.089  16.503 -0.0506  0.1247  1.8400
 4803SOL     OW25867   3.341   4.519   2.605 -0.4820  0.2065 -0.0125
 4803SOL    HW125868   3.352   4.477   2.519  1.7926 -1.7920  1.2606
 4803SOL    HW225869   3.377   4.604   2.577  2.2916 -0.2420  2.1843
 4804SOL     OW25870   4.687   4.006   5.551  0.4225 -0.0700  0.1822
 4804SOL    HW125871   4.693   3.926   5.603 -2.4564 -0.0930  0.4782
 4804SOL    HW225872   4.655   3.979   5.465  1.2845  0.3219 -0.2678
 4805SOL     OW25873   3.543   2.277  11.421  0.3507 -0.1305 -0.5661
 4805SOL    HW125874   3.595   2.324  11.356  0.1063 -0.5324 -1.0478
 4805SOL    HW225875   3.582   2.190  11.430  1.4975  0.5497  1.1626
 4806SOL     OW25876   2.912   2.334   1.781 -0.5381 -0.3910  0.1818
 4806SOL    HW125877   2.888   2.397   1.848 -1.6457  0.0411 -0.6058
 4806SOL    HW225878   2.882   2.376   1.700  2.8587  1.0044 -0.3657
 4807SOL     OW25879   3.293   0.450   8.146 -0.4617 -0.3078  0.0012
 4807SOL    HW125880   3.277   0.355   8.141  0.0830 -0.4051  0.0932
 4807SOL    HW225881   3.364   0.464   8.084  2.0803 -0.5841  2.7949
 4808SOL     OW25882   3.569   1.017   2.531 -0.0052 -0.4959 -0.3340
 4808SOL    HW125883   3.632   1.015   2.603 -1.5801  0.5048  1.0798
 4808SOL    HW225884   3.490   1.047   2.577  0.1824  0.4957 -0.6785
 4809SOL     OW25885   0.186   0.109   2.968  0.1531 -0.0515  1.0612
 4809SOL    HW125886   0.137   0.028   2.955 -2.0084  1.7305 -1.9478
 4809SOL    HW225887   0.164   0.135   3.058  2.2064 -1.4067  1.9340
 4810SOL     OW25888   4.172   2.899  12.434 -0.0500 -0.5833 -0.1113
 4810SOL    HW125889   4.253   2.849  12.446 -1.2763 -2.0731  1.9236
 4810SOL    HW225890   4.205   2.985  12.459  1.4148 -0.0096 -4.0908
 4811SOL     OW25891   3.812   2.307   1.499  0.0751 -0.4092  0.4388
 4811SOL    HW125892   3.764   2.272   1.424  0.4380  1.2533 -0.5650
 4811SOL    HW225893   3.852   2.228   1.537  0.7526 -0.1980  0.1582
 4812SOL     OW25894   2.735   3.454   0.699  0.5228  0.7202 -0.5924
 4812SOL    HW125895   2.788   3.378   0.722  1.8927  1.8036 -0.0931
 4812SOL    HW225896   2.645   3.422   0.707  0.1224  1.8603 -0.4059
 4813SOL     OW25897   0.469   3.082   8.998 -0.0947 -0.1550 -0.2941
 4813SOL    HW125898   0.548   3.135   9.007  0.1918 -1.0198  2.2866
 4813SOL    HW225899   0.502   3.000   8.960  1.6462  1.1007 -1.5299
 4814SOL     OW25900   3.608   1.404   0.377  0.2710 -0.2531  0.4868
 4814SOL    HW125901   3.633   1.481   0.327 -0.0045 -1.0079 -0.8044
 4814SOL    HW225902   3.659   1.334   0.338  0.8911 -0.3892  1.5468
 4815SOL     OW25903   3.965   3.231   6.651 -0.1207  0.0331  0.5949
 4815SOL    HW125904   3.977   3.208   6.744 -0.2807 -1.6675  0.1944
 4815SOL    HW225905   4.054   3.250   6.624 -0.5339 -0.8664 -1.3836
 4816SOL     OW25906   2.359   0.212   5.730 -0.0119  0.0950 -0.3250
 4816SOL    HW125907   2.448   0.191   5.703  0.5829 -0.4136  2.0031
 4816SOL    HW225908   2.311   0.173   5.657 -0.0464  1.0055 -0.7843
 4817SOL     OW25909   4.011   3.332   6.221 -0.1718 -0.0007  0.4513
 4817SOL    HW125910   3.957   3.263   6.182  0.1054  0.2308 -0.3247
 4817SOL    HW225911   4.040   3.383   6.146 -1.7550 -0.2306 -0.3171
 4818SOL     OW25912   2.169   0.273   8.333 -0.2243  0.1789 -0.4793
 4818SOL    HW125913   2.086   0.308   8.303 -1.7134 -1.9053  1.2374
 4818SOL    HW225914   2.212   0.349   8.374 -2.3834  0.6662  0.8803
 4819SOL     OW25915   4.451   1.815  17.186  0.0915 -0.4088 -0.2291
 4819SOL    HW125916   4.455   1.899  17.140  0.9334  0.8911  2.2201
 4819SOL    HW225917   4.364   1.778  17.172 -0.1058 -1.0511  2.7225
 4820SOL     OW25918   0.017   0.290   4.980  0.5091 -0.1314  0.2561
 4820SOL    HW125919   0.073   0.227   5.025 -0.5797 -0.5394  1.0466
 4820SOL    HW225920   0.015   0.351   5.053  2.2313 -1.1962  1.1985
 4821SOL     OW25921   3.298   4.547   0.106  0.0634 -0.4158 -0.9127
 4821SOL    HW125922   3.344   4.471   0.071 -1.2289 -1.5318 -0.1877
 4821SOL    HW225923   3.338   4.556   0.192 -0.3365 -0.2150 -0.7440
 4822SOL     OW25924   4.687   0.184   8.212 -0.1210  0.5385 -0.5691
 4822SOL    HW125925   0.020   0.251   8.252 -3.7236  2.7774  0.7624
 4822SOL    HW225926   4.603   0.228   8.226 -0.3168  0.2156 -0.7297
 4823SOL     OW25927   3.341   4.423  16.289 -0.5521  0.1323  0.0654
 4823SOL    HW125928   3.345   4.510  16.248 -0.7076  0.2568  0.3098
 4823SOL    HW225929   3.249   4.431  16.315 -0.9776  0.5332 -1.5157
 4824SOL     OW25930   4.497   3.682   8.546  0.1557  0.3862  0.6106
 4824SOL    HW125931   4.561   3.753   8.542  1.5978 -1.0689 -2.0378
 4824SOL    HW225932   4.449   3.712   8.623  1.2558 -0.2238  1.5427
 4825SOL     OW25933   2.803   2.076   2.072  0.5237 -0.1147  0.4684
 4825SOL    HW125934   2.835   2.058   1.984 -2.0300 -1.4235 -0.2081
 4825SOL    HW225935   2.734   2.010   2.060  0.9348 -0.5709  0.6043
 4826SOL     OW25936   1.029   3.701   0.526 -0.0518 -0.1931  0.2491
 4826SOL    HW125937   0.935   3.720   0.530 -0.1756 -1.1134  1.8456
 4826SOL    HW225938   1.027   3.612   0.560 -1.7615 -0.1982  0.1609
 4827SOL     OW25939   0.332   3.462  11.493  0.1332  0.0326  0.3863
 4827SOL    HW125940   0.308   3.456  11.400  1.9100 -1.1240  0.0086
 4827SOL    HW225941   0.427   3.466  11.481  0.4868 -2.4095  2.4914
 4828SOL     OW25942   4.171   1.403   6.404 -0.4529  1.0090  0.5189
 4828SOL    HW125943   4.161   1.378   6.495  0.0630  0.9108  0.5487
 4828SOL    HW225944   4.259   1.369   6.385 -0.2321  1.9703 -0.1862
 4829SOL     OW25945   0.513   1.914  13.927  0.1357 -0.0366 -0.1576
 4829SOL    HW125946   0.552   1.961  13.854 -0.9969  0.3299 -0.5324
 4829SOL    HW225947   0.590   1.884  13.976 -0.7006 -1.4416  0.3233
 4830SOL     OW25948   1.040   1.230   5.077 -0.0323  0.2053 -0.0077
 4830SOL    HW125949   0.956   1.197   5.110  0.3530  0.7791  1.5717
 4830SOL    HW225950   1.094   1.151   5.079 -1.0946 -0.5576 -1.1408
 4831SOL     OW25951   2.420   2.236  11.020  0.6408  0.6124  0.0727
 4831SOL    HW125952   2.475   2.205  11.092  1.0286  1.6004  0.1974
 4831SOL    HW225953   2.345   2.264  11.073 -0.5467 -1.1544 -0.6817
 4832SOL     OW25954   0.738   4.490   2.537 -0.9689 -0.3198 -0.2121
 4832SOL    HW125955   0.762   4.522   2.624  1.8879  0.8966 -1.4292
 4832SOL    HW225956   0.648   4.520   2.532 -0.3519  1.6441  0.6598
 4833SOL     OW25957   2.340   0.942   8.953 -0.4820 -0.2124 -0.3941
 4833SOL    HW125958   2.421   0.948   8.902  0.5301 -1.5684  1.0576
 4833SOL    HW225959   2.371   0.930   9.043  0.5500 -0.4895 -0.7880
 4834SOL     OW25960   1.300   2.226   7.713 -0.1234 -0.1645  0.3810
 4834SOL    HW125961   1.352   2.250   7.790  0.1227 -0.3753  0.2765
 4834SOL    HW225962   1.262   2.311   7.689 -1.3454  0.2033  3.5214
 4835SOL     OW25963   2.129   3.155   7.541 -0.3287 -0.8602  0.0300
 4835SOL    HW125964   2.147   3.227   7.481 -0.4818 -1.3434 -0.5936
 4835SOL    HW225965   2.183   3.172   7.618 -1.3168  0.6471  0.3846
 4836SOL     OW25966   2.910   1.978   9.917 -0.4011  0.3848 -0.0794
 4836SOL    HW125967   2.822   1.942   9.927 -0.4435  0.8088  1.0876
 4836SOL    HW225968   2.967   1.905   9.895 -1.1348 -0.2853  0.2579
 4837SOL     OW25969   3.799   0.165   4.357 -0.0807  0.4467 -0.1784
 4837SOL    HW125970   3.707   0.168   4.329 -0.5421 -0.2388  1.2342
 4837SOL    HW225971   3.812   0.248   4.404 -0.3576 -0.7787  2.0707
 4838SOL     OW25972   0.462   2.239   2.110 -0.1349 -0.5233  0.1734
 4838SOL    HW125973   0.505   2.270   2.030 -0.3720 -1.3575 -0.2756
 4838SOL    HW225974   0.378   2.208   2.075 -0.2970  1.2832 -1.0599
 4839SOL     OW25975   0.865   2.731   6.756 -0.2816  0.3165  0.5728
 4839SOL    HW125976   0.826   2.785   6.687  1.3047  1.3546  0.4746
 4839SOL    HW225977   0.932   2.790   6.792  0.6364 -1.2503  1.4237
 4840SOL     OW25978   3.821   1.072  11.017 -0.4277 -0.8859  0.0360
 4840SOL    HW125979   3.877   1.137  10.975  3.0868 -3.8373  0.1829
 4840SOL    HW225980   3.813   1.106  11.106  0.9729  0.2151 -0.2571
 4841SOL     OW25981   3.094   4.130   4.390  0.0390  0.2420 -0.6247
 4841SOL    HW125982   3.039   4.155   4.463  0.2585  3.8124 -1.6872
 4841SOL    HW225983   3.185   4.158   4.401  0.4539 -0.8474 -1.2692
 4842SOL     OW25984   1.480   4.391   4.247  0.5793 -0.3141 -0.1753
 4842SOL    HW125985   1.397   4.402   4.292 -0.0538  2.6896 -2.0781
 4842SOL    HW225986   1.453   4.360   4.160  1.3389 -0.9614 -0.1832
 4843SOL     OW25987   1.671   2.657   2.319  0.1706  0.2162 -0.1742
 4843SOL    HW125988   1.620   2.613   2.388  0.5618  0.6121  0.3672
 4843SOL    HW225989   1.761   2.628   2.337  0.3575  1.4785  0.9034
 4844SOL     OW25990   4.098   2.729   2.361 -0.1582  1.0606  0.2636
 4844SOL    HW125991   4.189   2.735   2.329 -0.0628  1.7565  0.6844
 4844SOL    HW225992   4.053   2.709   2.279  0.2054  0.6897  0.1524
 4845SOL     OW25993   1.719   0.661   7.744 -0.1306 -0.3604 -0.1031
 4845SOL    HW125994   1.762   0.643   7.660  1.0996 -1.3670  0.7360
 4845SOL    HW225995   1.638   0.706   7.719  0.5579  1.5423  1.1069
 4846SOL     OW25996   2.244   0.976   2.852  0.6993  0.5726 -0.1408
 4846SOL    HW125997   2.155   1.003   2.877  0.2221 -0.4185 -0.7299
 4846SOL    HW225998   2.295   1.020   2.920 -0.4063  3.6740 -1.3470
 4847SOL     OW25999   1.814   0.331  17.014 -0.3462 -0.1039 -0.3077
 4847SOL    HW126000   1.735   0.302  16.968  1.0908 -1.5880 -1.8606
 4847SOL    HW226001   1.783   0.350  17.102  0.5488  1.1630 -0.2588
 4848SOL     OW26002   2.547   2.988   7.176 -0.0123  0.2782 -0.2053
 4848SOL    HW126003   2.540   3.034   7.260 -1.6397 -0.5506  0.1042
 4848SOL    HW226004   2.636   3.022   7.162  1.3292 -1.7334  3.4094
 4849SOL     OW26005   2.978   1.896   1.635  0.4815 -0.1341 -0.9190
 4849SOL    HW126006   2.988   1.899   1.539 -1.9271 -0.3794 -1.1679
 4849SOL    HW226007   2.968   1.805   1.661  3.0707 -0.3352 -0.5768
 4850SOL     OW26008   2.951   0.087  13.488  0.4301 -0.9924  0.0153
 4850SOL    HW126009   3.006   0.052  13.558  1.4509 -3.3534 -1.9545
 4850SOL    HW226010   2.905   0.004  13.474  2.1868 -2.1108  0.7847
 4851SOL     OW26011   0.519   1.579  13.463 -0.0121  0.2879  0.4368
 4851SOL    HW126012   0.464   1.651  13.493 -1.8626 -2.0001  2.4521
 4851SOL    HW226013   0.476   1.510  13.514 -0.9017  0.1858 -0.4378
 4852SOL     OW26014   2.998   1.565   2.881  0.1414  0.3606 -0.4264
 4852SOL    HW126015   2.911   1.533   2.860  0.5647 -0.2868 -1.1826
 4852SOL    HW226016   2.973   1.648   2.922  1.5105  0.3715  0.3910
 4853SOL     OW26017   1.826   3.297   0.233 -0.4646  0.4272  0.0769
 4853SOL    HW126018   1.909   3.261   0.264  0.1863 -1.3880 -3.6560
 4853SOL    HW226019   1.807   3.358   0.303  0.0583  0.2112  0.4060
 4854SOL     OW26020   4.075   0.717   8.579 -0.5723  0.4025  0.2701
 4854SOL    HW126021   4.167   0.742   8.586 -0.5812  0.2041  1.1614
 4854SOL    HW226022   4.080   0.621   8.583 -1.7451  0.3921  1.3108
 4855SOL     OW26023   3.695   2.236  14.540 -0.5502 -0.5524  0.3699
 4855SOL    HW126024   3.606   2.260  14.567 -0.5236  2.4580 -2.3055
 4855SOL    HW226025   3.673   2.188  14.460  0.2808  0.3925 -0.4303
 4856SOL     OW26026   3.764   2.646  17.380 -0.7977 -0.0369 -0.1080
 4856SOL    HW126027   3.710   2.615  17.308 -1.7118 -0.1496  0.6319
 4856SOL    HW226028   3.815   2.710  17.330  1.0067 -0.4391  1.1909
 4857SOL     OW26029   0.963   3.221   6.145 -0.1383 -0.0718  0.2131
 4857SOL    HW126030   0.900   3.174   6.091  0.3758  0.3572 -0.7618
 4857SOL    HW226031   0.983   3.308   6.109 -0.7142 -0.0261  0.0151
 4858SOL     OW26032   2.470   0.057  16.265 -0.5702  0.0173 -0.0262
 4858SOL    HW126033   2.503   0.014  16.344  0.4508 -1.3001 -1.1934
 4858SOL    HW226034   2.521   0.138  16.256  1.4628 -1.4159 -1.1336
 4859SOL     OW26035   3.418   0.212  16.615  0.2724  0.2589  0.4118
 4859SOL    HW126036   3.366   0.132  16.603  0.0329  0.7433 -1.8192
 4859SOL    HW226037   3.465   0.185  16.694  0.0430 -0.7555  0.2097
 4860SOL     OW26038   1.324   1.076   7.901 -0.0734 -0.2586  0.0435
 4860SOL    HW126039   1.390   1.008   7.891  0.5268  0.0069  2.0864
 4860SOL    HW226040   1.361   1.145   7.846 -1.3290  2.5647  2.7264
 4861SOL     OW26041   2.921   3.415   3.727 -0.1635  0.1305 -0.4725
 4861SOL    HW126042   2.938   3.321   3.732 -1.8344 -0.2260 -1.5456
 4861SOL    HW226043   2.825   3.422   3.727 -0.4003 -3.3525  0.3089
 4862SOL     OW26044   1.005   2.215   3.089  0.2457 -0.0082 -0.4796
 4862SOL    HW126045   0.960   2.300   3.088 -0.5080 -0.4062 -0.3346
 4862SOL    HW226046   1.071   2.237   3.155  0.4715  2.1633 -1.4135
 4863SOL     OW26047   0.307   0.624   3.381  0.7069 -0.3164 -0.0265
 4863SOL    HW126048   0.390   0.627   3.335  0.3317  1.1318 -0.6294
 4863SOL    HW226049   0.340   0.639   3.470  0.7449  0.8893 -0.2436
 4864SOL     OW26050   0.428   3.379  14.234  0.0689 -0.1757  0.6368
 4864SOL    HW126051   0.335   3.396  14.219  0.5411  0.1740 -1.9827
 4864SOL    HW226052   0.435   3.398  14.328  1.8013 -0.9612  0.6785
 4865SOL     OW26053   3.170   0.514   0.519  0.1041 -0.0495  0.6361
 4865SOL    HW126054   3.229   0.452   0.477 -0.8430 -1.5054  1.4441
 4865SOL    HW226055   3.130   0.447   0.575  1.0968 -1.7087 -0.6467
 4866SOL     OW26056   3.995   3.520   3.402  0.3674 -0.0631 -0.1820
 4866SOL    HW126057   3.946   3.540   3.322  0.2777  0.1246 -0.0804
 4866SOL    HW226058   4.082   3.505   3.365 -0.3402  0.1187 -1.9359
 4867SOL     OW26059   1.887   3.103   7.642  0.5881  0.1430 -0.0051
 4867SOL    HW126060   1.849   3.188   7.619 -1.3197  0.2891  3.5829
 4867SOL    HW226061   1.975   3.128   7.614  1.1793 -0.1966  1.5258
 4868SOL     OW26062   3.567   2.224  10.110  0.1247 -0.0843 -0.3235
 4868SOL    HW126063   3.573   2.198  10.201  2.7177  0.9146 -0.2208
 4868SOL    HW226064   3.475   2.247  10.095 -0.4594 -2.3651 -0.3337
 4869SOL     OW26065   0.003   3.236   4.562 -0.3097 -0.3862 -0.0778
 4869SOL    HW126066   4.654   3.174   4.573 -0.1829 -0.0904  2.3633
 4869SOL    HW226067   4.686   3.317   4.532  1.3134 -0.2299 -1.7871
 4870SOL     OW26068   4.197   3.715   4.364 -0.4706  0.3212 -0.4536
 4870SOL    HW126069   4.211   3.757   4.279  0.2993 -0.9975 -0.9820
 4870SOL    HW226070   4.208   3.788   4.424  1.5265 -0.9391  0.7002
 4871SOL     OW26071   3.088   3.791   3.770 -0.4705  0.0519 -0.2264
 4871SOL    HW126072   3.108   3.879   3.739 -1.4854 -0.2774 -1.7996
 4871SOL    HW226073   3.014   3.765   3.714 -0.7596  1.5328 -0.5277
 4872SOL     OW26074   1.125   2.520   5.236  0.6721  0.1732  0.3758
 4872SOL    HW126075   1.031   2.535   5.234  0.7753  0.8538  0.7721
 4872SOL    HW226076   1.120   2.443   5.291 -3.3501  0.8348  0.9339
 4873SOL     OW26077   2.137   1.845   0.164 -0.4807  0.1163  0.2623
 4873SOL    HW126078   2.199   1.813   0.098 -0.0299  0.1935  0.6469
 4873SOL    HW226079   2.176   1.814   0.246  1.4942 -0.3185 -0.8281
 4874SOL     OW26080   4.021   2.277   8.930 -0.4349  0.1878 -0.3692
 4874SOL    HW126081   4.101   2.291   8.981 -0.2177 -2.3571  0.0086
 4874SOL    HW226082   4.007   2.183   8.944 -2.1640  0.4416 -0.4906
 4875SOL     OW26083   2.205   4.668  15.495 -0.4331  0.0849 -0.6559
 4875SOL    HW126084   2.249   4.655  15.579 -2.5873 -1.0739  0.2875
 4875SOL    HW226085   2.174   0.036  15.494 -1.8214 -0.3671  1.9209
 4876SOL     OW26086   1.031   1.789   7.362 -0.4804  0.2589  0.1624
 4876SOL    HW126087   1.085   1.798   7.441 -1.7533  0.3800  1.0172
 4876SOL    HW226088   1.098   1.799   7.294 -1.6525  2.1403 -0.7274
 4877SOL     OW26089   3.249   2.557   8.747  0.2632  0.4470  0.2260
 4877SOL    HW126090   3.157   2.534   8.762  0.1937  0.2896 -0.4222
 4877SOL    HW226091   3.241   2.652   8.741 -1.9466  0.0882 -2.4346
 4878SOL     OW26092   1.275   0.620  11.435 -0.2858  0.4752  0.3267
 4878SOL    HW126093   1.233   0.696  11.394 -2.0746 -1.4014 -1.2656
 4878SOL    HW226094   1.363   0.657  11.444  0.9926 -2.1182 -1.5416
 4879SOL     OW26095   3.004   2.409  15.510 -0.3584 -0.3865 -0.4699
 4879SOL    HW126096   3.007   2.504  15.516  2.2196 -0.4545 -0.4575
 4879SOL    HW226097   3.073   2.371  15.565  0.1026  0.5149 -0.4386
 4880SOL     OW26098   0.098   3.465   5.986  0.2389  0.1483  0.1427
 4880SOL    HW126099   0.141   3.401   6.044 -0.2042  2.4619  2.9977
 4880SOL    HW226100   0.168   3.480   5.923 -0.2954  1.3583 -0.1500
 4881SOL     OW26101   2.250   1.871  16.429  0.2178 -0.2717  0.1962
 4881SOL    HW126102   2.313   1.928  16.473  1.3469 -0.4756 -1.1712
 4881SOL    HW226103   2.238   1.800  16.492 -3.0724 -1.3896 -1.6837
 4882SOL     OW26104   3.743   2.256   7.218 -0.3428 -0.1339 -0.3102
 4882SOL    HW126105   3.779   2.317   7.282 -1.6496  0.8263 -0.4673
 4882SOL    HW226106   3.675   2.203   7.260 -1.7985  1.2256 -0.9300
 4883SOL     OW26107   2.240   1.731   5.849  0.3591 -0.1589 -0.9765
 4883SOL    HW126108   2.330   1.753   5.871 -0.7614  1.2430  2.3218
 4883SOL    HW226109   2.192   1.784   5.913  1.8627 -1.5216  1.2603
 4884SOL     OW26110   0.259   0.890   4.035  0.1045 -0.7986 -0.8072
 4884SOL    HW126111   0.237   0.936   4.116 -0.1504 -0.8444 -0.8515
 4884SOL    HW226112   0.352   0.913   4.034  0.0851 -0.7635 -2.0631
 4885SOL     OW26113   1.585   3.185   5.053 -0.1105 -0.3651 -0.2317
 4885SOL    HW126114   1.618   3.103   5.091  1.6276  0.2467 -0.4197
 4885SOL    HW226115   1.641   3.199   4.977  2.4395 -1.1488  1.4968
 4886SOL     OW26116   2.458   2.731   7.231  0.5979 -0.3780 -0.7284
 4886SOL    HW126117   2.508   2.812   7.223  2.4425 -1.5968 -1.6877
 4886SOL    HW226118   2.380   2.776   7.197  1.5151  1.2616 -0.6668
 4887SOL     OW26119   2.739   3.870  13.894  0.2288  0.3020 -0.0650
 4887SOL    HW126120   2.807   3.858  13.827 -0.6833  1.1118 -1.1422
 4887SOL    HW226121   2.783   3.933  13.952 -3.3821  1.2022  1.6608
 4888SOL     OW26122   2.498   2.035   6.041 -0.1038 -0.2629 -0.5864
 4888SOL    HW126123   2.530   2.001   6.124 -0.4880  0.4250 -0.1632
 4888SOL    HW226124   2.525   1.957   5.991 -1.2624 -1.3605  0.5170
 4889SOL     OW26125   1.158   0.308   2.685  0.2793 -0.1474  0.2785
 4889SOL    HW126126   1.183   0.401   2.686  1.5824 -0.4835 -0.2359
 4889SOL    HW226127   1.146   0.292   2.778  1.5949  1.8287  0.7911
 4890SOL     OW26128   2.597   3.309  10.925 -0.0862  0.0036 -0.4234
 4890SOL    HW126129   2.505   3.313  10.899  0.0128  0.7398 -0.6603
 4890SOL    HW226130   2.591   3.219  10.956  0.5053 -0.0455 -0.4514
 4891SOL     OW26131   3.094   0.433  10.290 -0.2011  0.0126  0.0489
 4891SOL    HW126132   3.185   0.430  10.322  0.4194 -0.1851 -1.7595
 4891SOL    HW226133   3.068   0.522  10.317  0.6129 -0.2543  1.7614
 4892SOL     OW26134   4.172   3.717  14.850 -0.9695  0.4543  0.7697
 4892SOL    HW126135   4.267   3.723  14.853 -0.9818  1.2059 -0.3487
 4892SOL    HW226136   4.169   3.812  14.835 -1.6021  0.4392  0.7879
 4893SOL     OW26137   0.102   2.779   4.763 -0.1578 -0.4232 -0.4025
 4893SOL    HW126138   0.058   2.717   4.821 -0.7021  1.2998  1.0093
 4893SOL    HW226139   0.026   2.827   4.731  0.2666  0.0356 -0.7217
 4894SOL     OW26140   0.254   0.803  16.352 -0.2596  0.1984  0.2873
 4894SOL    HW126141   0.284   0.894  16.342  0.9389 -0.3370 -0.8977
 4894SOL    HW226142   0.159   0.817  16.346  0.0804  2.0693 -0.7075
 4895SOL     OW26143   0.641   2.741   3.519  0.1479  0.2149 -0.7377
 4895SOL    HW126144   0.682   2.708   3.599  0.6349 -0.7923 -1.4075
 4895SOL    HW226145   0.599   2.824   3.542  1.9731  0.7417  0.7047
 4896SOL     OW26146   1.209   3.962   4.036  0.1356  0.2092  0.3121
 4896SOL    HW126147   1.228   3.979   3.944  0.0687 -1.0827  0.0644
 4896SOL    HW226148   1.148   4.035   4.050  1.0448  0.8795  0.8080
 4897SOL     OW26149   2.182   0.762   1.505  0.2401 -0.2784 -0.5329
 4897SOL    HW126150   2.143   0.764   1.417 -1.5729 -0.1334  0.2591
 4897SOL    HW226151   2.257   0.817   1.485  2.1061 -2.5791  0.2172
 4898SOL     OW26152   3.317   0.314   7.803 -0.3268  0.1048 -0.5347
 4898SOL    HW126153   3.370   0.361   7.867 -0.6760 -0.9934  0.5607
 4898SOL    HW226154   3.227   0.334   7.830  0.8654  1.5301  2.3653
 4899SOL     OW26155   3.649   4.133   2.384  0.2582  0.1004 -0.3581
 4899SOL    HW126156   3.667   4.186   2.306  0.7261 -0.0785 -0.3707
 4899SOL    HW226157   3.737   4.123   2.419  0.8842  2.7244 -1.1726
 4900SOL     OW26158   2.232   0.456   4.249 -0.1423 -0.0523  0.7359
 4900SOL    HW126159   2.141   0.428   4.243  0.3250 -1.9174  2.4337
 4900SOL    HW226160   2.219   0.549   4.271  1.9530  0.4383 -0.0129
 4901SOL     OW26161   3.034   2.013   2.172  0.2639 -0.5628 -0.1539
 4901SOL    HW126162   3.053   1.947   2.106  2.0750 -0.6990  0.5254
 4901SOL    HW226163   2.940   2.031   2.162  0.3017 -0.1841  0.1656
 4902SOL     OW26164   0.052   2.791   8.751 -0.1207 -0.0482  0.4722
 4902SOL    HW126165   4.696   2.769   8.703  0.5350 -2.2329  0.4232
 4902SOL    HW226166   0.026   2.828   8.836  0.1408  4.1606 -1.2680
 4903SOL     OW26167   2.439   1.515   5.596  0.5538 -0.6917  0.3677
 4903SOL    HW126168   2.476   1.430   5.576  2.6284  0.2214  0.3452
 4903SOL    HW226169   2.490   1.578   5.544 -1.4098  1.8152  1.4971
 4904SOL     OW26170   3.005   4.484   1.397  0.6041 -0.3093  0.4387
 4904SOL    HW126171   3.029   4.515   1.485  2.5967  1.1417 -0.6169
 4904SOL    HW226172   3.080   4.433   1.367  0.2313  0.4931 -1.8649
 4905SOL     OW26173   0.458   2.372  12.507 -0.1439 -0.0142 -0.2969
 4905SOL    HW126174   0.545   2.365  12.547  0.2234  1.1957 -0.8784
 4905SOL    HW226175   0.415   2.324  12.578  2.2735  0.2951  1.3592
 4906SOL     OW26176   1.623   2.985   5.247  0.6054 -0.2758 -0.4668
 4906SOL    HW126177   1.583   3.005   5.332 -0.1672  0.2038 -0.9442
 4906SOL    HW226178   1.703   2.942   5.278  0.4302 -0.9773 -0.9970
 4907SOL     OW26179   1.916   2.164   8.503  0.3161 -0.2229 -0.5981
 4907SOL    HW126180   2.001   2.157   8.460  0.2633 -0.5509 -0.6513
 4907SOL    HW226181   1.925   2.108   8.580 -0.0144  1.6990  0.8395
 4908SOL     OW26182   4.698   3.877   3.678 -0.0133  0.4229 -0.3352
 4908SOL    HW126183   4.626   3.937   3.659 -1.4592 -1.3975 -0.7403
 4908SOL    HW226184   4.683   3.805   3.616 -0.1931  0.4128 -0.2823
 4909SOL     OW26185   3.582   3.865   7.566 -0.1761 -0.0269 -0.1114
 4909SOL    HW126186   3.656   3.825   7.612 -1.5021  0.6842  2.6038
 4909SOL    HW226187   3.524   3.909   7.627  0.1234  0.0901  0.0898
 4910SOL     OW26188   2.814   2.324   7.184  0.3430 -0.2653  0.1822
 4910SOL    HW126189   2.725   2.359   7.184  2.2657  4.5449  1.0706
 4910SOL    HW226190   2.837   2.365   7.267  0.1247  1.4609 -0.6118
 4911SOL     OW26191   0.865   2.576   2.339 -0.3609 -0.3453  0.3141
 4911SOL    HW126192   0.867   2.565   2.244 -1.8098 -0.0486  0.2487
 4911SOL    HW226193   0.942   2.521   2.353 -0.5614 -1.3985 -2.7551
 4912SOL     OW26194   0.236   2.837   1.474  0.0235  0.0417 -0.4931
 4912SOL    HW126195   0.228   2.925   1.512 -1.8814 -0.1950 -0.3085
 4912SOL    HW226196   0.306   2.797   1.525  0.6810  2.1654  0.3026
 4913SOL     OW26197   2.497   1.443  10.451 -0.4830  0.1721  0.0880
 4913SOL    HW126198   2.435   1.400  10.392 -0.0199  0.1757 -0.4062
 4913SOL    HW226199   2.482   1.393  10.531 -0.8654  0.0552 -0.0566
 4914SOL     OW26200   3.167   3.989   7.861  0.1835  0.5872  0.0239
 4914SOL    HW126201   3.094   3.994   7.799  0.1666  2.5326  0.1979
 4914SOL    HW226202   3.148   3.909   7.909  0.1679 -0.5124 -1.8236
 4915SOL     OW26203   3.826   0.836   4.126 -0.4025 -0.5402  0.0539
 4915SOL    HW126204   3.849   0.829   4.219 -0.3215  2.8850  0.2906
 4915SOL    HW226205   3.884   0.770   4.089 -1.4806 -2.9723  2.6658
 4916SOL     OW26206   2.554   1.356   7.241 -0.7352  0.2808 -0.1522
 4916SOL    HW126207   2.483   1.379   7.301 -0.3185  0.7538  0.1555
 4916SOL    HW226208   2.629   1.389   7.291 -0.4471 -0.1734 -0.2804
 4917SOL     OW26209   4.001   3.528   6.433  0.7974  0.2707  0.3204
 4917SOL    HW126210   4.085   3.523   6.479  0.8771 -1.5466 -0.0269
 4917SOL    HW226211   4.014   3.449   6.380  2.9578  2.0198 -1.7528
 4918SOL     OW26212   0.563   1.054  13.152  0.0644 -1.2657 -0.2082
 4918SOL    HW126213   0.645   1.094  13.123 -0.9353 -1.1858 -2.9633
 4918SOL    HW226214   0.558   0.973  13.101  0.4104 -0.8070 -0.9651
 4919SOL     OW26215   3.410   0.321   3.426  0.0807 -0.3529  0.0915
 4919SOL    HW126216   3.413   0.396   3.485 -0.7969 -0.2215 -0.0274
 4919SOL    HW226217   3.393   0.367   3.344 -2.2892  0.0622  0.8253
 4920SOL     OW26218   2.364   2.005   3.707  0.1197  0.0194 -0.1107
 4920SOL    HW126219   2.295   1.982   3.645 -0.3224  0.7775  0.1008
 4920SOL    HW226220   2.314   2.045   3.778 -0.0573 -2.1840  1.0158
 4921SOL     OW26221   4.357   1.411  12.894  0.3062 -0.2305 -0.1395
 4921SOL    HW126222   4.336   1.319  12.913  0.2230 -0.2481 -0.3159
 4921SOL    HW226223   4.403   1.389  12.813 -0.1539 -0.3430 -0.3696
 4922SOL     OW26224   0.311   4.614   8.870  0.3750 -0.3425 -0.8311
 4922SOL    HW126225   0.289   4.701   8.903  0.1246 -0.9845  0.6644
 4922SOL    HW226226   0.239   4.590   8.811 -1.6732  1.7863  0.7926
 4923SOL     OW26227   0.572   0.814   5.226 -0.1349 -0.1193  0.0375
 4923SOL    HW126228   0.522   0.767   5.160 -2.4951  2.6621 -0.1554
 4923SOL    HW226229   0.530   0.778   5.304  1.3437  1.0438  1.3759
 4924SOL     OW26230   2.360   0.055  14.872 -0.8208 -0.8600  0.2446
 4924SOL    HW126231   2.444   0.101  14.869 -0.0431 -2.4192 -2.0590
 4924SOL    HW226232   2.380   4.704  14.930  0.2429 -0.3400  0.5504
 4925SOL     OW26233   1.199   2.019  13.218  0.3559  0.0855 -0.1022
 4925SOL    HW126234   1.283   2.065  13.227  1.2804 -1.6461  0.1198
 4925SOL    HW226235   1.173   2.036  13.127 -0.0664  0.7293  0.1417
 4926SOL     OW26236   3.951   0.795   3.204  0.0482 -0.0928 -0.1664
 4926SOL    HW126237   4.015   0.861   3.232 -1.4992  1.7344 -0.9563
 4926SOL    HW226238   3.868   0.814   3.247  0.1672 -0.3087  0.1584
 4927SOL     OW26239   1.984   2.019   0.856  0.0199  0.8218  0.2898
 4927SOL    HW126240   1.998   1.931   0.892  0.6405  1.3635  1.3434
 4927SOL    HW226241   2.043   2.028   0.781  2.5964 -1.9218  1.9885
 4928SOL     OW26242   2.576   4.223   4.484  0.1479  0.3216  0.0096
 4928SOL    HW126243   2.644   4.163   4.452 -0.4327  1.1726 -2.8475
 4928SOL    HW226244   2.555   4.260   4.398 -0.5281  0.3789  0.2034
 4929SOL     OW26245   1.029   4.435  12.783 -0.1280 -0.1227  0.1082
 4929SOL    HW126246   0.997   4.410  12.696  2.7941  1.6731 -1.4946
 4929SOL    HW226247   1.116   4.395  12.783  1.1275  2.5975 -0.8572
 4930SOL     OW26248   2.068   3.471   3.801  0.0023  0.2680 -0.0489
 4930SOL    HW126249   1.991   3.426   3.835 -0.6438 -0.0479 -1.9201
 4930SOL    HW226250   2.135   3.403   3.812 -0.4547 -0.1555  0.1000
 4931SOL     OW26251   3.797   4.011  10.868 -0.2205  0.2069 -0.4451
 4931SOL    HW126252   3.832   4.098  10.885 -0.0483  0.2785 -1.1556
 4931SOL    HW226253   3.867   3.970  10.818  0.0964  0.6431 -0.3533
 4932SOL     OW26254   1.452   0.269   3.546  0.1129 -0.7194 -0.2281
 4932SOL    HW126255   1.514   0.342   3.547 -2.0236  1.0684 -0.2456
 4932SOL    HW226256   1.367   0.307   3.567  1.8855  2.3574  1.2720
 4933SOL     OW26257   3.159   0.929   4.773 -0.6065  0.1468  0.2599
 4933SOL    HW126258   3.114   0.895   4.696 -2.0297 -0.0470  1.1827
 4933SOL    HW226259   3.196   0.851   4.814 -2.2191 -0.1961  1.0748
 4934SOL     OW26260   0.015   0.992   0.021 -0.5809  0.0924 -0.2273
 4934SOL    HW126261   0.013   0.950   0.107  3.6260  0.9963  0.3223
 4934SOL    HW226262   0.088   0.956  17.665  0.5173  2.1629 -0.1107
 4935SOL     OW26263   0.747   2.056   6.468 -0.0815 -0.3798  0.2438
 4935SOL    HW126264   0.678   1.991   6.475  0.2000 -1.0616 -3.5762
 4935SOL    HW226265   0.698   2.126   6.425 -0.1983  0.6925  2.1193
 4936SOL     OW26266   0.700   2.131   8.155  0.2664  1.0849 -0.2361
 4936SOL    HW126267   0.770   2.070   8.178  0.3241  2.3760  3.0329
 4936SOL    HW226268   0.620   2.088   8.187  1.3493  1.9317  3.5528
 4937SOL     OW26269   2.033   4.112   1.240  0.1150  0.7500  0.7197
 4937SOL    HW126270   2.075   4.179   1.187 -2.7129  0.2710 -2.1200
 4937SOL    HW226271   2.044   4.150   1.327  0.9540 -0.1032  0.9882
 4938SOL     OW26272   0.780   4.439  11.034  0.1270  0.2454  0.1940
 4938SOL    HW126273   0.808   4.420  11.124 -0.1425  3.7146  1.0096
 4938SOL    HW226274   0.824   4.521  11.014 -0.3245  0.2640 -0.6937
 4939SOL     OW26275   0.040   1.720   7.080  0.1549  1.0800 -0.0520
 4939SOL    HW126276   0.001   1.634   7.093 -2.3164  2.2012 -0.0756
 4939SOL    HW226277   0.084   1.732   7.164 -0.1800 -0.8465  0.3864
 4940SOL     OW26278   0.827   2.241   7.208  0.6630  0.0628 -0.3389
 4940SOL    HW126279   0.899   2.179   7.212 -0.4314 -1.2006 -0.1855
 4940SOL    HW226280   0.763   2.202   7.267  2.2072  1.7648  2.4690
 4941SOL     OW26281   2.500   1.678   3.092 -0.2816 -0.2182 -0.3044
 4941SOL    HW126282   2.575   1.623   3.114  0.4685  0.8699 -0.1799
 4941SOL    HW226283   2.431   1.651   3.153  0.1826 -1.8449 -0.4972
 4942SOL     OW26284   3.570   3.274   8.514 -0.3214  0.2660  0.2346
 4942SOL    HW126285   3.480   3.261   8.542  0.4655 -0.5236  2.3619
 4942SOL    HW226286   3.611   3.259   8.599 -0.9197 -0.7631  0.3417
 4943SOL     OW26287   1.795   3.414  14.116 -0.3119  0.5213 -0.1751
 4943SOL    HW126288   1.768   3.426  14.025  0.3484  0.8040 -0.3389
 4943SOL    HW226289   1.839   3.330  14.104  1.8997  1.6805 -0.2743
 4944SOL     OW26290   1.209   3.270  17.677  0.3203 -0.3210  0.2551
 4944SOL    HW126291   1.289   3.259  17.626 -1.0964  0.4995 -2.1138
 4944SOL    HW226292   1.143   3.301  17.616  0.4787 -1.0285 -0.2707
 4945SOL     OW26293   3.465   2.022  14.595 -0.0123 -0.1141  0.2653
 4945SOL    HW126294   3.516   2.031  14.514 -0.6366  1.2925  0.0300
 4945SOL    HW226295   3.415   1.944  14.572  0.1584 -0.7847  2.1796
 4946SOL     OW26296   4.067   1.248   5.573  0.3067 -0.1157 -0.0118
 4946SOL    HW126297   4.019   1.166   5.580  1.2635 -0.7322 -0.6698
 4946SOL    HW226298   4.133   1.221   5.636 -0.4515 -1.8381  0.0395
 4947SOL     OW26299   1.684   2.285   0.771  0.1826 -0.1892 -0.2338
 4947SOL    HW126300   1.681   2.210   0.712 -1.9016 -2.1056  2.3141
 4947SOL    HW226301   1.642   2.258   0.853  0.3128  0.3647  0.0127
 4948SOL     OW26302   2.983   3.669   0.229  0.3062 -0.6177  0.2511
 4948SOL    HW126303   2.997   3.618   0.309 -0.5713 -2.6838 -0.8868
 4948SOL    HW226304   2.990   3.759   0.259  1.0486  0.3204 -2.7247
 4949SOL     OW26305   0.609   3.983   4.713  0.4113  0.0732 -0.1206
 4949SOL    HW126306   0.669   3.951   4.645  0.2886 -0.4432  0.0148
 4949SOL    HW226307   0.539   3.918   4.720  1.9668 -1.4132  1.5711
 4950SOL     OW26308   4.618   2.005   3.495 -0.0850 -0.7128 -0.4411
 4950SOL    HW126309   4.700   2.003   3.545  1.1229 -0.7413 -2.4138
 4950SOL    HW226310   4.602   1.912   3.479  0.6229 -1.1025  1.0882
 4951SOL     OW26311   1.379   3.927   9.987  0.1861  0.2921 -0.5150
 4951SOL    HW126312   1.324   3.870  10.041  1.1302 -0.3291 -0.2192
 4951SOL    HW226313   1.358   4.012  10.026 -1.6605 -0.4746  0.1679
 4952SOL     OW26314   2.590   1.556   6.028 -0.0380  0.1686 -0.5552
 4952SOL    HW126315   2.654   1.488   6.047 -0.7310  0.3239  2.2947
 4952SOL    HW226316   2.614   1.632   6.082  3.4821 -0.8427 -0.6750
 4953SOL     OW26317   3.233   3.793   3.408 -0.6021 -0.5033 -0.4821
 4953SOL    HW126318   3.282   3.839   3.476 -0.1397 -0.6807 -0.6975
 4953SOL    HW226319   3.182   3.726   3.455  0.5557 -0.9051  0.1927
 4954SOL     OW26320   3.004   2.939   2.027  0.0258 -0.0649 -0.0768
 4954SOL    HW126321   2.941   2.999   1.986 -1.5399 -1.1429  0.7701
 4954SOL    HW226322   3.040   2.890   1.953 -0.7276 -0.3601 -0.2519
 4955SOL     OW26323   4.636   2.902   4.595 -0.2615  0.1218  0.2565
 4955SOL    HW126324   4.584   2.859   4.527  1.8635 -0.1916 -1.1597
 4955SOL    HW226325   4.717   2.911   4.545  0.1867  0.4195  1.0343
 4956SOL     OW26326   1.162   4.188   7.712  0.0688 -0.0944 -0.0832
 4956SOL    HW126327   1.212   4.158   7.635  0.1605 -0.9349  0.3027
 4956SOL    HW226328   1.203   4.121   7.766 -0.8095 -0.0269  0.6567
 4957SOL     OW26329   3.033   3.367   7.595 -0.4015 -0.1707 -0.1263
 4957SOL    HW126330   2.945   3.330   7.585 -1.1903  1.2669  1.5711
 4957SOL    HW226331   3.085   3.299   7.638 -1.2290 -1.5071 -1.2223
 4958SOL     OW26332   3.312   2.986   1.640  0.4188 -0.0346 -0.1199
 4958SOL    HW126333   3.373   3.054   1.612  2.7877 -1.4713  1.5581
 4958SOL    HW226334   3.357   2.908   1.608  0.4723 -0.3954  0.8427
 4959SOL     OW26335   4.118   2.525   6.168 -0.4747 -0.2819  0.4280
 4959SOL    HW126336   4.029   2.502   6.195 -0.3824 -0.8996  0.1900
 4959SOL    HW226337   4.109   2.620   6.182  0.1255 -0.4895  2.1663
 4960SOL     OW26338   1.818   4.318  17.009 -0.6194  0.6491 -0.4578
 4960SOL    HW126339   1.888   4.383  17.002  1.4562 -1.3697  1.4464
 4960SOL    HW226340   1.859   4.235  17.035  0.6940  0.4248 -3.2480
 4961SOL     OW26341   1.008   3.726   6.168  0.5295 -0.2381  0.0092
 4961SOL    HW126342   1.056   3.800   6.206 -0.2580  1.2759 -1.9806
 4961SOL    HW226343   0.921   3.753   6.199 -0.6664 -1.1970 -2.5849
 4962SOL     OW26344   1.360   1.448   4.983  0.2408  0.1953  0.0779
 4962SOL    HW126345   1.367   1.504   4.906 -1.2051 -1.1070 -1.0027
 4962SOL    HW226346   1.402   1.375   4.939 -0.5986 -1.1184  1.4396
 4963SOL     OW26347   4.685   3.098   1.578  0.3542 -0.0776 -0.0394
 4963SOL    HW126348   4.630   3.146   1.640  1.1392  0.2200  0.4306
 4963SOL    HW226349   0.048   3.101   1.619  0.5224  1.5253 -0.5068
 4964SOL     OW26350   0.451   1.676  15.821  0.3392  0.0053 -0.2846
 4964SOL    HW126351   0.381   1.613  15.805  0.9380 -1.1969  1.6726
 4964SOL    HW226352   0.481   1.639  15.905  0.7116 -0.5336 -0.6561
 4965SOL     OW26353   2.205   3.540   8.907  0.1627 -0.2814  0.1220
 4965SOL    HW126354   2.259   3.615   8.932 -0.4644  0.0129  0.5900
 4965SOL    HW226355   2.215   3.555   8.813 -2.4258  1.0349  0.0647
 4966SOL     OW26356   0.583   3.974  16.204  0.1139 -0.6360  0.6909
 4966SOL    HW126357   0.648   4.006  16.142 -0.9637  0.8921  0.3314
 4966SOL    HW226358   0.577   4.047  16.265  0.7099  0.2278 -0.2820
 4967SOL     OW26359   0.335   1.041   1.574  0.3402  0.0988 -0.4460
 4967SOL    HW126360   0.408   1.097   1.546  0.1684  1.1509  1.2161
 4967SOL    HW226361   0.280   1.108   1.613 -1.5979 -1.0791 -1.1923
 4968SOL     OW26362   0.036   0.662  13.902  0.0393  0.2347 -0.6538
 4968SOL    HW126363   0.026   0.732  13.966 -1.0180 -0.5383  0.0167
 4968SOL    HW226364   4.688   0.599  13.917  0.3991  0.0342  0.1767
 4969SOL     OW26365   0.092   0.594   6.234  0.3809  0.1569  0.3954
 4969SOL    HW126366   0.097   0.515   6.179 -1.4188  1.3534 -1.4580
 4969SOL    HW226367   0.032   0.562   6.302  1.2595 -0.9245  0.6700
 4970SOL     OW26368   0.251   1.205   9.177  0.3923 -0.0000 -0.1147
 4970SOL    HW126369   0.270   1.274   9.241  0.3486 -0.8881  0.8394
 4970SOL    HW226370   0.307   1.231   9.104  0.2221 -1.0381 -0.6082
 4971SOL     OW26371   4.166   0.411   9.864 -0.0620  0.0676  0.2664
 4971SOL    HW126372   4.119   0.336   9.827 -3.7912  2.0675  0.9345
 4971SOL    HW226373   4.235   0.366   9.913  2.5569  1.4276 -2.1633
 4972SOL     OW26374   2.678   2.439   6.442 -0.2051  0.2237  0.4491
 4972SOL    HW126375   2.704   2.363   6.493  1.5676  0.8279  0.4649
 4972SOL    HW226376   2.583   2.438   6.454 -0.1276  0.9822  1.1877
 4973SOL     OW26377   3.178   2.200  10.504  0.5182 -0.4266 -0.1735
 4973SOL    HW126378   3.152   2.159  10.422 -0.2157  0.4896 -0.3972
 4973SOL    HW226379   3.192   2.123  10.558 -0.2846  0.1438  0.8428
 4974SOL     OW26380   1.612   0.153  15.349  0.1151 -0.0659  0.1130
 4974SOL    HW126381   1.638   0.116  15.434  1.8817 -1.0105 -0.8192
 4974SOL    HW226382   1.644   0.082  15.293 -0.3949 -0.4311  0.2819
 4975SOL     OW26383   4.004   0.814   7.494 -0.1359  0.0532  0.3912
 4975SOL    HW126384   4.010   0.885   7.558 -1.2462 -1.4410  2.1600
 4975SOL    HW226385   4.049   0.738   7.533  0.3402  0.5482  0.8055
 4976SOL     OW26386   1.867   3.563  15.270 -0.1802  0.3211  0.0868
 4976SOL    HW126387   1.811   3.634  15.239 -0.9617  0.0410  0.8203
 4976SOL    HW226388   1.814   3.515  15.335  0.4571 -0.6440 -0.1051
 4977SOL     OW26389   4.562   3.077   7.253  0.1817 -0.2906 -0.5299
 4977SOL    HW126390   4.631   3.142   7.269 -0.8031  0.0783  2.1340
 4977SOL    HW226391   4.551   3.096   7.160 -1.5137 -0.9244 -0.4564
 4978SOL     OW26392   4.567   1.409  17.517  0.2000 -0.0365  0.2568
 4978SOL    HW126393   4.536   1.446  17.600 -2.9790 -0.3188 -0.8024
 4978SOL    HW226394   4.596   1.486  17.468 -1.5991  0.3670 -0.1696
 4979SOL     OW26395   4.493   2.567   5.468  0.1715  0.8357 -0.5604
 4979SOL    HW126396   4.444   2.647   5.489 -1.1677 -0.1790  0.1711
 4979SOL    HW226397   4.581   2.604   5.475 -1.2193  4.0131  0.4900
 4980SOL     OW26398   4.492   3.908   9.008  0.8459 -0.0093  0.2600
 4980SOL    HW126399   4.428   3.950   9.066 -1.5951 -1.1556 -1.6329
 4980SOL    HW226400   4.487   3.977   8.943  1.7435  1.2735  1.5451
 4981SOL     OW26401   3.170   2.317   1.048  0.4692  0.3449  0.2155
 4981SOL    HW126402   3.092   2.269   1.019  0.3657 -0.3772  1.6424
 4981SOL    HW226403   3.228   2.336   0.975 -2.4325 -0.2349 -2.2088
 4982SOL     OW26404   4.302   1.377   5.472 -0.0862 -0.2636 -0.3860
 4982SOL    HW126405   4.264   1.347   5.390  1.5480 -0.4035 -1.1056
 4982SOL    HW226406   4.236   1.350   5.535 -0.5597 -2.2272 -1.7375
 4983SOL     OW26407   3.726   2.801   6.885  0.0856  0.0498 -0.4200
 4983SOL    HW126408   3.800   2.780   6.942  1.7957 -0.4595 -2.8222
 4983SOL    HW226409   3.683   2.716   6.877  1.4985 -0.5641 -1.5072
 4984SOL     OW26410   4.209   1.897   7.601  0.1942  0.3184  0.6000
 4984SOL    HW126411   4.227   1.935   7.686 -1.2541 -0.3638  1.2218
 4984SOL    HW226412   4.291   1.852   7.581  0.6035  1.3957 -0.1138
 4985SOL     OW26413   1.217   1.293  15.932 -0.4753  0.1799  0.3864
 4985SOL    HW126414   1.258   1.362  15.984  0.2139  0.9835 -1.2387
 4985SOL    HW226415   1.209   1.216  15.989  0.6924  0.3424  0.7604
 4986SOL     OW26416   4.068   4.195   7.919  0.3325  0.0332  0.0787
 4986SOL    HW126417   3.994   4.137   7.935 -0.3094  0.9172  0.2488
 4986SOL    HW226418   4.140   4.141   7.953  0.4685  1.4757  2.0094
 4987SOL     OW26419   0.985   1.077   5.467  0.0184 -0.6188  0.2608
 4987SOL    HW126420   0.959   1.057   5.557 -0.8635 -3.4483 -0.6278
 4987SOL    HW226421   0.918   1.030   5.419 -0.9779  1.0448  0.0166
 4988SOL     OW26422   0.098   2.845  14.687 -0.2110 -0.0750  0.1361
 4988SOL    HW126423   0.035   2.912  14.658 -0.4413 -1.4464 -2.5595
 4988SOL    HW226424   0.176   2.872  14.639  0.9942  1.9358  3.2549
 4989SOL     OW26425   0.532   4.465   2.105  0.0751 -0.4848  0.3500
 4989SOL    HW126426   0.621   4.475   2.138 -0.6303  1.4436  1.6699
 4989SOL    HW226427   0.532   4.526   2.031  0.7527 -1.7117 -0.6708
 4990SOL     OW26428   4.310   4.522   6.013  0.3492  0.2185 -0.2868
 4990SOL    HW126429   4.343   4.501   6.101  0.6865  1.2905 -0.1667
 4990SOL    HW226430   4.264   4.442   5.985  1.0770 -0.8755  1.5946
 4991SOL     OW26431   2.253   2.360   9.827 -0.9176  0.0189  0.0927
 4991SOL    HW126432   2.290   2.446   9.806  0.6641 -0.0679  2.5242
 4991SOL    HW226433   2.331   2.306   9.814 -1.0580 -0.1165 -0.1880
 4992SOL     OW26434   1.780   0.774   8.906  0.2872  0.1925 -0.6503
 4992SOL    HW126435   1.861   0.755   8.952  0.0170 -0.2200 -0.3373
 4992SOL    HW226436   1.746   0.841   8.965 -2.0279 -0.1255 -1.6093
 4993SOL     OW26437   1.976   4.493   2.189 -0.4142  0.1830  0.0265
 4993SOL    HW126438   2.067   4.485   2.219 -1.3435 -0.5928  2.5500
 4993SOL    HW226439   1.937   4.411   2.216  0.7577 -0.7650 -1.1457
 4994SOL     OW26440   2.869   0.982   7.721  0.8143  0.1885  0.4064
 4994SOL    HW126441   2.828   1.015   7.801  2.4877  1.4387  0.7421
 4994SOL    HW226442   2.962   0.998   7.736  0.8147 -0.0697  0.6835
 4995SOL     OW26443   1.145   1.187  13.622  0.1637 -0.0778 -0.2459
 4995SOL    HW126444   1.161   1.240  13.545 -2.4218 -0.5923 -1.1455
 4995SOL    HW226445   1.057   1.153  13.604  1.1136 -1.0751 -2.9860
 4996SOL     OW26446   1.013   0.439   8.638  0.1117 -0.3969 -0.0653
 4996SOL    HW126447   1.006   0.500   8.712  0.8986 -0.9828  0.4925
 4996SOL    HW226448   0.937   0.451   8.582  0.7312  0.6254 -0.6789
 4997SOL     OW26449   2.979   1.960   2.717 -0.1900  0.1070 -0.4615
 4997SOL    HW126450   2.941   1.988   2.800  1.7583 -0.4559  0.6284
 4997SOL    HW226451   3.030   2.038   2.694  2.8803 -1.7205  0.1625
 4998SOL     OW26452   1.706   3.274   7.182  0.1603 -0.0638  0.1594
 4998SOL    HW126453   1.801   3.269   7.198  0.1764 -0.3239 -0.0128
 4998SOL    HW226454   1.678   3.271   7.273  0.0166  0.9336  0.1535
 4999SOL     OW26455   0.351   2.675   9.165  0.3612  0.4982  0.2898
 4999SOL    HW126456   0.290   2.656   9.237  2.0294 -2.2709  0.9835
 4999SOL    HW226457   0.369   2.765   9.192 -0.2997  0.6589  0.2047
 5000SOL     OW26458   4.008   4.486   4.225  0.2155 -1.0614  0.9417
 5000SOL    HW126459   4.103   4.489   4.212  0.2922 -2.8586  1.1924
 5000SOL    HW226460   4.000   4.581   4.238  2.8516 -0.7672  0.5766
 5001SOL     OW26461   0.668   4.631   3.254 -0.1124 -0.3823 -0.6946
 5001SOL    HW126462   0.713   4.691   3.195  2.1648  0.2029  1.6467
 5001SOL    HW226463   0.581   4.636   3.216  0.0023  3.2128 -0.5349
 5002SOL     OW26464   3.538   1.150   7.041  0.3181  0.1744  0.7285
 5002SOL    HW126465   3.493   1.181   7.120 -0.5434  0.5897  0.0726
 5002SOL    HW226466   3.602   1.221   7.034  1.2728 -0.4875  2.7187
 5003SOL     OW26467   3.595   3.040  15.345 -0.6434  0.0693  0.1315
 5003SOL    HW126468   3.539   3.041  15.267 -0.4700  1.7893  0.0344
 5003SOL    HW226469   3.551   3.105  15.399 -2.2722 -0.3619 -0.6693
 5004SOL     OW26470   1.472   2.934  13.993 -0.0419  0.2229 -0.0567
 5004SOL    HW126471   1.484   2.898  14.081  1.3045  1.3566  0.2275
 5004SOL    HW226472   1.554   2.984  13.991 -0.1811  0.3708 -2.6335
 5005SOL     OW26473   2.069   1.585   7.385  0.1648  0.3533  0.3876
 5005SOL    HW126474   2.044   1.499   7.350  1.0100  0.6344 -0.9190
 5005SOL    HW226475   1.982   1.624   7.393 -0.4765 -0.9375 -0.2787
 5006SOL     OW26476   2.564   1.849   7.765 -0.0129  0.5654 -0.2531
 5006SOL    HW126477   2.650   1.883   7.789  0.0251 -0.6412  1.3081
 5006SOL    HW226478   2.596   1.777   7.711 -4.0855 -0.8134 -0.8656
 5007SOL     OW26479   4.461   4.293   7.509 -0.1379 -0.0231 -0.1961
 5007SOL    HW126480   4.515   4.258   7.580  1.4680  1.4487 -0.6839
 5007SOL    HW226481   4.524   4.300   7.437  1.8273  0.2090  1.5301
 5008SOL     OW26482   0.787   0.402   7.107 -0.8147  0.3659  0.5196
 5008SOL    HW126483   0.858   0.415   7.171  0.5399  0.1188 -0.9430
 5008SOL    HW226484   0.712   0.373   7.158  0.3281 -1.2358  1.2749
 5009SOL     OW26485   1.048   0.705  12.980  0.5095 -0.2152 -0.2860
 5009SOL    HW126486   1.133   0.671  13.010  0.1851 -0.0545  0.7961
 5009SOL    HW226487   1.058   0.684  12.887 -0.7732  0.7127 -0.6296
 5010SOL     OW26488   0.616   1.589  13.956  0.2445  0.1835  0.2143
 5010SOL    HW126489   0.670   1.634  13.891 -1.4763  0.6543 -0.8986
 5010SOL    HW226490   0.623   1.500  13.923  2.9833  0.1721  0.8449
 5011SOL     OW26491   1.805   2.570   1.194  0.6202  0.0481 -0.2908
 5011SOL    HW126492   1.808   2.652   1.145 -1.8283  0.9296  1.0314
 5011SOL    HW226493   1.849   2.589   1.277 -0.0821  1.1914 -0.1725
 5012SOL     OW26494   0.062   3.704   3.441  0.5226 -0.1481  0.3838
 5012SOL    HW126495   0.137   3.703   3.381  0.3520 -2.2548  0.2109
 5012SOL    HW226496   0.032   3.613   3.443 -1.2026  0.4422  1.0500
 5013SOL     OW26497   0.655   1.933   7.329 -0.0521  0.4608 -0.0144
 5013SOL    HW126498   0.732   1.928   7.385 -0.2837  1.5041  0.4037
 5013SOL    HW226499   0.630   2.023   7.350  1.0644  0.3915  1.5549
 5014SOL     OW26500   4.406   4.588   0.004 -0.7676  0.0025 -0.2916
 5014SOL    HW126501   4.382   4.537   0.081  0.3531 -1.3042 -0.8131
 5014SOL    HW226502   4.491   4.546  17.689 -0.3780  0.1318  3.0118
 5015SOL     OW26503   1.507   3.686   4.433  0.1624  0.1790 -0.2036
 5015SOL    HW126504   1.524   3.778   4.456 -3.3116  0.9255 -0.5455
 5015SOL    HW226505   1.595   3.660   4.406  0.5665  1.0034  0.3081
 5016SOL     OW26506   1.810   4.578  12.133  0.3324  0.0676  0.4265
 5016SOL    HW126507   1.811   4.523  12.054  2.0627  1.9555 -0.8828
 5016SOL    HW226508   1.714   4.575  12.138  0.1688  2.9366 -1.2155
 5017SOL     OW26509   0.945   0.656  10.202 -0.1157  0.5366  0.2792
 5017SOL    HW126510   1.017   0.672  10.141  1.6978 -2.1362  1.7198
 5017SOL    HW226511   0.959   0.716  10.275  1.8011 -0.8504  1.0653
 5018SOL     OW26512   1.174   0.739   4.640 -0.2721  0.5167 -0.3936
 5018SOL    HW126513   1.137   0.702   4.720 -0.2489  1.3621  0.0084
 5018SOL    HW226514   1.163   0.666   4.579 -3.6849  1.0288 -0.4232
 5019SOL     OW26515   4.367   2.688   8.936  0.0681  0.3330 -0.5133
 5019SOL    HW126516   4.408   2.762   8.981 -1.0390  0.5662  0.1265
 5019SOL    HW226517   4.298   2.660   8.996 -0.3042  2.2223 -0.0470
 5020SOL     OW26518   1.651   1.552   2.202  0.7208  0.1194 -0.3446
 5020SOL    HW126519   1.618   1.635   2.167  1.6810  1.1549  1.1951
 5020SOL    HW226520   1.736   1.588   2.229  0.6855  0.5466 -0.7974
 5021SOL     OW26521   0.051   3.244   7.376  0.1022  0.3782  0.5311
 5021SOL    HW126522   0.139   3.282   7.382  0.7103 -1.0471  0.6214
 5021SOL    HW226523   0.002   3.291   7.443  1.1193  1.4631  0.5244
 5022SOL     OW26524   2.423   0.960   2.627  0.7335 -0.1802  0.1699
 5022SOL    HW126525   2.495   0.983   2.686  0.5943  0.9050 -0.0964
 5022SOL    HW226526   2.360   0.934   2.695  2.1972  1.3278  2.0758
 5023SOL     OW26527   2.135   4.135   8.349  0.1890 -0.0300  0.4219
 5023SOL    HW126528   2.083   4.213   8.369 -0.4595  0.0274 -1.4498
 5023SOL    HW226529   2.223   4.170   8.332 -0.3828 -0.3135 -3.1220
 5024SOL     OW26530   4.106   2.340   4.347 -0.1066  0.6365  0.1740
 5024SOL    HW126531   4.079   2.299   4.265  0.4100 -0.9549  0.7938
 5024SOL    HW226532   4.036   2.394   4.380  0.5335  1.5869 -0.0245
 5025SOL     OW26533   1.782   0.022   9.585  0.4866 -0.3591  0.2004
 5025SOL    HW126534   1.732   4.671   9.619 -0.0890  0.0795  0.2999
 5025SOL    HW226535   1.841   0.048   9.656 -1.2315 -2.0995  2.2496
 5026SOL     OW26536   1.815   1.679   4.951 -0.2439  0.0124 -0.1042
 5026SOL    HW126537   1.906   1.707   4.962 -0.8246  1.0808  1.9730
 5026SOL    HW226538   1.829   1.594   4.911 -0.8253  0.2639 -0.8506
 5027SOL     OW26539   0.552   4.066   7.851 -0.2685 -0.8575  0.8915
 5027SOL    HW126540   0.589   4.132   7.793 -1.5232 -1.4742 -0.6243
 5027SOL    HW226541   0.553   4.117   7.933  0.2678  0.0861  0.3020
 5028SOL     OW26542   0.678   4.161   6.003  0.2663 -0.1988  0.4300
 5028SOL    HW126543   0.657   4.201   6.087  1.7198 -1.5665  1.4643
 5028SOL    HW226544   0.607   4.097   6.001  0.4818 -0.3699 -2.1186
 5029SOL     OW26545   1.414   2.938   2.698 -0.0767  0.1312  0.1407
 5029SOL    HW126546   1.338   2.997   2.688  0.1765  0.1574 -1.5302
 5029SOL    HW226547   1.394   2.852   2.662  2.0889 -0.3211  0.0409
 5030SOL     OW26548   0.974   2.836   8.553  0.0751  0.0154  0.1214
 5030SOL    HW126549   1.037   2.784   8.601 -0.8103  1.3531  2.7746
 5030SOL    HW226550   0.892   2.812   8.596  0.7500  1.6687  2.3460
 5031SOL     OW26551   2.504   2.714   0.280  0.2420  0.1910 -0.0299
 5031SOL    HW126552   2.537   2.775   0.213 -0.1056  0.3339 -0.0710
 5031SOL    HW226553   2.494   2.773   0.355 -2.6552  0.3613 -0.5567
 5032SOL     OW26554   3.643   4.037  17.490 -0.4133  0.6871  0.3717
 5032SOL    HW126555   3.697   3.997  17.558 -0.6572 -0.2272  0.0278
 5032SOL    HW226556   3.588   3.964  17.462 -1.4325  1.4674  0.3319
 5033SOL     OW26557   1.806   0.756   2.940  0.3118 -0.1236 -0.0637
 5033SOL    HW126558   1.716   0.785   2.953  0.9841  1.1890  1.7214
 5033SOL    HW226559   1.822   0.798   2.856  1.3532  0.6579  0.5192
 5034SOL     OW26560   3.965   4.697   1.940  0.0205  0.7336 -0.0587
 5034SOL    HW126561   3.894   0.038   1.932 -0.7856 -0.3351 -1.5284
 5034SOL    HW226562   3.957   4.653   1.856  1.7088 -2.2535  1.3391
 5035SOL     OW26563   0.453   0.203   2.646  0.7200 -0.1568 -0.1854
 5035SOL    HW126564   0.522   0.137   2.646  0.6374 -0.2329  1.8787
 5035SOL    HW226565   0.373   0.153   2.660  0.0374  0.8628 -0.4541
 5036SOL     OW26566   0.865   4.338   0.750  0.2161 -0.7592  0.3139
 5036SOL    HW126567   0.797   4.271   0.740 -1.9310  1.5942 -0.6998
 5036SOL    HW226568   0.900   4.315   0.836  0.0975  0.7706  0.7603
 5037SOL     OW26569   1.772   0.077   4.203 -0.2596  0.6790  0.2315
 5037SOL    HW126570   1.758   0.070   4.297 -2.7740  0.7577 -0.1426
 5037SOL    HW226571   1.760   0.171   4.196  0.1475  0.6196 -1.2657
 5038SOL     OW26572   0.188   1.590   8.930  0.4159 -0.6077  0.3705
 5038SOL    HW126573   0.205   1.612   8.839 -0.8054  0.9449  0.5050
 5038SOL    HW226574   0.144   1.505   8.921  0.9932 -1.0718  1.9445
 5039SOL     OW26575   1.011   1.814  17.607  0.0928  0.2077 -0.3027
 5039SOL    HW126576   0.918   1.816  17.585  0.1099 -2.4320 -0.6426
 5039SOL    HW226577   1.045   1.838  17.521  1.2427 -0.7738 -0.1225
 5040SOL     OW26578   3.343   2.996   5.146  0.4696  0.1796 -0.1873
 5040SOL    HW126579   3.268   3.053   5.126  0.7985  1.0093  0.9227
 5040SOL    HW226580   3.418   3.055   5.141 -0.0867  0.8835 -0.4262
 5041SOL     OW26581   0.050   3.729   4.312  0.1467 -0.2377  0.7010
 5041SOL    HW126582   0.093   3.653   4.274 -0.7258 -0.0311 -0.6922
 5041SOL    HW226583   4.695   3.732   4.256  1.0267  1.4138 -0.4284
 5042SOL     OW26584   3.737   1.612  10.020 -0.4156  0.0845 -0.7379
 5042SOL    HW126585   3.648   1.640  10.040  0.4770  1.2154  1.6806
 5042SOL    HW226586   3.761   1.655   9.938 -2.3708  1.9616 -0.3046
 5043SOL     OW26587   2.742   0.536   1.925 -0.5549 -0.0297 -0.1571
 5043SOL    HW126588   2.831   0.501   1.924 -0.2193  0.8259 -0.4559
 5043SOL    HW226589   2.755   0.609   1.986 -5.1179  0.6827 -0.0775
 5044SOL     OW26590   0.401   3.627   6.506  0.2338 -0.8912  0.3362
 5044SOL    HW126591   0.332   3.604   6.443 -0.0692 -0.2370  0.4240
 5044SOL    HW226592   0.369   3.710   6.541 -0.6994 -1.4245  0.7597
 5045SOL     OW26593   0.033   2.282   2.299 -0.8097  0.2100 -0.3611
 5045SOL    HW126594   0.121   2.309   2.325 -0.3551 -2.0379  0.4733
 5045SOL    HW226595   0.041   2.292   2.204 -0.5145 -0.6500 -0.4339
 5046SOL     OW26596   4.359   1.534  17.037  0.0595 -0.2240  0.1122
 5046SOL    HW126597   4.298   1.608  17.044  1.2984  0.8084  0.0119
 5046SOL    HW226598   4.373   1.515  17.130 -0.0516 -0.1483  0.1451
 5047SOL     OW26599   3.795   3.002  17.438  0.4698 -0.8503  0.3518
 5047SOL    HW126600   3.710   2.988  17.396  0.5641  2.9148 -1.0357
 5047SOL    HW226601   3.847   2.961  17.369  2.0974  0.8827  0.5515
 5048SOL     OW26602   4.551   0.097   6.466 -0.3567 -0.4088  0.3746
 5048SOL    HW126603   4.570   0.094   6.373  1.7344 -0.0515  0.7788
 5048SOL    HW226604   4.456   0.101   6.458 -0.0435  2.8235 -1.6418
 5049SOL     OW26605   4.489   2.878   4.358 -0.5362 -0.0817 -0.5700
 5049SOL    HW126606   4.426   2.808   4.342 -0.4924 -0.3166  0.2657
 5049SOL    HW226607   4.530   2.880   4.272  2.6168 -0.7295  0.9423
 5050SOL     OW26608   2.179   3.899   2.972  0.1325  0.8746 -0.0014
 5050SOL    HW126609   2.105   3.839   2.963  0.0349  0.4003  3.9110
 5050SOL    HW226610   2.162   3.963   2.902 -1.0191 -0.0646 -0.5788
 5051SOL     OW26611   1.894   0.504   8.136  0.1446  0.5743 -0.9019
 5051SOL    HW126612   1.868   0.433   8.195  0.2730  0.7802 -0.5972
 5051SOL    HW226613   1.825   0.483   8.073 -0.1427 -0.5184 -0.2273
 5052SOL     OW26614   3.845   0.340   0.429  1.0944 -0.5631 -0.2326
 5052SOL    HW126615   3.866   0.397   0.355  0.2253  0.3339  0.2160
 5052SOL    HW226616   3.811   0.254   0.402  0.1601 -0.0637 -0.6380
 5053SOL     OW26617   0.121   0.595   6.937  0.6726  0.1268  0.4732
 5053SOL    HW126618   0.174   0.662   6.981 -0.1447  1.4935 -0.6369
 5053SOL    HW226619   0.078   0.563   7.016  0.7308 -0.0193  0.4452
 5054SOL     OW26620   0.382   0.556   2.984 -0.0116  0.1559 -0.3082
 5054SOL    HW126621   0.378   0.496   2.909  0.3537  0.0848 -0.2736
 5054SOL    HW226622   0.340   0.497   3.046  0.8458  1.4816  1.5321
 5055SOL     OW26623   0.892   2.241  12.259  0.3288 -0.3292  0.0316
 5055SOL    HW126624   0.937   2.186  12.323 -0.5782 -1.7184 -0.5197
 5055SOL    HW226625   0.845   2.175  12.208  0.8533 -0.6587 -0.0277
 5056SOL     OW26626   2.000   0.854   0.659 -0.0742  0.1576 -0.1165
 5056SOL    HW126627   1.931   0.873   0.723  1.9424  2.3431  1.4039
 5056SOL    HW226628   2.028   0.767   0.687 -0.3246 -0.2612 -1.1679
 5057SOL     OW26629   0.046   2.190   9.368 -0.1279 -0.7643  0.0412
 5057SOL    HW126630   4.713   2.263   9.342 -0.9016 -1.3665  0.0240
 5057SOL    HW226631   0.121   2.220   9.317 -0.7720  1.6923  0.5740
 5058SOL     OW26632   4.202   4.295   5.892 -0.7438 -0.2172  0.3718
 5058SOL    HW126633   4.287   4.272   5.855 -1.1617 -1.2668  0.0686
 5058SOL    HW226634   4.168   4.206   5.902 -1.8408  0.0329 -1.1866
 5059SOL     OW26635   0.212   3.304   6.724  0.3031  0.0462 -0.0023
 5059SOL    HW126636   0.259   3.307   6.807 -1.0530  2.8170  0.6498
 5059SOL    HW226637   0.153   3.378   6.736 -0.2828 -0.5377  0.7977
 5060SOL     OW26638   3.543   2.888  13.779 -0.0060  0.3438  0.3091
 5060SOL    HW126639   3.635   2.910  13.760  0.2175  0.1384  1.1341
 5060SOL    HW226640   3.533   2.909  13.872 -1.9079 -1.5043  0.5056
 5061SOL     OW26641   1.381   1.747   4.707 -0.2449  0.0630  0.0318
 5061SOL    HW126642   1.425   1.810   4.765 -1.8304  0.4775  0.7958
 5061SOL    HW226643   1.461   1.709   4.672  0.6183  1.0515  0.9306
 5062SOL     OW26644   1.600   1.989  11.766 -0.1209  0.0673  0.5723
 5062SOL    HW126645   1.651   1.941  11.701  0.6327 -2.5962  3.1259
 5062SOL    HW226646   1.651   1.959  11.841 -0.8994 -0.7880  0.7511
 5063SOL     OW26647   2.830   0.610  15.929  0.5832  0.7552  0.2695
 5063SOL    HW126648   2.820   0.673  16.000 -3.4353  0.2196  0.1408
 5063SOL    HW226649   2.834   0.662  15.849  0.3736  0.1549 -0.1289
 5064SOL     OW26650   0.258   2.529  15.532 -0.2217 -0.2705  0.1489
 5064SOL    HW126651   0.272   2.471  15.457  2.9487  2.6860 -1.5614
 5064SOL    HW226652   0.245   2.615  15.490  3.0160  1.1429  2.0543
 5065SOL     OW26653   3.945   1.499   0.972  0.1015  0.1230 -1.2668
 5065SOL    HW126654   3.951   1.590   0.944  1.3265 -0.4669 -2.9008
 5065SOL    HW226655   4.036   1.485   0.996 -0.2682 -1.3414 -0.7287
 5066SOL     OW26656   1.972   2.233   0.363 -0.4864 -0.1198 -0.1438
 5066SOL    HW126657   1.966   2.153   0.415  5.1710 -0.1381  0.4763
 5066SOL    HW226658   2.067   2.233   0.349 -0.8348  2.0560 -2.6077
 5067SOL     OW26659   0.349   1.069  13.296 -0.3770  0.3918 -0.4542
 5067SOL    HW126660   0.431   1.046  13.253 -0.2906  0.4631 -0.3255
 5067SOL    HW226661   0.303   0.986  13.282 -0.1279 -0.2938  2.8768
 5068SOL     OW26662   3.712   0.397  16.892  0.2790 -0.1219 -0.1813
 5068SOL    HW126663   3.691   0.480  16.850  0.6808 -0.3047 -0.7352
 5068SOL    HW226664   3.741   0.432  16.977  0.4419  0.3158 -0.4204
 5069SOL     OW26665   4.403   1.495  11.748  0.0342 -0.2199  0.6150
 5069SOL    HW126666   4.358   1.429  11.801  0.6014  0.3616  1.8264
 5069SOL    HW226667   4.457   1.441  11.691 -1.4833  0.6457 -1.6279
 5070SOL     OW26668   3.908   1.247   8.713  0.0577 -0.1460  0.0854
 5070SOL    HW126669   3.829   1.203   8.682 -0.2968  0.4554  0.1499
 5070SOL    HW226670   3.922   1.198   8.794 -0.6215 -0.1656  0.1842
 5071SOL     OW26671   3.584   2.503   9.307 -0.1604 -0.1752  0.0047
 5071SOL    HW126672   3.543   2.583   9.273  2.2524  1.8325  1.8204
 5071SOL    HW226673   3.670   2.501   9.265 -0.0100  0.0080  0.2982
 5072SOL     OW26674   2.569   3.615   5.014 -0.7882 -0.4135 -0.2486
 5072SOL    HW126675   2.604   3.703   5.029  1.1590 -1.0825 -0.8113
 5072SOL    HW226676   2.490   3.619   5.067 -0.4185 -0.3192  0.3063
 5073SOL     OW26677   4.477   2.077   2.505 -0.2390 -0.5714  0.5224
 5073SOL    HW126678   4.508   2.131   2.577  0.2480 -1.3859  0.9362
 5073SOL    HW226679   4.390   2.051   2.535 -0.1872  0.8240  1.8491
 5074SOL     OW26680   3.035   2.176   9.775 -0.0767 -0.2869 -0.4257
 5074SOL    HW126681   3.009   2.120   9.701 -2.5363  0.0275  0.2250
 5074SOL    HW226682   2.996   2.121   9.843  0.0617 -1.1132 -1.0086
 5075SOL     OW26683   1.163   1.586   9.079 -0.1691 -0.0087 -0.2939
 5075SOL    HW126684   1.090   1.606   9.137  0.4040  0.0952  0.3960
 5075SOL    HW226685   1.124   1.526   9.016  1.7580 -1.8431  0.2423
 5076SOL     OW26686   4.383   0.706  15.855  0.2681 -0.2751  0.0691
 5076SOL    HW126687   4.368   0.680  15.764 -1.1718  1.5954 -0.2223
 5076SOL    HW226688   4.358   0.622  15.892 -0.2125  0.8243  2.2431
 5077SOL     OW26689   0.575   2.377   0.880 -0.8016 -0.0402  0.1213
 5077SOL    HW126690   0.538   2.345   0.962 -3.2593 -1.1620 -1.4389
 5077SOL    HW226691   0.591   2.469   0.900  1.5346 -0.2666 -0.6207
 5078SOL     OW26692   2.246   3.718   3.732  0.4390  0.8095  0.4414
 5078SOL    HW126693   2.213   3.630   3.715  2.0859  0.3415 -0.4331
 5078SOL    HW226694   2.226   3.726   3.825 -2.4741 -1.1054 -0.0231
 5079SOL     OW26695   4.439   2.005   6.285  0.0306  0.3829 -0.2993
 5079SOL    HW126696   4.492   2.054   6.348  0.9219  0.2556 -0.9447
 5079SOL    HW226697   4.390   1.949   6.344 -0.4132 -2.3234 -3.2468
 5080SOL     OW26698   0.372   1.934  14.930  0.3931 -0.0559  0.3355
 5080SOL    HW126699   0.361   1.976  14.844 -1.6709  3.2054  2.2266
 5080SOL    HW226700   0.341   2.000  14.992  0.9043 -1.7090  2.3241
 5081SOL     OW26701   2.868   4.557  14.788  0.2454  0.1002 -0.3638
 5081SOL    HW126702   2.831   4.594  14.707  1.2301  0.1769 -0.7765
 5081SOL    HW226703   2.798   4.499  14.818  0.2405  0.5201  0.4379
 5082SOL     OW26704   3.488   3.127  10.855  0.0753 -0.0709 -0.1730
 5082SOL    HW126705   3.442   3.119  10.939  0.8392  1.3499  0.3834
 5082SOL    HW226706   3.534   3.043  10.850 -1.7527 -1.0048 -1.2514
 5083SOL     OW26707   1.855   1.468   6.449  0.2583 -0.1352 -0.8402
 5083SOL    HW126708   1.849   1.457   6.354  2.6792  0.9783 -1.1325
 5083SOL    HW226709   1.788   1.533   6.466 -0.7043 -0.7531 -2.3216
 5084SOL     OW26710   0.124   1.969   1.837 -0.2727 -0.0146 -0.0025
 5084SOL    HW126711   0.047   1.943   1.889  0.5973 -0.6306  0.9714
 5084SOL    HW226712   0.174   1.889   1.818  1.0277  0.0340  3.2371
 5085SOL     OW26713   2.140   3.369   5.882 -0.2132 -0.4759 -0.3503
 5085SOL    HW126714   2.172   3.284   5.854 -0.1062 -0.5623  0.0400
 5085SOL    HW226715   2.049   3.344   5.900 -0.3643 -0.2378 -0.7848
 5086SOL     OW26716   1.269   3.108  13.927 -0.3535  0.2267 -0.5620
 5086SOL    HW126717   1.305   3.186  13.968 -1.1071 -0.2258  0.9516
 5086SOL    HW226718   1.340   3.049  13.952 -0.5440  0.4771  0.5648
 5087SOL     OW26719   3.950   1.788  12.896  0.1251  0.1488  0.1562
 5087SOL    HW126720   3.986   1.757  12.979  1.0660  0.2344 -0.2192
 5087SOL    HW226721   4.023   1.784  12.834  0.7590  0.3591  0.8870
 5088SOL     OW26722   2.714   3.317   3.288  0.2831  0.0136 -0.1930
 5088SOL    HW126723   2.743   3.406   3.305 -0.8023  0.7937 -2.3585
 5088SOL    HW226724   2.800   3.280   3.270 -0.4114 -1.1400 -1.1796
 5089SOL     OW26725   0.646   2.335   5.394 -0.1023 -0.1650  0.7574
 5089SOL    HW126726   0.559   2.321   5.432 -1.6030  0.0756 -2.6137
 5089SOL    HW226727   0.676   2.244   5.394  1.8583  0.4972  1.0814
 5090SOL     OW26728   2.871   2.117  13.780  0.1173  0.4305  0.6036
 5090SOL    HW126729   2.955   2.161  13.790  0.6197 -0.0326 -1.6593
 5090SOL    HW226730   2.835   2.138  13.866  2.6926  1.2059  1.5027
 5091SOL     OW26731   0.140   3.445   8.151 -0.1707  0.1432  0.3298
 5091SOL    HW126732   0.192   3.458   8.072  1.5941 -0.8054  1.3293
 5091SOL    HW226733   0.159   3.356   8.179 -0.6579 -0.5342 -1.4962
 5092SOL     OW26734   4.456   2.572  16.415  0.7665  0.4979  0.2411
 5092SOL    HW126735   4.455   2.665  16.434  0.5659  0.5884 -0.2049
 5092SOL    HW226736   4.546   2.541  16.418  1.0094  1.0758 -1.0599
 5093SOL     OW26737   1.225   2.642  10.294 -0.1184 -0.7715  0.1509
 5093SOL    HW126738   1.142   2.688  10.308  2.4348  3.0796  2.4494
 5093SOL    HW226739   1.229   2.668  10.202  0.1281 -0.1800  0.3309
 5094SOL     OW26740   1.818   3.073   6.223  0.1598  0.1834  0.0875
 5094SOL    HW126741   1.880   3.126   6.274 -0.9092  0.7025  0.8704
 5094SOL    HW226742   1.869   2.997   6.195  0.1461  0.4353 -0.6234
 5095SOL     OW26743   4.670   3.297   7.758  0.2972 -0.2871 -0.3635
 5095SOL    HW126744   4.706   3.211   7.740  0.1767 -0.7585  1.6498
 5095SOL    HW226745   0.031   3.341   7.744  1.2009 -2.2580 -1.0955
 5096SOL     OW26746   2.277   0.108   0.612 -0.4723 -0.2163 -0.3467
 5096SOL    HW126747   2.285   0.053   0.534  2.9127 -1.2550  0.7542
 5096SOL    HW226748   2.314   0.189   0.575 -1.1130  0.2145 -0.0566
 5097SOL     OW26749   2.096   1.914  17.478  0.0738  0.0261 -0.4835
 5097SOL    HW126750   2.105   1.999  17.434 -1.6670  0.6306  0.3240
 5097SOL    HW226751   2.179   1.903  17.525  0.3089  0.2559 -0.8460
 5098SOL     OW26752   4.312   2.859   3.976  0.2556 -0.2817  0.1760
 5098SOL    HW126753   4.402   2.844   3.945 -0.6293  0.7101 -2.8644
 5098SOL    HW226754   4.280   2.900   3.896 -1.1715 -2.8145 -0.5580
 5099SOL     OW26755   1.056   1.871   7.067  0.1483 -0.1417 -0.0554
 5099SOL    HW126756   0.968   1.834   7.065  0.1857 -0.2055 -0.5671
 5099SOL    HW226757   1.040   1.963   7.087 -0.7264 -0.9575  3.0565
 5100SOL     OW26758   3.925   0.340   6.846 -0.4782  0.0426  0.1381
 5100SOL    HW126759   3.912   0.419   6.793 -2.0335 -0.3538 -0.0762
 5100SOL    HW226760   3.875   0.353   6.926 -0.9094  0.3075 -0.1731
 5101SOL     OW26761   2.997   3.848   7.223 -0.0954  0.1159  0.0679
 5101SOL    HW126762   3.092   3.850   7.223 -0.0708 -2.2504  2.2640
 5101SOL    HW226763   2.985   3.899   7.143 -0.3414  1.2674  0.8332
 5102SOL     OW26764   2.616   1.758   6.204 -0.3145 -0.2919 -0.1754
 5102SOL    HW126765   2.670   1.747   6.282 -0.1689  1.3479 -0.0447
 5102SOL    HW226766   2.536   1.791   6.245 -0.2276  0.2374 -0.4329
 5103SOL     OW26767   2.491   0.469  17.220  0.1436 -0.1208  0.2262
 5103SOL    HW126768   2.493   0.564  17.215 -0.7064 -0.0412  1.5703
 5103SOL    HW226769   2.505   0.458  17.314  0.7881  0.0659  0.1517
 5104SOL     OW26770   3.357   2.894   8.342  0.0718  0.7392  0.4970
 5104SOL    HW126771   3.366   2.851   8.427 -0.0059 -0.8424 -0.2781
 5104SOL    HW226772   3.311   2.827   8.291  0.8838  1.2324 -0.8742
 5105SOL     OW26773   0.545   3.924  11.910 -0.1763 -0.6623 -0.3322
 5105SOL    HW126774   0.456   3.951  11.931 -0.2094 -1.0239 -0.0318
 5105SOL    HW226775   0.536   3.830  11.902 -1.2383 -0.5063 -0.9129
 5106SOL     OW26776   0.527   1.903   6.875  0.3601 -0.3428  0.1892
 5106SOL    HW126777   0.495   1.899   6.785 -0.7306  1.3069  0.5125
 5106SOL    HW226778   0.495   1.815   6.898  0.0503 -0.3479 -0.2782
 5107SOL     OW26779   3.237   2.927   7.323 -0.3792  0.0726 -0.6295
 5107SOL    HW126780   3.292   2.975   7.261 -1.2558 -0.0563 -1.5055
 5107SOL    HW226781   3.223   2.994   7.390  1.2491  1.1531 -1.3423
 5108SOL     OW26782   2.664   2.128   3.767  0.3408  0.0074 -0.4314
 5108SOL    HW126783   2.575   2.092   3.772  0.1718  0.7119  2.0033
 5108SOL    HW226784   2.675   2.142   3.673 -0.2279 -1.7647 -0.7651
 5109SOL     OW26785   0.660   3.181  13.502 -0.0441 -0.4403 -0.3180
 5109SOL    HW126786   0.715   3.254  13.472 -1.0128  1.1357  1.7328
 5109SOL    HW226787   0.686   3.164  13.592 -2.4960 -4.2080 -0.3095
 5110SOL     OW26788   0.641   2.032  13.688 -0.6272 -0.1975 -0.1455
 5110SOL    HW126789   0.582   2.033  13.612 -0.4605  0.6671 -0.2696
 5110SOL    HW226790   0.722   1.994  13.654 -1.0224 -1.5079  0.3887
 5111SOL     OW26791   0.754   3.443   6.550  0.1096 -0.1403  0.6940
 5111SOL    HW126792   0.676   3.413   6.597 -0.6996 -0.3867 -0.8238
 5111SOL    HW226793   0.764   3.377   6.482 -0.0297 -0.2963  0.8234
 5112SOL     OW26794   0.227   3.565   7.234 -0.0120 -0.1309 -0.2009
 5112SOL    HW126795   0.209   3.591   7.324 -0.4751  2.5612 -1.0825
 5112SOL    HW226796   0.140   3.558   7.195 -0.4015  0.1681  0.6244
 5113SOL     OW26797   0.733   1.652   2.254 -0.2222 -0.2907  0.0127
 5113SOL    HW126798   0.826   1.646   2.276 -0.1975  1.3112  0.3705
 5113SOL    HW226799   0.734   1.670   2.160  2.8059  0.2912  0.1368
 5114SOL     OW26800   3.395   3.087   7.143  0.1905  0.0103 -0.3759
 5114SOL    HW126801   3.485   3.111   7.167  0.0161 -0.6553  0.9435
 5114SOL    HW226802   3.421   3.017   7.083  0.5347 -0.6826  0.5796
 5115SOL     OW26803   1.787   4.235  13.395 -0.0227 -0.2290 -0.2184
 5115SOL    HW126804   1.697   4.234  13.427  0.6462  1.1979  1.7119
 5115SOL    HW226805   1.789   4.313  13.340  2.3764 -0.8654 -1.0395
 5116SOL     OW26806   4.246   3.826   9.976 -0.0438  0.4173  0.0351
 5116SOL    HW126807   4.200   3.800   9.897  1.3209 -1.8187 -0.0394
 5116SOL    HW226808   4.208   3.912   9.997 -0.7319 -0.0242  0.5892
 5117SOL     OW26809   3.840   0.051   1.223 -0.0970 -0.0419  0.3921
 5117SOL    HW126810   3.931   0.036   1.196 -0.0916  1.4459 -0.3909
 5117SOL    HW226811   3.839   4.700   1.284  1.4741  0.3700  0.9426
 5118SOL     OW26812   1.472   2.291   7.916 -0.0801 -0.1829  0.0384
 5118SOL    HW126813   1.566   2.308   7.916 -0.4620  1.8533  2.5843
 5118SOL    HW226814   1.446   2.358   7.979 -0.4143 -0.5470  0.2867
 5119SOL     OW26815   1.715   3.245   2.264 -0.1133 -0.2672  0.0328
 5119SOL    HW126816   1.695   3.207   2.179  0.8058 -1.0073  0.1335
 5119SOL    HW226817   1.760   3.327   2.242  2.0116 -1.6668 -0.9014
 5120SOL     OW26818   0.612   4.606  14.489 -0.0259 -0.8113  0.1801
 5120SOL    HW126819   0.520   4.631  14.475  1.5280  2.6572 -3.8866
 5120SOL    HW226820   0.630   4.619  14.582 -1.8072 -1.5288  0.6395
 5121SOL     OW26821   1.950   4.415   1.465  0.8708  0.0205  0.1748
 5121SOL    HW126822   1.962   4.428   1.559  2.7144 -0.1129 -0.0386
 5121SOL    HW226823   2.037   4.386   1.438  0.7532 -0.7354  0.6146
 5122SOL     OW26824   3.582   1.928   6.301  0.4237 -0.0498  0.4629
 5122SOL    HW126825   3.571   2.018   6.332  0.1844  0.7857 -2.0181
 5122SOL    HW226826   3.517   1.885   6.356  0.7443 -1.5988 -0.3697
 5123SOL     OW26827   4.247   4.698   1.994 -0.4480 -0.0825 -0.4377
 5123SOL    HW126828   4.261   4.685   1.900 -1.4598  0.3847 -0.6496
 5123SOL    HW226829   4.163   0.018   1.981  1.0112  2.7167 -0.5563
 5124SOL     OW26830   2.730   1.485   6.572  0.1746 -0.1624  0.0722
 5124SOL    HW126831   2.811   1.451   6.609  0.0214 -0.0872  0.4761
 5124SOL    HW226832   2.727   1.432   6.492  0.9813 -0.6588  0.3785
 5125SOL     OW26833   4.381   0.791   3.424 -0.2076 -0.8378 -0.4855
 5125SOL    HW126834   4.404   0.771   3.333 -2.0752  0.1186 -1.1437
 5125SOL    HW226835   4.413   0.881   3.418  1.8105 -1.6609 -2.0310
 5126SOL     OW26836   1.410   4.140   1.749  0.2846  0.2409 -0.3811
 5126SOL    HW126837   1.399   4.213   1.809 -0.5430 -0.5183  0.3913
 5126SOL    HW226838   1.505   4.125   1.743  0.1067 -1.2996  0.6849
 5127SOL     OW26839   3.427   2.003   2.689  0.5590 -0.0048 -0.1396
 5127SOL    HW126840   3.381   2.034   2.767  0.2647 -1.3139  0.2150
 5127SOL    HW226841   3.377   2.046   2.619  2.0418  0.6338 -0.7995
 5128SOL     OW26842   3.616   4.068   4.050 -0.6252 -0.1524 -0.8445
 5128SOL    HW126843   3.708   4.069   4.076 -1.5059  0.1890  2.1857
 5128SOL    HW226844   3.568   4.068   4.132  0.9953  0.8441  0.1040
 5129SOL     OW26845   1.002   3.586   8.100  0.3624 -0.1210  0.3061
 5129SOL    HW126846   1.058   3.515   8.130 -2.5407 -2.1429  1.0178
 5129SOL    HW226847   1.000   3.632   8.183 -0.5620 -1.1411  0.8573
 5130SOL     OW26848   1.078   4.173  16.562  0.2990  0.2255 -0.0295
 5130SOL    HW126849   1.073   4.082  16.591  1.0239  0.5528  1.1067
 5130SOL    HW226850   1.168   4.200  16.580  0.8381 -1.1929 -0.6538
 5131SOL     OW26851   0.112   1.181   8.328  0.0030 -0.7471  1.0368
 5131SOL    HW126852   0.026   1.195   8.288  0.8266 -0.8430 -0.8000
 5131SOL    HW226853   0.140   1.268   8.355 -2.3811  1.2576 -2.8498
 5132SOL     OW26854   4.000   0.906  14.399 -0.5735  0.2640 -0.1957
 5132SOL    HW126855   4.017   0.848  14.472  0.3000  1.9505  0.9487
 5132SOL    HW226856   3.906   0.921  14.392 -0.6999 -0.6333 -0.3914
 5133SOL     OW26857   0.794   3.043   9.490  0.2185 -0.0270 -0.3202
 5133SOL    HW126858   0.837   3.120   9.453 -1.1590  0.8164 -0.1886
 5133SOL    HW226859   0.759   3.078   9.572 -0.7678  1.3638 -1.3249
 5134SOL     OW26860   1.367   1.282   6.723 -0.3220 -0.1347  0.3084
 5134SOL    HW126861   1.317   1.202   6.705 -0.7787 -0.0076  1.0201
 5134SOL    HW226862   1.333   1.304   6.809  0.0759  0.3488  0.3443
 5135SOL     OW26863   2.633   2.924   3.571  0.1965 -0.4063  0.4859
 5135SOL    HW126864   2.711   2.950   3.523 -0.4707 -0.0427 -0.3969
 5135SOL    HW226865   2.679   2.909   3.653  0.7972 -0.6009  0.1160
 5136SOL     OW26866   0.086   2.775   3.852  0.1749  0.4720  0.4906
 5136SOL    HW126867   0.128   2.860   3.836 -1.1762  1.0339 -0.1146
 5136SOL    HW226868   0.136   2.709   3.803 -1.1846 -0.1299 -0.0863
 5137SOL     OW26869   1.136   3.625  10.521 -0.0737 -0.1571  0.1014
 5137SOL    HW126870   1.182   3.701  10.558 -0.7120  1.2350 -1.9458
 5137SOL    HW226871   1.194   3.552  10.542  0.3585 -0.3647 -1.8178
 5138SOL     OW26872   2.762   2.883   9.053 -0.0953 -0.3199 -0.7697
 5138SOL    HW126873   2.668   2.900   9.053 -0.0016  0.1122  2.3050
 5138SOL    HW226874   2.762   2.824   9.128 -2.2982  2.6158  1.5338
 5139SOL     OW26875   2.426   1.353  16.955  0.7730 -0.8335  0.4947
 5139SOL    HW126876   2.388   1.278  16.910 -0.4728 -0.9481  1.7396
 5139SOL    HW226877   2.429   1.316  17.043 -0.5451  0.1761  0.9679
 5140SOL     OW26878   0.365   2.431   9.989 -0.1834 -0.0891  0.0343
 5140SOL    HW126879   0.459   2.414   9.983 -0.6488 -3.3039  1.6033
 5140SOL    HW226880   0.343   2.407  10.079  0.4616 -3.1219 -0.5847
 5141SOL     OW26881   4.025   0.406   9.621  0.0204  0.7166  0.0122
 5141SOL    HW126882   4.038   0.460   9.699 -0.0020  1.2654 -0.3652
 5141SOL    HW226883   3.937   0.430   9.591  1.3650  1.9558 -2.8665
 5142SOL     OW26884   1.173   2.095   6.473 -0.0099 -0.2093  0.0027
 5142SOL    HW126885   1.105   2.074   6.537 -0.0588 -0.9634 -0.2888
 5142SOL    HW226886   1.139   2.179   6.443 -1.0973 -0.5535  0.2855
 5143SOL     OW26887   3.839   3.711   4.125  0.1894 -0.0246 -0.2834
 5143SOL    HW126888   3.808   3.652   4.194  0.2075  0.0490 -0.2125
 5143SOL    HW226889   3.785   3.682   4.051  0.2817  0.7283 -0.6403
 5144SOL     OW26890   4.631   2.472   2.969  0.0275 -0.5672 -0.1936
 5144SOL    HW126891   4.705   2.426   2.929  2.1307  2.0337  0.6763
 5144SOL    HW226892   4.688   2.528   3.023  0.0285  0.0529 -0.8440
 5145SOL     OW26893   2.994   3.874   5.838 -0.0282  0.0844  0.8466
 5145SOL    HW126894   3.021   3.838   5.753 -2.5185 -0.5393  0.3191
 5145SOL    HW226895   3.072   3.920   5.869 -0.3864 -0.3731  2.3808
 5146SOL     OW26896   0.210   1.095   5.997  0.0008  0.4686  0.0329
 5146SOL    HW126897   0.249   1.029   5.940  1.7981 -0.9709  2.9340
 5146SOL    HW226898   0.132   1.113   5.945 -0.6475 -1.3003  0.3932
 5147SOL     OW26899   3.894   0.931   8.466 -1.1204 -0.1037  0.0040
 5147SOL    HW126900   3.865   0.872   8.396  2.3189 -0.1463 -1.4154
 5147SOL    HW226901   3.971   0.888   8.503 -1.7064 -1.0365  0.1395
 5148SOL     OW26902   4.236   3.928   4.898  0.3616  0.0149  0.0777
 5148SOL    HW126903   4.304   3.910   4.962 -1.1974 -0.0403  1.7383
 5148SOL    HW226904   4.175   3.854   4.907 -0.8629  1.1579  1.2418
 5149SOL     OW26905   2.687   3.154  11.499  0.3812 -0.5938 -0.0898
 5149SOL    HW126906   2.642   3.100  11.435 -0.4327  1.8878 -1.6103
 5149SOL    HW226907   2.718   3.226  11.444 -1.8481 -1.1617 -2.1011
 5150SOL     OW26908   1.345   4.713   3.674 -0.7386 -0.0467 -0.9909
 5150SOL    HW126909   1.278   4.688   3.611 -1.0882 -0.6014 -0.3993
 5150SOL    HW226910   1.366   0.078   3.641 -0.5556  0.7345  1.1740
 5151SOL     OW26911   0.991   2.863   3.829 -0.2600 -0.4249  0.0560
 5151SOL    HW126912   0.895   2.867   3.826 -0.2257 -0.6010 -1.0898
 5151SOL    HW226913   1.012   2.772   3.845 -0.9448 -0.5785  0.0841
 5152SOL     OW26914   4.313   0.201  17.568  0.0497 -0.0591 -0.4595
 5152SOL    HW126915   4.271   0.184  17.652  0.3787  0.3388 -0.2162
 5152SOL    HW226916   4.386   0.253  17.600  0.0521 -0.1111 -0.3807
 5153SOL     OW26917   3.963   0.292   7.749 -0.5784  0.6335 -0.5641
 5153SOL    HW126918   4.006   0.375   7.771 -1.2337  0.9274 -0.3678
 5153SOL    HW226919   3.871   0.300   7.775  0.3645  3.2322  1.9555
 5154SOL     OW26920   3.271   0.703   5.481 -0.7565  0.4046 -0.2125
 5154SOL    HW126921   3.340   0.753   5.525  1.2810 -2.7184  0.1675
 5154SOL    HW226922   3.269   0.632   5.545  1.0789 -0.6347 -1.2966
 5155SOL     OW26923   1.994   0.864   7.595  0.3675  0.6092  0.0838
 5155SOL    HW126924   2.071   0.854   7.539 -1.2516 -0.4962 -1.9690
 5155SOL    HW226925   1.930   0.905   7.536  3.1293  2.6365 -1.4981
 5156SOL     OW26926   2.613   4.486  13.613  0.5141 -0.1583  0.1978
 5156SOL    HW126927   2.623   4.450  13.702 -4.3443 -1.5168  0.1663
 5156SOL    HW226928   2.571   4.571  13.625  0.9003  0.0405  0.1327
 5157SOL     OW26929   4.681   3.654   2.796  0.3461  0.6391  0.4509
 5157SOL    HW126930   0.045   3.637   2.760 -0.1570  0.7516 -0.7961
 5157SOL    HW226931   4.684   3.583   2.861 -0.3674 -2.0534 -2.4216
 5158SOL     OW26932   4.059   4.678   5.990 -0.2313  0.2538 -0.1505
 5158SOL    HW126933   4.146   4.642   6.007 -0.0765  0.2746 -0.8889
 5158SOL    HW226934   4.014   4.599   5.959 -0.2670  1.3665 -2.8935
 5159SOL     OW26935   3.909   0.654   4.657 -0.1952 -0.4832  0.2082
 5159SOL    HW126936   3.927   0.581   4.716  0.0042 -0.1177  0.5991
 5159SOL    HW226937   3.998   0.688   4.643 -0.2206 -0.7330 -0.5427
 5160SOL     OW26938   3.720   0.037   9.097 -0.8038  0.0688  0.2593
 5160SOL    HW126939   3.653   0.008   9.035  0.5481 -0.8088 -0.8018
 5160SOL    HW226940   3.738   4.682   9.149  2.2846 -0.3558 -1.4695
 5161SOL     OW26941   0.753   2.061   3.704 -0.2994 -0.6256 -0.0969
 5161SOL    HW126942   0.830   2.100   3.662 -0.1989 -1.4395 -0.6526
 5161SOL    HW226943   0.724   1.993   3.644  0.1738  1.4248 -2.6693
 5162SOL     OW26944   2.636   1.821   0.427  0.1633 -0.2790 -0.0626
 5162SOL    HW126945   2.630   1.737   0.380  1.1533 -1.0585  1.2137
 5162SOL    HW226946   2.668   1.785   0.509 -1.4665 -0.7820  0.3549
 5163SOL     OW26947   0.086   1.452   8.341 -0.1334  0.0222  0.2077
 5163SOL    HW126948   0.026   1.432   8.269  1.8384 -0.3744 -1.3376
 5163SOL    HW226949   0.074   1.546   8.356 -0.3149  0.2350 -1.2436
 5164SOL     OW26950   1.973   3.074   6.648  0.3422  0.3058  0.3249
 5164SOL    HW126951   1.952   2.985   6.677  2.4213 -0.4408 -0.4149
 5164SOL    HW226952   1.924   3.087   6.567 -0.7036  1.5542  1.1613
 5165SOL     OW26953   4.606   2.871   9.005  0.0309 -0.4917  0.1643
 5165SOL    HW126954   4.650   2.789   9.029 -0.6217 -0.4112  1.6236
 5165SOL    HW226955   4.612   2.919   9.087  0.8046 -0.4832  0.1016
 5166SOL     OW26956   0.478   2.025  12.586  0.4641 -0.1272  0.5167
 5166SOL    HW126957   0.391   1.995  12.561  0.1652  2.3013 -1.3579
 5166SOL    HW226958   0.461   2.092  12.652  2.0458 -1.0426  1.8442
 5167SOL     OW26959   0.883   0.145   8.198 -0.3143  0.2967 -0.0705
 5167SOL    HW126960   0.975   0.120   8.211 -0.0615  1.8459  1.1344
 5167SOL    HW226961   0.884   0.151   8.103  0.8418 -0.1471 -0.0936
 5168SOL     OW26962   3.786   0.930   9.096 -0.0784  0.1163 -0.6083
 5168SOL    HW126963   3.791   0.838   9.068 -1.5023 -0.3019  0.4892
 5168SOL    HW226964   3.697   0.958   9.075 -0.3738  1.9690  3.1169
 5169SOL     OW26965   3.641   2.568   6.774  0.1305  0.1311 -0.1146
 5169SOL    HW126966   3.546   2.570   6.760  0.1205  2.0092  0.1603
 5169SOL    HW226967   3.648   2.496   6.837 -0.3948 -1.5759 -2.0083
 5170SOL     OW26968   1.833   2.685  10.861  0.0798  0.1512 -0.2877
 5170SOL    HW126969   1.861   2.727  10.779  1.1582  0.9103  0.4790
 5170SOL    HW226970   1.917   2.645  10.884 -0.6304 -1.4414 -0.4596
 5171SOL     OW26971   3.713   1.534   2.833  0.4816  0.5599 -0.2610
 5171SOL    HW126972   3.753   1.561   2.750  3.1244 -1.0091  0.5061
 5171SOL    HW226973   3.719   1.439   2.826  0.5264  0.6142 -0.9571
 5172SOL     OW26974   2.383   1.290   8.071 -0.2516  0.5315 -0.1284
 5172SOL    HW126975   2.422   1.374   8.047 -1.2832  0.9650 -0.3110
 5172SOL    HW226976   2.367   1.252   7.984  0.9187  0.4476 -0.3092
 5173SOL     OW26977   1.072   3.806   4.617 -0.5800 -0.0170 -0.0271
 5173SOL    HW126978   1.157   3.761   4.624 -1.1647 -1.1000  0.1527
 5173SOL    HW226979   1.072   3.848   4.703 -1.4493  2.3859 -1.2270
 5174SOL     OW26980   2.664   2.674   4.444  0.8514 -0.5307  0.3241
 5174SOL    HW126981   2.730   2.663   4.375 -0.0900  2.9708 -1.1056
 5174SOL    HW226982   2.575   2.682   4.411  1.4301 -1.3771 -1.4425
 5175SOL     OW26983   1.468   2.120   6.183  0.4441 -0.2696 -0.2696
 5175SOL    HW126984   1.402   2.168   6.232 -0.1698 -1.2373 -0.1367
 5175SOL    HW226985   1.547   2.119   6.238  1.2382  1.1028 -1.4002
 5176SOL     OW26986   0.980   2.492   1.168 -0.0095 -0.4829 -0.8840
 5176SOL    HW126987   1.053   2.551   1.153 -0.7947  0.1736 -2.1224
 5176SOL    HW226988   0.968   2.460   1.079 -2.1058 -2.8411  0.2229
 5177SOL     OW26989   1.312   1.573  12.303  0.0285  0.2364  0.1801
 5177SOL    HW126990   1.385   1.513  12.323 -0.5952 -0.8707 -0.8890
 5177SOL    HW226991   1.243   1.508  12.319  1.4267 -1.2462  0.2842
 5178SOL     OW26992   2.201   1.478  11.158 -0.0267 -0.0605 -0.5625
 5178SOL    HW126993   2.196   1.567  11.122  2.8062  0.2922 -0.0297
 5178SOL    HW226994   2.128   1.472  11.219  1.3135  1.8751  1.1885
 5179SOL     OW26995   2.677   0.105   1.605  0.0286 -0.1974  0.2191
 5179SOL    HW126996   2.720   0.177   1.652 -0.6524  0.5792 -0.3510
 5179SOL    HW226997   2.587   0.117   1.638  0.1650 -0.2229  0.6059
 5180SOL     OW26998   1.625   1.283   2.424 -0.2401  0.5122 -0.3707
 5180SOL    HW126999   1.577   1.200   2.429 -1.8145  1.4497 -0.0606
 5180SOL    HW227000   1.554   1.342   2.447  1.3673  2.5826 -0.7367
 5181SOL     OW27001   0.364   1.476  12.931 -0.3269  0.3167  0.2344
 5181SOL    HW127002   0.297   1.513  12.988 -1.5399  0.8029 -1.5336
 5181SOL    HW227003   0.323   1.472  12.845 -0.8928  0.5758  0.4924
 5182SOL     OW27004   4.074   4.615   4.559 -0.3124  0.1753 -0.2967
 5182SOL    HW127005   4.149   4.576   4.513 -0.1487 -0.4852  0.5324
 5182SOL    HW227006   4.090   4.708   4.542 -1.0251  0.4859  0.7622
 5183SOL     OW27007   3.007   0.231   3.367 -0.1887  0.6219  0.2598
 5183SOL    HW127008   2.982   0.260   3.279 -0.1106  0.2521  0.1164
 5183SOL    HW227009   3.046   0.147   3.342  0.4992  1.0638 -0.1668
 5184SOL     OW27010   2.147   2.842   8.623  0.2972  0.8174  0.6553
 5184SOL    HW127011   2.093   2.921   8.631 -0.0964  0.4151  1.9397
 5184SOL    HW227012   2.180   2.855   8.534  1.7667 -2.7267  0.7197
 5185SOL     OW27013   2.668   1.987   8.651  0.1930  0.2106 -0.9388
 5185SOL    HW127014   2.615   1.919   8.692  0.4558 -0.2714 -1.4093
 5185SOL    HW227015   2.600   2.055   8.654 -1.8573 -1.8286 -1.2852
 5186SOL     OW27016   2.564   0.181  12.965  0.4455  0.2891 -0.4536
 5186SOL    HW127017   2.605   0.143  13.043 -1.4318 -0.9923 -0.1089
 5186SOL    HW227018   2.585   0.125  12.890  0.7895 -0.6874  0.3822
 5187SOL     OW27019   3.111   0.381   6.153  0.1505 -0.3171 -0.0977
 5187SOL    HW127020   3.046   0.448   6.174  0.1462 -0.6662  0.9631
 5187SOL    HW227021   3.139   0.395   6.062  1.1941  3.4749  0.8033
 5188SOL     OW27022   2.251   0.571  15.290  0.1044  0.2490 -0.4371
 5188SOL    HW127023   2.240   0.648  15.235  2.1715  1.8272  1.3275
 5188SOL    HW227024   2.216   0.595  15.376  0.2256  2.1880 -0.9441
 5189SOL     OW27025   2.914   3.207  15.809  0.0089  0.8241  0.8054
 5189SOL    HW127026   2.988   3.261  15.783 -0.5855 -0.1198 -2.8821
 5189SOL    HW227027   2.840   3.261  15.781 -0.4095 -1.1527 -1.8232
 5190SOL     OW27028   3.968   4.674  10.907  0.1240  0.0913 -0.1002
 5190SOL    HW127029   3.944   4.643  10.994 -0.0083 -1.1864 -0.5967
 5190SOL    HW227030   3.989   4.590  10.867 -0.0451 -0.4125  0.8733
 5191SOL     OW27031   1.956   4.506   4.887  0.6788  0.4583  0.0567
 5191SOL    HW127032   1.899   4.581   4.902 -1.9500 -1.5396  0.0912
 5191SOL    HW227033   1.926   4.478   4.801  1.5706 -0.4574  0.0318
 5192SOL     OW27034   2.764   1.128  12.350 -0.1022 -0.0029 -0.2676
 5192SOL    HW127035   2.719   1.055  12.307 -0.7164 -0.1279  0.5919
 5192SOL    HW227036   2.694   1.192  12.362  0.8348  1.2123 -1.3268
 5193SOL     OW27037   2.316   0.981   4.357  0.4488 -0.2146  0.0693
 5193SOL    HW127038   2.352   0.897   4.328  0.5261 -0.1997  0.1218
 5193SOL    HW227039   2.247   0.954   4.418  0.5491  0.5478  0.5171
 5194SOL     OW27040   0.283   4.650   2.314 -0.3676 -0.0044  0.0130
 5194SOL    HW127041   0.353   4.681   2.257 -0.9494 -1.1460 -1.3242
 5194SOL    HW227042   0.266   4.562   2.279  0.3165  0.2136 -0.8714
 5195SOL     OW27043   0.719   4.419   2.886  0.2532 -0.5477 -0.1116
 5195SOL    HW127044   0.633   4.456   2.903  1.3227  1.3512  1.1430
 5195SOL    HW227045   0.764   4.491   2.843  1.6077 -1.8459 -0.8767
 5196SOL     OW27046   0.282   0.155  14.087  0.1644  0.1709 -0.0228
 5196SOL    HW127047   0.263   0.205  14.008  2.3681  1.2839  0.1464
 5196SOL    HW227048   0.296   0.225  14.150 -1.3219  0.8996 -0.5078
 5197SOL     OW27049   4.013   0.157  13.630  0.6441  0.0321  0.2741
 5197SOL    HW127050   4.034   0.182  13.720 -0.9270 -2.0660  1.2230
 5197SOL    HW227051   3.972   0.241  13.609 -0.1081 -0.2366  0.6718
 5198SOL     OW27052   4.610   1.544   3.741  0.3237  0.2889  0.0640
 5198SOL    HW127053   4.544   1.576   3.802 -0.1002  1.7496 -1.1574
 5198SOL    HW227054   4.558   1.537   3.662  2.3201 -0.5764 -1.1804
 5199SOL     OW27055   2.438   4.005   2.130  0.7532 -0.3210 -0.5455
 5199SOL    HW127056   2.394   4.029   2.048  3.6317 -1.8467 -2.5206
 5199SOL    HW227057   2.529   4.034   2.118 -0.1870  2.4901 -1.0370
 5200SOL     OW27058   2.437   1.449   6.663 -0.0989 -0.2056  0.7722
 5200SOL    HW127059   2.526   1.415   6.654 -0.6810 -1.1402 -1.4312
 5200SOL    HW227060   2.400   1.443   6.575  1.7251 -0.8252  0.0310
 5201SOL     OW27061   2.375   0.614   0.443 -0.6659 -0.3876  0.6896
 5201SOL    HW127062   2.327   0.694   0.421 -0.0768 -0.0915  0.4606
 5201SOL    HW227063   2.443   0.611   0.375 -3.4299  1.3341 -2.1941
 5202SOL     OW27064   0.538   4.528   8.756  0.8588 -0.5049 -0.1920
 5202SOL    HW127065   0.563   4.474   8.830 -0.7418 -1.1761 -0.1228
 5202SOL    HW227066   0.468   4.583   8.791 -1.3690 -2.6730 -1.1617
 5203SOL     OW27067   1.374   0.335   3.083 -0.2983  0.8269 -0.4207
 5203SOL    HW127068   1.439   0.282   3.037 -0.6907 -0.1159  0.1155
 5203SOL    HW227069   1.368   0.289   3.167  1.8422  0.8297 -0.2560
 5204SOL     OW27070   3.442   3.280   5.658 -0.2666  0.0054  0.0045
 5204SOL    HW127071   3.467   3.358   5.608 -0.2143 -0.1942 -0.2751
 5204SOL    HW227072   3.429   3.216   5.589  2.2523 -0.4101 -0.0687
 5205SOL     OW27073   1.308   0.555  13.547 -0.7032 -0.2413  0.1957
 5205SOL    HW127074   1.358   0.523  13.472  0.9850 -0.8464  1.5875
 5205SOL    HW227075   1.386   0.557  13.603  0.3420 -2.7565 -1.1590
 5206SOL     OW27076   4.377   2.165   2.114  0.1939 -0.3988 -0.7368
 5206SOL    HW127077   4.460   2.211   2.100  0.1678  0.1182  0.8012
 5206SOL    HW227078   4.376   2.111   2.034  1.4656 -1.0574 -0.2975
 5207SOL     OW27079   4.152   1.591   8.499  0.5363 -0.4637  0.1648
 5207SOL    HW127080   4.187   1.648   8.567 -0.5608  1.6016 -1.0182
 5207SOL    HW227081   4.132   1.504   8.534  3.6693 -0.9188  0.8737
 5208SOL     OW27082   0.742   0.626   3.967 -0.1307 -0.0683 -0.0805
 5208SOL    HW127083   0.650   0.626   3.994 -0.6241 -2.4869 -1.8089
 5208SOL    HW227084   0.778   0.595   4.049  2.1765  1.0656 -0.6588
 5209SOL     OW27085   3.809   4.516  15.563  0.3344 -0.3879 -0.2227
 5209SOL    HW127086   3.849   4.452  15.504 -1.8286 -1.8330 -0.1084
 5209SOL    HW227087   3.864   4.593  15.546 -2.9100  1.4706 -2.1881
 5210SOL     OW27088   1.446   0.306   5.741 -0.1477  0.2179 -0.0450
 5210SOL    HW127089   1.418   0.244   5.809  2.3391 -0.6985  0.1217
 5210SOL    HW227090   1.501   0.258   5.679  0.8657 -1.2672  2.0110
 5211SOL     OW27091   4.632   4.217   4.166 -0.0714 -0.1355 -0.8234
 5211SOL    HW127092   4.642   4.183   4.077  2.5833 -0.0699 -0.5473
 5211SOL    HW227093   4.714   4.188   4.206 -0.0615  1.1269  0.0725
 5212SOL     OW27094   3.245   2.164   7.673 -0.4166  0.7898  0.1242
 5212SOL    HW127095   3.229   2.107   7.598  2.9560  0.0145 -0.0210
 5212SOL    HW227096   3.318   2.116   7.714 -1.6880 -1.2917 -0.0654
 5213SOL     OW27097   1.014   4.249   5.430 -0.2730  0.0411 -0.1439
 5213SOL    HW127098   1.069   4.176   5.458 -1.1925 -0.3921  0.5269
 5213SOL    HW227099   1.036   4.269   5.339  1.6736  0.1986  0.3518
 5214SOL     OW27100   0.796   3.021  14.403  0.3507 -0.3229 -0.0527
 5214SOL    HW127101   0.742   2.963  14.350  0.2896 -0.9827  0.7219
 5214SOL    HW227102   0.785   2.994  14.495  1.2596 -0.1099  0.1171
 5215SOL     OW27103   4.194   0.742   4.701  0.6945  0.4729  0.2748
 5215SOL    HW127104   4.247   0.735   4.780  1.2860  0.5041 -0.1196
 5215SOL    HW227105   4.225   0.825   4.663 -1.6762  1.6112  0.8032
 5216SOL     OW27106   1.159   2.859   1.631 -0.3279  0.2798  0.6318
 5216SOL    HW127107   1.127   2.802   1.700 -1.4183  1.1500  0.8561
 5216SOL    HW227108   1.209   2.932   1.667  1.7825 -1.3091  0.9072
 5217SOL     OW27109   4.499   4.533   2.102 -0.1399 -1.5113 -0.3959
 5217SOL    HW127110   4.555   4.610   2.104 -0.7019 -1.0960 -0.5849
 5217SOL    HW227111   4.424   4.567   2.151  1.0608 -0.1799  0.5157
 5218SOL     OW27112   0.413   0.619   5.115 -0.1653 -0.1450 -0.0819
 5218SOL    HW127113   0.443   0.555   5.050  1.9205 -0.5613  1.3135
 5218SOL    HW227114   0.437   0.576   5.197  0.1397 -0.5891 -0.4033
 5219SOL     OW27115   0.282   2.553  15.099 -0.4183  0.6153  0.1161
 5219SOL    HW127116   0.247   2.472  15.062 -0.5475 -0.0699  1.7555
 5219SOL    HW227117   0.231   2.620  15.053 -1.3685 -0.8420 -0.9574
 5220SOL     OW27118   3.403   4.704   5.549 -0.0094  0.4836 -0.1843
 5220SOL    HW127119   3.495   4.681   5.538 -0.0225  0.9422 -1.1840
 5220SOL    HW227120   3.377   4.622   5.592  0.1953 -0.0140 -1.0033
 5221SOL     OW27121   0.080   3.564   5.547  0.5269 -0.0280  0.4242
 5221SOL    HW127122   0.163   3.588   5.589  0.6487  0.8340 -0.2925
 5221SOL    HW227123   0.078   3.607   5.461 -1.1869  0.2268  0.5944
 5222SOL     OW27124   4.664   1.459   8.835 -0.3015 -0.0460  0.2862
 5222SOL    HW127125   4.589   1.498   8.880 -0.4093  0.1629 -0.0762
 5222SOL    HW227126   4.679   1.532   8.774 -1.3122 -0.1901 -0.1359
 5223SOL     OW27127   1.095   1.228   2.478 -0.5528 -0.0980  0.2770
 5223SOL    HW127128   1.156   1.233   2.551  2.6985 -2.7437 -2.2725
 5223SOL    HW227129   1.059   1.315   2.493 -0.3415  0.4675 -2.5277
 5224SOL     OW27130   1.087   2.409   2.479 -0.4140 -0.6758 -0.1129
 5224SOL    HW127131   1.035   2.343   2.432  0.9891 -0.4978 -1.9038
 5224SOL    HW227132   1.143   2.443   2.409 -0.4735  0.3099  0.3202
 5225SOL     OW27133   2.502   4.266   2.319 -0.2990 -0.3776 -0.2275
 5225SOL    HW127134   2.584   4.307   2.292 -0.5666  1.1673  1.3311
 5225SOL    HW227135   2.530   4.200   2.382 -3.3574 -0.3189  1.2300
 5226SOL     OW27136   2.103   0.445  11.056 -0.5549 -0.2167  0.0314
 5226SOL    HW127137   2.132   0.361  11.093 -1.2003 -0.0974  0.7935
 5226SOL    HW227138   2.142   0.504  11.119 -1.9358  0.1547  0.5390
 5227SOL     OW27139   3.248   2.280   6.815 -0.1138 -0.5678  0.1790
 5227SOL    HW127140   3.169   2.279   6.760 -0.5461 -1.3195  0.8170
 5227SOL    HW227141   3.239   2.192   6.851  3.5887 -0.6544  0.8223
 5228SOL     OW27142   2.245   4.060   7.940  0.1187 -0.1679 -0.3212
 5228SOL    HW127143   2.326   4.091   7.982  0.0922 -1.0127  0.3513
 5228SOL    HW227144   2.193   4.033   8.015 -0.0078  1.6033  0.2229
 5229SOL     OW27145   2.676   0.090   1.949 -0.0042  0.5145  0.7000
 5229SOL    HW127146   2.606   0.155   1.957 -0.5910 -0.0366 -0.0238
 5229SOL    HW227147   2.646   0.017   2.003 -0.7345  0.8467  0.7450
 5230SOL     OW27148   4.009   0.077   6.829  1.0352 -0.1529  0.3418
 5230SOL    HW127149   4.084   0.090   6.770 -1.1561  0.3111 -2.3465
 5230SOL    HW227150   3.978   0.168   6.830  0.1403 -0.4443 -1.0292
 5231SOL     OW27151   1.694   2.941   4.890 -0.5030 -0.6817 -0.2690
 5231SOL    HW127152   1.774   2.907   4.931  0.2714  3.1144  1.3681
 5231SOL    HW227153   1.732   3.026   4.868 -1.3709 -0.5489 -1.2505
 5232SOL     OW27154   2.173   4.606  10.715  0.7655  0.2186 -0.1703
 5232SOL    HW127155   2.082   4.607  10.686  0.9344 -1.0124 -0.7290
 5232SOL    HW227156   2.202   4.557  10.638 -1.6475  0.3533 -1.1646
 5233SOL     OW27157   3.506   0.022   2.548 -0.0141 -0.3064 -0.3750
 5233SOL    HW127158   3.562   4.712   2.478 -3.0053  0.2502 -3.0362
 5233SOL    HW227159   3.493   0.112   2.517 -1.2672 -0.4080 -0.1401
 5234SOL     OW27160   0.526   1.719  12.855  0.1064  0.5453 -0.3224
 5234SOL    HW127161   0.474   1.777  12.911 -1.0199 -1.4971  0.7549
 5234SOL    HW227162   0.557   1.665  12.927 -0.2904  0.3287 -0.3172
 5235SOL     OW27163   3.896   0.064   7.579 -0.7921 -0.3587 -0.1742
 5235SOL    HW127164   3.971   0.004   7.580 -1.8906 -1.7664 -3.1556
 5235SOL    HW227165   3.930   0.138   7.629  1.3646 -0.0931 -2.0596
 5236SOL     OW27166   3.058   1.234   0.402  0.1470  0.2783 -0.1605
 5236SOL    HW127167   3.116   1.296   0.446  1.0734 -1.9950  1.8139
 5236SOL    HW227168   3.115   1.211   0.329  1.4528  0.4715  0.7958
 5237SOL     OW27169   3.872   3.487   6.679 -0.0909  0.2919 -0.1197
 5237SOL    HW127170   3.912   3.401   6.673  1.3343  0.8376  1.3431
 5237SOL    HW227171   3.939   3.531   6.627 -1.6077  0.7554 -1.6913
 5238SOL     OW27172   2.516   2.849  11.906 -0.1126 -0.1820 -0.7011
 5238SOL    HW127173   2.520   2.917  11.974 -0.9002 -1.2571  0.4166
 5238SOL    HW227174   2.439   2.869  11.853 -0.4748 -2.0159 -0.8487
 5239SOL     OW27175   0.207   3.815   8.475  0.2323  0.5133 -0.6298
 5239SOL    HW127176   0.265   3.836   8.548 -0.2182 -2.1475  0.4851
 5239SOL    HW227177   0.180   3.723   8.483  0.4979  0.5786  0.9927
 5240SOL     OW27178   3.543   3.153  10.005 -0.2721  0.2025 -0.0803
 5240SOL    HW127179   3.484   3.098  10.057  0.0137  0.6371  0.7081
 5240SOL    HW227180   3.590   3.191  10.079  2.1802 -2.8901 -0.0249
 5241SOL     OW27181   2.355   0.268   3.999  0.1329 -0.0751 -0.1723
 5241SOL    HW127182   2.327   0.180   4.025  0.0470  0.1001  0.3270
 5241SOL    HW227183   2.332   0.322   4.074  1.4038 -0.3593  0.4217
 5242SOL     OW27184   2.127   3.678   3.973 -0.1718  0.5693  0.6472
 5242SOL    HW127185   2.033   3.666   3.984 -0.7908  2.5545 -2.3804
 5242SOL    HW227186   2.133   3.591   3.931 -0.4226  0.5053  0.7463
 5243SOL     OW27187   0.974   1.937  10.592  0.4630  0.2282 -0.6521
 5243SOL    HW127188   1.056   1.936  10.543  0.5407  0.1773 -0.5224
 5243SOL    HW227189   0.949   2.027  10.609 -1.6062 -0.4427 -0.1676
 5244SOL     OW27190   0.224   2.739  11.549 -0.6854 -0.4249 -0.6890
 5244SOL    HW127191   0.232   2.653  11.592  0.6422  2.3487  4.5787
 5244SOL    HW227192   0.220   2.713  11.457  0.5838 -0.2436 -0.7958
 5245SOL     OW27193   3.497   0.020   2.813  0.0235  0.3058  0.4980
 5245SOL    HW127194   3.403   0.037   2.821 -0.1233  0.1318 -0.8924
 5245SOL    HW227195   3.510   0.003   2.720  0.5915  1.7374  0.3114
 5246SOL     OW27196   0.439   4.379   0.167  0.3044 -0.1974  0.3004
 5246SOL    HW127197   0.402   4.407   0.083  0.9398 -0.5743 -0.1017
 5246SOL    HW227198   0.369   4.391   0.231  1.3755  1.0136  1.2469
 5247SOL     OW27199   1.806   4.463   6.002  0.1734  0.0386  0.2550
 5247SOL    HW127200   1.868   4.490   5.934  0.2412  0.0849  0.3355
 5247SOL    HW227201   1.821   4.369   5.996  0.6121  0.0650  0.9677
 5248SOL     OW27202   1.525   3.489  12.719  0.2030 -0.4711  0.3284
 5248SOL    HW127203   1.557   3.577  12.739  0.8272 -0.2769 -1.5610
 5248SOL    HW227204   1.510   3.495  12.624 -2.4845  0.5406  0.8211
 5249SOL     OW27205   4.204   1.299   9.262  0.3670  0.2348 -0.0552
 5249SOL    HW127206   4.168   1.362   9.324  2.8000 -0.4137  2.0171
 5249SOL    HW227207   4.280   1.267   9.309  0.5799  2.1492  0.8951
 5250SOL     OW27208   0.479   3.999   9.766  0.2515 -0.4114 -0.1627
 5250SOL    HW127209   0.469   4.090   9.791 -1.3702 -0.5981 -0.1060
 5250SOL    HW227210   0.499   3.969   9.854 -0.8782 -1.3513 -0.2134
 5251SOL     OW27211   0.047   4.200   5.361 -0.0868 -0.4042 -0.3371
 5251SOL    HW127212   0.029   4.145   5.438 -0.1676 -0.3856 -0.3430
 5251SOL    HW227213   0.052   4.126   5.300  1.5179 -0.4864 -0.0996
 5252SOL     OW27214   3.712   2.196   7.721  0.7775 -0.0115  0.0097
 5252SOL    HW127215   3.796   2.152   7.731  1.7091  1.9003  0.6542
 5252SOL    HW227216   3.719   2.260   7.791 -1.9045  1.7246 -1.2853
 5253SOL     OW27217   2.475   2.065   0.387  0.1074 -0.4497  0.4434
 5253SOL    HW127218   2.518   1.982   0.369 -2.4885 -1.4420 -1.1827
 5253SOL    HW227219   2.459   2.102   0.300  1.8811 -1.9702 -0.4976
 5254SOL     OW27220   0.854   2.893   2.295  0.1344  0.0680 -0.5759
 5254SOL    HW127221   0.824   2.807   2.268 -1.0537 -0.1603  1.4251
 5254SOL    HW227222   0.931   2.872   2.348  1.1277  2.7495 -0.9417
 5255SOL     OW27223   0.242   0.940  10.789  0.3617  0.4115  0.6794
 5255SOL    HW127224   0.330   0.938  10.751 -0.1419 -2.7729 -0.3482
 5255SOL    HW227225   0.269   0.939  10.881  0.4835 -3.8314  0.6283
 5256SOL     OW27226   4.716   4.493  11.704 -0.2708  0.7795  0.1080
 5256SOL    HW127227   4.698   4.403  11.679  0.4834 -0.3757  3.6397
 5256SOL    HW227228   0.075   4.518  11.661 -1.9510  1.7770 -2.5090
 5257SOL     OW27229   1.774   0.422   3.607 -0.1047 -0.1697 -0.6853
 5257SOL    HW127230   1.816   0.336   3.597 -1.0572 -0.4825 -1.8752
 5257SOL    HW227231   1.846   0.465   3.654  0.4732 -1.2134 -0.6040
 5258SOL     OW27232   1.127   2.421  11.716 -0.3561  0.5999 -0.1341
 5258SOL    HW127233   1.124   2.402  11.810 -0.3581  1.6209  0.0724
 5258SOL    HW227234   1.040   2.396  11.687 -1.4159 -0.3691  3.9287
 5259SOL     OW27235   3.251   1.062  12.429  0.0616  0.0945 -0.0492
 5259SOL    HW127236   3.331   1.055  12.482 -0.4095  1.9828  0.8893
 5259SOL    HW227237   3.245   1.157  12.423 -0.8541 -0.0486 -1.3267
 5260SOL     OW27238   4.041   3.750  16.284  0.3772  0.0933 -0.0075
 5260SOL    HW127239   4.063   3.688  16.354 -0.5842 -0.7030 -0.4068
 5260SOL    HW227240   4.126   3.790  16.268  0.1605  0.4957 -0.1504
 5261SOL     OW27241   3.655   3.737   3.194 -0.7738  0.0913 -0.2471
 5261SOL    HW127242   3.629   3.723   3.285 -0.1202 -2.4588 -0.4507
 5261SOL    HW227243   3.595   3.677   3.150  0.2808 -0.0229 -1.5221
 5262SOL     OW27244   1.961   3.471   4.323  0.1777  0.3919 -0.3788
 5262SOL    HW127245   2.018   3.414   4.271 -0.9867 -2.0690  1.0766
 5262SOL    HW227246   1.929   3.408   4.388  0.9541  0.6328  0.2474
 5263SOL     OW27247   2.046   0.278  16.570 -0.1973 -0.2536  0.3403
 5263SOL    HW127248   2.050   0.330  16.489  1.3244  1.9448  1.8353
 5263SOL    HW227249   2.020   0.346  16.632  0.5809  0.7554 -0.4363
 5264SOL     OW27250   2.475   3.091   5.120 -0.0445  0.3835  0.2934
 5264SOL    HW127251   2.405   3.139   5.076 -0.6426 -1.0532 -0.3226
 5264SOL    HW227252   2.504   3.167   5.172  2.3127 -1.7293  2.1136
 5265SOL     OW27253   4.536   3.531   2.229 -0.0523  0.4479 -0.1596
 5265SOL    HW127254   4.557   3.624   2.240  0.2063  0.1949  1.5976
 5265SOL    HW227255   4.497   3.540   2.142  0.7441 -1.2273 -0.6918
 5266SOL     OW27256   4.240   4.664  13.132 -0.1959 -0.4220 -0.0701
 5266SOL    HW127257   4.284   4.606  13.070 -0.0233 -0.9549  0.5569
 5266SOL    HW227258   4.206   4.594  13.187 -1.4041 -0.6133 -1.0370
 5267SOL     OW27259   2.584   0.087   8.458 -0.4061  0.1733 -0.9216
 5267SOL    HW127260   2.567   0.140   8.380  0.6266  0.9501 -0.6234
 5267SOL    HW227261   2.667   0.045   8.432 -0.2246  1.4443 -2.4028
 5268SOL     OW27262   2.014   2.307   7.311  0.2978  0.0521  0.0614
 5268SOL    HW127263   2.050   2.318   7.223 -0.8369  0.5710 -0.3420
 5268SOL    HW227264   1.930   2.264   7.296 -0.1323  0.9788 -0.2495
 5269SOL     OW27265   1.426   4.007   0.238 -0.1314  0.0255  0.0242
 5269SOL    HW127266   1.442   4.100   0.220  2.2878 -0.6590 -1.3286
 5269SOL    HW227267   1.442   3.973   0.150  0.5962 -0.8393  0.4845
 5270SOL     OW27268   2.289   4.699   4.674 -0.2908  0.0451 -0.4636
 5270SOL    HW127269   2.244   4.617   4.695 -0.2862  0.0859 -0.2945
 5270SOL    HW227270   2.238   0.045   4.717  2.9108  0.8546  2.0358
 5271SOL     OW27271   2.528   3.343   0.842 -0.3453  0.4079  0.5576
 5271SOL    HW127272   2.487   3.404   0.781 -3.1947 -0.1930  1.8971
 5271SOL    HW227273   2.453   3.285   0.854 -1.0916  0.8524 -2.1063
 5272SOL     OW27274   3.024   1.055   2.200  0.3513  0.0926 -0.3167
 5272SOL    HW127275   3.025   1.078   2.107 -1.1441  0.4008 -0.2560
 5272SOL    HW227276   2.929   1.055   2.210  0.5541 -0.7657  1.6149
 5273SOL     OW27277   0.923   3.575  10.836  0.2566  0.0420  0.1536
 5273SOL    HW127278   0.877   3.596  10.755 -1.0638 -0.3209  0.8086
 5273SOL    HW227279   0.979   3.503  10.807 -1.0055 -0.4525 -1.0428
 5274SOL     OW27280   2.804   1.273  17.349  0.4240 -0.0013 -0.1431
 5274SOL    HW127281   2.740   1.248  17.283 -1.6139  1.1723  1.3914
 5274SOL    HW227282   2.832   1.356  17.308 -1.2211 -0.2516 -1.7591
 5275SOL     OW27283   4.124   1.747   2.224  0.0453  0.0297 -0.9330
 5275SOL    HW127284   4.083   1.766   2.309  1.6873  1.1847 -0.4148
 5275SOL    HW227285   4.197   1.807   2.235  1.5489 -1.6593 -1.6876
 5276SOL     OW27286   3.793   2.705  10.663 -0.7100 -0.3687 -0.1747
 5276SOL    HW127287   3.764   2.700  10.572  1.4606 -0.4393 -0.8715
 5276SOL    HW227288   3.718   2.750  10.702 -0.2855 -0.9742  1.3190
 5277SOL     OW27289   1.593   0.907  14.111 -0.0663 -0.0784 -0.0163
 5277SOL    HW127290   1.562   0.935  14.197 -1.7830  0.3322 -0.7662
 5277SOL    HW227291   1.661   0.974  14.098 -3.0271  2.6384 -1.6920
 5278SOL     OW27292   4.284   3.227   1.944  0.3572 -0.2378  0.3395
 5278SOL    HW127293   4.330   3.303   1.908 -0.1732 -0.0503  0.0582
 5278SOL    HW227294   4.193   3.244   1.921  0.4175  0.9303  0.9715
 5279SOL     OW27295   1.711   0.203   5.871 -0.1033 -0.4224  0.3725
 5279SOL    HW127296   1.699   0.169   5.960 -1.6297 -1.0223 -0.0544
 5279SOL    HW227297   1.781   0.267   5.879  0.3187 -0.7999 -0.2921
 5280SOL     OW27298   2.265   2.202  15.765 -0.7541 -0.5495 -0.4753
 5280SOL    HW127299   2.260   2.247  15.849  1.4696 -2.7442  0.8399
 5280SOL    HW227300   2.348   2.157  15.780 -0.4816  1.6967  4.7016
 5281SOL     OW27301   2.372   4.641   5.013  0.9518  0.0116  1.3141
 5281SOL    HW127302   2.293   4.616   5.061  0.1280 -0.2873 -0.1752
 5281SOL    HW227303   2.387   4.556   4.971  0.0967  0.1931  0.6387
 5282SOL     OW27304   2.221   3.690  13.165 -0.0221 -0.3565  0.1996
 5282SOL    HW127305   2.130   3.719  13.154 -0.2455 -2.2440 -2.8755
 5282SOL    HW227306   2.231   3.675  13.259 -2.7084  0.3522  0.6017
 5283SOL     OW27307   0.571   2.564  14.245 -0.2206 -0.0323  0.2408
 5283SOL    HW127308   0.589   2.486  14.193 -1.3530 -1.7399  2.3978
 5283SOL    HW227309   0.489   2.590  14.205  0.2207 -0.7856 -1.1508
 5284SOL     OW27310   0.485   3.781   0.511  0.3118  0.0174 -0.1661
 5284SOL    HW127311   0.433   3.744   0.582 -1.2471 -0.8648 -1.7546
 5284SOL    HW227312   0.422   3.812   0.446  1.7941 -1.0787 -2.1276
 5285SOL     OW27313   1.438   1.177   6.289  0.5080  0.3361  0.1201
 5285SOL    HW127314   1.521   1.217   6.265  0.8611  0.8034  2.1287
 5285SOL    HW227315   1.391   1.211   6.213 -0.2864  0.2235  0.5613
 5286SOL     OW27316   0.642   4.192  12.996  0.2048  0.3274 -0.2717
 5286SOL    HW127317   0.703   4.146  13.054 -0.3851 -0.6693 -0.4458
 5286SOL    HW227318   0.705   4.254  12.959  2.6921 -2.0630 -0.0598
 5287SOL     OW27319   1.299   4.678   4.817  0.3924  0.1699  0.2433
 5287SOL    HW127320   1.319   0.004   4.897  0.0449  1.0893 -0.2423
 5287SOL    HW227321   1.359   4.719   4.755 -0.7655  1.3966 -0.0470
 5288SOL     OW27322   4.377   0.854  16.685 -0.0156 -0.5617 -0.1884
 5288SOL    HW127323   4.428   0.873  16.606 -1.5674 -1.9024 -1.5252
 5288SOL    HW227324   4.352   0.762  16.676 -2.3452  0.1251 -0.4894
 5289SOL     OW27325   0.132   2.234   6.366  0.3134  0.4643 -0.4867
 5289SOL    HW127326   0.040   2.218   6.344 -0.2604  0.8943  1.5596
 5289SOL    HW227327   0.155   2.276   6.283  0.7640  0.8055 -0.1867
 5290SOL     OW27328   3.212   2.200   2.273  0.5735 -0.1444 -0.3174
 5290SOL    HW127329   3.276   2.207   2.202  1.0092  2.7329  0.3666
 5290SOL    HW227330   3.147   2.143   2.231 -1.3119  3.2135 -1.9460
 5291SOL     OW27331   1.866   1.908   0.303  0.2245 -0.2567  0.5078
 5291SOL    HW127332   1.850   1.936   0.213  1.1509 -0.9141  0.1409
 5291SOL    HW227333   1.877   1.813   0.291  0.4525 -0.0805 -0.6594
 5292SOL     OW27334   2.560   4.383   6.010 -0.3137  0.4790  0.2442
 5292SOL    HW127335   2.560   4.288   6.022  0.8739  0.2348 -1.8548
 5292SOL    HW227336   2.534   4.390   5.918  0.5050  3.1310  0.2226
 5293SOL     OW27337   0.392   2.348   5.512  0.2639  0.3062 -0.8395
 5293SOL    HW127338   0.373   2.424   5.567  1.5698  0.0814 -0.0814
 5293SOL    HW227339   0.345   2.282   5.563  1.0149  1.5035  1.4150
 5294SOL     OW27340   2.947   1.580  12.257  0.1227 -0.1015  0.3439
 5294SOL    HW127341   3.039   1.582  12.232  0.0464  1.3311  0.1771
 5294SOL    HW227342   2.965   1.600  12.349 -0.8219 -0.1061  0.5339
 5295SOL     OW27343   3.990   2.237   8.450 -0.2135  0.1136  0.1278
 5295SOL    HW127344   3.936   2.176   8.501 -0.4725 -0.1045 -0.4063
 5295SOL    HW227345   4.015   2.298   8.519 -0.7864 -1.6281  1.8686
 5296SOL     OW27346   2.114   1.839   3.080 -0.2209  0.4976  0.0105
 5296SOL    HW127347   2.077   1.817   3.166 -0.2789  1.3479  0.2022
 5296SOL    HW227348   2.037   1.821   3.027 -0.2218 -1.9318  0.8107
 5297SOL     OW27349   1.856   3.092   2.959  0.0750 -0.2667  0.0864
 5297SOL    HW127350   1.784   3.123   3.014  0.2978 -0.8703  0.7283
 5297SOL    HW227351   1.859   3.000   2.985  2.4064  0.0798  1.0472
 5298SOL     OW27352   0.155   3.972  15.585 -0.0595  0.5545 -0.5270
 5298SOL    HW127353   0.081   3.988  15.527 -0.8222 -1.1186  0.0000
 5298SOL    HW227354   0.135   4.016  15.668 -1.0297 -0.0012 -0.4792
 5299SOL     OW27355   4.054   3.351  11.997  0.2991  0.8179  0.1055
 5299SOL    HW127356   3.994   3.345  12.071  0.0426 -1.8670 -0.3365
 5299SOL    HW227357   4.040   3.439  11.963  0.1667  0.6574 -0.2585
 5300SOL     OW27358   0.252   2.030   8.775 -0.2715  0.4949 -0.1601
 5300SOL    HW127359   0.323   1.991   8.826 -0.7786  0.3173  0.4088
 5300SOL    HW227360   0.235   2.111   8.824 -0.0354 -0.2752  1.1666
 5301SOL     OW27361   0.786   0.244  12.113  0.5307  0.6220 -0.2511
 5301SOL    HW127362   0.697   0.238  12.078  0.1952 -1.7046  1.0258
 5301SOL    HW227363   0.828   0.300  12.047  2.5063 -0.5884 -0.0416
 5302SOL     OW27364   1.239   3.895   7.372 -0.0279  0.2568  0.2909
 5302SOL    HW127365   1.266   3.984   7.394  1.4540 -0.5993  1.9008
 5302SOL    HW227366   1.151   3.895   7.411  0.0871  0.3686  0.5519
 5303SOL     OW27367   2.184   1.061   4.870 -0.8368  0.2247  0.3849
 5303SOL    HW127368   2.224   1.104   4.794  0.0825 -0.1843  0.6341
 5303SOL    HW227369   2.217   0.972   4.862 -0.4495  0.5005 -1.1498
 5304SOL     OW27370   2.588   0.592   4.404  0.6173  0.3862  0.4930
 5304SOL    HW127371   2.549   0.506   4.386  1.5231 -0.1035  0.8903
 5304SOL    HW227372   2.571   0.612   4.496  3.2369  0.6969  0.9035
 5305SOL     OW27373   3.470   3.035   0.781  0.4560 -0.5610  0.8386
 5305SOL    HW127374   3.542   3.085   0.742  0.3235  0.0213  1.3363
 5305SOL    HW227375   3.490   3.043   0.874  1.1697  1.0520  0.5605
 5306SOL     OW27376   2.978   1.072   5.859 -0.3629 -0.0627  0.6242
 5306SOL    HW127377   2.906   1.135   5.856  0.1278  0.5304  1.1970
 5306SOL    HW227378   3.058   1.124   5.847 -1.3201  1.4592  0.8072
 5307SOL     OW27379   1.947   2.157   3.968 -0.2470  0.4605  0.2375
 5307SOL    HW127380   1.871   2.106   3.939 -2.0584  2.5133  1.3920
 5307SOL    HW227381   1.923   2.244   3.935 -1.1248  0.2522  0.3189
 5308SOL     OW27382   0.205   2.368   1.471  0.1690  0.2767  0.3167
 5308SOL    HW127383   0.215   2.291   1.528  2.2354 -0.8279 -1.5258
 5308SOL    HW227384   0.284   2.372   1.418  2.1770  2.4745  3.4902
 5309SOL     OW27385   4.181   4.653   0.704 -0.3608  0.0094  0.6701
 5309SOL    HW127386   4.268   4.661   0.743  0.7746  0.2274 -1.8652
 5309SOL    HW227387   4.204   4.598   0.628 -2.4951  0.7295 -0.4866
 5310SOL     OW27388   1.426   4.487   6.730  0.2062  0.3956 -0.2755
 5310SOL    HW127389   1.384   4.573   6.726  1.8915  1.1834 -0.9375
 5310SOL    HW227390   1.497   4.509   6.670 -0.9663 -0.8644 -2.1309
 5311SOL     OW27391   0.668   0.288   7.488  0.2758 -0.4898 -0.2745
 5311SOL    HW127392   0.596   0.317   7.544  2.2823  0.3996  1.8469
 5311SOL    HW227393   0.652   0.196   7.469 -1.3069  0.1074 -1.8138
 5312SOL     OW27394   2.284   2.636   5.501  0.2020 -0.3835 -0.2594
 5312SOL    HW127395   2.279   2.578   5.577 -2.1361  0.0807 -0.0821
 5312SOL    HW227396   2.379   2.646   5.492  0.1582  0.5096  0.2524
 5313SOL     OW27397   0.232   1.889  13.881 -0.8837  0.2266 -0.0593
 5313SOL    HW127398   0.243   1.914  13.789 -0.7633  0.5032  0.0302
 5313SOL    HW227399   0.316   1.902  13.924 -1.7291 -0.8934  1.9556
 5314SOL     OW27400   3.201   2.964   6.741  0.0460 -0.4412 -0.1984
 5314SOL    HW127401   3.181   2.968   6.647 -2.0148 -0.4248  0.2546
 5314SOL    HW227402   3.151   2.886   6.765 -0.9507  0.0767 -0.5903
 5315SOL     OW27403   1.350   3.388   8.636  0.4048  0.7280 -0.0874
 5315SOL    HW127404   1.419   3.445   8.670  1.7157  0.0697 -1.6854
 5315SOL    HW227405   1.309   3.453   8.579  0.4369  0.6799 -0.1651
 5316SOL     OW27406   3.788   0.752   2.196 -0.8128 -0.7443  0.2353
 5316SOL    HW127407   3.850   0.681   2.209 -2.4102 -2.4032 -1.1429
 5316SOL    HW227408   3.722   0.700   2.150 -1.7096  0.6458 -0.0520
 5317SOL     OW27409   1.866   4.472   3.521 -0.1253 -0.2642  0.0577
 5317SOL    HW127410   1.817   4.449   3.601  0.7040  0.9215  0.9055
 5317SOL    HW227411   1.862   4.567   3.509  1.5946 -0.5003 -2.3187
 5318SOL     OW27412   3.879   1.774   6.651 -0.6462 -0.2083 -0.1033
 5318SOL    HW127413   3.958   1.742   6.695 -0.8915 -2.4920 -1.3448
 5318SOL    HW227414   3.906   1.756   6.561  1.0744 -0.2346  0.4124
 5319SOL     OW27415   4.457   0.346   5.272 -0.8108  0.2203  0.5413
 5319SOL    HW127416   4.483   0.392   5.193 -0.5173 -0.9188 -0.0289
 5319SOL    HW227417   4.401   0.285   5.225  1.0295  0.7450 -2.3521
 5320SOL     OW27418   1.144   1.268   5.673  0.0633  0.2274  0.0873
 5320SOL    HW127419   1.175   1.229   5.754  1.0546 -0.2623 -0.5203
 5320SOL    HW227420   1.049   1.265   5.684 -0.0073  2.1756  0.1640
 5321SOL     OW27421   3.119   3.355   3.958  0.1667 -0.3595 -0.3441
 5321SOL    HW127422   3.122   3.292   4.030  1.5732  0.1537  0.0348
 5321SOL    HW227423   3.082   3.304   3.886 -0.5922  1.9779 -1.5912
 5322SOL     OW27424   2.804   3.263   7.946 -0.3264 -0.5213  0.1019
 5322SOL    HW127425   2.897   3.243   7.958 -0.4319 -1.5244 -0.8120
 5322SOL    HW227426   2.782   3.264   8.040  1.2315 -1.5993  0.4693
 5323SOL     OW27427   4.610   2.721   6.388 -0.7506 -0.3037 -0.4716
 5323SOL    HW127428   4.657   2.684   6.462  0.6587  2.2231 -0.0884
 5323SOL    HW227429   4.620   2.652   6.322 -0.3193 -1.4741  0.8418
 5324SOL     OW27430   1.344   3.881  17.319 -0.3702 -0.1646 -0.0793
 5324SOL    HW127431   1.366   3.788  17.331 -0.1000 -0.5442 -3.3543
 5324SOL    HW227432   1.297   3.870  17.236  0.8553  1.0683 -0.9459
 5325SOL     OW27433   3.848   1.772   3.606 -0.0439 -0.4072  0.4533
 5325SOL    HW127434   3.909   1.699   3.602  1.9918  1.3246 -0.4888
 5325SOL    HW227435   3.764   1.730   3.625 -0.5972  1.1601  1.5316
 5326SOL     OW27436   0.705   3.160  15.948  0.5123  0.1627 -0.1218
 5326SOL    HW127437   0.655   3.091  15.990 -3.0043  2.3788 -0.6082
 5326SOL    HW227438   0.721   3.221  16.021  1.6743 -0.1224 -0.1483
 5327SOL     OW27439   3.574   0.823   9.406 -0.0550 -0.3369 -0.1999
 5327SOL    HW127440   3.558   0.847   9.498  1.2821  0.6462 -0.2257
 5327SOL    HW227441   3.565   0.729   9.422 -0.0087 -0.0035  1.8393
 5328SOL     OW27442   2.432   1.921   3.368  0.4344  0.2374  0.0624
 5328SOL    HW127443   2.378   1.862   3.422  1.1498 -0.0597  0.4584
 5328SOL    HW227444   2.372   1.972   3.313  0.5389  0.1012 -0.1785
 5329SOL     OW27445   1.314   2.247   2.671 -0.2633  0.3315  0.0503
 5329SOL    HW127446   1.341   2.240   2.579 -0.1773  0.1853  0.0863
 5329SOL    HW227447   1.310   2.341   2.688 -0.3711  0.3353  0.0029
 5330SOL     OW27448   2.456   2.320   0.825  0.2960  0.2599 -0.1842
 5330SOL    HW127449   2.434   2.413   0.824 -1.3682 -0.1150  0.4300
 5330SOL    HW227450   2.470   2.308   0.731 -0.1318 -1.7809  0.0161
 5331SOL     OW27451   4.094   3.451   5.977  0.4591  0.0183 -0.0874
 5331SOL    HW127452   4.065   3.502   5.901 -1.6792  2.7078  2.5282
 5331SOL    HW227453   4.116   3.367   5.938 -1.2383  0.7082 -2.5324
 5332SOL     OW27454   2.812   2.622   6.568  0.0700 -0.5387  0.2244
 5332SOL    HW127455   2.766   2.659   6.643 -0.8299 -0.1684 -0.5107
 5332SOL    HW227456   2.763   2.545   6.541 -0.1895 -0.1154 -0.5065
 5333SOL     OW27457   3.934   1.136  15.183 -0.0807 -0.2895  0.3594
 5333SOL    HW127458   3.854   1.182  15.209 -0.2283 -0.0754 -0.4713
 5333SOL    HW227459   3.888   1.052  15.179  0.1249 -0.2162 -3.3582
 5334SOL     OW27460   0.035   0.328   5.740  0.2735 -0.3195 -0.4396
 5334SOL    HW127461   4.703   0.250   5.735  0.1722 -0.2391 -0.5703
 5334SOL    HW227462   4.706   0.376   5.805  0.8258  0.0760 -0.2824
 5335SOL     OW27463   0.918   3.326   5.084 -0.4792 -0.1020  0.2510
 5335SOL    HW127464   0.976   3.266   5.132 -0.9023 -0.9017 -0.2364
 5335SOL    HW227465   0.832   3.289   5.101 -1.7402  1.8276 -1.9559
 5336SOL     OW27466   2.604   2.759  15.050  0.4298  0.1446 -0.1708
 5336SOL    HW127467   2.649   2.715  14.978 -0.8840 -0.3986 -0.6626
 5336SOL    HW227468   2.676   2.796  15.100  0.1567 -0.5763  0.7542
 5337SOL     OW27469   1.829   0.875   5.352 -0.6000 -0.2253  0.0577
 5337SOL    HW127470   1.743   0.883   5.311  1.4243 -1.0968 -4.3939
 5337SOL    HW227471   1.891   0.900   5.283 -0.1181 -2.0078 -0.1392
 5338SOL     OW27472   4.410   2.111   4.274  0.3801  0.1536  0.7264
 5338SOL    HW127473   4.480   2.051   4.249  1.1349  1.3153  0.0701
 5338SOL    HW227474   4.443   2.111   4.364 -1.6747  0.2057  1.4748
 5339SOL     OW27475   1.073   0.341   8.004  0.3268 -0.1428 -0.1663
 5339SOL    HW127476   1.076   0.436   8.013  0.1582  0.0370 -2.1295
 5339SOL    HW227477   1.006   0.335   7.936  1.1120 -0.1059 -0.9428
 5340SOL     OW27478   4.139   0.682   3.576  0.4403 -0.0404 -0.0625
 5340SOL    HW127479   4.129   0.605   3.519 -0.8284  1.4548 -1.8495
 5340SOL    HW227480   4.216   0.722   3.536  1.4872  0.7966  2.7958
 5341SOL     OW27481   1.925   1.576   8.040  0.1572 -0.4100 -0.0065
 5341SOL    HW127482   1.903   1.666   8.065  0.9598 -0.5119  1.0829
 5341SOL    HW227483   1.937   1.581   7.945 -2.9005 -4.1852 -0.5819
 5342SOL     OW27484   0.057   0.987   5.381 -0.0539  0.7717 -0.4266
 5342SOL    HW127485   0.027   0.921   5.442  0.3583 -0.9719 -2.1210
 5342SOL    HW227486   0.052   0.943   5.296  0.4269  1.2286 -0.6969
 5343SOL     OW27487   3.727   2.113   4.092 -0.4433  0.7615 -0.0078
 5343SOL    HW127488   3.669   2.146   4.160 -3.4082 -1.5701 -1.4280
 5343SOL    HW227489   3.777   2.183   4.050  0.8995 -0.7592 -0.9497
 5344SOL     OW27490   3.395   4.401   4.650 -0.0853  0.1078  0.0747
 5344SOL    HW127491   3.359   4.346   4.581 -0.8650  0.8690 -0.1154
 5344SOL    HW227492   3.352   4.486   4.639 -0.6702 -0.0900  0.8454
 5345SOL     OW27493   1.054   1.136   2.822 -0.3894  0.6949  0.0129
 5345SOL    HW127494   1.018   1.107   2.738  0.1221  1.0640 -0.3404
 5345SOL    HW227495   1.089   1.222   2.799  0.4961  0.4042  0.2485
 5346SOL     OW27496   3.152   1.111   5.134  0.3377 -0.9912 -0.6623
 5346SOL    HW127497   3.211   1.118   5.059  0.7035  0.5539 -0.2378
 5346SOL    HW227498   3.182   1.174   5.199 -1.1100  0.7328 -1.6582
 5347SOL     OW27499   0.312   4.453   8.028 -0.2338  0.3109  0.5602
 5347SOL    HW127500   0.323   4.455   7.933 -1.2790  1.4813  0.4555
 5347SOL    HW227501   0.398   4.480   8.059 -0.3506  2.2689 -0.7852
 5348SOL     OW27502   2.232   1.253   8.326  0.3037 -0.0018 -0.2755
 5348SOL    HW127503   2.270   1.236   8.240  0.1639 -2.9796  0.2700
 5348SOL    HW227504   2.143   1.268   8.294  0.8499 -0.6856 -2.1195
 5349SOL     OW27505   1.167   2.740  10.709 -0.2510  0.2530  0.7870
 5349SOL    HW127506   1.120   2.824  10.713 -0.0057  0.4696 -0.8053
 5349SOL    HW227507   1.227   2.746  10.783  1.5404  2.8130 -0.8608
 5350SOL     OW27508   3.852   3.239   1.034 -0.0280 -0.2874 -0.3098
 5350SOL    HW127509   3.840   3.255   1.127  1.3594  3.0190 -0.6911
 5350SOL    HW227510   3.764   3.254   0.999 -0.3777 -0.3571  0.5619
 5351SOL     OW27511   2.819   2.808  15.980 -0.3896 -0.1454  0.3326
 5351SOL    HW127512   2.877   2.743  15.941  0.1949  0.6844 -0.1896
 5351SOL    HW227513   2.732   2.774  15.958  0.4893 -1.6302 -0.7384
 5352SOL     OW27514   3.014   1.166   3.602 -0.0718  0.1464  0.2807
 5352SOL    HW127515   2.957   1.243   3.604 -0.5527 -0.1556 -2.0011
 5352SOL    HW227516   3.099   1.206   3.624 -0.2133  0.2869  0.5761
 5353SOL     OW27517   2.526   3.053  16.568  0.2955 -0.4162 -0.2725
 5353SOL    HW127518   2.564   2.966  16.576 -0.7300 -0.6910  1.7115
 5353SOL    HW227519   2.585   3.101  16.510  0.0011  0.5474  0.2285
 5354SOL     OW27520   2.524   0.549   6.515  0.4964  0.1507 -0.1596
 5354SOL    HW127521   2.466   0.500   6.572  0.6646 -1.1735 -1.1162
 5354SOL    HW227522   2.491   0.637   6.533  1.8848  0.1050  2.6751
 5355SOL     OW27523   0.621   2.685   4.088  0.3434  0.1580 -0.8691
 5355SOL    HW127524   0.528   2.701   4.073  0.1665 -0.8025 -0.7313
 5355SOL    HW227525   0.622   2.591   4.075  1.8712  0.0605 -0.0400
 5356SOL     OW27526   0.028   1.196   2.935  0.1037 -0.3705 -0.4812
 5356SOL    HW127527   0.061   1.144   2.861 -1.0717 -1.1575 -0.4664
 5356SOL    HW227528   4.721   1.129   2.997  0.6020  1.5080  1.7535
 5357SOL     OW27529   3.760   0.773   2.540 -0.1727  0.3546  0.0257
 5357SOL    HW127530   3.745   0.731   2.625  0.0692  1.2330  0.5044
 5357SOL    HW227531   3.854   0.788   2.555 -0.0670  0.6392 -0.9252
 5358SOL     OW27532   0.776   0.847   8.690 -0.1183  0.2810  0.1876
 5358SOL    HW127533   0.790   0.777   8.754  1.5931 -0.5249 -1.0783
 5358SOL    HW227534   0.789   0.921   8.749 -2.2265 -0.5418  1.7061
 5359SOL     OW27535   2.337   0.634   8.115  0.2886 -0.2284 -0.2487
 5359SOL    HW127536   2.426   0.602   8.104 -0.7956 -2.7174 -1.8880
 5359SOL    HW227537   2.347   0.730   8.115 -1.6486 -0.0264 -0.5394
 5360SOL     OW27538   1.497   0.972   4.845  0.4452  0.3801  0.1710
 5360SOL    HW127539   1.463   0.909   4.781  3.3112 -1.7730  0.7965
 5360SOL    HW227540   1.427   0.951   4.906  0.5911 -1.1886 -0.1975
 5361SOL     OW27541   0.606   2.168   4.612 -0.1628 -0.3296 -0.1875
 5361SOL    HW127542   0.666   2.240   4.593 -0.8155  0.4610  0.7026
 5361SOL    HW227543   0.602   2.167   4.708  2.0856  1.6036 -0.0693
 5362SOL     OW27544   0.235   4.104  12.151 -0.0259 -0.0341  0.6681
 5362SOL    HW127545   0.231   4.169  12.222 -0.8420  1.3929 -0.6955
 5362SOL    HW227546   0.319   4.127  12.110 -0.6256  0.0044 -0.5346
 5363SOL     OW27547   0.243   0.876   3.093  0.1309 -0.1671  0.4980
 5363SOL    HW127548   0.177   0.837   3.150 -1.7257 -1.3009 -2.4706
 5363SOL    HW227549   0.290   0.915   3.166  1.5067 -0.6871 -0.1027
 5364SOL     OW27550   4.358   3.917   6.554  0.8118  0.1801 -0.0123
 5364SOL    HW127551   4.366   3.834   6.508 -0.1658 -1.8455  3.4964
 5364SOL    HW227552   4.267   3.914   6.583  1.3914 -2.7173  1.5153
 5365SOL     OW27553   2.815   4.564   3.057 -0.4931  0.0372 -0.4630
 5365SOL    HW127554   2.777   4.644   3.094  0.7731  0.0980  0.7469
 5365SOL    HW227555   2.826   4.529   3.146  1.3643 -0.3647 -0.8597
 5366SOL     OW27556   2.935   2.798   8.035 -0.3730 -0.0835 -0.4813
 5366SOL    HW127557   2.851   2.821   7.995 -1.2312 -0.0572  1.3668
 5366SOL    HW227558   2.915   2.706   8.053 -1.3519 -0.2190 -2.1630
 5367SOL     OW27559   3.013   2.587  12.587 -0.3106  0.2071 -0.2612
 5367SOL    HW127560   2.956   2.657  12.555  0.5210  1.4696  1.0572
 5367SOL    HW227561   3.092   2.613  12.539 -0.5540  2.5837  0.6583
 5368SOL     OW27562   0.839   1.049   8.257  0.1428 -0.3664 -0.0218
 5368SOL    HW127563   0.748   1.032   8.234  0.0459 -2.6821  2.0481
 5368SOL    HW227564   0.868   1.054   8.166 -0.4985 -0.3113 -0.2236
 5369SOL     OW27565   2.572   1.882   5.624  0.6083  0.0311 -0.0053
 5369SOL    HW127566   2.665   1.862   5.621  0.6297 -0.0977  1.5241
 5369SOL    HW227567   2.546   1.861   5.534  1.5580 -0.0390 -0.2562
 5370SOL     OW27568   2.773   3.396  11.398 -0.3923  0.4071 -0.2321
 5370SOL    HW127569   2.786   3.464  11.464 -1.8403  0.0850  0.3878
 5370SOL    HW227570   2.718   3.449  11.339 -0.6034 -0.0025 -0.4056
 5371SOL     OW27571   0.640   1.909   1.420  0.6548  0.8188 -0.0489
 5371SOL    HW127572   0.664   1.824   1.384  0.1882 -0.2931  2.2271
 5371SOL    HW227573   0.727   1.946   1.432  0.6667  0.9380 -0.5186
 5372SOL     OW27574   3.421   2.870   4.907  0.4028 -0.2482  0.3075
 5372SOL    HW127575   3.387   2.919   4.982  1.6778  0.7644  0.2273
 5372SOL    HW227576   3.361   2.796   4.912  3.4959 -2.6793  1.0062
 5373SOL     OW27577   3.248   4.213  14.869  0.0630  0.3635  0.2545
 5373SOL    HW127578   3.178   4.252  14.921 -0.6926 -0.6951  0.0147
 5373SOL    HW227579   3.309   4.173  14.932 -0.7586 -1.0622  0.1341
 5374SOL     OW27580   2.777   4.043   4.438  0.0343 -0.3815 -0.1494
 5374SOL    HW127581   2.835   4.039   4.362  1.8636 -0.2833  1.2551
 5374SOL    HW227582   2.750   3.951   4.438 -2.9847  0.5021 -0.5124
 5375SOL     OW27583   2.404   0.048   4.357 -0.2683  0.7812 -0.0061
 5375SOL    HW127584   2.347   0.022   4.429 -0.1300 -2.4180 -1.0634
 5375SOL    HW227585   2.454   4.693   4.333 -1.5717 -0.0619  0.0122
 5376SOL     OW27586   0.288   1.311   7.264  0.3544 -0.3077  0.0132
 5376SOL    HW127587   0.211   1.283   7.216  1.0102 -2.5032  0.2265
 5376SOL    HW227588   0.349   1.323   7.191 -0.0972 -1.5002 -0.5488
 5377SOL     OW27589   4.435   0.551   6.235  0.1115 -0.2458 -0.0289
 5377SOL    HW127590   4.387   0.596   6.305  0.0321 -0.0993 -0.1781
 5377SOL    HW227591   4.526   0.559   6.265  0.9833 -1.4799 -2.3660
 5378SOL     OW27592   3.123   1.867   2.504  0.0642  0.5041 -0.2276
 5378SOL    HW127593   3.203   1.919   2.510 -0.5888  1.5001 -0.2464
 5378SOL    HW227594   3.063   1.912   2.563  1.4722  0.3136  1.3525
 5379SOL     OW27595   4.325   0.208   8.531 -0.3852  0.3282 -0.1802
 5379SOL    HW127596   4.237   0.172   8.542 -0.4180  1.1799  2.3253
 5379SOL    HW227597   4.353   0.255   8.610 -2.0616 -2.6245  2.1453
 5380SOL     OW27598   1.494   1.884  16.791 -0.2424  0.6345 -0.4333
 5380SOL    HW127599   1.400   1.877  16.811 -0.7144  2.1392 -2.1047
 5380SOL    HW227600   1.523   1.851  16.876  1.4454 -0.6323 -1.4927
 5381SOL     OW27601   2.327   1.134   1.573 -0.3457  0.7252  0.0951
 5381SOL    HW127602   2.347   1.084   1.494 -2.4740 -0.0012 -0.0041
 5381SOL    HW227603   2.235   1.143   1.547  0.4848  0.7621 -2.8063
 5382SOL     OW27604   2.569   0.963   4.104 -0.1936 -0.1932  0.6459
 5382SOL    HW127605   2.574   0.876   4.143 -0.3800 -1.6914 -2.6662
 5382SOL    HW227606   2.656   0.981   4.069 -1.0527  0.9289 -0.9460
 5383SOL     OW27607   3.548   3.055   5.450 -0.4458 -0.7693  0.0137
 5383SOL    HW127608   3.615   3.069   5.518  0.2078 -0.1296 -0.7585
 5383SOL    HW227609   3.571   3.127   5.391 -1.6308 -0.2595  0.1713
 5384SOL     OW27610   1.393   3.979  17.629  0.2938  0.2010 -0.0123
 5384SOL    HW127611   1.449   4.025  17.567 -0.0242  0.5063 -0.0730
 5384SOL    HW227612   1.307   4.004  17.594  0.3060 -0.6855 -0.6847
 5385SOL     OW27613   4.060   3.780  17.247 -0.0759 -0.4362 -0.1394
 5385SOL    HW127614   4.144   3.826  17.250 -0.1143 -0.5683  2.5090
 5385SOL    HW227615   4.013   3.830  17.180 -0.8439  0.4866  1.0830
 5386SOL     OW27616   4.320   1.886  11.666 -0.0975 -0.1643  0.4136
 5386SOL    HW127617   4.376   1.907  11.592  0.2641  0.4134  0.8512
 5386SOL    HW227618   4.281   1.807  11.630 -2.1402  0.9131  0.2914
 5387SOL     OW27619   2.804   2.191   1.394 -0.4195 -0.1659  0.4594
 5387SOL    HW127620   2.895   2.172   1.372 -0.0454  2.3241 -0.0802
 5387SOL    HW227621   2.816   2.270   1.447 -1.4849 -0.7613  1.5749
 5388SOL     OW27622   0.323   0.244   5.025  0.1730 -0.3361 -0.3095
 5388SOL    HW127623   0.300   0.151   5.027 -1.1151 -0.0302 -0.9263
 5388SOL    HW227624   0.352   0.257   5.116  0.1119  0.8201 -0.4589
 5389SOL     OW27625   2.103   1.142  14.783 -0.0318 -0.4499 -0.2094
 5389SOL    HW127626   2.155   1.126  14.704 -1.3969 -2.5504 -0.6853
 5389SOL    HW227627   2.126   1.232  14.805  0.1331 -0.6292  0.3461
 5390SOL     OW27628   1.250   2.811  15.187  0.2009 -0.0447  0.9521
 5390SOL    HW127629   1.318   2.796  15.252  1.8751  0.0468 -0.7946
 5390SOL    HW227630   1.250   2.906  15.196  1.8473  0.1163 -0.8627
 5391SOL     OW27631   0.358   4.701   3.647  0.4841 -0.2888  0.1176
 5391SOL    HW127632   0.446   4.675   3.617  1.4778  2.1582  0.9323
 5391SOL    HW227633   0.378   0.065   3.682 -0.7391  0.3372 -0.7407
 5392SOL     OW27634   2.374   1.906   4.981 -0.6571  0.8291  0.2574
 5392SOL    HW127635   2.437   1.976   4.961 -0.5628  0.6080 -0.1930
 5392SOL    HW227636   2.335   1.951   5.056 -1.9099 -0.6880  0.5044
 5393SOL     OW27637   1.599   0.129   1.913  0.1314 -0.5527  0.3562
 5393SOL    HW127638   1.649   0.080   1.848 -0.5268  2.5951 -2.5311
 5393SOL    HW227639   1.518   0.078   1.914 -0.7936  0.8698 -3.1066
 5394SOL     OW27640   3.039   0.824   1.856 -0.7721  0.3035  0.3715
 5394SOL    HW127641   3.069   0.914   1.870  0.1819 -0.0568  0.6755
 5394SOL    HW227642   2.951   0.831   1.893 -0.1581  0.1844  1.8957
 5395SOL     OW27643   0.756   0.624   9.993 -0.3379 -0.4928 -0.0481
 5395SOL    HW127644   0.819   0.694   9.975 -2.3201  0.7378 -2.3335
 5395SOL    HW227645   0.774   0.610  10.086  0.2861  1.3696  0.1145
 5396SOL     OW27646   2.533   0.656   3.767 -0.8387 -0.2927 -0.2107
 5396SOL    HW127647   2.576   0.736   3.798  0.8815 -2.2367  2.4097
 5396SOL    HW227648   2.588   0.655   3.688  0.4122 -1.2309  0.6791
 5397SOL     OW27649   0.726   2.953  14.677  0.0158 -0.0874 -0.3800
 5397SOL    HW127650   0.696   3.043  14.689  1.2677  0.2917 -0.1129
 5397SOL    HW227651   0.809   2.968  14.722 -0.4610  1.1517  0.1023
 5398SOL     OW27652   1.323   2.064   5.634 -0.5529  0.1533  0.3712
 5398SOL    HW127653   1.399   2.115   5.608  0.3117 -0.0312  2.5223
 5398SOL    HW227654   1.321   2.051   5.729 -1.9365 -0.2516  0.2978
 5399SOL     OW27655   1.261   2.283   8.230 -0.2390 -0.4720  0.1024
 5399SOL    HW127656   1.301   2.197   8.234 -0.5219 -0.7820 -3.2242
 5399SOL    HW227657   1.334   2.329   8.188  1.1468 -1.0989  1.8760
 5400SOL     OW27658   0.800   0.665   4.255  0.4801 -0.0017  0.0266
 5400SOL    HW127659   0.872   0.705   4.304 -0.0631  0.9842  0.0291
 5400SOL    HW227660   0.733   0.734   4.253 -0.2567 -0.6562  1.6659
 5401SOL     OW27661   2.422   4.700   1.112 -0.3316  0.5615  0.5606
 5401SOL    HW127662   2.349   4.667   1.164  0.1208 -2.4170 -0.6814
 5401SOL    HW227663   2.442   0.065   1.144 -1.3194  0.6328  0.9852
 5402SOL     OW27664   4.555   2.800   3.818 -0.3618  0.1839 -0.3785
 5402SOL    HW127665   4.648   2.778   3.817 -0.1248  1.1831 -0.5458
 5402SOL    HW227666   4.560   2.893   3.794 -1.4034  0.4525  0.4195
 5403SOL     OW27667   4.617   1.954   4.179  0.4296  0.1207 -0.1262
 5403SOL    HW127668   4.706   1.968   4.148  1.0283  0.1901  1.5970
 5403SOL    HW227669   4.571   1.985   4.101  2.2685  1.3699 -0.7102
 5404SOL     OW27670   3.503   0.963   9.177  0.0490  0.2286 -0.0869
 5404SOL    HW127671   3.461   0.887   9.137  2.0687 -0.0672 -1.6463
 5404SOL    HW227672   3.542   0.913   9.250 -1.0352 -1.5799 -0.7459
 5405SOL     OW27673   3.986   2.146   9.200  0.1580  0.0835 -0.9922
 5405SOL    HW127674   4.066   2.097   9.218  0.4921  0.9455 -0.1100
 5405SOL    HW227675   3.932   2.073   9.171  0.2440  0.0552 -1.0782
 5406SOL     OW27676   2.360   2.755   0.033  0.0418 -0.6153 -0.5127
 5406SOL    HW127677   2.356   2.691  17.656 -0.1248 -1.5333  0.3184
 5406SOL    HW227678   2.341   2.706   0.113  0.7080 -0.6822 -0.4004
 5407SOL     OW27679   2.725   1.520  17.157  0.4920 -0.0188 -0.1452
 5407SOL    HW127680   2.793   1.588  17.160  1.7209 -1.3143  1.0929
 5407SOL    HW227681   2.727   1.485  17.068  0.7311 -0.6926  0.1256
 5408SOL     OW27682   0.799   2.171   2.555 -0.5355  0.0674  0.1406
 5408SOL    HW127683   0.788   2.114   2.631 -1.1787 -0.9018 -0.6663
 5408SOL    HW227684   0.885   2.134   2.533 -0.9013  0.1128 -1.3756
 5409SOL     OW27685   1.795   4.225   2.558  0.1854  0.5034 -0.0375
 5409SOL    HW127686   1.812   4.258   2.646  1.0942  0.3279 -0.1469
 5409SOL    HW227687   1.874   4.245   2.507 -0.8560  0.1386 -1.8022
 5410SOL     OW27688   1.507   0.741   1.360  0.4235  0.4231  0.6206
 5410SOL    HW127689   1.523   0.701   1.446  0.2694 -0.8614  0.0425
 5410SOL    HW227690   1.415   0.765   1.370  0.4414  1.1915 -1.1890
 5411SOL     OW27691   1.957   1.497  10.415 -0.4091 -0.6227  0.0771
 5411SOL    HW127692   1.867   1.489  10.383  0.0833  2.1850 -1.9797
 5411SOL    HW227693   1.975   1.403  10.423  1.4830 -0.3542 -1.1340
 5412SOL     OW27694   1.522   0.702   8.310  0.1863 -0.5971  0.1011
 5412SOL    HW127695   1.435   0.717   8.348 -0.0719 -0.1074 -0.6807
 5412SOL    HW227696   1.563   0.787   8.326 -0.6162 -0.5152  1.7533
 5413SOL     OW27697   2.059   0.112   7.551 -0.0440 -0.0018 -0.1294
 5413SOL    HW127698   2.028   0.161   7.627  0.1906 -0.4465  0.2486
 5413SOL    HW227699   2.067   0.178   7.482 -4.4386 -0.0983 -0.7695
 5414SOL     OW27700   3.084   1.285   4.206  0.3861  0.2652  0.5298
 5414SOL    HW127701   2.997   1.246   4.200 -0.2708  2.2443 -2.5938
 5414SOL    HW227702   3.138   1.209   4.188 -1.2698 -1.1702  1.6070
 5415SOL     OW27703   0.092   1.925   2.509 -0.1399 -0.3226  0.1186
 5415SOL    HW127704   0.172   1.977   2.496 -1.6622  2.1597  0.6181
 5415SOL    HW227705   0.045   1.948   2.429  1.5756 -0.0801 -0.8274
 5416SOL     OW27706   3.946   0.382   4.504  0.0987 -0.4191 -0.6796
 5416SOL    HW127707   4.026   0.419   4.467  1.0965 -1.1896  0.6720
 5416SOL    HW227708   3.951   0.422   4.591 -1.7558  1.1662 -1.3131
 5417SOL     OW27709   2.049   0.716  13.124 -0.0827 -0.2293  0.6305
 5417SOL    HW127710   1.983   0.711  13.055 -0.6036  2.8979  0.8886
 5417SOL    HW227711   2.130   0.677  13.093 -0.7338 -1.3265  0.3292
 5418SOL     OW27712   3.036   0.593   3.018 -0.1855 -0.0212 -0.0352
 5418SOL    HW127713   3.057   0.649   3.092  1.7070  0.4948 -0.9648
 5418SOL    HW227714   2.996   0.517   3.060 -0.4324 -0.2090 -0.6126
 5419SOL     OW27715   0.250   3.087   1.628  0.0293 -0.0420  0.5520
 5419SOL    HW127716   0.250   3.092   1.724 -3.0853  1.0275  0.4863
 5419SOL    HW227717   0.330   3.138   1.612  0.3976 -1.6831 -2.8099
 5420SOL     OW27718   0.108   1.596   7.710  0.2914  0.4279 -0.1974
 5420SOL    HW127719   0.118   1.692   7.710  2.9908  0.1543  2.6027
 5420SOL    HW227720   0.163   1.587   7.788  0.4057 -0.8496 -0.4350
 5421SOL     OW27721   2.419   1.371  14.556  0.0811  0.4059 -0.2966
 5421SOL    HW127722   2.343   1.366  14.499  0.2111  1.1551 -0.5445
 5421SOL    HW227723   2.457   1.286  14.536  0.7649  0.8312 -0.8339
 5422SOL     OW27724   0.969   2.044   7.717  0.1289  0.2894 -0.1804
 5422SOL    HW127725   1.036   1.981   7.744  0.5842  1.2484  0.9155
 5422SOL    HW227726   0.969   2.105   7.790 -1.7224 -0.2403  0.2629
 5423SOL     OW27727   2.338   1.221  13.007 -0.6381  0.7345 -0.4054
 5423SOL    HW127728   2.267   1.284  13.019 -1.2212  0.1845 -1.0198
 5423SOL    HW227729   2.345   1.175  13.091 -1.9270 -0.0128 -0.6981
 5424SOL     OW27730   3.646   1.732   9.208  0.2871 -0.2518  0.5769
 5424SOL    HW127731   3.578   1.665   9.193 -0.2202  0.4954 -0.4778
 5424SOL    HW227732   3.617   1.803   9.150 -0.1128 -1.4891 -0.7592
 5425SOL     OW27733   1.990   1.108  13.939  1.0561 -0.5370  0.5298
 5425SOL    HW127734   1.979   1.043  13.869  1.3308 -1.7259  1.5727
 5425SOL    HW227735   2.054   1.063  13.995  0.6311  0.1899  1.5776
 5426SOL     OW27736   3.665   2.827   3.142  0.5813  0.5748 -0.1852
 5426SOL    HW127737   3.679   2.910   3.095  0.7592 -0.2334 -1.5438
 5426SOL    HW227738   3.746   2.780   3.123 -0.8623 -1.7643 -0.4573
 5427SOL     OW27739   4.062   1.087   6.549  0.0708  0.0600 -0.2118
 5427SOL    HW127740   4.128   1.022   6.526 -0.2696  0.4178 -2.1694
 5427SOL    HW227741   3.986   1.051   6.503 -0.2044 -0.1946  0.4274
 5428SOL     OW27742   4.445   2.578   2.778  0.4118  0.1930 -0.2848
 5428SOL    HW127743   4.508   2.648   2.766  1.4355 -0.6856 -0.0599
 5428SOL    HW227744   4.481   2.536   2.857 -0.5605 -0.5913 -0.2603
 5429SOL     OW27745   0.665   2.369   0.067 -0.2916  0.5318 -0.1993
 5429SOL    HW127746   0.739   2.400   0.118 -0.6773 -1.8211  1.7716
 5429SOL    HW227747   0.658   2.273   0.072  0.4703  0.5480  1.1046
 5430SOL     OW27748   3.429   4.212   2.533  0.5179  0.1006 -0.0476
 5430SOL    HW127749   3.413   4.120   2.555  0.4505 -0.1509 -1.1000
 5430SOL    HW227750   3.516   4.207   2.494  0.7056 -1.6205  0.5908
 5431SOL     OW27751   1.163   2.845   4.224  0.2367  0.3833 -0.0282
 5431SOL    HW127752   1.236   2.798   4.186  0.5381  0.1621  0.8173
 5431SOL    HW227753   1.153   2.794   4.305 -2.4104  0.8608 -0.0289
 5432SOL     OW27754   3.256   2.589   7.748 -0.5310  0.5576 -0.2645
 5432SOL    HW127755   3.190   2.564   7.683  0.7694 -1.7910 -0.6526
 5432SOL    HW227756   3.335   2.539   7.727 -0.3847 -0.0498  1.7621
 5433SOL     OW27757   4.683   2.218   7.667 -0.4950  0.3879 -0.2788
 5433SOL    HW127758   4.642   2.132   7.676 -1.1174  0.9220  2.0651
 5433SOL    HW227759   4.668   2.254   7.754 -1.3099 -1.1054  0.2019
 5434SOL     OW27760   4.233   0.690  13.232 -0.0077  0.7644  0.1960
 5434SOL    HW127761   4.198   0.710  13.319  0.2842 -0.4041  0.5856
 5434SOL    HW227762   4.169   0.641  13.180 -0.4511  0.8927  0.6203
 5435SOL     OW27763   0.738   1.272   2.919 -0.3025  0.2245 -0.5494
 5435SOL    HW127764   0.776   1.283   2.832  0.9702  2.3573  0.2642
 5435SOL    HW227765   0.678   1.200   2.899 -1.3243  0.8105  0.3518
 5436SOL     OW27766   4.650   1.725  17.010  0.8082 -0.2278  0.0275
 5436SOL    HW127767   4.570   1.735  17.061  1.0639 -0.0778  0.3984
 5436SOL    HW227768   4.695   1.647  17.045  1.0850 -1.7421 -3.6244
 5437SOL     OW27769   3.367   3.437   6.266  0.7906 -0.2300  0.1753
 5437SOL    HW127770   3.452   3.479   6.257  0.7339 -0.1965 -0.2320
 5437SOL    HW227771   3.316   3.494   6.324 -0.5286  0.5321 -1.7341
 5438SOL     OW27772   1.183   0.605   4.149  0.2437  0.0018  0.2914
 5438SOL    HW127773   1.213   0.551   4.223  0.8531  0.3323  0.2921
 5438SOL    HW227774   1.114   0.545   4.121 -1.3733  2.6659 -1.3752
 5439SOL     OW27775   3.326   2.735   5.258 -0.0632 -0.1841 -0.1493
 5439SOL    HW127776   3.291   2.819   5.228  0.9558  0.5462  0.7390
 5439SOL    HW227777   3.251   2.682   5.286 -0.0344 -0.1894 -0.0813
 5440SOL     OW27778   1.611   0.295   2.172  0.4631  0.1542  0.0321
 5440SOL    HW127779   1.602   0.279   2.078 -0.2687  0.1535  0.1078
 5440SOL    HW227780   1.700   0.259   2.184  0.3508 -0.4214 -0.7951
 5441SOL     OW27781   4.053   2.698  15.322 -0.1862 -0.0383  0.4925
 5441SOL    HW127782   4.058   2.753  15.244  0.2244 -2.7826 -1.4120
 5441SOL    HW227783   3.991   2.745  15.377  0.5086  1.2804  0.1461
 5442SOL     OW27784   1.987   4.588   2.707  0.1207 -0.1548  0.3059
 5442SOL    HW127785   2.043   4.529   2.657  1.1466  0.9923  0.0971
 5442SOL    HW227786   2.033   4.671   2.691 -1.1069  0.5645  0.5372
 5443SOL     OW27787   0.294   2.225   3.083  0.1432 -0.1897  0.7153
 5443SOL    HW127788   0.255   2.139   3.073  0.4101 -0.0986 -1.1317
 5443SOL    HW227789   0.258   2.248   3.168  0.5503  2.4982  0.1753
 5444SOL     OW27790   1.493   1.358  10.108 -0.2971  0.1123 -0.3043
 5444SOL    HW127791   1.544   1.287  10.148  0.0530 -0.1909 -1.3093
 5444SOL    HW227792   1.536   1.358  10.023 -3.0870  1.5589 -1.7122
 5445SOL     OW27793   3.123   1.379   2.104 -0.1454 -0.5575 -0.3158
 5445SOL    HW127794   3.033   1.398   2.080  0.5390  1.9498 -0.9126
 5445SOL    HW227795   3.160   1.366   2.017 -2.5729 -1.3454 -1.2089
 5446SOL     OW27796   0.671   3.466  16.919 -0.2177 -0.1176  0.1168
 5446SOL    HW127797   0.616   3.441  16.993 -0.2458 -1.2892 -0.3038
 5446SOL    HW227798   0.719   3.540  16.957 -1.1197  0.9002 -0.7304
 5447SOL     OW27799   3.109   3.007  10.059 -0.2610 -0.0876 -0.3534
 5447SOL    HW127800   3.059   3.073  10.107 -0.7222 -0.3796 -0.4280
 5447SOL    HW227801   3.035   2.964  10.017  0.0044 -0.5705 -0.3204
 5448SOL     OW27802   3.814   3.652   3.589  0.7815 -0.1940  0.1026
 5448SOL    HW127803   3.856   3.581   3.541 -0.5698 -0.1623 -1.1134
 5448SOL    HW227804   3.727   3.648   3.551  1.1480 -0.4381 -0.7130
 5449SOL     OW27805   3.858   2.928   7.379 -0.2941  0.6618  0.5296
 5449SOL    HW127806   3.828   2.969   7.460 -2.3090 -0.8021  0.5275
 5449SOL    HW227807   3.950   2.952   7.386  0.1919 -1.7201  2.2856
 5450SOL     OW27808   2.541   0.280   3.671  0.1725  0.4046 -0.5024
 5450SOL    HW127809   2.495   0.216   3.725  2.5503 -0.1056  0.9194
 5450SOL    HW227810   2.540   0.242   3.583  2.8517 -1.3528  0.2151
 5451SOL     OW27811   2.315   2.705   3.829 -0.1700 -0.0210 -0.6633
 5451SOL    HW127812   2.236   2.677   3.874 -0.0542 -0.1423 -0.5349
 5451SOL    HW227813   2.281   2.711   3.740 -1.4350  3.5070  0.0608
 5452SOL     OW27814   4.654   2.574   4.861  0.2679 -0.5169 -0.5443
 5452SOL    HW127815   4.622   2.587   4.950 -1.7127 -1.0140 -1.1734
 5452SOL    HW227816   4.658   2.478   4.864  0.9157 -0.5157 -1.3992
 5453SOL     OW27817   3.205   1.754   3.289 -0.1513 -0.2016 -0.1703
 5453SOL    HW127818   3.111   1.762   3.305  0.5253  2.1745  2.6378
 5453SOL    HW227819   3.211   1.677   3.233  1.3582 -1.4093  1.6526
 5454SOL     OW27820   3.088   2.105   1.852 -0.4357 -0.0740 -0.2394
 5454SOL    HW127821   3.011   2.055   1.827 -0.0368 -0.6000 -0.4119
 5454SOL    HW227822   3.051   2.193   1.847  1.3353  0.6796 -0.1250
 5455SOL     OW27823   3.045   0.700   0.065 -0.0289  0.5860  0.2275
 5455SOL    HW127824   3.012   0.624   0.113  1.0745  0.4860  0.8174
 5455SOL    HW227825   3.056   0.758   0.140  3.3180 -2.1654  1.8784
 5456SOL     OW27826   0.353   3.957   8.277  0.3005  0.0970  0.4667
 5456SOL    HW127827   0.308   3.907   8.345 -0.6390 -0.2733 -0.4273
 5456SOL    HW227828   0.418   3.891   8.253  0.4107  0.4452 -0.1833
 5457SOL     OW27829   4.133   2.723   7.586  0.5803  0.2290  0.1055
 5457SOL    HW127830   4.121   2.629   7.600  2.1602  0.1612  0.9763
 5457SOL    HW227831   4.060   2.751   7.641  0.9385 -1.1467  1.2898
 5458SOL     OW27832   3.486   4.091   4.794  0.4044 -0.0027  0.4672
 5458SOL    HW127833   3.504   4.026   4.862 -0.1079  0.9055  1.4629
 5458SOL    HW227834   3.494   4.179   4.830  0.6720 -0.1486  0.7581
 5459SOL     OW27835   2.555   4.287  11.872  0.1355  0.1954 -0.1353
 5459SOL    HW127836   2.497   4.300  11.797  0.1395  1.5871  0.0967
 5459SOL    HW227837   2.613   4.361  11.855 -0.4395  0.4358 -1.0416
 5460SOL     OW27838   3.914   4.327  10.390  0.1241 -0.3617 -0.3273
 5460SOL    HW127839   3.896   4.402  10.447 -0.6593 -0.6735 -0.1562
 5460SOL    HW227840   3.826   4.312  10.353 -0.5394  2.4745  0.1075
 5461SOL     OW27841   2.308   4.248   3.572 -0.3813 -0.2880  0.0907
 5461SOL    HW127842   2.236   4.296   3.532 -0.6887 -0.8428 -0.0292
 5461SOL    HW227843   2.265   4.165   3.592 -0.2754 -0.5459 -0.7492
 5462SOL     OW27844   3.623   2.147   1.952 -0.1565  0.0562  0.1891
 5462SOL    HW127845   3.601   2.163   1.860 -1.9443  0.0573  0.6156
 5462SOL    HW227846   3.683   2.073   1.950  1.2419  1.2135 -0.3192
 5463SOL     OW27847   4.575   2.974  14.688 -0.2974 -0.1612  0.1012
 5463SOL    HW127848   4.513   2.903  14.705 -0.1243  0.1320  1.9802
 5463SOL    HW227849   4.519   3.045  14.656 -0.7907 -1.3648 -1.6984
 5464SOL     OW27850   4.527   3.756   6.786 -0.2785 -0.5556 -0.1887
 5464SOL    HW127851   4.464   3.823   6.813  0.5638 -1.1664  3.3450
 5464SOL    HW227852   4.603   3.795   6.830  0.2934 -0.0488 -1.6359
 5465SOL     OW27853   3.176   0.227  13.382  0.1180 -0.5660  0.3775
 5465SOL    HW127854   3.222   0.152  13.344 -2.2393 -2.0235  0.4128
 5465SOL    HW227855   3.102   0.189  13.430  0.5629 -0.4274  1.1742
 5466SOL     OW27856   1.094   3.360   7.061  0.2141  0.2646  0.0078
 5466SOL    HW127857   1.121   3.275   7.025  0.6815 -0.3463  1.7912
 5466SOL    HW227858   1.002   3.370   7.036  0.4032  4.6772  0.9867
 5467SOL     OW27859   3.424   4.430   8.177 -0.1855  0.0754  0.2211
 5467SOL    HW127860   3.424   4.404   8.269  0.2796 -1.1649 -0.1331
 5467SOL    HW227861   3.511   4.466   8.162 -0.3227  0.8326  1.2671
 5468SOL     OW27862   2.547   2.410  13.405 -0.2825  0.2855  0.3077
 5468SOL    HW127863   2.607   2.367  13.466 -0.7620 -0.4312  0.2772
 5468SOL    HW227864   2.561   2.503  13.421  2.0640  0.6458 -3.8352
 5469SOL     OW27865   0.600   0.290  15.014  0.5510 -0.9148 -0.0182
 5469SOL    HW127866   0.542   0.337  15.074  1.6978  0.0639  0.3137
 5469SOL    HW227867   0.654   0.233  15.067  1.2117 -1.1237 -0.9225
 5470SOL     OW27868   2.308   4.217   0.427 -0.0776  0.2647  0.3242
 5470SOL    HW127869   2.252   4.291   0.405 -0.4135 -0.2198 -0.4397
 5470SOL    HW227870   2.318   4.175   0.342  0.7259 -2.8632  1.9682
 5471SOL     OW27871   1.592   2.239  12.429 -0.2283 -0.1035 -0.0038
 5471SOL    HW127872   1.557   2.162  12.385  0.3560  0.0120 -0.6577
 5471SOL    HW227873   1.685   2.246  12.411 -0.5108  0.9801 -1.0449
 5472SOL     OW27874   2.029   1.411  13.080 -0.0359 -0.1702 -0.5479
 5472SOL    HW127875   2.031   1.332  13.027  0.1116 -0.8648  0.4942
 5472SOL    HW227876   1.977   1.468  13.024  2.1578  1.7992 -0.6062
 5473SOL     OW27877   3.555   1.623   1.823 -0.1957  0.0977 -0.0098
 5473SOL    HW127878   3.531   1.632   1.915  2.2935  0.0604  0.6440
 5473SOL    HW227879   3.472   1.621   1.776 -0.1979  0.0190 -0.0038
 5474SOL     OW27880   2.514   0.692   3.437  0.0243  0.2572  0.5005
 5474SOL    HW127881   2.419   0.687   3.425 -0.2057  1.2105  1.8977
 5474SOL    HW227882   2.538   0.776   3.397 -0.8136  0.3332  0.1584
 5475SOL     OW27883   1.032   3.894   6.493 -0.1391  0.0986 -0.2425
 5475SOL    HW127884   1.100   3.883   6.426 -2.9806 -1.6038 -2.8606
 5475SOL    HW227885   1.004   3.983   6.472  1.9511  1.0724  1.0078
 5476SOL     OW27886   1.959   1.953   7.485 -0.2114  0.4665 -0.0452
 5476SOL    HW127887   1.926   2.032   7.530 -2.4612 -1.3485  1.5056
 5476SOL    HW227888   1.879   1.919   7.446 -0.7460  1.0959  0.4799
 5477SOL     OW27889   2.201   2.187   6.016 -0.3773 -0.7896  0.6759
 5477SOL    HW127890   2.296   2.185   6.021 -0.3536 -0.8642  0.2026
 5477SOL    HW227891   2.205   2.213   5.925 -0.7766  0.3844  0.9955
 5478SOL     OW27892   2.504   4.243   5.460 -0.0224 -0.5063  0.6281
 5478SOL    HW127893   2.485   4.295   5.382  0.5193 -0.4165  0.5582
 5478SOL    HW227894   2.468   4.157   5.436  0.8054 -1.5728  3.2044
 5479SOL     OW27895   4.621   1.361  11.649 -0.2375  0.4429 -0.7500
 5479SOL    HW127896   4.706   1.362  11.606  0.4936  1.3511  0.7397
 5479SOL    HW227897   4.653   1.375  11.738 -1.1155  0.0991 -0.3797
 5480SOL     OW27898   4.102   2.813   5.662  0.3478  1.1381 -0.3005
 5480SOL    HW127899   4.069   2.746   5.602 -1.2788  1.0268  0.7206
 5480SOL    HW227900   4.129   2.773   5.744 -1.3932 -0.0786 -0.3282
 5481SOL     OW27901   4.552   2.734   9.273  0.1803  0.0193  0.0630
 5481SOL    HW127902   4.605   2.813   9.279  1.5943 -0.9982  0.8658
 5481SOL    HW227903   4.467   2.776   9.258 -0.1482 -1.5108 -2.3399
 5482SOL     OW27904   1.906   3.044   4.203  0.1757 -0.1992  0.6435
 5482SOL    HW127905   1.917   3.078   4.291  0.4015 -0.4957  0.7280
 5482SOL    HW227906   1.990   3.062   4.161 -2.1001  5.0849 -1.7334
 5483SOL     OW27907   3.992   2.261   3.723  0.1576  0.6897  0.0457
 5483SOL    HW127908   3.986   2.230   3.813  0.9288  0.4374  0.0078
 5483SOL    HW227909   3.928   2.208   3.676 -0.0135 -0.0563  1.1288
 5484SOL     OW27910   2.160   0.639  13.761  0.4399 -0.2922  0.0713
 5484SOL    HW127911   2.205   0.597  13.835  0.0303  1.2639  1.2073
 5484SOL    HW227912   2.106   0.574  13.716  3.0543 -3.0165  0.8248
 5485SOL     OW27913   0.471   4.076   6.926 -0.0378 -0.4473  0.2000
 5485SOL    HW127914   0.465   3.981   6.936 -0.0058 -0.5238 -0.5302
 5485SOL    HW227915   0.389   4.099   6.884  0.4719 -0.6478 -0.8870
 5486SOL     OW27916   0.100   4.598   7.767  0.1871  0.4404 -0.8769
 5486SOL    HW127917   0.014   4.564   7.744 -0.2426  0.2033  1.0788
 5486SOL    HW227918   0.076   4.659   7.837 -1.2171 -0.7324 -0.3349
 5487SOL     OW27919   3.233   1.585   1.669  0.1686  0.0813 -0.2076
 5487SOL    HW127920   3.229   1.519   1.600 -0.1747  2.2164 -2.2360
 5487SOL    HW227921   3.138   1.595   1.677  0.0754 -1.2138  0.3549
 5488SOL     OW27922   3.955   1.011  12.269 -0.0173 -0.3411  0.0124
 5488SOL    HW127923   3.975   1.092  12.223 -0.7358 -1.2222 -1.8305
 5488SOL    HW227924   3.865   0.998  12.240  0.1000 -3.1358  0.8539
 5489SOL     OW27925   2.235   2.350  17.542 -0.2157 -0.4121  0.1094
 5489SOL    HW127926   2.148   2.322  17.571 -1.4299  2.6009 -0.5370
 5489SOL    HW227927   2.250   2.296  17.464 -0.3993 -0.6666  0.2546
 5490SOL     OW27928   3.885   2.430  14.634 -0.5101  0.3364 -0.6395
 5490SOL    HW127929   3.921   2.399  14.552 -2.4682 -1.0065 -0.9772
 5490SOL    HW227930   3.805   2.378  14.639 -1.7778  2.2545 -0.5265
 5491SOL     OW27931   2.544   4.595   0.637  0.9827 -0.1022  0.5159
 5491SOL    HW127932   2.634   4.616   0.611  0.8163  1.0841  0.8985
 5491SOL    HW227933   2.519   4.651   0.711 -1.4365  0.1170 -0.4641
 5492SOL     OW27934   4.428   1.757   2.449 -0.0946 -0.0654  0.4957
 5492SOL    HW127935   4.425   1.813   2.371  1.2952 -0.9257 -0.1761
 5492SOL    HW227936   4.388   1.676   2.417 -0.3384 -0.0692  0.8138
 5493SOL     OW27937   0.794   2.240   6.804 -0.1368 -0.0512 -0.7592
 5493SOL    HW127938   0.734   2.281   6.741 -0.7523 -0.2092 -0.2794
 5493SOL    HW227939   0.740   2.255   6.881 -2.4188  0.8764 -2.5120
 5494SOL     OW27940   0.702   3.347   2.158  0.2133  0.4728 -0.0002
 5494SOL    HW127941   0.665   3.323   2.073  0.1585 -0.3270  0.2455
 5494SOL    HW227942   0.795   3.351   2.134  0.5980  3.0617  2.0304
 5495SOL     OW27943   2.028   1.463  11.382 -0.4942  0.3609 -0.1550
 5495SOL    HW127944   2.029   1.384  11.435  1.6207  0.7054  0.2980
 5495SOL    HW227945   1.933   1.467  11.366 -0.2689 -0.5629 -1.7498
 5496SOL     OW27946   1.756   0.967   6.043 -0.2440  0.3280 -0.1477
 5496SOL    HW127947   1.709   0.910   6.104  1.0703 -0.3968  0.1884
 5496SOL    HW227948   1.751   1.058   6.074  0.1609  0.6595 -1.0600
 5497SOL     OW27949   0.919   3.250  14.491  0.0791  0.7804  0.1082
 5497SOL    HW127950   1.006   3.215  14.471  1.4294  4.1256  0.0345
 5497SOL    HW227951   0.870   3.189  14.436 -0.5589  0.8284  0.6246
 5498SOL     OW27952   3.009   3.015   0.883  0.4387 -0.0726  0.0256
 5498SOL    HW127953   3.050   2.938   0.922  1.7275  1.1795  1.1705
 5498SOL    HW227954   3.086   3.046   0.835 -0.1114 -0.3712 -1.0478
 5499SOL     OW27955   4.220   2.645   2.678  0.5703  0.6555  0.3958
 5499SOL    HW127956   4.300   2.628   2.728  1.5868  1.2417 -1.0515
 5499SOL    HW227957   4.180   2.707   2.739 -1.7413 -0.2294 -0.2048
 5500SOL     OW27958   0.495   3.336   9.210  0.1505 -0.1275  0.6347
 5500SOL    HW127959   0.507   3.281   9.287  0.9509  0.4008  0.8864
 5500SOL    HW227960   0.569   3.315   9.154  0.6294 -2.5550  2.1786
 5501SOL     OW27961   3.126   2.217   7.352  0.0419  0.0116  0.0980
 5501SOL    HW127962   3.099   2.235   7.262 -2.0322 -0.1473  0.7067
 5501SOL    HW227963   3.113   2.122   7.349  0.4330 -0.0106 -1.0436
 5502SOL     OW27964   2.249   3.572  13.410 -0.0315  0.0246  0.5176
 5502SOL    HW127965   2.174   3.578  13.470  0.7797  0.2346  1.5015
 5502SOL    HW227966   2.312   3.522  13.462  0.1814  0.5413  0.7565
 5503SOL     OW27967   2.720   3.460   1.462  0.2266 -0.0310 -0.5790
 5503SOL    HW127968   2.740   3.546   1.425 -1.3231  0.1228 -1.0484
 5503SOL    HW227969   2.807   3.419   1.466 -0.4242 -1.3071  0.3126
 5504SOL     OW27970   4.172   1.528   0.244 -0.6476  0.1432 -1.1080
 5504SOL    HW127971   4.252   1.493   0.282 -0.6805 -1.2257 -2.2853
 5504SOL    HW227972   4.111   1.459   0.271 -0.7919  0.2719 -1.1045
 5505SOL     OW27973   3.367   1.067   1.669  0.2095  0.4075 -0.2242
 5505SOL    HW127974   3.407   0.980   1.663 -1.1371 -0.2149 -0.1472
 5505SOL    HW227975   3.294   1.064   1.607  1.9599  0.0513 -2.2815
 5506SOL     OW27976   4.027   0.499   8.198 -0.1145 -0.2816 -0.1033
 5506SOL    HW127977   4.065   0.422   8.156  1.5117 -0.2466  1.2853
 5506SOL    HW227978   4.096   0.566   8.195 -2.1862  1.8656 -0.1037
 5507SOL     OW27979   1.511   3.519  12.452  0.1367 -0.3404 -0.4114
 5507SOL    HW127980   1.532   3.430  12.425  0.1381 -1.1220  2.1785
 5507SOL    HW227981   1.476   3.553  12.370  1.2753  1.0341 -0.3220
 5508SOL     OW27982   0.683   3.849   7.185  0.1505  0.1467  0.4326
 5508SOL    HW127983   0.746   3.795   7.233  0.7899 -1.1642 -1.8499
 5508SOL    HW227984   0.614   3.786   7.167  0.6182 -0.0532 -0.6720
 5509SOL     OW27985   2.363   3.086   6.974  0.3198  0.7688 -0.1952
 5509SOL    HW127986   2.363   3.018   6.907  0.2424 -0.8293  1.4064
 5509SOL    HW227987   2.423   3.043   7.035 -0.0539  1.9978  1.0349
 5510SOL     OW27988   0.055   2.631   7.366  0.2001  0.2726  0.5768
 5510SOL    HW127989   4.717   2.571   7.322  0.5426  0.0848  0.3568
 5510SOL    HW227990   0.102   2.662   7.288  2.4363 -1.5192  1.2104
 5511SOL     OW27991   3.313   3.142  16.517 -0.1958 -0.3231 -1.0111
 5511SOL    HW127992   3.350   3.197  16.449  1.9881 -0.6820 -0.1165
 5511SOL    HW227993   3.384   3.078  16.524 -0.3988 -0.5186 -0.7271
 5512SOL     OW27994   0.864   1.369   3.129  0.6255  0.0061 -0.1935
 5512SOL    HW127995   0.817   1.348   3.048  0.4719  1.3588 -0.4420
 5512SOL    HW227996   0.793   1.341   3.187  0.5817 -0.5278 -0.5004
 5513SOL     OW27997   0.341   3.425   0.865  0.0613  0.1499 -0.2627
 5513SOL    HW127998   0.353   3.334   0.841  0.3926  0.2082 -0.3228
 5513SOL    HW227999   0.254   3.418   0.903  0.3592 -0.5147  0.2800
 5514SOL     OW28000   0.185   3.219   9.782  0.5239 -0.5854 -0.2395
 5514SOL    HW128001   0.217   3.255   9.699  0.3507  2.1787  0.8776
 5514SOL    HW228002   0.264   3.235   9.834  0.3799  2.5015 -0.9587
 5515SOL     OW28003   1.162   4.254  10.421 -0.2124 -0.3820  0.1173
 5515SOL    HW128004   1.244   4.290  10.387  0.0952 -1.6195 -0.4540
 5515SOL    HW228005   1.093   4.317  10.402  0.7493  0.4151 -0.7043
 5516SOL     OW28006   3.735   3.333   5.945 -0.1730 -0.3538  0.9023
 5516SOL    HW128007   3.822   3.300   5.967  0.3257  0.1683 -0.2772
 5516SOL    HW228008   3.715   3.373   6.030  2.4277  1.5845  0.6030
 5517SOL     OW28009   1.647   1.219   6.087 -0.2353  0.3073 -0.3719
 5517SOL    HW128010   1.607   1.288   6.034  0.0578 -0.0131 -1.0218
 5517SOL    HW228011   1.708   1.268   6.142  0.1819 -0.4984 -0.1259
 5518SOL     OW28012   1.154   4.422   5.767 -0.3224  0.6262 -0.5137
 5518SOL    HW128013   1.067   4.385   5.754  0.1037  0.3876 -2.6143
 5518SOL    HW228014   1.205   4.423   5.686  0.3083  0.7200 -0.1137
 5519SOL     OW28015   2.234   1.793   3.501  0.1811 -0.4275  0.2443
 5519SOL    HW128016   2.281   1.718   3.538  0.1886 -0.9699 -0.8709
 5519SOL    HW228017   2.155   1.795   3.555 -1.3182 -0.9723 -1.9348
 5520SOL     OW28018   3.569   3.092   1.881  0.2274  0.0884 -0.0106
 5520SOL    HW128019   3.501   3.049   1.933 -0.9463  0.7533 -0.9905
 5520SOL    HW228020   3.537   3.094   1.790 -0.5162  5.0874  0.3671
 5521SOL     OW28021   1.211   2.648   4.737  0.1027  0.1956 -0.7806
 5521SOL    HW128022   1.196   2.695   4.655 -2.0920 -0.9821 -1.0818
 5521SOL    HW228023   1.297   2.678   4.765  0.7653 -1.5580 -0.9648
 5522SOL     OW28024   4.534   0.906   7.170 -0.3946  0.3128 -0.3713
 5522SOL    HW128025   4.531   0.943   7.258  2.5029  0.1270 -0.1907
 5522SOL    HW228026   4.466   0.955   7.125 -0.4060 -1.7030 -2.5914
 5523SOL     OW28027   3.816   3.748   7.673  0.0031 -0.0865 -0.7110
 5523SOL    HW128028   3.888   3.748   7.735 -1.4856 -1.1840  1.0171
 5523SOL    HW228029   3.858   3.701   7.601  0.3951  0.0559 -0.5750
 5524SOL     OW28030   3.489   3.319  11.206 -0.4206  1.0233 -0.1615
 5524SOL    HW128031   3.575   3.288  11.233 -1.3353 -0.8166  0.7096
 5524SOL    HW228032   3.461   3.245  11.151  0.5186 -2.5484  4.1302
 5525SOL     OW28033   2.513   1.899   0.132 -0.4051 -0.2571 -0.0194
 5525SOL    HW128034   2.574   1.969   0.157 -1.9860  0.8095  0.8746
 5525SOL    HW228035   2.568   1.824   0.111 -0.1425  0.1468 -0.7591
 5526SOL     OW28036   0.926   1.067   8.002  0.3264 -0.6579 -0.3369
 5526SOL    HW128037   0.972   1.150   8.006 -0.9658 -0.0601  2.1188
 5526SOL    HW228038   0.908   1.075   7.909  0.0627 -2.7465 -0.4750
 5527SOL     OW28039   2.355   3.316  13.135  0.2558 -0.7324  0.1751
 5527SOL    HW128040   2.371   3.227  13.102  0.8569 -0.3813 -0.4570
 5527SOL    HW228041   2.265   3.294  13.162  0.2868  0.7902  1.5070
 5528SOL     OW28042   3.550   3.735   5.376  0.5419 -0.1426  0.3014
 5528SOL    HW128043   3.596   3.742   5.293  1.4086 -0.5564  0.7479
 5528SOL    HW228044   3.572   3.647   5.405 -2.4522 -0.7403  0.7154
 5529SOL     OW28045   0.424   3.407   6.293  0.1503  0.2801  0.4290
 5529SOL    HW128046   0.350   3.460   6.321  0.5491  0.6238  0.8300
 5529SOL    HW228047   0.484   3.480   6.279 -1.4780  1.6013  0.2884
 5530SOL     OW28048   0.463   3.116   4.309 -0.0747  0.4627 -0.2115
 5530SOL    HW128049   0.389   3.108   4.249  0.8314  0.9638 -1.3740
 5530SOL    HW228050   0.528   3.061   4.267  1.0947 -0.2621  2.5339
 5531SOL     OW28051   0.058   3.070   7.707 -0.0810  0.0272  0.1558
 5531SOL    HW128052   0.113   3.086   7.630  0.9807  2.3445  1.4101
 5531SOL    HW228053   0.114   3.001   7.743 -1.6462  0.7892  3.9862
 5532SOL     OW28054   2.406   1.305  11.013  0.4585 -0.1791 -0.1026
 5532SOL    HW128055   2.458   1.250  11.071  0.7071 -0.5824 -0.7006
 5532SOL    HW228056   2.345   1.346  11.074  2.4172  1.6603  0.6264
 5533SOL     OW28057   3.469   0.754   2.827 -0.0091  0.5214  0.3207
 5533SOL    HW128058   3.532   0.821   2.801 -0.6605  1.3352  0.8550
 5533SOL    HW228059   3.499   0.680   2.773  0.3520 -1.1772  2.8537
 5534SOL     OW28060   1.074   0.506   4.472 -0.6902 -0.1756 -0.2152
 5534SOL    HW128061   1.108   0.460   4.396  0.8723 -0.4488  0.6435
 5534SOL    HW228062   1.040   0.426   4.513  0.7258 -0.4092  0.4962
 5535SOL     OW28063   2.852   3.068  13.767  0.0239  0.0221  1.0608
 5535SOL    HW128064   2.800   3.123  13.825  0.2616  1.6091 -0.2370
 5535SOL    HW228065   2.893   3.013  13.834  0.5633  0.0577  0.7578
 5536SOL     OW28066   0.673   0.298  13.119 -0.4437 -0.6095 -0.3243
 5536SOL    HW128067   0.718   0.378  13.092  2.0630 -2.6044 -2.0272
 5536SOL    HW228068   0.715   0.238  13.058  1.1766  0.9394 -0.7194
 5537SOL     OW28069   2.490   0.277   2.915 -0.1198  0.8857  0.1295
 5537SOL    HW128070   2.431   0.219   2.963 -1.6600 -0.0177 -2.8758
 5537SOL    HW228071   2.473   0.251   2.824 -0.4787 -2.5616  1.2029
 5538SOL     OW28072   1.710   0.138   3.823 -0.1356  0.2168 -0.5498
 5538SOL    HW128073   1.801   0.159   3.841 -0.6249  1.1150  0.8640
 5538SOL    HW228074   1.721   0.123   3.729 -0.1689 -1.2373 -0.3171
 5539SOL     OW28075   4.479   2.838   7.390 -0.0292  0.0910  0.4444
 5539SOL    HW128076   4.514   2.900   7.327 -0.0264 -0.7918 -0.4162
 5539SOL    HW228077   4.494   2.883   7.474 -1.9596  1.7063 -0.0782
 5540SOL     OW28078   1.670   2.890   4.424  0.1030  0.0782 -0.2469
 5540SOL    HW128079   1.682   2.979   4.459 -1.3935 -0.5271  1.7876
 5540SOL    HW228080   1.605   2.856   4.485 -0.8256  0.4341 -1.0238
 5541SOL     OW28081   0.360   2.069   8.274  0.0308  0.2537 -0.0771
 5541SOL    HW128082   0.435   2.043   8.327 -0.3090  0.4350  0.5003
 5541SOL    HW228083   0.370   2.159   8.304  0.7102  0.7293 -1.7293
 5542SOL     OW28084   0.579   3.573  10.177 -0.0405 -0.6077  0.0737
 5542SOL    HW128085   0.492   3.570  10.139  1.1128 -1.5604 -2.4613
 5542SOL    HW228086   0.623   3.500  10.133  0.1971 -1.3272  1.4876
 5543SOL     OW28087   3.796   0.784   2.983 -0.2016 -0.2077 -0.1447
 5543SOL    HW128088   3.761   0.715   3.039  0.5577 -0.6070 -0.1563
 5543SOL    HW228089   3.874   0.815   3.030  1.1335  0.6515 -2.9291
 5544SOL     OW28090   2.570   0.038   5.397  0.0243 -0.5643 -0.6775
 5544SOL    HW128091   2.538   0.114   5.348 -1.1330 -1.1433 -0.8222
 5544SOL    HW228092   2.505   4.694   5.374 -1.4969  1.8422 -3.3720
 5545SOL     OW28093   0.439   3.236   8.779  0.3625 -0.4342  0.1215
 5545SOL    HW128094   0.406   3.312   8.826  0.2519  0.5525 -1.5377
 5545SOL    HW228095   0.441   3.167   8.845 -1.4201  0.2902  0.9308
 5546SOL     OW28096   4.058   1.719   4.568  0.5415  0.2323  0.4519
 5546SOL    HW128097   4.044   1.727   4.474  1.6942 -0.7336  0.2096
 5546SOL    HW228098   4.051   1.811   4.595 -1.6087 -0.9448  3.9632
 5547SOL     OW28099   2.170   1.443  16.328 -0.3283  0.1539 -0.2169
 5547SOL    HW128100   2.144   1.357  16.295 -1.0931  1.2090 -2.3840
 5547SOL    HW228101   2.123   1.446  16.412  0.1093 -0.5890  0.0501
 5548SOL     OW28102   2.008   1.351   7.680 -0.3272  0.3825  0.2142
 5548SOL    HW128103   1.944   1.420   7.663  0.8338  1.1729 -0.9923
 5548SOL    HW228104   2.068   1.381   7.748  0.3599  2.1122 -1.1465
 5549SOL     OW28105   0.431   4.215   7.390 -0.5631 -0.0238 -0.0711
 5549SOL    HW128106   0.525   4.214   7.410 -0.5559  0.4697 -0.0949
 5549SOL    HW228107   0.426   4.120   7.380 -0.6564  0.0126 -0.3770
 5550SOL     OW28108   4.337   1.685   4.785  0.1721 -0.3169  0.3551
 5550SOL    HW128109   4.305   1.746   4.718 -0.9868  0.1191  1.3004
 5550SOL    HW228110   4.412   1.644   4.743  0.0240  0.1437 -0.3643
 5551SOL     OW28111   0.391   4.185   3.193  0.1471  0.2043 -0.1557
 5551SOL    HW128112   0.330   4.235   3.139 -0.3037 -0.8375 -0.6205
 5551SOL    HW228113   0.399   4.105   3.141  0.9278  1.1552 -1.5234
 5552SOL     OW28114   0.969   2.900   1.936  0.5178  0.5330 -0.0941
 5552SOL    HW128115   1.060   2.925   1.952  0.6358  2.1973 -3.2219
 5552SOL    HW228116   0.920   2.975   1.970  1.4499  0.8417  0.5533
 5553SOL     OW28117   1.648   2.514   9.837 -0.1377 -0.0323 -0.3647
 5553SOL    HW128118   1.723   2.500   9.894 -0.1275 -1.2100 -0.6541
 5553SOL    HW228119   1.691   2.499   9.752 -2.2618 -2.0650 -1.0956
 5554SOL     OW28120   3.404   3.490   2.561 -0.5714 -0.0699  0.5431
 5554SOL    HW128121   3.391   3.582   2.584 -0.6340 -1.2151  5.0922
 5554SOL    HW228122   3.496   3.475   2.581 -0.3118  0.5319 -0.2079
 5555SOL     OW28123   2.235   4.240   4.444  0.1805  0.2483  0.3389
 5555SOL    HW128124   2.301   4.172   4.429  1.4198  1.0964  1.9760
 5555SOL    HW228125   2.150   4.197   4.430 -0.2593  1.0395  0.5808
 5556SOL     OW28126   4.319   3.815   3.055 -0.2842  0.2098 -0.6863
 5556SOL    HW128127   4.273   3.853   3.129 -0.4146  0.2687 -0.7961
 5556SOL    HW228128   4.310   3.721   3.070 -1.1615  0.4666  0.3671
 5557SOL     OW28129   1.274   2.691   1.442  0.7760  0.1550 -0.1940
 5557SOL    HW128130   1.231   2.750   1.504 -0.1507  0.6965 -1.3670
 5557SOL    HW228131   1.295   2.622   1.505 -0.2799  2.2157  2.4156
 5558SOL     OW28132   0.211   0.388  17.282  0.0814  0.4225 -0.2780
 5558SOL    HW128133   0.279   0.422  17.224  0.9205 -0.3505  0.2564
 5558SOL    HW228134   0.259   0.339  17.348  3.0638  1.2281 -1.8820
 5559SOL     OW28135   2.255   3.979   3.622  0.1129 -0.2238  0.1752
 5559SOL    HW128136   2.221   3.896   3.655 -1.2498 -0.3425 -1.5392
 5559SOL    HW228137   2.348   3.969   3.603  0.3356  0.2518  1.0324
 5560SOL     OW28138   4.051   0.436   7.425 -0.3753  0.0474  1.1721
 5560SOL    HW128139   3.996   0.494   7.373  1.6416 -0.8649 -1.9987
 5560SOL    HW228140   4.018   0.354   7.388  0.5360  0.2702 -0.1797
 5561SOL     OW28141   4.276   0.125  11.444 -0.1774  0.0784 -0.3997
 5561SOL    HW128142   4.268   0.079  11.527  2.7570  0.9343  0.3707
 5561SOL    HW228143   4.332   0.197  11.473 -0.6365  0.6985 -1.0588
 5562SOL     OW28144   4.568   2.726   5.841 -0.0883 -0.5443  0.2162
 5562SOL    HW128145   4.481   2.690   5.860  0.7015 -2.6365 -0.0874
 5562SOL    HW228146   4.619   2.721   5.922 -1.2724  0.7406  1.0349
 5563SOL     OW28147   3.256   4.509  17.099  0.1276 -0.0017  0.7078
 5563SOL    HW128148   3.240   4.597  17.132  0.9348  1.7281 -3.5302
 5563SOL    HW228149   3.346   4.499  17.129  0.0829 -0.7045  0.6209
 5564SOL     OW28150   2.770   3.021  15.568  0.9445  0.0009  0.1597
 5564SOL    HW128151   2.859   3.019  15.531  1.9391  1.0811  2.5229
 5564SOL    HW228152   2.761   3.114  15.588 -1.6323 -0.2398  0.0860
 5565SOL     OW28153   3.087   1.834   6.758 -0.1432  0.3138  0.4982
 5565SOL    HW128154   3.112   1.844   6.849 -0.8545 -2.3018  0.9774
 5565SOL    HW228155   3.006   1.783   6.760 -2.1117  3.4604  0.9457
 5566SOL     OW28156   2.199   1.409  14.779  0.3453 -0.8786 -0.2115
 5566SOL    HW128157   2.140   1.478  14.750 -0.4397 -1.0209  1.0305
 5566SOL    HW228158   2.257   1.396  14.705 -0.8007  2.5481 -1.7173
 5567SOL     OW28159   1.503   1.269  15.487 -0.0834 -0.8870 -0.1752
 5567SOL    HW128160   1.437   1.320  15.439 -1.8695 -0.5808  2.6145
 5567SOL    HW228161   1.455   1.232  15.561 -3.5521  1.2470 -1.3321
 5568SOL     OW28162   1.143   3.372   4.030 -0.5305 -0.6134  0.3340
 5568SOL    HW128163   1.134   3.277   4.018 -0.6824 -0.9648  3.3557
 5568SOL    HW228164   1.054   3.406   4.034 -0.4934 -0.4639 -0.1329
 5569SOL     OW28165   3.447   0.530   3.598 -0.6337  0.5164  0.2264
 5569SOL    HW128166   3.457   0.624   3.587 -1.7242  0.6814  0.6418
 5569SOL    HW228167   3.400   0.525   3.682  0.6313 -2.6148  0.7524
 5570SOL     OW28168   3.635   1.881   3.933  0.4146  0.0849 -0.3645
 5570SOL    HW128169   3.661   1.957   3.986  0.4470 -0.0290 -0.2187
 5570SOL    HW228170   3.629   1.927   3.849  2.0585  2.6178  0.8822
 5571SOL     OW28171   3.211   3.979   5.968  0.6969 -0.2531 -0.4479
 5571SOL    HW128172   3.265   4.006   6.042  1.0528 -1.0730 -0.4149
 5571SOL    HW228173   3.265   3.915   5.922 -1.1960 -1.2337 -1.2973
 5572SOL     OW28174   0.354   2.677  14.110  0.7542  0.2141  0.2347
 5572SOL    HW128175   0.258   2.678  14.119  0.8838 -1.4707  1.8059
 5572SOL    HW228176   0.360   2.765  14.073  0.5525  0.6907  1.3239
 5573SOL     OW28177   1.887   3.848  17.373 -0.4440  0.4359 -0.1950
 5573SOL    HW128178   1.874   3.919  17.436 -2.2198 -0.6146  0.5928
 5573SOL    HW228179   1.851   3.883  17.291 -1.7222  0.8851  0.5526
 5574SOL     OW28180   2.226   0.328   2.156 -0.0029 -0.0694 -0.3747
 5574SOL    HW128181   2.131   0.327   2.153 -0.0259  0.7127  0.1585
 5574SOL    HW228182   2.250   0.418   2.176  1.3912 -0.4328 -0.3618
 5575SOL     OW28183   3.312   3.537   8.408  0.3896 -0.0368 -0.1671
 5575SOL    HW128184   3.290   3.593   8.483  0.1283 -1.0544  0.5136
 5575SOL    HW228185   3.405   3.541   8.385  0.2469  2.8919 -0.3291
 5576SOL     OW28186   3.299   1.074   2.639  0.2039 -0.1271  0.3935
 5576SOL    HW128187   3.226   1.022   2.606 -0.3455  2.9562 -3.2989
 5576SOL    HW228188   3.276   1.162   2.609 -0.4133  0.3483  2.2718
 5577SOL     OW28189   0.089   3.175  11.850 -0.3640 -0.8365  0.4462
 5577SOL    HW128190   0.024   3.106  11.844 -1.1702 -0.1685  1.5541
 5577SOL    HW228191   0.104   3.194  11.943  1.6113 -2.7736  0.5118
 5578SOL     OW28192   0.186   0.687  11.505 -0.3019  0.3969 -0.0071
 5578SOL    HW128193   0.192   0.629  11.429  0.4036  1.8326 -1.0316
 5578SOL    HW228194   0.106   0.732  11.478 -0.3518 -0.8262 -1.8799
 5579SOL     OW28195   2.046   4.646   3.758 -0.1350  0.3558 -0.6041
 5579SOL    HW128196   1.960   4.606   3.744 -0.5900  0.7927  0.9198
 5579SOL    HW228197   2.021   0.013   3.778  1.8003  0.3951  1.7269
 5580SOL     OW28198   1.431   1.008   5.847 -0.4111  0.7522  0.0151
 5580SOL    HW128199   1.520   0.987   5.876 -0.3810  0.5563 -0.2251
 5580SOL    HW228200   1.372   0.959   5.904  0.4864 -0.4176 -0.0687
 5581SOL     OW28201   1.474   0.489   8.736  0.3188  0.3191 -0.8323
 5581SOL    HW128202   1.414   0.467   8.808  0.3574  1.1323 -0.5599
 5581SOL    HW228203   1.413   0.471   8.664 -0.7359  2.0029 -0.3641
 5582SOL     OW28204   4.624   3.350  15.792  0.7598 -0.2458 -0.7661
 5582SOL    HW128205   4.544   3.399  15.773  0.5875 -0.6498 -1.0644
 5582SOL    HW228206   4.593   3.260  15.803  0.3803  0.4968  4.1536
 5583SOL     OW28207   4.705   0.844  11.433 -0.4451 -0.1989 -0.0167
 5583SOL    HW128208   4.668   0.879  11.514 -0.4577  1.7253 -0.8425
 5583SOL    HW228209   4.628   0.807  11.390 -0.1391  2.1281 -2.5291
 5584SOL     OW28210   0.169   1.726   3.026 -0.6298  0.5252 -0.2171
 5584SOL    HW128211   0.253   1.701   2.987 -0.5652 -1.1211  0.9789
 5584SOL    HW228212   0.116   1.650   3.005 -1.3826  1.3091 -1.1258
 5585SOL     OW28213   2.785   4.340  14.564 -0.1224  0.0892 -0.3253
 5585SOL    HW128214   2.760   4.432  14.559  2.1661  0.7489  0.0486
 5585SOL    HW228215   2.704   4.301  14.596 -0.7437  3.2105  1.8996
 5586SOL     OW28216   4.437   1.500   9.004  0.6366 -0.5173 -0.1638
 5586SOL    HW128217   4.470   1.589   8.999  1.5032 -0.7439  1.5301
 5586SOL    HW228218   4.427   1.498   9.100 -0.9906  0.3822 -0.3124
 5587SOL     OW28219   0.347   3.305   7.388  0.3218  0.2636  0.1654
 5587SOL    HW128220   0.343   3.300   7.293  1.4802  1.7619  0.0348
 5587SOL    HW228221   0.405   3.379   7.409  0.6905  0.2789 -0.9243
 5588SOL     OW28222   1.656   1.668   9.758 -0.3448 -0.6971 -0.0220
 5588SOL    HW128223   1.712   1.702   9.828 -2.1008  0.6795  0.7094
 5588SOL    HW228224   1.674   1.736   9.693 -1.8186 -0.4801 -0.2006
 5589SOL     OW28225   3.492   3.591   2.073 -0.0376 -0.3223  0.1324
 5589SOL    HW128226   3.477   3.497   2.058  0.6895 -0.4094 -0.0439
 5589SOL    HW228227   3.578   3.585   2.031 -0.9982  0.1060 -1.9369
 5590SOL     OW28228   3.109   2.623   4.577  0.4616 -0.1434  0.3888
 5590SOL    HW128229   3.145   2.705   4.544  0.3089  0.0388  0.6715
 5590SOL    HW228230   3.019   2.651   4.597 -0.3845 -1.3068 -1.8824
 5591SOL     OW28231   3.780   4.307   7.824 -0.4222  0.4166  0.5107
 5591SOL    HW128232   3.820   4.337   7.905  1.6164 -2.6518  0.6153
 5591SOL    HW228233   3.747   4.221   7.852 -0.1398 -0.2139 -1.1067
 5592SOL     OW28234   0.079   0.324  14.435 -0.8073 -0.7106  0.0714
 5592SOL    HW128235   0.114   0.251  14.487 -0.6771 -0.0259  0.9388
 5592SOL    HW228236   4.712   0.292  14.426 -0.2477 -2.0722 -0.7364
 5593SOL     OW28237   0.044   0.489   7.246  0.0556  0.4490 -0.3577
 5593SOL    HW128238   0.116   0.457   7.300  0.5291 -1.3852 -2.0765
 5593SOL    HW228239   0.054   0.584   7.256 -1.4918  0.3974  1.8304
 5594SOL     OW28240   3.254   2.658   4.968 -0.2026 -0.4040  0.2244
 5594SOL    HW128241   3.194   2.731   4.956  2.5216  1.9664  0.9955
 5594SOL    HW228242   3.190   2.587   4.965  0.1262 -0.5691 -2.4872
 5595SOL     OW28243   1.473   4.723   7.665  0.4063  0.0917 -0.0014
 5595SOL    HW128244   1.491   0.022   7.757  0.8957  2.9733 -0.7830
 5595SOL    HW228245   1.523   0.071   7.624 -1.5086  1.5639  0.2120
 5596SOL     OW28246   3.977   4.576   3.223 -0.1761  0.1553  0.1144
 5596SOL    HW128247   3.924   4.507   3.262 -3.0363  2.0285 -0.4065
 5596SOL    HW228248   3.917   4.649   3.241 -0.3911  0.8770 -3.6376
 5597SOL     OW28249   2.193   4.622  12.173  0.3168  0.2108 -0.7092
 5597SOL    HW128250   2.185   4.593  12.264 -0.4309  0.8861 -0.5569
 5597SOL    HW228251   2.250   4.552  12.142 -0.5715 -1.2694  1.0235
 5598SOL     OW28252   3.662   0.301   6.477  0.1459  0.0600 -0.7985
 5598SOL    HW128253   3.685   0.223   6.526 -0.8921 -0.1185 -0.5981
 5598SOL    HW228254   3.736   0.301   6.416  0.3219 -2.6115 -0.5497
 5599SOL     OW28255   1.003   2.357   8.163  0.7073  0.1559  0.0061
 5599SOL    HW128256   1.082   2.328   8.209  1.0700 -1.1422 -1.4380
 5599SOL    HW228257   1.038   2.433   8.117 -0.9033  1.8299  1.4917
 5600SOL     OW28258   4.037   4.018  12.149 -0.3996 -0.0461  0.4590
 5600SOL    HW128259   4.126   4.043  12.173 -0.0387 -1.4587  0.5911
 5600SOL    HW228260   4.045   4.006  12.054  1.2558 -1.9409  0.8279
 5601SOL     OW28261   2.400   4.154  17.292  0.1776  0.3027 -0.5529
 5601SOL    HW128262   2.482   4.184  17.253 -0.0700  1.9215  0.1673
 5601SOL    HW228263   2.386   4.232  17.346  1.3192  1.5392 -2.0445
 5602SOL     OW28264   2.078   0.818  15.373 -0.3239  0.1715  0.1337
 5602SOL    HW128265   2.115   0.879  15.309 -0.6742  1.1994  0.9178
 5602SOL    HW228266   2.031   0.763  15.311 -1.7545  0.4575  0.9675
 5603SOL     OW28267   1.440   3.794   0.892 -0.4305  1.2987  0.0165
 5603SOL    HW128268   1.348   3.770   0.882  0.3349 -1.4944 -0.1738
 5603SOL    HW228269   1.474   3.729   0.952 -1.8711 -1.0412 -1.6958
 5604SOL     OW28270   0.321   1.988   7.846  0.1491 -0.2522  0.0016
 5604SOL    HW128271   0.298   2.077   7.822 -2.6731 -1.6788 -2.4644
 5604SOL    HW228272   0.415   2.008   7.852  0.3359 -0.8742 -0.8064
 5605SOL     OW28273   1.688   0.970   9.060  0.3198 -0.4417 -0.2444
 5605SOL    HW128274   1.668   0.926   9.143  0.0946 -0.0123 -0.0693
 5605SOL    HW228275   1.620   1.037   9.066  0.6379  0.0609 -2.2078
 5606SOL     OW28276   2.807   2.033   5.591 -0.3453  0.0195 -0.4383
 5606SOL    HW128277   2.812   2.100   5.658 -0.9653 -1.0351  0.6516
 5606SOL    HW228278   2.888   2.045   5.542  0.8313  0.8387  1.7405
 5607SOL     OW28279   2.683   2.268   2.483 -0.0214  0.0921  0.0384
 5607SOL    HW128280   2.761   2.213   2.478 -0.0363  0.0911 -0.1906
 5607SOL    HW228281   2.703   2.349   2.530  0.1953 -0.6542  1.2311
 5608SOL     OW28282   2.597   4.126   2.526 -0.7120 -0.2127  0.1571
 5608SOL    HW128283   2.555   4.087   2.602 -0.6722  1.6496  1.1143
 5608SOL    HW228284   2.688   4.132   2.555 -0.2538 -1.4879 -0.9739
 5609SOL     OW28285   2.552   1.687  15.780 -0.0205 -1.1914 -0.3938
 5609SOL    HW128286   2.472   1.739  15.777  0.7970  0.0521 -0.7156
 5609SOL    HW228287   2.609   1.738  15.837 -0.9356 -0.3345 -0.2487
 5610SOL     OW28288   4.489   0.203   3.204 -0.7858 -0.2742  0.4241
 5610SOL    HW128289   4.495   0.191   3.299 -0.3744 -0.0341  0.4278
 5610SOL    HW228290   4.469   0.296   3.203 -0.4382 -0.2100 -2.4932
 5611SOL     OW28291   4.432   2.339  17.528  0.7378 -0.5713 -0.0016
 5611SOL    HW128292   4.397   2.425  17.507 -0.5816 -0.6275  1.9357
 5611SOL    HW228293   4.521   2.342  17.493 -0.2399 -2.5490 -2.6267
 5612SOL     OW28294   3.487   2.402  16.729  0.4506 -0.3655 -0.2326
 5612SOL    HW128295   3.432   2.413  16.808 -0.5699 -1.2013 -0.8233
 5612SOL    HW228296   3.562   2.459  16.745 -1.0985  1.9379 -1.2632
 5613SOL     OW28297   2.120   4.527   7.250  0.3593 -0.1652  0.1714
 5613SOL    HW128298   2.157   4.464   7.312 -0.5108 -2.8407 -2.0265
 5613SOL    HW228299   2.194   4.567   7.203  1.4314 -0.2132  1.7994
 5614SOL     OW28300   1.013   0.959   4.662 -0.0032  0.0681  0.2475
 5614SOL    HW128301   0.988   0.955   4.755  0.1973  0.0380  0.3000
 5614SOL    HW228302   1.066   0.879   4.660 -0.1188 -0.0045  0.0830
 5615SOL     OW28303   1.587   4.027   9.823 -0.1188 -0.5937  0.1755
 5615SOL    HW128304   1.524   3.990   9.885  0.5890 -0.3439  1.0444
 5615SOL    HW228305   1.529   4.090   9.781  1.6778 -0.8842 -2.7367
 5616SOL     OW28306   2.374   1.567  14.931 -0.4977  0.2481 -0.3299
 5616SOL    HW128307   2.295   1.532  14.889 -2.4182  3.6076  0.4228
 5616SOL    HW228308   2.422   1.486  14.946 -2.5809 -1.1662 -1.2486
 5617SOL     OW28309   2.841   2.345   4.240 -0.2240  0.3800  0.6198
 5617SOL    HW128310   2.876   2.381   4.321  1.2149 -2.2278  1.1352
 5617SOL    HW228311   2.794   2.423   4.211 -1.0255  0.2545  1.6097
 5618SOL     OW28312   2.021   3.278   4.841 -0.0118 -0.3880 -0.3395
 5618SOL    HW128313   2.101   3.236   4.873  0.4572 -0.8517 -2.1185
 5618SOL    HW228314   2.005   3.356   4.894  3.0948  0.7711 -1.1663
 5619SOL     OW28315   4.683   0.308   4.701 -0.0252 -0.1608 -0.0910
 5619SOL    HW128316   4.718   0.287   4.788 -0.1448  0.2738  0.0636
 5619SOL    HW228317   0.038   0.284   4.650 -1.2027 -1.2686 -1.3753
 5620SOL     OW28318   3.469   1.072  14.560 -0.2754  0.1112  0.5808
 5620SOL    HW128319   3.559   1.087  14.589  0.4583 -0.8347 -1.2287
 5620SOL    HW228320   3.483   1.064  14.466  1.1688  0.9158  0.7180
 5621SOL     OW28321   0.108   2.433  13.382  0.4161 -0.5384  0.1545
 5621SOL    HW128322   0.173   2.501  13.365 -0.2925 -0.3647 -1.9176
 5621SOL    HW228323   0.030   2.477  13.346 -0.0133 -0.7407  0.8387
 5622SOL     OW28324   0.566   1.792   3.644  0.2232 -0.2013  0.0963
 5622SOL    HW128325   0.605   1.710   3.613  1.5898  0.2083  0.7433
 5622SOL    HW228326   0.558   1.781   3.739  0.8334 -0.4191  0.1214
 5623SOL     OW28327   2.341   2.314   1.531  0.3956  0.4046 -0.0782
 5623SOL    HW128328   2.277   2.309   1.460  1.4453 -3.9526 -0.7389
 5623SOL    HW228329   2.277   2.326   1.602 -1.2685  0.7310 -1.6526
 5624SOL     OW28330   2.483   1.865   8.814  0.2558  0.3796  0.0227
 5624SOL    HW128331   2.390   1.844   8.809  0.4991 -1.0939  1.8017
 5624SOL    HW228332   2.502   1.853   8.907  1.7721 -1.5446 -0.5513
 5625SOL     OW28333   1.571   4.230   5.178  0.4720 -0.0541  0.2495
 5625SOL    HW128334   1.627   4.229   5.255 -2.7598 -0.2839  2.6103
 5625SOL    HW228335   1.515   4.304   5.202 -0.9180 -0.5854 -1.3174
 5626SOL     OW28336   2.657   3.724   0.080  0.0922 -0.5980  0.3848
 5626SOL    HW128337   2.686   3.637   0.106 -2.0197 -1.5345 -0.4033
 5626SOL    HW228338   2.702   3.744  17.692 -0.5513 -0.1873  0.1293
 5627SOL     OW28339   0.330   2.204   3.514  0.4216 -0.0876 -0.1832
 5627SOL    HW128340   0.322   2.202   3.609 -1.7347  0.5304 -0.3571
 5627SOL    HW228341   0.347   2.296   3.493  0.4422  0.4984  2.4734
 5628SOL     OW28342   0.342   4.229  17.138  0.2158  0.3662 -0.3807
 5628SOL    HW128343   0.268   4.288  17.121 -0.4269  0.0556  1.3342
 5628SOL    HW228344   0.397   4.292  17.185 -1.4909  0.9051  0.9238
 5629SOL     OW28345   2.691   1.529  12.235  0.7487 -0.1351  0.3593
 5629SOL    HW128346   2.786   1.537  12.244  0.4840  3.0849  0.0398
 5629SOL    HW228347   2.680   1.522  12.141 -2.7617  1.3120  0.6370
 5630SOL     OW28348   3.998   2.110   9.795 -0.1338  0.3657  0.4123
 5630SOL    HW128349   4.087   2.144   9.808  1.0515 -1.9198 -1.5787
 5630SOL    HW228350   3.945   2.187   9.777  0.3706  0.2608 -1.6437
 5631SOL     OW28351   2.969   0.535   0.301  0.3433 -0.4813  0.7715
 5631SOL    HW128352   2.973   0.443   0.327  0.1109 -0.8758 -0.5982
 5631SOL    HW228353   3.046   0.569   0.347  0.9397  0.0794 -0.6572
 5632SOL     OW28354   3.640   3.211   7.562  0.9727  0.3255 -0.0503
 5632SOL    HW128355   3.581   3.229   7.635 -0.7297  0.3019 -1.4178
 5632SOL    HW228356   3.702   3.283   7.574  0.6752  0.2286  2.0498
 5633SOL     OW28357   3.572   4.276   1.957 -0.1602  0.4136  1.0650
 5633SOL    HW128358   3.628   4.206   1.924 -2.0616 -0.9224  0.6663
 5633SOL    HW228359   3.489   4.241   1.989 -0.6888 -0.5580 -1.4224
 5634SOL     OW28360   1.058   3.849   1.106 -0.3690 -0.3860 -0.0637
 5634SOL    HW128361   1.104   3.834   1.023  0.5816 -1.2741  0.6233
 5634SOL    HW228362   1.135   3.837   1.161  0.5876 -0.1620 -1.3672
 5635SOL     OW28363   4.498   2.351   4.124  0.0508 -0.3458 -0.5416
 5635SOL    HW128364   4.414   2.391   4.146 -0.2235 -0.9250 -0.5411
 5635SOL    HW228365   4.478   2.261   4.150  0.7752 -0.0897  0.9052
 5636SOL     OW28366   3.970   1.792   0.528  0.2838  0.0512 -0.7496
 5636SOL    HW128367   3.928   1.729   0.587  0.3721 -0.1829 -0.9350
 5636SOL    HW228368   3.899   1.817   0.469 -2.3243 -3.8796  0.7010
 5637SOL     OW28369   2.869   3.997  14.089 -0.3076 -0.2983  0.2524
 5637SOL    HW128370   2.883   4.065  14.154 -0.9558 -0.5938  0.6995
 5637SOL    HW228371   2.954   3.997  14.044 -0.9604 -1.9550 -0.9917
 5638SOL     OW28372   3.286   3.188   6.286 -0.3475  0.1081 -0.1474
 5638SOL    HW128373   3.314   3.267   6.333 -0.3322  0.1168 -0.1717
 5638SOL    HW228374   3.364   3.167   6.235 -0.6696  1.9454 -1.3714
 5639SOL     OW28375   2.142   0.971  13.125  0.3103 -0.1218  0.5228
 5639SOL    HW128376   2.230   0.934  13.127  0.6191  0.5865  0.1318
 5639SOL    HW228377   2.077   0.901  13.126 -1.4960  1.6008  2.8128
 5640SOL     OW28378   4.634   2.119   3.092  0.5702 -0.5666 -0.2752
 5640SOL    HW128379   4.594   2.143   3.175 -0.1455 -0.0224 -0.7760
 5640SOL    HW228380   0.003   2.115   3.118  0.5810 -0.8800 -0.3558
 5641SOL     OW28381   2.090   2.643   4.839 -0.7675  0.5693  0.5016
 5641SOL    HW128382   2.079   2.736   4.820 -6.5908  0.2284  2.3613
 5641SOL    HW228383   2.001   2.612   4.828 -0.2420  0.2019 -2.7747
 5642SOL     OW28384   1.106   2.146   6.016  0.3257  0.1083 -0.1041
 5642SOL    HW128385   1.021   2.119   6.052  0.6774 -0.4857  0.2852
 5642SOL    HW228386   1.131   2.205   6.087 -0.0946  1.0210 -0.7202
 5643SOL     OW28387   1.224   2.692   7.817 -0.3402  0.1312 -0.4256
 5643SOL    HW128388   1.134   2.721   7.802  0.1286  1.4011 -0.7802
 5643SOL    HW228389   1.268   2.771   7.786  0.7576  0.4678  1.9876
 5644SOL     OW28390   2.977   2.813  17.220  0.0991  0.0858 -0.3343
 5644SOL    HW128391   3.035   2.842  17.149 -1.6840  0.8188 -1.4928
 5644SOL    HW228392   3.003   2.872  17.291  0.3954  1.0067 -1.2006
 5645SOL     OW28393   1.671   1.332   7.460 -0.6930 -0.2165  0.1464
 5645SOL    HW128394   1.668   1.296   7.371 -0.5766  0.2276 -0.0383
 5645SOL    HW228395   1.662   1.252   7.511  1.1848 -1.6204 -1.7273
 5646SOL     OW28396   2.934   0.739   7.631 -0.2095  0.2438  0.3895
 5646SOL    HW128397   2.860   0.712   7.686 -0.3450 -0.2681 -0.0384
 5646SOL    HW228398   2.929   0.833   7.642  1.7458  0.3693  0.1914
 5647SOL     OW28399   1.755   3.204   4.815  0.4824 -0.3546 -0.5324
 5647SOL    HW128400   1.841   3.245   4.829  0.5167 -0.8307  0.6410
 5647SOL    HW228401   1.729   3.231   4.727 -0.7554  0.6136  0.1308
 5648SOL     OW28402   2.939   0.044   6.238  0.0614 -0.0289  0.2642
 5648SOL    HW128403   2.971   0.112   6.298  3.0217  0.2456 -1.6474
 5648SOL    HW228404   2.845   0.064   6.235 -0.1070 -1.3028 -2.4000
 5649SOL     OW28405   3.063   1.616   2.316  0.3372 -0.1660  0.2747
 5649SOL    HW128406   3.079   1.681   2.384 -2.1894 -0.8441  1.5321
 5649SOL    HW228407   2.992   1.656   2.265 -0.1323 -1.6179 -0.2110
 5650SOL     OW28408   2.175   4.685  10.349 -0.2945 -0.8763 -0.2050
 5650SOL    HW128409   2.191   4.591  10.349  2.2251 -0.4651  1.4166
 5650SOL    HW228410   2.244   4.709  10.412  1.1848  0.4114 -2.2967
 5651SOL     OW28411   0.073   4.087   9.300  0.3706 -0.3235  0.0901
 5651SOL    HW128412   0.068   4.081   9.396 -0.6494 -2.8053 -0.1278
 5651SOL    HW228413   0.133   4.161   9.292 -0.7513  0.4240 -1.4437
 5652SOL     OW28414   3.592   1.908  16.142 -0.2727  0.5583 -0.3813
 5652SOL    HW128415   3.577   1.964  16.219  3.2397  1.9126 -0.7104
 5652SOL    HW228416   3.598   1.976  16.075  0.5157  1.6293  0.7845
 5653SOL     OW28417   0.230   0.511  15.295  0.9161 -0.2821  0.1365
 5653SOL    HW128418   0.148   0.466  15.315 -1.0959  2.2114 -2.4332
 5653SOL    HW228419   0.201   0.601  15.281  2.4465 -0.4273 -3.8086
 5654SOL     OW28420   2.165   2.030   2.437  0.3762  0.6110 -0.0591
 5654SOL    HW128421   2.190   2.113   2.478 -1.6321  0.3605  1.6651
 5654SOL    HW228422   2.212   2.026   2.354 -0.6264  1.5544 -0.6829
 5655SOL     OW28423   2.742   0.576   5.749 -0.1172  0.3242  0.0396
 5655SOL    HW128424   2.761   0.578   5.655 -0.2576 -2.2805 -0.0576
 5655SOL    HW228425   2.745   0.670   5.762  0.3762  0.1401  1.2417
 5656SOL     OW28426   3.223   3.575   8.147 -0.0044 -0.1639 -0.6568
 5656SOL    HW128427   3.306   3.576   8.099  1.8843 -0.4897  2.5865
 5656SOL    HW228428   3.244   3.546   8.236 -0.2055  1.0081 -0.2312
 5657SOL     OW28429   3.087   4.506   5.189 -0.0444  0.1158  0.1542
 5657SOL    HW128430   3.176   4.540   5.180  0.7175 -1.6513  1.1288
 5657SOL    HW228431   3.065   4.467   5.105 -3.7052 -0.0831  1.1955
 5658SOL     OW28432   3.920   4.401   6.536  0.3321  0.0579 -0.5726
 5658SOL    HW128433   3.874   4.464   6.592  1.1565 -0.0573  0.2309
 5658SOL    HW228434   4.008   4.439   6.536  0.2485  0.2550  0.6130
 5659SOL     OW28435   4.100   1.537   2.586 -0.0212 -0.1428 -0.1687
 5659SOL    HW128436   4.095   1.493   2.671 -0.9999  1.8285  0.7963
 5659SOL    HW228437   4.009   1.563   2.572  0.2667  0.8288 -0.2301
 5660SOL     OW28438   3.046   2.485  10.670 -0.0545 -0.2515  0.1116
 5660SOL    HW128439   2.975   2.549  10.679  0.5988  1.0185 -3.6969
 5660SOL    HW228440   3.027   2.427  10.744 -2.6408  1.0117  0.4622
 5661SOL     OW28441   0.179   4.069   5.941 -0.2913 -0.0119 -0.2551
 5661SOL    HW128442   0.109   4.119   5.983 -0.0311  0.5629 -0.4995
 5661SOL    HW228443   0.237   4.144   5.927  0.9975 -0.7828  0.9841
 5662SOL     OW28444   0.773   3.157  11.829 -0.1971 -0.4146 -0.3847
 5662SOL    HW128445   0.863   3.139  11.857 -0.1597 -0.9312 -0.8487
 5662SOL    HW228446   0.784   3.206  11.747 -1.9175 -1.2606 -1.1231
 5663SOL     OW28447   4.117   0.161   4.540 -0.0904 -0.2095 -0.3143
 5663SOL    HW128448   4.046   0.224   4.525 -1.1348 -1.2113  0.3919
 5663SOL    HW228449   4.182   0.181   4.473  0.7392  1.9302  1.0814
 5664SOL     OW28450   0.805   1.263   2.648 -0.4337 -0.1409 -0.7242
 5664SOL    HW128451   0.717   1.224   2.649 -0.2285 -0.4992  2.6392
 5664SOL    HW228452   0.798   1.320   2.571  1.0001  0.7204 -0.2127
 5665SOL     OW28453   2.068   0.512   1.099 -0.4243 -0.0511 -0.2624
 5665SOL    HW128454   2.112   0.433   1.070  1.3086  0.9791 -0.4268
 5665SOL    HW228455   1.995   0.510   1.036 -1.0744  0.6924  0.4606
 5666SOL     OW28456   1.626   0.834   9.282 -0.3824  0.2754  0.4183
 5666SOL    HW128457   1.646   0.741   9.279 -2.2892 -0.0908 -0.8296
 5666SOL    HW228458   1.535   0.828   9.312 -0.4154 -0.3741  0.1857
 5667SOL     OW28459   1.142   2.027   5.393  0.0789 -0.4920  0.1028
 5667SOL    HW128460   1.079   1.956   5.404 -3.5832  2.2655 -3.2871
 5667SOL    HW228461   1.209   2.004   5.457  0.7440  0.5639 -0.2149
 5668SOL     OW28462   2.371   4.398  17.401 -0.0044 -0.0357  0.2575
 5668SOL    HW128463   2.298   4.455  17.426  0.1445  0.0170  0.5819
 5668SOL    HW228464   2.448   4.446  17.433 -0.4100 -0.2371  1.5691
 5669SOL     OW28465   1.566   4.452  10.450  0.2953  0.2789 -0.5731
 5669SOL    HW128466   1.554   4.547  10.450 -4.5044 -0.3622 -0.5260
 5669SOL    HW228467   1.495   4.430  10.510  0.0347  1.5510 -0.4293
 5670SOL     OW28468   2.856   1.701   2.162 -0.7830 -0.6937  0.1111
 5670SOL    HW128469   2.785   1.742   2.211 -1.3492  0.1874 -1.4681
 5670SOL    HW228470   2.834   1.608   2.170  0.6845 -0.9203  1.4473
 5671SOL     OW28471   3.622   3.026   3.843 -0.3719 -0.0813  0.5526
 5671SOL    HW128472   3.643   3.095   3.781  0.6306  0.3380  1.3642
 5671SOL    HW228473   3.705   3.020   3.889 -1.2276 -2.7513  1.7486
 5672SOL     OW28474   0.297   1.700  13.564  0.0980  0.4853 -0.3381
 5672SOL    HW128475   0.219   1.700  13.509 -0.5671  1.4581  0.5921
 5672SOL    HW228476   0.291   1.793  13.586  0.6378  0.4458 -0.0151
 5673SOL     OW28477   4.243   0.204   4.318  0.6465 -0.2335  0.1778
 5673SOL    HW128478   4.305   0.155   4.265 -0.7316  1.2757 -2.8058
 5673SOL    HW228479   4.284   0.291   4.318 -1.0063  0.5423  1.3574
 5674SOL     OW28480   3.490   2.759   0.783 -0.5247 -0.1771  0.1083
 5674SOL    HW128481   3.474   2.800   0.698 -0.8982  1.0866  0.7744
 5674SOL    HW228482   3.490   2.842   0.832  1.8431  0.3720 -0.7966
 5675SOL     OW28483   0.071   4.290   6.646 -0.4844  0.2623 -0.2613
 5675SOL    HW128484   4.709   4.249   6.630  0.0130 -0.6250 -0.6566
 5675SOL    HW228485   0.072   4.350   6.571  0.6296 -1.6975 -1.8256
 5676SOL     OW28486   1.300   1.677   8.115 -0.1033 -0.3883 -0.3617
 5676SOL    HW128487   1.277   1.734   8.042  2.1313  2.1105  0.8879
 5676SOL    HW228488   1.335   1.732   8.186 -1.5005  0.3449 -0.2436
 5677SOL     OW28489   4.310   2.272   7.900 -0.2024  0.2770  0.1192
 5677SOL    HW128490   4.238   2.296   7.842 -0.5447  1.7848  1.1718
 5677SOL    HW228491   4.338   2.191   7.858 -0.3666  1.0813 -1.5311
 5678SOL     OW28492   2.561   1.295  12.311 -0.2542 -0.0788 -0.1930
 5678SOL    HW128493   2.571   1.389  12.319 -0.3183 -0.1959  1.3306
 5678SOL    HW228494   2.465   1.292  12.308 -0.3133  0.4311  1.1089
 5679SOL     OW28495   1.566   3.248  14.239 -0.5677  0.6388 -0.4790
 5679SOL    HW128496   1.568   3.266  14.333 -2.7001 -2.1461  0.0965
 5679SOL    HW228497   1.636   3.306  14.209  0.4087  0.6479  1.8265
 5680SOL     OW28498   3.460   4.302   7.887 -0.5344  0.5497 -0.1100
 5680SOL    HW128499   3.507   4.221   7.906 -0.1823  0.9853  0.8774
 5680SOL    HW228500   3.531   4.358   7.917 -3.0226  2.6176  1.9536
 5681SOL     OW28501   2.066   1.994   5.404 -0.0592  0.7010 -0.1144
 5681SOL    HW128502   2.105   1.931   5.464  0.5118 -1.7027 -2.9624
 5681SOL    HW228503   1.976   1.962   5.402  0.2860 -0.2845  0.7403
 5682SOL     OW28504   1.853   3.895   7.667  0.7924 -0.3486 -0.1570
 5682SOL    HW128505   1.891   3.865   7.585 -2.5080  0.3297 -1.9020
 5682SOL    HW228506   1.859   3.824   7.731 -0.3480 -0.9960 -0.7713
 5683SOL     OW28507   0.175   4.300   3.605 -0.4836 -0.1957 -0.4202
 5683SOL    HW128508   0.219   4.258   3.532 -1.1767 -0.9331 -0.4097
 5683SOL    HW228509   0.175   4.232   3.671 -0.9861  1.2246  1.0535
 5684SOL     OW28510   3.717   0.858   6.017  0.2671 -0.0456  0.0032
 5684SOL    HW128511   3.763   0.774   6.021 -0.0945 -0.2604 -0.2784
 5684SOL    HW228512   3.777   0.911   6.070 -3.5487  2.8857  1.3856
 5685SOL     OW28513   3.315   2.416   3.498  0.2823 -0.0404 -0.9351
 5685SOL    HW128514   3.355   2.495   3.534 -1.3015  0.2277  0.2584
 5685SOL    HW228515   3.343   2.360   3.569 -1.0464 -1.2644 -1.3719
 5686SOL     OW28516   1.439   2.875   3.905 -0.1802 -0.8364  0.2751
 5686SOL    HW128517   1.390   2.936   3.851  0.1280 -0.0401  0.8971
 5686SOL    HW228518   1.443   2.798   3.848  0.9645  0.6307 -1.6121
 5687SOL     OW28519   0.508   0.466  11.493 -0.4050 -0.0682 -0.9400
 5687SOL    HW128520   0.484   0.530  11.559 -1.1247 -2.3409  1.0239
 5687SOL    HW228521   0.464   0.389  11.529 -0.5774  0.0002 -1.0077
 5688SOL     OW28522   4.682   3.907  12.724 -0.1573  0.7630  0.0534
 5688SOL    HW128523   4.682   3.994  12.764 -0.8960 -0.2648  2.3185
 5688SOL    HW228524   4.648   3.929  12.637 -0.9722  2.1990  0.7349
 5689SOL     OW28525   2.881   0.267  10.137  0.1389 -0.2094 -0.4376
 5689SOL    HW128526   2.826   0.322  10.081  1.1906  0.3178 -0.9590
 5689SOL    HW228527   2.841   0.180  10.131  0.9213 -0.7441  2.1261
 5690SOL     OW28528   2.260   3.782   4.666 -0.1354  0.2947 -0.0482
 5690SOL    HW128529   2.293   3.856   4.615 -1.1712  1.0110  0.3323
 5690SOL    HW228530   2.335   3.748   4.715  0.3407 -0.1000 -1.0497
 5691SOL     OW28531   0.705   1.127  11.623  0.2608  0.5212 -0.4873
 5691SOL    HW128532   0.684   1.213  11.585 -0.6552  0.2315 -0.6506
 5691SOL    HW228533   0.638   1.071  11.584  1.0042  0.3709 -1.5303
 5692SOL     OW28534   1.244   3.539   1.155 -0.4086  0.2152  0.1818
 5692SOL    HW128535   1.220   3.631   1.167 -0.2975  0.3144 -0.3643
 5692SOL    HW228536   1.228   3.515   1.064 -1.4423  0.7377  0.2273
 5693SOL     OW28537   0.608   2.643  16.683 -0.9069 -0.4529 -0.0372
 5693SOL    HW128538   0.554   2.605  16.614  1.8876 -2.7855 -0.9251
 5693SOL    HW228539   0.639   2.714  16.627  0.0128 -0.9381 -0.1437
 5694SOL     OW28540   0.454   0.526   0.409 -0.3879  0.4611 -0.7177
 5694SOL    HW128541   0.409   0.611   0.416 -2.6667 -0.6628 -1.8092
 5694SOL    HW228542   0.545   0.556   0.401  0.3075 -1.9815 -1.8788
 5695SOL     OW28543   4.655   2.029   2.312 -0.0151  0.1679 -0.8310
 5695SOL    HW128544   4.593   2.041   2.384  0.0120  0.2488 -0.8212
 5695SOL    HW228545   4.708   2.107   2.327 -0.0256  0.1286 -0.5981
 5696SOL     OW28546   1.816   2.466   9.626  0.4503  0.7624 -0.0540
 5696SOL    HW128547   1.902   2.504   9.644  0.1175  0.3315  2.5025
 5696SOL    HW228548   1.839   2.380   9.593 -0.6109  1.1521 -1.8153
 5697SOL     OW28549   0.317   4.563   9.643 -0.0597 -0.3811 -0.6334
 5697SOL    HW128550   0.263   4.638   9.618  0.6321  0.3978  0.2141
 5697SOL    HW228551   0.301   4.502   9.571 -0.2550 -0.0625 -0.8598
 5698SOL     OW28552   0.889   1.612  13.014  0.0308  1.4732 -0.2380
 5698SOL    HW128553   0.897   1.569  13.099  0.8432  2.0150 -0.0409
 5698SOL    HW228554   0.804   1.578  12.988 -0.6224  2.3400  0.7406
 5699SOL     OW28555   0.161   2.172   4.318  0.0160 -0.1309  0.4041
 5699SOL    HW128556   0.092   2.180   4.251  0.4590  0.0242 -0.0361
 5699SOL    HW228557   0.143   2.086   4.355  0.8704  0.0248  1.1779
 5700SOL     OW28558   2.309   0.362  14.846 -0.5524  0.1587 -0.3491
 5700SOL    HW128559   2.378   0.376  14.781  1.7388  1.2808  2.2971
 5700SOL    HW228560   2.333   0.270  14.861 -0.4492  0.0952 -0.9080
 5701SOL     OW28561   2.336   0.226   0.970  0.0428 -0.0931  0.0020
 5701SOL    HW128562   2.241   0.233   0.963 -0.0795 -1.1389  0.5444
 5701SOL    HW228563   2.343   0.261   1.059  1.5739  1.6248 -0.7796
 5702SOL     OW28564   4.611   2.208  16.162  0.3715 -0.7091 -0.6913
 5702SOL    HW128565   4.544   2.270  16.132  0.9392 -1.4605 -3.4816
 5702SOL    HW228566   4.651   2.241  16.242  0.1628  0.2965 -0.9969
 5703SOL     OW28567   0.750   1.152   3.794 -0.2164 -0.1905  0.0396
 5703SOL    HW128568   0.746   1.057   3.807  0.4025 -0.4934 -1.9988
 5703SOL    HW228569   0.690   1.153   3.719 -0.8236  3.8861  0.5972
 5704SOL     OW28570   3.978   4.091  13.381 -0.0281 -0.1942 -0.5587
 5704SOL    HW128571   4.011   4.012  13.339 -1.4905 -1.4437  0.5945
 5704SOL    HW228572   3.973   4.151  13.307 -0.9587 -0.7545 -0.9557
 5705SOL     OW28573   0.986   2.876   5.249 -0.3370  0.0505  0.3955
 5705SOL    HW128574   1.063   2.866   5.305 -1.1530 -1.8838  1.1760
 5705SOL    HW228575   0.978   2.793   5.203  1.0901  0.8468 -1.2828
 5706SOL     OW28576   2.876   3.742  14.247 -0.1142 -0.1527 -0.0548
 5706SOL    HW128577   2.925   3.800  14.306  0.1526 -0.1005 -0.3274
 5706SOL    HW228578   2.886   3.784  14.161 -0.2673  0.9956  0.4830
 5707SOL     OW28579   0.603   3.648   0.737  0.2059 -0.2139  0.7071
 5707SOL    HW128580   0.512   3.654   0.708  0.8348 -1.6886 -1.5817
 5707SOL    HW228581   0.593   3.613   0.825  0.5437 -0.5041  0.6313
 5708SOL     OW28582   2.058   0.713   3.554 -0.5613  0.1382  0.1391
 5708SOL    HW128583   1.998   0.657   3.602  1.2958 -1.5940  0.4718
 5708SOL    HW228584   2.047   0.791   3.607  1.5914  0.2363  0.4637
 5709SOL     OW28585   0.112   4.357  11.994  0.1893  0.3953  0.4969
 5709SOL    HW128586   0.073   4.269  11.995  1.8365 -0.3356  0.0216
 5709SOL    HW228587   0.091   4.385  11.905  1.9210 -2.6252 -0.8486
 5710SOL     OW28588   1.437   2.746   7.575 -0.1518 -0.1049 -0.1189
 5710SOL    HW128589   1.405   2.823   7.622  1.6689  0.5673  0.0034
 5710SOL    HW228590   1.417   2.767   7.484 -1.6275  3.1000  0.9610
 5711SOL     OW28591   0.878   0.820   9.425  0.5635  0.3265  0.6450
 5711SOL    HW128592   0.859   0.729   9.450 -2.0373  0.7607  0.1456
 5711SOL    HW228593   0.791   0.848   9.399  1.0690 -0.1139 -1.5100
 5712SOL     OW28594   4.107   2.834   6.767  0.0033  0.5876 -0.1943
 5712SOL    HW128595   4.169   2.822   6.838  0.2932  1.5155 -0.2979
 5712SOL    HW228596   4.111   2.748   6.724 -1.3929  1.9348 -3.0061
 5713SOL     OW28597   1.705   0.614   6.757 -0.3592  0.1655  0.5164
 5713SOL    HW128598   1.763   0.677   6.799  0.2670 -0.5302  0.6838
 5713SOL    HW228599   1.640   0.593   6.823  0.7789 -1.6112  1.0669
 5714SOL     OW28600   4.320   3.581  16.186 -0.3044 -0.2682 -0.0131
 5714SOL    HW128601   4.281   3.551  16.104 -0.6937 -1.1379  0.4848
 5714SOL    HW228602   4.413   3.583  16.165 -0.6806  0.3364 -1.5744
 5715SOL     OW28603   1.748   0.169   1.178  0.2072 -0.2372  0.1335
 5715SOL    HW128604   1.772   0.257   1.206 -2.0808  1.1011 -2.0558
 5715SOL    HW228605   1.801   0.111   1.232 -2.3299 -1.6608  1.0822
 5716SOL     OW28606   3.769   0.421   3.679  0.1021  0.4697 -0.1408
 5716SOL    HW128607   3.765   0.493   3.742  2.4434 -1.6456  2.4529
 5716SOL    HW228608   3.859   0.390   3.688 -0.3148 -0.5235  0.7062
 5717SOL     OW28609   2.725   0.956   4.454  0.1034 -0.4299 -0.6073
 5717SOL    HW128610   2.688   0.868   4.461  2.6461 -1.4146  0.4202
 5717SOL    HW228611   2.732   0.976   4.547  0.0553 -0.6337 -0.5600
 5718SOL     OW28612   3.133   3.732   9.272  0.2647  0.0866 -0.0146
 5718SOL    HW128613   3.152   3.673   9.345 -2.7973  0.5438  1.1516
 5718SOL    HW228614   3.105   3.666   9.209 -0.6421 -1.0311  1.5517
 5719SOL     OW28615   0.307   2.608   2.876  0.1101 -0.6030  0.1788
 5719SOL    HW128616   0.376   2.556   2.834  0.8168 -0.3284  0.9998
 5719SOL    HW228617   0.241   2.543   2.900  0.5513 -0.9127  0.5427
 5720SOL     OW28618   0.146   1.894   5.603  0.4065 -0.0730  0.4742
 5720SOL    HW128619   0.190   1.831   5.661  0.9468 -2.0540 -2.1114
 5720SOL    HW228620   0.063   1.899   5.651  0.2272  0.4610  0.1056
 5721SOL     OW28621   1.546   3.672  10.580 -0.0321  0.1178 -0.0861
 5721SOL    HW128622   1.549   3.738  10.649  0.6788  1.1902 -1.1249
 5721SOL    HW228623   1.618   3.616  10.611 -1.4335 -1.9051 -0.5018
 5722SOL     OW28624   2.406   1.909   7.979  0.4880  0.1497  0.2375
 5722SOL    HW128625   2.453   1.889   7.898  1.2521 -0.3510  0.8061
 5722SOL    HW228626   2.337   1.967   7.948 -1.0840 -1.2130  1.1658
 5723SOL     OW28627   1.566   2.106   1.432 -0.0631  0.4752 -0.5241
 5723SOL    HW128628   1.625   2.062   1.371  1.5111 -0.0315  1.3540
 5723SOL    HW228629   1.598   2.194   1.412 -1.5951  0.8994 -1.1109
 5724SOL     OW28630   3.189   2.309   7.930 -0.1173 -0.2022 -0.2502
 5724SOL    HW128631   3.238   2.290   7.850 -2.4889 -1.7070 -1.3345
 5724SOL    HW228632   3.157   2.220   7.941 -0.4552 -0.0555 -0.0467
 5725SOL     OW28633   0.934   1.680  16.435 -0.0721  0.5147 -0.3866
 5725SOL    HW128634   0.898   1.633  16.510 -2.3489 -0.1513 -1.9028
 5725SOL    HW228635   0.877   1.757  16.434 -0.4099  0.2980  2.5325
 5726SOL     OW28636   3.405   2.491  13.012  0.1946  0.5916  0.2623
 5726SOL    HW128637   3.319   2.524  13.038 -0.3749 -0.3323 -0.4731
 5726SOL    HW228638   3.433   2.423  13.074  2.3702  0.9440 -0.3326
 5727SOL     OW28639   3.571   1.167  12.283 -0.0422 -0.8739  0.1016
 5727SOL    HW128640   3.622   1.096  12.245  0.3270 -0.1499 -0.7387
 5727SOL    HW228641   3.580   1.142  12.375 -1.6998 -1.5702  0.0743
 5728SOL     OW28642   0.464   3.836   1.858 -0.4482  0.3263 -0.5881
 5728SOL    HW128643   0.502   3.902   1.915 -0.1152 -0.9265  0.6378
 5728SOL    HW228644   0.464   3.889   1.778  2.4388  1.6424  0.3047
 5729SOL     OW28645   3.288   4.239   5.578  0.0573 -0.0858 -0.4752
 5729SOL    HW128646   3.200   4.201   5.580  0.2382 -0.6409 -3.0035
 5729SOL    HW228647   3.346   4.165   5.595 -0.3807  0.2568  2.5471
 5730SOL     OW28648   0.820   3.406   8.812  0.3346 -0.4186  0.2745
 5730SOL    HW128649   0.905   3.384   8.775  0.9492  0.2653  1.2738
 5730SOL    HW228650   0.816   3.501   8.818 -1.1031 -0.5397  1.3703
 5731SOL     OW28651   1.071   1.871   8.087  0.6841 -0.0998 -0.1012
 5731SOL    HW128652   1.130   1.935   8.045  1.0770 -0.4771 -0.1200
 5731SOL    HW228653   1.018   1.917   8.152  0.9500 -0.2760  0.2383
 5732SOL     OW28654   2.880   2.541   1.949  0.3227 -0.0697 -0.4716
 5732SOL    HW128655   2.934   2.602   1.999 -0.3159 -0.7586  1.0303
 5732SOL    HW228656   2.857   2.479   2.017 -0.5304  2.0717  1.1976
 5733SOL     OW28657   4.146   1.174  13.150  0.5580 -0.0083  0.5294
 5733SOL    HW128658   4.168   1.109  13.217  1.1042  0.4220  0.7722
 5733SOL    HW228659   4.189   1.252  13.185  0.7013  0.0273  0.2776
 5734SOL     OW28660   0.941   1.098  12.816  0.3491 -0.3957  0.2266
 5734SOL    HW128661   0.872   1.131  12.759  0.8532 -0.1894 -0.2590
 5734SOL    HW228662   0.941   1.004  12.802 -1.6950 -0.3612 -0.0041
 5735SOL     OW28663   2.228   0.732   2.708  0.7779  0.1089  0.0967
 5735SOL    HW128664   2.146   0.759   2.667  1.2843 -0.6115 -1.4196
 5735SOL    HW228665   2.230   0.779   2.791  0.4542  2.2993 -1.1305
 5736SOL     OW28666   3.553   0.459  16.562 -0.1694  0.2556  0.8867
 5736SOL    HW128667   3.483   0.437  16.500  0.1653  0.3356  0.4824
 5736SOL    HW228668   3.564   0.371  16.599  2.0951  0.9516  1.8308
 5737SOL     OW28669   3.148   2.139   4.757 -0.2485 -0.1032  0.4042
 5737SOL    HW128670   3.106   2.112   4.838  0.1661 -2.5683 -0.1810
 5737SOL    HW228671   3.154   2.234   4.757 -1.7865 -0.0029 -1.1396
 5738SOL     OW28672   1.074   3.297   1.812  0.4378  0.5065  0.2797
 5738SOL    HW128673   1.021   3.239   1.758  0.9339  0.0785  0.2512
 5738SOL    HW228674   1.162   3.269   1.786  0.1587 -0.9180  0.9064
 5739SOL     OW28675   2.930   1.773   3.316  0.4236  0.7607 -0.2819
 5739SOL    HW128676   2.842   1.789   3.283  0.7964  1.4817 -0.9365
 5739SOL    HW228677   2.924   1.843   3.381 -0.7045 -1.4010  1.9378
 5740SOL     OW28678   3.913   1.052   3.576 -0.4515  0.0370 -0.3465
 5740SOL    HW128679   3.919   1.116   3.647 -1.6941 -0.6112  0.3414
 5740SOL    HW228680   4.002   1.019   3.574  0.7487  3.2327  0.0260
 5741SOL     OW28681   3.891   3.994   4.135 -0.4816 -0.1514  0.2662
 5741SOL    HW128682   3.935   3.978   4.219  2.1406  0.7518 -0.9265
 5741SOL    HW228683   3.881   3.901   4.112 -1.4776 -0.2333  1.0434
 5742SOL     OW28684   0.264   2.038   2.109 -0.6143  0.2201 -0.5024
 5742SOL    HW128685   0.215   2.110   2.070  0.0557  0.5522 -0.7416
 5742SOL    HW228686   0.259   1.970   2.041 -0.8333  0.2965 -0.5621
 5743SOL     OW28687   2.221   1.683  10.601  0.1710 -0.2881  0.4024
 5743SOL    HW128688   2.306   1.707  10.563  0.8294 -2.1789  0.6875
 5743SOL    HW228689   2.245   1.597  10.636  1.2931 -0.1277  0.0394
 5744SOL     OW28690   1.633   4.509  15.618  0.0993  0.3063 -0.3332
 5744SOL    HW128691   1.596   4.597  15.616  0.1487  0.3180 -0.7689
 5744SOL    HW228692   1.555   4.453  15.614  0.5044 -0.4447  2.0955
 5745SOL     OW28693   2.376   3.998   5.347  0.2756 -0.1433 -0.0034
 5745SOL    HW128694   2.296   3.947   5.362  0.5228 -1.3404 -2.7504
 5745SOL    HW228695   2.340   4.072   5.298  1.9433 -0.1929 -1.2660
 5746SOL     OW28696   3.240   4.222  10.490 -0.4134  0.1186  0.3383
 5746SOL    HW128697   3.197   4.278  10.425 -0.7713 -0.1601  0.3358
 5746SOL    HW228698   3.322   4.266  10.512 -0.7228  1.1675 -0.6330
 5747SOL     OW28699   0.334   0.508   7.801 -0.3582 -0.1549 -0.4504
 5747SOL    HW128700   0.311   0.601   7.801  0.6561  0.1135  2.3416
 5747SOL    HW228701   0.270   0.478   7.866 -0.1024 -1.4834 -0.8144
 5748SOL     OW28702   0.999   1.293   1.863  0.0232 -0.1036 -0.9440
 5748SOL    HW128703   0.998   1.366   1.924 -1.8214 -0.1869 -0.8888
 5748SOL    HW228704   1.086   1.258   1.884 -0.3720 -0.7144 -0.3125
 5749SOL     OW28705   2.989   3.179   6.763 -0.3127  0.1603  0.1512
 5749SOL    HW128706   3.014   3.260   6.807  1.4854 -0.8173  0.9434
 5749SOL    HW228707   3.046   3.108   6.793 -1.2187  0.2135  2.0239
 5750SOL     OW28708   1.036   3.499   9.009  0.8105  0.6983 -0.5734
 5750SOL    HW128709   0.958   3.450   8.982 -0.2509  1.9232  0.3016
 5750SOL    HW228710   1.056   3.450   9.089  0.9450  1.9314  0.1445
 5751SOL     OW28711   1.771   2.158   9.850  0.3345  0.4156  1.0793
 5751SOL    HW128712   1.842   2.216   9.878  2.6965 -1.2898 -1.3025
 5751SOL    HW228713   1.774   2.169   9.755 -0.8266  2.3552  1.2561
 5752SOL     OW28714   1.091   3.304  10.868 -0.2936  0.2140  0.0170
 5752SOL    HW128715   1.111   3.387  10.910 -1.9730  0.4476  0.3200
 5752SOL    HW228716   1.053   3.255  10.940  0.7527 -0.1151  0.3492
 5753SOL     OW28717   1.118   4.140   3.728 -0.4912  0.1475 -0.2255
 5753SOL    HW128718   1.206   4.178   3.721 -0.6660  0.2213 -2.0373
 5753SOL    HW228719   1.161   4.055   3.740 -0.3637 -0.1708 -2.8911
 5754SOL     OW28720   0.755   1.821   2.980  0.3796  0.1152  0.0979
 5754SOL    HW128721   0.662   1.805   2.997  0.4699  0.3197  0.7978
 5754SOL    HW228722   0.798   1.758   3.038  0.3230 -0.9026 -0.9738
 5755SOL     OW28723   2.963   1.289  11.230 -0.0224 -0.4383 -0.5385
 5755SOL    HW128724   3.058   1.284  11.230  0.0939  1.9909  0.7478
 5755SOL    HW228725   2.942   1.368  11.180  0.7559 -0.3164 -0.6795
 5756SOL     OW28726   0.855   4.238   9.818 -0.4315  0.0612  0.1107
 5756SOL    HW128727   0.784   4.271   9.763  0.0081  1.3321  0.3046
 5756SOL    HW228728   0.815   4.215   9.902 -0.3918  3.2088  1.0034
 5757SOL     OW28729   0.343   0.924   0.678  0.1703 -0.4354 -0.0305
 5757SOL    HW128730   0.292   0.998   0.644  0.5473  1.4881  3.6463
 5757SOL    HW228731   0.285   0.863   0.725 -0.0669 -0.4216 -0.3034
 5758SOL     OW28732   3.774   4.037   3.504 -0.2085 -0.5746 -0.1744
 5758SOL    HW128733   3.786   4.109   3.567  0.4938  0.7132 -1.7828
 5758SOL    HW228734   3.705   3.987   3.546  0.3314 -0.8033  0.4450
 5759SOL     OW28735   2.921   1.509  15.537  0.0672 -0.2802  0.0771
 5759SOL    HW128736   2.844   1.496  15.592  0.0168 -1.4568 -0.2728
 5759SOL    HW228737   2.952   1.418  15.540  0.3631 -0.2152 -1.0534
 5760SOL     OW28738   3.008   0.109   6.997  0.4122  0.1212 -0.1375
 5760SOL    HW128739   3.002   0.203   7.013 -2.1971 -0.4637  2.3804
 5760SOL    HW228740   3.071   0.122   6.926 -0.2178 -0.6524 -0.8405
 5761SOL     OW28741   2.415   0.460   7.576 -0.3201 -0.0221  0.1797
 5761SOL    HW128742   2.434   0.447   7.483 -0.5925  2.4264 -0.2239
 5761SOL    HW228743   2.329   0.502   7.568 -0.0777  0.7132  1.4331
 5762SOL     OW28744   0.517   3.213  11.795  0.4462 -0.3646 -0.0053
 5762SOL    HW128745   0.599   3.171  11.821  0.9274 -0.5400 -1.7836
 5762SOL    HW228746   0.542   3.290  11.744  1.9431 -0.7689  0.1278
 5763SOL     OW28747   2.324   2.441   2.598 -0.2232 -0.0589 -0.0567
 5763SOL    HW128748   2.249   2.499   2.593  0.4008  0.8953  1.4940
 5763SOL    HW228749   2.377   2.487   2.664 -0.8949 -0.3933  0.7168
 5764SOL     OW28750   4.487   0.144  11.807 -0.1044 -0.0187  0.3078
 5764SOL    HW128751   4.493   0.049  11.820 -1.4038 -0.0081  0.9694
 5764SOL    HW228752   4.514   0.145  11.715  2.6416  0.8284  1.1367
 5765SOL     OW28753   1.428   2.209   2.095  0.6254  0.3552 -0.2569
 5765SOL    HW128754   1.446   2.299   2.124 -0.5957  0.6904 -0.5470
 5765SOL    HW228755   1.515   2.168   2.090  0.9243  1.4356 -3.8298
 5766SOL     OW28756   0.900   3.638  13.127  0.2439 -0.6506 -0.4297
 5766SOL    HW128757   0.960   3.697  13.172 -0.8230 -0.0712  0.2373
 5766SOL    HW228758   0.955   3.561  13.113  2.0343  0.4337  0.6858
 5767SOL     OW28759   3.394   2.817  13.568  0.4719  0.1929  0.2222
 5767SOL    HW128760   3.458   2.836  13.636  0.4209  2.5644 -0.3895
 5767SOL    HW228761   3.317   2.849  13.614 -0.3341  0.2621 -1.1522
 5768SOL     OW28762   2.694   3.704   7.831 -0.1068 -0.3922  0.3092
 5768SOL    HW128763   2.738   3.737   7.753 -0.7871  0.8468  0.4500
 5768SOL    HW228764   2.731   3.616   7.832 -0.5619 -0.5802  1.5201
 5769SOL     OW28765   0.968   2.054   6.669  0.4047 -0.1214 -0.2352
 5769SOL    HW128766   0.910   1.982   6.644 -0.6213  0.4889  0.3897
 5769SOL    HW228767   0.916   2.103   6.733  0.2678 -0.2066 -0.2793
 5770SOL     OW28768   3.132   1.147   2.890  0.0118  0.3625 -0.1507
 5770SOL    HW128769   3.161   1.238   2.881  1.3556 -0.0441  0.1324
 5770SOL    HW228770   3.185   1.103   2.824  2.5955  2.3832  0.5653
 5771SOL     OW28771   0.976   1.817   5.412 -0.6570 -0.0009  0.3175
 5771SOL    HW128772   0.903   1.755   5.419 -0.0982 -0.4155  2.4979
 5771SOL    HW228773   1.039   1.761   5.367 -0.2657  0.1959  0.6309
 5772SOL     OW28774   2.565   3.400   7.862 -0.1303 -0.1024 -0.2868
 5772SOL    HW128775   2.657   3.387   7.885 -0.0754 -0.0488 -0.4810
 5772SOL    HW228776   2.534   3.332   7.922 -2.6339  1.2922  0.0211
 5773SOL     OW28777   4.174   1.056   9.077  0.0132  0.7352  0.0976
 5773SOL    HW128778   4.194   1.036   9.168  0.1431  0.7684  0.0771
 5773SOL    HW228779   4.237   1.126   9.063 -0.2023  0.5925 -1.6070
 5774SOL     OW28780   2.330   0.209   6.924  0.3508  0.5855 -0.5401
 5774SOL    HW128781   2.258   0.157   6.961 -0.0035 -0.3071 -2.5013
 5774SOL    HW228782   2.339   0.174   6.836  0.7330  0.1370 -0.3195
 5775SOL     OW28783   1.815   4.355  16.599  0.1822 -0.7343 -0.3132
 5775SOL    HW128784   1.798   4.341  16.506 -0.1214 -1.4876 -0.1427
 5775SOL    HW228785   1.831   4.262  16.616  2.7888 -0.5114 -1.5998
 5776SOL     OW28786   4.622   0.736  10.959  0.3194  0.2453  0.2963
 5776SOL    HW128787   4.638   0.820  11.003  1.9132  1.1375 -2.0275
 5776SOL    HW228788   4.653   0.752  10.870 -2.1963  1.1756 -0.3933
 5777SOL     OW28789   2.405   3.679   6.769 -0.3836  0.0151  0.3479
 5777SOL    HW128790   2.497   3.665   6.792 -0.1473 -1.7873 -1.6990
 5777SOL    HW228791   2.396   3.773   6.759 -1.2251 -0.0630  0.3765
 5778SOL     OW28792   4.269   0.833   5.053  0.0282 -0.9134  0.6408
 5778SOL    HW128793   4.261   0.783   5.134  0.2219 -0.4970  0.9203
 5778SOL    HW228794   4.359   0.822   5.021  0.0361 -1.6666  0.9173
 5779SOL     OW28795   0.317   2.756   4.160  0.1711  0.4388 -0.4121
 5779SOL    HW128796   0.322   2.678   4.215  0.0627 -1.2426 -2.8034
 5779SOL    HW228797   0.287   2.715   4.079  0.3517  1.8388 -1.1995
 5780SOL     OW28798   4.138   4.612   8.480 -0.4128 -0.4028  0.5891
 5780SOL    HW128799   4.205   4.630   8.546 -0.3562 -1.5103  0.8363
 5780SOL    HW228800   4.119   4.689   8.427  0.4465 -0.2086  0.5669
 5781SOL     OW28801   3.198   3.293   2.675  1.2087 -0.5063 -0.4133
 5781SOL    HW128802   3.205   3.211   2.626  1.8853 -0.4902 -0.3444
 5781SOL    HW228803   3.258   3.340   2.618  0.5070 -0.5978 -1.2228
 5782SOL     OW28804   1.663   0.069   5.320 -0.7520 -0.1417 -0.2950
 5782SOL    HW128805   1.752   0.040   5.298 -0.7136  1.6969 -2.5257
 5782SOL    HW228806   1.679   0.115   5.402  1.0437  0.9082 -1.2445
 5783SOL     OW28807   1.306   2.145   9.578 -0.0297  0.0658  0.1257
 5783SOL    HW128808   1.350   2.067   9.612  1.9817  1.7506  1.3617
 5783SOL    HW228809   1.277   2.189   9.658 -0.2218  2.1336 -1.1079
 5784SOL     OW28810   2.556   3.564   8.811 -0.1986 -0.1953 -0.2072
 5784SOL    HW128811   2.479   3.613   8.840 -0.0162  1.0389 -1.8575
 5784SOL    HW228812   2.593   3.538   8.895 -2.5443  0.9379  1.1825
 5785SOL     OW28813   1.365   4.337   8.416  0.3593 -0.1134  0.2001
 5785SOL    HW128814   1.320   4.280   8.479 -0.2807  0.6615  0.4472
 5785SOL    HW228815   1.430   4.383   8.469  1.7994 -1.6213 -0.2909
 5786SOL     OW28816   1.918   0.673   6.458  0.4620  0.5943  0.6827
 5786SOL    HW128817   1.894   0.615   6.386 -0.4034  1.9668 -0.1414
 5786SOL    HW228818   1.835   0.718   6.477  0.6583  1.2514 -0.0458
 5787SOL     OW28819   3.888   0.240   5.602 -0.0309 -0.0942 -0.7151
 5787SOL    HW128820   3.900   0.203   5.690  0.7279 -1.3918 -1.3702
 5787SOL    HW228821   3.796   0.268   5.599 -0.0318 -0.0094 -0.0421
 5788SOL     OW28822   3.819   1.057   6.954  0.3613  0.0716 -0.0626
 5788SOL    HW128823   3.911   1.032   6.959  0.5440  0.4740 -1.4646
 5788SOL    HW228824   3.797   1.023   7.041 -1.0944  0.4139 -0.3001
 5789SOL     OW28825   4.176   3.658  12.743  0.0168 -0.1274 -0.8112
 5789SOL    HW128826   4.223   3.577  12.724 -1.7620 -0.9101 -1.7893
 5789SOL    HW228827   4.088   3.652  12.707  0.2845 -1.7321 -1.1981
 5790SOL     OW28828   3.652   1.547  10.955 -0.2857 -0.3520 -0.1220
 5790SOL    HW128829   3.569   1.592  10.969 -0.1291  1.2761 -4.3354
 5790SOL    HW228830   3.640   1.507  10.869 -0.4581 -1.7603  0.5462
 5791SOL     OW28831   0.040   2.312  17.087 -0.2190 -0.9849 -0.2106
 5791SOL    HW128832   4.681   2.358  17.068 -0.4342 -0.9116  0.9068
 5791SOL    HW228833   0.108   2.380  17.093 -1.2088  0.0549 -0.8702
 5792SOL     OW28834   1.515   1.922   6.960 -0.0299  0.3343  0.1613
 5792SOL    HW128835   1.536   1.840   6.915 -0.1588  0.2900  0.1803
 5792SOL    HW228836   1.568   1.986   6.913 -0.5482  1.5521  1.2352
 5793SOL     OW28837   1.097   3.702   5.675  0.2769 -1.1007  0.0004
 5793SOL    HW128838   1.116   3.723   5.583  2.2291  1.2869  0.9407
 5793SOL    HW228839   1.177   3.658   5.704  0.0278  0.2817  2.8184
 5794SOL     OW28840   2.853   1.768   6.430  0.4184  0.0946  0.3669
 5794SOL    HW128841   2.938   1.727   6.419 -0.4812 -1.2007 -1.7981
 5794SOL    HW228842   2.824   1.736   6.516  0.7745 -0.8941  0.1177
 5795SOL     OW28843   0.879   1.419   7.728  0.1775 -0.0867 -0.1869
 5795SOL    HW128844   0.935   1.380   7.795  0.5659 -1.5660 -1.3610
 5795SOL    HW228845   0.805   1.456   7.775  0.6474 -0.4554  0.8463
 5796SOL     OW28846   0.002   1.678   9.581  0.6983  0.0523 -0.2475
 5796SOL    HW128847   0.011   1.603   9.640  2.2517  1.7536  1.6556
 5796SOL    HW228848   0.046   1.643   9.503  1.0974 -2.4041  1.0933
 5797SOL     OW28849   3.625   3.676   5.102  0.3575 -0.3277 -0.5910
 5797SOL    HW128850   3.684   3.609   5.137 -3.8422 -2.4843  2.3421
 5797SOL    HW228851   3.646   3.669   5.009 -1.5707 -1.0968 -0.9846
 5798SOL     OW28852   2.113   4.559   5.092  0.3484  0.0733  0.1918
 5798SOL    HW128853   2.114   4.486   5.154 -0.9133 -0.3218 -0.2506
 5798SOL    HW228854   2.065   4.530   5.014 -0.1692 -0.7539  0.8207
 5799SOL     OW28855   3.477   1.311   0.078  0.2590  0.9303  0.0998
 5799SOL    HW128856   3.473   1.252   0.154 -0.1601  1.1716  0.2636
 5799SOL    HW228857   3.427   1.383   0.116  0.3744  0.4308  1.1949
 5800SOL     OW28858   2.475   0.560   2.013  0.0397  0.2237  0.0560
 5800SOL    HW128859   2.565   0.557   1.980 -0.0693  0.4888 -0.2631
 5800SOL    HW228860   2.438   0.588   1.929  0.3532  1.3922  0.3039
 5801SOL     OW28861   1.780   3.481   3.204 -0.3951  0.0831 -0.5671
 5801SOL    HW128862   1.724   3.524   3.141  1.7889 -0.7306 -3.0452
 5801SOL    HW228863   1.862   3.515   3.169 -1.0048  1.1627 -0.9252
 5802SOL     OW28864   0.648   2.576  12.730  0.8223 -0.0828 -0.5283
 5802SOL    HW128865   0.637   2.485  12.757 -1.4052  0.1776 -0.5460
 5802SOL    HW228866   0.568   2.623  12.755  0.1645 -1.3776 -0.2211
 5803SOL     OW28867   0.001   1.947   7.548  0.1398 -0.2802  0.0810
 5803SOL    HW128868   0.073   1.920   7.605 -0.1608 -0.7352  0.2505
 5803SOL    HW228869   0.060   1.961   7.474  0.2387  0.3230  0.2775
 5804SOL     OW28870   1.965   3.713  16.824 -0.8610  0.2612 -0.2652
 5804SOL    HW128871   2.018   3.691  16.901 -1.3748 -0.5292 -0.1349
 5804SOL    HW228872   2.028   3.690  16.756 -0.8930  1.0950 -0.5821
 5805SOL     OW28873   0.495   3.599   9.264  0.4930 -0.1223 -0.7362
 5805SOL    HW128874   0.487   3.517   9.215 -0.9582 -1.4858  1.7611
 5805SOL    HW228875   0.525   3.552   9.342  0.2802 -1.8316 -1.7008
 5806SOL     OW28876   1.075   2.108   7.221 -0.2596  0.6333 -0.3182
 5806SOL    HW128877   1.082   2.082   7.313 -1.9602  1.6040  0.0849
 5806SOL    HW228878   1.162   2.135   7.193 -0.2400 -0.7665 -1.6275
 5807SOL     OW28879   1.785   1.289   9.619  0.1049 -1.1113  0.0212
 5807SOL    HW128880   1.843   1.222   9.657  2.3875  0.4775 -0.6941
 5807SOL    HW228881   1.815   1.371   9.658 -2.5644  0.4459 -1.1879
 5808SOL     OW28882   0.287   3.850   2.878  0.3389 -0.1269 -0.7237
 5808SOL    HW128883   0.253   3.928   2.834 -0.6779  1.2453  2.5095
 5808SOL    HW228884   0.222   3.787   2.850  0.0962  0.2077 -0.9183
 5809SOL     OW28885   1.156   2.649   3.972 -0.2383 -0.0424 -0.4340
 5809SOL    HW128886   1.160   2.559   4.003  0.3836  1.0675  2.6354
 5809SOL    HW228887   1.068   2.665   4.005  0.2402 -0.8138  1.1779
 5810SOL     OW28888   2.374   3.038  11.485 -0.8987 -0.2034  0.3369
 5810SOL    HW128889   2.407   3.019  11.397 -0.7040 -0.1334  0.3948
 5810SOL    HW228890   2.322   2.968  11.523 -0.5276 -0.2788  0.7032
 5811SOL     OW28891   1.212   0.160   8.692 -0.2339 -0.2712 -0.3116
 5811SOL    HW128892   1.119   0.159   8.714 -0.3640 -3.9587 -0.9833
 5811SOL    HW228893   1.217   0.248   8.656 -0.9946  0.3304  1.0725
 5812SOL     OW28894   1.944   3.546   1.267 -0.2924  0.2348  0.2517
 5812SOL    HW128895   1.875   3.540   1.333  1.0725 -0.7204  1.5803
 5812SOL    HW228896   1.955   3.641   1.253 -2.6313  0.8414  2.5168
 5813SOL     OW28897   2.250   3.588   1.908  0.7200 -0.1754  0.0927
 5813SOL    HW128898   2.240   3.622   1.819  0.0802  0.4484  0.4002
 5813SOL    HW228899   2.318   3.644   1.946  0.0469  1.0398 -0.4834
 5814SOL     OW28900   0.670   3.571  13.304  0.3020 -0.1215 -0.4527
 5814SOL    HW128901   0.702   3.643  13.249  2.1595 -0.0272  0.7455
 5814SOL    HW228902   0.592   3.552  13.252  2.0237 -2.0328 -2.3471
 5815SOL     OW28903   0.891   0.298   4.517  0.5347 -0.6441  0.3559
 5815SOL    HW128904   0.902   0.219   4.464  3.0399 -1.5454  2.2430
 5815SOL    HW228905   0.827   0.281   4.586  1.1224 -0.3401  0.9731
 5816SOL     OW28906   2.462   4.549   2.373  0.6932  0.0843 -0.9425
 5816SOL    HW128907   2.480   4.600   2.452  1.9641 -2.3134  0.3206
 5816SOL    HW228908   2.462   4.458   2.404  0.0539  0.1459 -0.7638
 5817SOL     OW28909   3.694   4.618   2.345 -0.0159  0.0774  0.1882
 5817SOL    HW128910   3.733   4.531   2.338 -2.2272 -0.9365  0.5771
 5817SOL    HW228911   3.769   4.660   2.302 -0.3437 -1.9832 -2.4207
 5818SOL     OW28912   3.740   4.401   1.605  0.3039 -0.0435 -0.0372
 5818SOL    HW128913   3.644   4.401   1.602  0.3067 -0.1841 -0.1292
 5818SOL    HW228914   3.762   4.449   1.525 -0.6001  1.2541  0.4732
 5819SOL     OW28915   3.814   1.770   3.207  0.2555 -0.2114 -0.8405
 5819SOL    HW128916   3.814   1.865   3.224 -1.5723 -0.1874 -1.0548
 5819SOL    HW228917   3.905   1.752   3.233 -0.4177 -2.3837 -0.0571
 5820SOL     OW28918   3.728   4.514  14.712  0.1216  0.7348 -0.3314
 5820SOL    HW128919   3.637   4.542  14.705  0.4855  1.4029 -2.3288
 5820SOL    HW228920   3.731   4.431  14.664  0.2542 -1.4511  3.4348
 5821SOL     OW28921   1.273   1.030   0.366  0.1924  0.2459  0.2982
 5821SOL    HW128922   1.215   1.023   0.442  0.2904 -0.5620  0.2938
 5821SOL    HW228923   1.297   1.122   0.366  1.8591 -0.1871  2.6718
 5822SOL     OW28924   0.118   4.721  11.142 -0.1248  0.0852 -0.2153
 5822SOL    HW128925   0.162   4.684  11.066 -0.4329 -2.1913  0.7045
 5822SOL    HW228926   0.082   0.079  11.108 -2.2157 -0.5972  0.3899
 5823SOL     OW28927   4.465   2.347   3.704  0.0343  0.1489 -0.3282
 5823SOL    HW128928   4.556   2.371   3.687  0.0173 -0.3864 -1.2235
 5823SOL    HW228929   4.434   2.419   3.760 -2.2418 -0.5510 -0.6831
 5824SOL     OW28930   3.274   2.264   9.594  0.0997  0.2399  0.0489
 5824SOL    HW128931   3.353   2.318   9.593  1.0523 -1.1379  0.2373
 5824SOL    HW228932   3.226   2.293   9.671  1.5577 -0.0519  1.0598
 5825SOL     OW28933   3.918   0.720  13.619  0.1738  0.1105  0.1502
 5825SOL    HW128934   3.863   0.798  13.609  1.1570  0.7491 -0.1834
 5825SOL    HW228935   3.898   0.686  13.707  2.0242  5.0172  2.4541
 5826SOL     OW28936   3.898   2.452   7.454  0.2709 -0.1842  0.4706
 5826SOL    HW128937   3.932   2.468   7.543 -0.5308  2.2424  0.3546
 5826SOL    HW228938   3.930   2.364   7.438  1.3690  0.4044 -0.5858
 5827SOL     OW28939   4.034   2.620   3.964 -0.1336  0.5331  0.4765
 5827SOL    HW128940   4.004   2.612   3.873  0.6005  1.8677  0.1223
 5827SOL    HW228941   4.101   2.687   3.958  0.3890 -0.0283  0.0230
 5828SOL     OW28942   2.936   0.790  16.441  0.0512 -0.0753  0.2104
 5828SOL    HW128943   3.027   0.819  16.444 -0.4527  1.4634  0.5263
 5828SOL    HW228944   2.894   0.876  16.434 -0.5216 -0.3888 -0.2886
 5829SOL     OW28945   1.776   4.054   9.041  0.1187 -0.8202  0.2751
 5829SOL    HW128946   1.752   4.131   9.093 -1.2007 -0.8625 -0.2572
 5829SOL    HW228947   1.708   3.999   9.080  1.5745 -0.7110  2.9319
 5830SOL     OW28948   4.637   4.172   8.017 -0.0928 -0.0007  0.0511
 5830SOL    HW128949   4.712   4.114   8.033  0.6209  0.8637 -0.1525
 5830SOL    HW228950   4.683   4.255   8.016 -0.2889  0.1103  0.2152
 5831SOL     OW28951   1.241   0.197  17.346 -0.0130  0.3069  0.0350
 5831SOL    HW128952   1.160   0.201  17.295  0.4484 -3.1584 -0.9695
 5831SOL    HW228953   1.200   0.222  17.429 -0.0836  0.9090 -0.1797
 5832SOL     OW28954   2.377   2.305   4.918  0.8175 -0.3054  0.2001
 5832SOL    HW128955   2.372   2.334   4.827 -2.0437 -1.3307  0.0255
 5832SOL    HW228956   2.326   2.377   4.955 -0.4626  0.1030 -2.3230
 5833SOL     OW28957   2.612   3.846   7.435  0.0713 -0.2767  0.3703
 5833SOL    HW128958   2.590   3.757   7.408 -1.3892  0.3370 -0.4873
 5833SOL    HW228959   2.560   3.897   7.373 -1.4100  0.2147  2.0227
 5834SOL     OW28960   1.323   2.540   2.697  0.7168  0.6250  0.4674
 5834SOL    HW128961   1.360   2.589   2.624 -0.7615  0.6110 -0.2866
 5834SOL    HW228962   1.267   2.612   2.725 -2.7398 -1.2952 -1.4832
 5835SOL     OW28963   2.787   2.672   5.809 -0.6350  0.9508  0.0142
 5835SOL    HW128964   2.715   2.669   5.872  3.3240  0.8037  4.5867
 5835SOL    HW228965   2.746   2.726   5.742  1.5400 -0.5098 -2.4724
 5836SOL     OW28966   2.798   3.135   9.956  0.3233 -0.0917  0.0029
 5836SOL    HW128967   2.848   3.198  10.007 -0.9399  0.1181  0.9740
 5836SOL    HW228968   2.819   3.050   9.996 -1.1175 -1.9427 -3.1688
 5837SOL     OW28969   3.184   3.100  15.680  0.0727  0.2661  0.4021
 5837SOL    HW128970   3.231   3.099  15.764  2.0312 -1.4668 -0.7186
 5837SOL    HW228971   3.171   3.192  15.659  0.8770  0.0623 -0.9568
 5838SOL     OW28972   0.799   0.186   9.409  0.0099 -0.2604 -0.0408
 5838SOL    HW128973   0.826   0.210   9.498 -0.7169  3.0611 -0.6890
 5838SOL    HW228974   0.747   0.262   9.382 -1.0010 -1.1660 -0.6272
 5839SOL     OW28975   0.354   2.997  12.138  0.1066 -0.0182 -0.7485
 5839SOL    HW128976   0.420   3.066  12.142 -0.9226  1.0616 -2.5111
 5839SOL    HW228977   0.322   3.006  12.048  2.3405 -0.2023 -1.5656
 5840SOL     OW28978   2.282   2.358   4.652 -0.1149  0.3495  0.0049
 5840SOL    HW128979   2.194   2.334   4.623  0.5548 -0.9034 -0.9677
 5840SOL    HW228980   2.342   2.306   4.598 -0.3454  0.1140 -0.0237
 5841SOL     OW28981   0.231   0.489   0.809 -0.1213  0.1166 -0.3323
 5841SOL    HW128982   0.203   0.407   0.848  0.1644 -0.5763 -1.5730
 5841SOL    HW228983   0.317   0.459   0.781 -0.2861  2.4267 -3.3497
 5842SOL     OW28984   1.438   0.986   8.359  0.3710  0.3151 -0.2212
 5842SOL    HW128985   1.482   0.966   8.441 -0.5099 -1.0440 -0.0724
 5842SOL    HW228986   1.362   0.932   8.381  0.2755  0.5347 -0.0176
 5843SOL     OW28987   0.892   2.595  16.640 -0.2511 -0.3745 -0.0511
 5843SOL    HW128988   0.860   2.678  16.605 -0.4658 -0.7122 -0.6730
 5843SOL    HW228989   0.806   2.552  16.647 -0.3602  0.0267  0.9543
 5844SOL     OW28990   1.690   2.492   5.080 -0.0408 -0.6609  0.0810
 5844SOL    HW128991   1.635   2.495   5.158 -0.9487 -1.1054 -0.5504
 5844SOL    HW228992   1.778   2.512   5.112 -0.3692  1.4658 -0.3743
 5845SOL     OW28993   1.213   2.995   1.958 -0.1881  0.3466 -0.1962
 5845SOL    HW128994   1.297   2.968   1.994  0.8462  0.9148 -2.2276
 5845SOL    HW228995   1.185   3.051   2.031 -1.6901  1.8327 -1.9321
 5846SOL     OW28996   3.981   2.755   0.261  0.1381  0.3918 -0.5563
 5846SOL    HW128997   3.886   2.742   0.264  0.3865 -1.5939 -1.2374
 5846SOL    HW228998   4.019   2.670   0.286 -0.2679  0.2118 -0.5529
 5847SOL     OW28999   4.003   0.972   5.861  0.5806  0.2363 -0.1710
 5847SOL    HW129000   4.016   0.877   5.858 -0.0445  0.2592 -3.5912
 5847SOL    HW229001   3.953   0.985   5.780  1.1053 -3.9599 -1.1614
 5848SOL     OW29002   0.732   1.385   6.812 -0.1433  0.4749  0.7675
 5848SOL    HW129003   0.789   1.347   6.746  0.0045 -1.1118  1.8018
 5848SOL    HW229004   0.670   1.316   6.836  1.0275 -0.3848  1.3477
 5849SOL     OW29005   1.788   4.035   1.112  0.1995  1.0728  0.0484
 5849SOL    HW129006   1.808   4.025   1.019 -1.1751  0.4436 -0.1741
 5849SOL    HW229007   1.860   4.091   1.140 -0.1579  2.1510 -1.1911
 5850SOL     OW29008   3.637   1.121  10.744 -0.5391 -0.3354  0.3326
 5850SOL    HW129009   3.672   1.068  10.816  0.6800  0.1992  0.1316
 5850SOL    HW229010   3.544   1.105  10.763 -0.4073 -0.4275  0.9227
 5851SOL     OW29011   2.130   4.126  17.321 -0.2090  0.1273  0.5737
 5851SOL    HW129012   2.217   4.163  17.304 -0.1212 -1.2727 -2.0332
 5851SOL    HW229013   2.146   4.077  17.401  0.3499 -0.8294 -0.1299
 5852SOL     OW29014   0.880   4.011   1.938  0.0368 -0.0541 -1.1061
 5852SOL    HW129015   0.896   3.966   1.855  1.0088 -0.3197 -0.7644
 5852SOL    HW229016   0.883   3.933   1.993 -1.1830 -0.2406 -1.2860
 5853SOL     OW29017   3.727   1.283   8.265 -0.1129 -0.5924  0.0027
 5853SOL    HW129018   3.761   1.353   8.209 -1.1938 -0.5715 -0.6297
 5853SOL    HW229019   3.642   1.321   8.284 -0.0949  0.2680 -1.6039
 5854SOL     OW29020   2.363   4.354  11.663  0.2666 -0.5208  0.6823
 5854SOL    HW129021   2.269   4.342  11.657  0.4160 -1.7601  0.8230
 5854SOL    HW229022   2.385   4.312  11.580 -0.7071 -2.6640  1.5321
 5855SOL     OW29023   1.211   3.319   2.753  0.3990 -0.5253 -0.1279
 5855SOL    HW129024   1.288   3.346   2.702  0.7002 -0.9456  0.1083
 5855SOL    HW229025   1.211   3.393   2.815  0.3818 -2.1535  1.7936
 5856SOL     OW29026   0.293   3.919   0.401 -0.0075  0.1659 -0.3562
 5856SOL    HW129027   0.298   4.013   0.419  1.4290  0.0576 -0.1427
 5856SOL    HW229028   0.202   3.903   0.426 -0.0841  1.4268  0.1606
 5857SOL     OW29029   0.119   3.153   4.271  0.0035 -0.3814 -0.2305
 5857SOL    HW129030   0.165   3.132   4.190  0.6305  0.7530 -0.1643
 5857SOL    HW229031   0.111   3.248   4.274  1.5974 -0.2828  0.4156
 5858SOL     OW29032   2.722   2.530   2.923 -0.1825 -0.2675 -0.1708
 5858SOL    HW129033   2.796   2.493   2.875 -1.0168  0.0430 -1.7056
 5858SOL    HW229034   2.708   2.463   2.990  0.6730  0.5751  0.8397
 5859SOL     OW29035   1.645   0.272   4.557  0.2371 -0.4616  0.5997
 5859SOL    HW129036   1.570   0.319   4.594 -1.3003 -1.3544 -1.3577
 5859SOL    HW229037   1.711   0.335   4.587 -1.6337  1.7853  0.0176
 5860SOL     OW29038   1.084   4.432   5.231 -0.0103 -0.5234  0.4217
 5860SOL    HW129039   1.012   4.442   5.294  0.2351 -1.0052  0.7808
 5860SOL    HW229040   1.147   4.503   5.247  0.9345 -1.0178 -1.1447
 5861SOL     OW29041   2.026   1.720   6.331  0.0907 -0.1117 -0.3942
 5861SOL    HW129042   2.056   1.629   6.320 -1.0839 -0.9224  3.2904
 5861SOL    HW229043   2.007   1.730   6.424 -0.1374 -1.5364 -0.2829
 5862SOL     OW29044   3.765   1.180   0.222 -0.1091 -0.1010 -0.6078
 5862SOL    HW129045   3.794   1.167   0.132  2.6375  0.7765  0.1476
 5862SOL    HW229046   3.808   1.111   0.272 -0.6199  0.5149  0.6835
 5863SOL     OW29047   0.049   1.168   0.393  0.4452  0.2055  0.5086
 5863SOL    HW129048   4.691   1.219   0.388  0.6766  0.3873 -1.2008
 5863SOL    HW229049   0.095   1.215   0.463 -1.5639  1.6844  0.8670
 5864SOL     OW29050   2.764   1.802   8.458  0.3795 -0.2773 -0.2934
 5864SOL    HW129051   2.737   1.856   8.533  2.2857  0.2667  0.0094
 5864SOL    HW229052   2.680   1.761   8.437 -1.6148  1.8164  3.4677
 5865SOL     OW29053   3.869   1.592   9.306  0.5062 -0.1393  0.2930
 5865SOL    HW129054   3.834   1.503   9.303  1.4580 -0.5381  1.3199
 5865SOL    HW229055   3.805   1.645   9.258  2.4890  1.4307 -0.6111
 5866SOL     OW29056   4.462   2.555  15.412 -0.4926 -0.2699  0.4186
 5866SOL    HW129057   4.553   2.564  15.384 -0.9398 -0.6947 -1.1451
 5866SOL    HW229058   4.451   2.638  15.459 -1.1255 -0.5441  0.7604
 5867SOL     OW29059   2.950   3.416   2.665  0.1221  0.3025 -0.1972
 5867SOL    HW129060   2.965   3.474   2.739  0.3882 -3.3133  2.5547
 5867SOL    HW229061   3.030   3.365   2.675 -1.7181 -2.6696 -0.5815
 5868SOL     OW29062   0.466   1.760  15.303 -0.5064  0.4318  0.8682
 5868SOL    HW129063   0.482   1.853  15.286  0.8798  0.1921  0.8257
 5868SOL    HW229064   0.497   1.751  15.393 -1.4930 -1.6730  0.9823
 5869SOL     OW29065   0.930   0.763   6.320  0.3209 -0.4091  0.0950
 5869SOL    HW129066   0.869   0.689   6.324 -1.5746  1.1875  1.2112
 5869SOL    HW229067   0.910   0.789   6.410 -1.4964 -1.4038 -0.0156
 5870SOL     OW29068   4.188   3.791   2.378  0.5577  0.0135  0.1670
 5870SOL    HW129069   4.186   3.879   2.342 -1.3025 -0.0136  0.2217
 5870SOL    HW229070   4.112   3.750   2.337  0.7784 -1.4390  1.1701
 5871SOL     OW29071   0.850   3.836  10.053 -0.2521 -0.4065 -0.1511
 5871SOL    HW129072   0.944   3.815  10.055  0.1644  1.7045  2.9730
 5871SOL    HW229073   0.843   3.868  10.143  0.8984  0.9477 -0.5293
 5872SOL     OW29074   0.596   3.268  11.025 -0.1600  0.1354 -0.4980
 5872SOL    HW129075   0.585   3.175  11.045  0.0165 -0.1031 -1.5000
 5872SOL    HW229076   0.509   3.308  11.024  0.2619  1.0765  0.1459
 5873SOL     OW29077   0.809   4.134  10.367  0.0176  0.3643  0.3520
 5873SOL    HW129078   0.771   4.132  10.455  1.2646  0.7839  0.8988
 5873SOL    HW229079   0.872   4.063  10.356 -0.3355 -0.1662  1.8873
 5874SOL     OW29080   4.244   4.657   9.557  0.1323 -0.3333 -0.3288
 5874SOL    HW129081   4.183   4.622   9.492  2.2024 -2.2345 -1.2140
 5874SOL    HW229082   4.229   0.028   9.543  0.3929  0.2115  3.0938
 5875SOL     OW29083   0.522   1.220   2.379 -0.0769  0.2177  0.1284
 5875SOL    HW129084   0.598   1.278   2.387 -0.0368  0.2247 -0.2970
 5875SOL    HW229085   0.498   1.245   2.290  0.5136  0.3336  0.0033
 5876SOL     OW29086   3.432   1.251   3.267 -0.4235 -0.4995 -0.2725
 5876SOL    HW129087   3.367   1.302   3.316 -1.5327 -0.8323 -1.3757
 5876SOL    HW229088   3.501   1.313   3.245  0.7828 -2.6944 -2.7036
 5877SOL     OW29089   2.481   2.811   6.695  0.1049 -0.3864  0.0671
 5877SOL    HW129090   2.569   2.777   6.704  1.0707  1.3651 -2.8629
 5877SOL    HW229091   2.498   2.863   6.617 -1.0165 -0.6946 -0.3960
 5878SOL     OW29092   2.375   2.184   3.004 -0.0745 -0.5070 -0.0444
 5878SOL    HW129093   2.425   2.219   2.930  1.5751 -2.4487  0.1602
 5878SOL    HW229094   2.286   2.208   2.979 -0.1492  1.4814  2.0575
 5879SOL     OW29095   2.325   1.467   7.427  0.2100  0.0828  0.4843
 5879SOL    HW129096   2.237   1.477   7.390  0.6365 -0.4127 -0.6571
 5879SOL    HW229097   2.355   1.558   7.430  1.2630 -0.2451 -0.5651
 5880SOL     OW29098   4.019   4.279   3.438 -0.3814  0.3578 -0.1566
 5880SOL    HW129099   4.055   4.362   3.468 -1.0546  0.4167  0.4746
 5880SOL    HW229100   4.073   4.213   3.480  0.4605  1.0079 -0.2270
 5881SOL     OW29101   3.943   1.466   5.362 -0.4946 -0.1226  0.2027
 5881SOL    HW129102   3.927   1.557   5.383  0.2935  0.1518 -0.3886
 5881SOL    HW229103   3.893   1.424   5.432 -0.7382 -1.1079 -0.5480
 5882SOL     OW29104   2.077   0.877   7.076 -0.5474 -0.0426 -0.5302
 5882SOL    HW129105   2.142   0.947   7.080  0.7111 -1.3855  2.6735
 5882SOL    HW229106   2.105   0.824   7.151 -0.5436  1.1902  0.3211
 5883SOL     OW29107   3.873   1.935  10.148  0.0148 -0.3350 -0.1602
 5883SOL    HW129108   3.855   2.025  10.121  0.3534 -0.4465 -0.7474
 5883SOL    HW229109   3.788   1.907  10.182  0.9637 -1.4181  1.3535
 5884SOL     OW29110   2.818   2.614  10.976 -0.1392  0.7444  0.0916
 5884SOL    HW129111   2.796   2.687  11.034  1.9382  0.9620  0.6190
 5884SOL    HW229112   2.811   2.662  10.893  1.3135 -2.0386 -1.6272
 5885SOL     OW29113   1.809   4.445   0.755 -0.0219  0.1292  0.2694
 5885SOL    HW129114   1.870   4.371   0.754  1.4879  1.3811  0.4806
 5885SOL    HW229115   1.722   4.407   0.742  0.0353 -0.0555  0.4159
 5886SOL     OW29116   1.247   3.267  14.467  0.1042  0.1644 -0.3816
 5886SOL    HW129117   1.342   3.277  14.477  0.2521 -0.0109 -1.5550
 5886SOL    HW229118   1.233   3.268  14.372  2.6170  0.1677 -0.7640
 5887SOL     OW29119   0.901   0.634   8.854 -0.1234 -0.1605  0.4709
 5887SOL    HW129120   0.996   0.643   8.854 -0.1835  0.5829 -2.1564
 5887SOL    HW229121   0.878   0.669   8.940 -2.9489  0.5182 -0.5749
 5888SOL     OW29122   3.647   3.895   3.857  0.0242  0.3867 -0.5973
 5888SOL    HW129123   3.584   3.853   3.915 -0.3919 -0.6619 -1.8263
 5888SOL    HW229124   3.643   3.970   3.917  0.5285  0.9850 -1.3134
 5889SOL     OW29125   3.055   3.813  13.087  0.0405  0.6804 -0.9622
 5889SOL    HW129126   3.040   3.820  12.992 -0.3266  0.1948 -0.9453
 5889SOL    HW229127   3.037   3.720  13.101 -0.6192  1.0071  0.3640
 5890SOL     OW29128   1.404   3.862   1.725  0.0752  0.1163  0.2430
 5890SOL    HW129129   1.409   3.956   1.738  0.5148  0.2571 -0.8847
 5890SOL    HW229130   1.336   3.847   1.660 -0.4388  0.5872  0.6859
 5891SOL     OW29131   2.575   0.814   1.836 -0.4349  0.3749 -0.3528
 5891SOL    HW129132   2.496   0.856   1.871  0.2014  1.0266  0.2837
 5891SOL    HW229133   2.535   0.762   1.765 -0.4180  2.0294 -1.5906
 5892SOL     OW29134   0.249   1.333  16.833 -0.2929  0.1289  0.4602
 5892SOL    HW129135   0.343   1.334  16.850 -0.2579  0.9819  0.1884
 5892SOL    HW229136   0.217   1.288  16.911  0.8612 -0.0019  0.8661
 5893SOL     OW29137   0.718   0.564   6.337  0.7905 -0.1367 -0.1073
 5893SOL    HW129138   0.624   0.547   6.326  0.8873 -0.9709  0.4031
 5893SOL    HW229139   0.728   0.538   6.429 -1.7187 -0.1472  0.1590
 5894SOL     OW29140   2.790   3.848   3.392 -0.6663 -0.2359  0.1589
 5894SOL    HW129141   2.827   3.936   3.401  1.9897 -1.4075  0.7270
 5894SOL    HW229142   2.787   3.843   3.296  1.0093  1.0924  0.0246
 5895SOL     OW29143   0.637   3.235   5.309  0.4619  0.6300  0.1657
 5895SOL    HW129144   0.678   3.149   5.306  0.2082  0.5031  0.3440
 5895SOL    HW229145   0.632   3.262   5.217  0.0766  0.2138  0.0694
 5896SOL     OW29146   0.697   3.879   7.711  0.6978  0.4065 -0.0293
 5896SOL    HW129147   0.783   3.907   7.743  1.7750 -0.4705 -2.1629
 5896SOL    HW229148   0.643   3.909   7.784  1.4134 -0.1669  0.7297
 5897SOL     OW29149   2.338   4.450   0.046 -0.5453  0.3168  0.0362
 5897SOL    HW129150   2.284   4.430  17.664  1.4726  0.2050 -1.3620
 5897SOL    HW229151   2.416   4.403   0.015  1.8634  3.0265  1.9776
 5898SOL     OW29152   2.169   0.087  17.327 -0.0477 -0.3100  0.3491
 5898SOL    HW129153   2.219   0.147  17.382 -1.4422  1.4252 -0.3032
 5898SOL    HW229154   2.179   0.126  17.240 -1.4788  0.7475  0.6559
 5899SOL     OW29155   0.853   2.265   4.729  0.2248 -0.0884  0.6062
 5899SOL    HW129156   0.878   2.202   4.796  1.1222 -0.1742  0.1869
 5899SOL    HW229157   0.936   2.287   4.688 -0.9245 -0.6311 -1.9802
 5900SOL     OW29158   3.762   0.866   7.873  0.0067 -0.2758 -0.4317
 5900SOL    HW129159   3.741   0.869   7.966  0.3014 -0.4480 -0.3583
 5900SOL    HW229160   3.854   0.892   7.878 -0.8093  2.5702 -0.6127
 5901SOL     OW29161   4.579   0.487   3.727  0.0212  0.1993 -0.0436
 5901SOL    HW129162   4.665   0.488   3.769 -0.4353  0.7906  0.8541
 5901SOL    HW229163   4.572   0.580   3.708 -0.1372  0.5264  1.6152
 5902SOL     OW29164   0.982   1.860  13.278  0.0942  0.1577 -0.0778
 5902SOL    HW129165   1.044   1.912  13.226  0.2709  1.4542  1.4192
 5902SOL    HW229166   1.036   1.841  13.356 -0.0771  0.7255  0.1770
 5903SOL     OW29167   3.374   4.503   6.663 -0.0066  0.4144 -0.2911
 5903SOL    HW129168   3.306   4.520   6.598 -1.2024 -0.0262  0.8417
 5903SOL    HW229169   3.391   4.413   6.634  4.8767  1.1099  0.3629
 5904SOL     OW29170   1.735   3.723  12.755 -0.2141  0.0020  0.0540
 5904SOL    HW129171   1.755   3.708  12.847 -3.0130 -1.4092  0.4546
 5904SOL    HW229172   1.783   3.645  12.728  0.9742  0.2856  1.3685
 5905SOL     OW29173   3.696   2.868  13.313  0.3279 -0.4257  0.3678
 5905SOL    HW129174   3.694   2.826  13.227  0.5558  0.6860 -0.1811
 5905SOL    HW229175   3.664   2.955  13.287 -0.8498 -0.6802  0.9298
 5906SOL     OW29176   2.002   0.703  11.289 -0.0662 -0.4248  0.5891
 5906SOL    HW129177   1.921   0.659  11.264  1.1669 -0.0658 -3.9734
 5906SOL    HW229178   2.075   0.643  11.275 -0.1721  0.2234 -2.7081
 5907SOL     OW29179   0.487   1.481   7.531 -0.1722 -0.4260  0.4412
 5907SOL    HW129180   0.548   1.548   7.562 -0.3122  0.1445 -0.5317
 5907SOL    HW229181   0.422   1.532   7.483 -0.3253  0.9817  2.1475
 5908SOL     OW29182   0.737   3.257  10.772  0.2556  0.1630  0.0092
 5908SOL    HW129183   0.696   3.275  10.856 -1.0252  0.4382 -0.6853
 5908SOL    HW229184   0.805   3.195  10.801 -0.0280 -0.2242 -0.1537
 5909SOL     OW29185   0.852   4.297   8.631 -0.1865 -0.0915  0.0307
 5909SOL    HW129186   0.940   4.295   8.594  0.0883  0.3095  0.6675
 5909SOL    HW229187   0.867   4.366   8.695 -0.9048  0.8052 -0.7714
 5910SOL     OW29188   0.322   1.378   3.042 -0.3064  0.6343 -0.2452
 5910SOL    HW129189   0.350   1.399   3.131 -0.4655 -0.6443  0.1046
 5910SOL    HW229190   0.229   1.398   3.050 -0.5347 -0.5538 -0.0130
 5911SOL     OW29191   1.109   2.362  12.015  0.3826  0.2116 -0.2198
 5911SOL    HW129192   1.016   2.342  12.000 -0.1007  2.9701 -0.9660
 5911SOL    HW229193   1.103   2.405  12.100 -0.5993 -0.1816 -0.0890
 5912SOL     OW29194   0.422   4.562   1.254  0.2330  0.5723  0.0802
 5912SOL    HW129195   0.510   4.598   1.266  0.0457  0.7592  0.8277
 5912SOL    HW229196   0.434   4.513   1.172  1.0291  2.8173 -1.1634
 5913SOL     OW29197   4.209   1.481   0.798  0.3114 -0.0660  0.1870
 5913SOL    HW129198   4.145   1.410   0.810 -0.8128  0.8778 -0.2256
 5913SOL    HW229199   4.283   1.439   0.755  0.7990  2.5213 -1.5061
 5914SOL     OW29200   3.088   0.429  12.703 -0.0260 -0.4595  0.1420
 5914SOL    HW129201   3.123   0.481  12.776  0.4793  1.1502 -1.2201
 5914SOL    HW229202   3.160   0.432  12.639  0.4945 -1.2305  0.7009
 5915SOL     OW29203   1.842   1.358   5.887  0.1488  0.2382 -0.0391
 5915SOL    HW129204   1.752   1.393   5.887 -0.0160 -0.1859  0.2116
 5915SOL    HW229205   1.863   1.370   5.794  1.3199 -2.0570 -0.0833
 5916SOL     OW29206   3.080   2.140   1.328  0.0740 -0.1410  0.3491
 5916SOL    HW129207   3.097   2.059   1.376 -2.3106 -0.6814  0.2939
 5916SOL    HW229208   3.036   2.097   1.254 -1.4107  2.9419 -0.5769
 5917SOL     OW29209   1.232   3.192  16.400  0.0286  0.4604 -0.5599
 5917SOL    HW129210   1.315   3.199  16.354 -0.8856 -1.2126 -2.4620
 5917SOL    HW229211   1.172   3.250  16.352 -0.3693  0.4425 -0.0850
 5918SOL     OW29212   1.600   4.244   9.164  0.3545 -0.0421  0.3335
 5918SOL    HW129213   1.531   4.246   9.098  2.2157 -0.9043 -1.6612
 5918SOL    HW229214   1.543   4.259   9.239  0.5350 -0.7302  0.6006
 5919SOL     OW29215   2.572   1.880   4.110 -0.7511  0.1675  0.0885
 5919SOL    HW129216   2.668   1.878   4.114 -0.8381 -0.6552  1.8579
 5919SOL    HW229217   2.553   1.875   4.016  1.3467  0.5957 -0.3685
 5920SOL     OW29218   3.104   3.187   2.256 -0.6966 -0.2373  0.1349
 5920SOL    HW129219   3.149   3.271   2.262 -0.8807 -0.0175 -1.4369
 5920SOL    HW229220   3.038   3.200   2.324  0.1283  1.5899  0.5892
 5921SOL     OW29221   3.900   3.290   8.368 -0.2064  0.8525 -0.2218
 5921SOL    HW129222   3.918   3.384   8.368  0.5938  0.6950 -0.1293
 5921SOL    HW229223   3.971   3.261   8.425 -0.5413  3.4852  1.5293
 5922SOL     OW29224   0.075   3.664   0.766  0.4144 -0.2723  0.0384
 5922SOL    HW129225   0.048   3.588   0.715  1.6678 -1.5939  1.3740
 5922SOL    HW229226   0.043   3.633   0.850 -1.3877  1.3578 -0.0465
 5923SOL     OW29227   0.342   2.588  12.692 -1.0400  0.0484  0.4271
 5923SOL    HW129228   0.351   2.531  12.616  0.7758  2.2826 -1.0132
 5923SOL    HW229229   0.279   2.649  12.653 -2.5728 -0.7259  1.6753
 5924SOL     OW29230   4.093   4.602   7.614  0.4314 -0.1649  0.1710
 5924SOL    HW129231   4.132   4.588   7.527 -1.4154 -2.3198 -0.3324
 5924SOL    HW229232   4.118   4.522   7.661 -0.2393  0.0033  0.8065
 5925SOL     OW29233   3.752   2.809   5.206 -0.5574  0.2358  0.4553
 5925SOL    HW129234   3.670   2.806   5.257 -0.4890  2.5012  0.6756
 5925SOL    HW229235   3.787   2.898   5.205  1.6337 -0.6931 -1.8485
 5926SOL     OW29236   2.057   0.216  17.086 -0.1510 -0.3251 -0.5122
 5926SOL    HW129237   2.038   0.129  17.052 -2.2522 -0.7275  1.6887
 5926SOL    HW229238   1.967   0.248  17.091 -0.0447  0.0019 -0.6507
 5927SOL     OW29239   1.066   1.223  14.790 -0.1608 -0.1181 -0.1629
 5927SOL    HW129240   1.088   1.130  14.794 -0.0598 -0.1627 -1.7584
 5927SOL    HW229241   1.135   1.257  14.733  1.2306 -0.0002  1.6023
 5928SOL     OW29242   1.955   0.339   7.143 -0.3738  0.0382 -0.5097
 5928SOL    HW129243   1.884   0.276   7.133 -3.1081  3.2591 -1.2219
 5928SOL    HW229244   1.983   0.331   7.052  0.7416 -0.6981 -0.1043
 5929SOL     OW29245   2.272   1.661  16.192  0.1333  0.1934  0.1429
 5929SOL    HW129246   2.246   1.586  16.245 -0.7055 -0.0908 -0.6909
 5929SOL    HW229247   2.252   1.736  16.249 -0.7874  0.1393 -0.1081
 5930SOL     OW29248   3.469   0.251   2.368  0.4393 -0.0636 -0.3844
 5930SOL    HW129249   3.385   0.291   2.391 -0.0107 -1.0003 -0.4263
 5930SOL    HW229250   3.487   0.286   2.281  2.2843  0.7022  0.3241
 5931SOL     OW29251   0.527   2.563   4.661  1.2236 -0.2824  0.3404
 5931SOL    HW129252   0.441   2.578   4.623  0.3694 -2.4625  1.4457
 5931SOL    HW229253   0.520   2.618   4.739 -1.2075  2.0284 -1.4944
 5932SOL     OW29254   4.204   2.762   7.855  0.4047  0.0848  0.4126
 5932SOL    HW129255   4.124   2.795   7.814  1.6294  1.6343 -0.7694
 5932SOL    HW229256   4.168   2.685   7.899 -1.4156  0.3081 -0.6801
 5933SOL     OW29257   3.416   0.438   5.059  0.2196  0.0920 -0.6352
 5933SOL    HW129258   3.479   0.453   5.129  0.0981 -0.6518 -0.3608
 5933SOL    HW229259   3.372   0.523   5.061 -0.9404 -0.5007 -0.5891
 5934SOL     OW29260   1.675   2.722  16.986  0.5862  0.9313 -0.7900
 5934SOL    HW129261   1.581   2.738  16.999  0.8101  0.8302  1.0071
 5934SOL    HW229262   1.709   2.715  17.075 -1.1416 -0.3064 -0.2295
 5935SOL     OW29263   3.275   2.267  10.089 -0.2301  0.6301 -0.5844
 5935SOL    HW129264   3.222   2.202  10.134  2.3791 -0.7691  0.4756
 5935SOL    HW229265   3.217   2.339  10.063 -0.1547  1.1586  0.7230
 5936SOL     OW29266   2.589   2.858   2.733 -0.9549  0.3799 -0.1491
 5936SOL    HW129267   2.626   2.919   2.670  1.1912 -1.4715 -0.6943
 5936SOL    HW229268   2.567   2.787   2.674  1.0347  0.1370 -0.6196
 5937SOL     OW29269   4.599   1.925   4.657 -0.6241  0.2240  0.2181
 5937SOL    HW129270   4.547   2.004   4.641 -1.8736 -1.0785 -2.1963
 5937SOL    HW229271   4.548   1.861   4.607 -0.5663  0.4515 -0.1353
 5938SOL     OW29272   3.025   2.703   3.788  0.6448 -0.2342  0.2103
 5938SOL    HW129273   3.075   2.638   3.738  1.7578  0.2951  0.6386
 5938SOL    HW229274   3.038   2.780   3.733  1.2327 -0.8047 -0.4456
 5939SOL     OW29275   2.394   1.704   6.678  0.1963  0.2326 -0.0233
 5939SOL    HW129276   2.323   1.700   6.742 -0.1537 -0.1985 -0.4369
 5939SOL    HW229277   2.436   1.618   6.687 -0.9546 -0.3299 -0.0795
 5940SOL     OW29278   0.036   0.450  17.518 -0.1823  0.1795 -0.1714
 5940SOL    HW129279   0.069   0.447  17.428 -0.9194 -0.7889 -0.4111
 5940SOL    HW229280   0.037   0.541  17.548 -1.0887 -0.2609  1.1583
 5941SOL     OW29281   3.990   0.829  16.518 -0.2728  0.2169 -0.5795
 5941SOL    HW129282   3.987   0.833  16.613  0.6978  0.7160 -0.5719
 5941SOL    HW229283   3.966   0.739  16.496  1.0433 -1.0241  3.1761
 5942SOL     OW29284   4.412   1.557  13.187 -0.1300 -0.5783  0.4589
 5942SOL    HW129285   4.331   1.508  13.203 -0.7821  0.5230  0.5183
 5942SOL    HW229286   4.472   1.522  13.253  0.4425  1.4731  1.0179
 5943SOL     OW29287   1.688   2.408   4.808 -0.1657  0.2788  0.8000
 5943SOL    HW129288   1.782   2.391   4.801 -0.3118 -0.2693  0.1282
 5943SOL    HW229289   1.684   2.436   4.900 -1.0334 -2.3733  1.5835
 5944SOL     OW29290   3.782   1.923   6.107  0.2534  0.1239  0.2977
 5944SOL    HW129291   3.725   1.932   6.183 -2.4446 -2.6375 -1.4157
 5944SOL    HW229292   3.851   1.862   6.134  0.4246 -0.5917 -1.7218
 5945SOL     OW29293   4.718   1.904   2.087  0.4475 -0.0129 -0.3300
 5945SOL    HW129294   4.680   1.961   2.153  2.6938  0.7756  0.2640
 5945SOL    HW229295   4.707   1.820   2.132  1.5932  0.8428  1.5561
 5946SOL     OW29296   2.313   2.030  10.871 -0.4120 -0.1802 -0.4119
 5946SOL    HW129297   2.357   2.095  10.925  2.0166 -0.3605 -2.1826
 5946SOL    HW229298   2.378   2.033  10.801  0.2553  0.8048  0.2516
 5947SOL     OW29299   3.976   2.730   3.678 -0.3513 -0.5472  0.3885
 5947SOL    HW129300   3.941   2.804   3.629  1.1667  1.8887  2.9382
 5947SOL    HW229301   4.062   2.726   3.636  0.1937 -2.6638  1.7221
 5948SOL     OW29302   3.741   2.863   4.620  0.2614  0.0931  0.7000
 5948SOL    HW129303   3.827   2.823   4.637 -0.2315 -0.2915  2.3188
 5948SOL    HW229304   3.678   2.791   4.627  0.5972 -0.3015 -0.3018
 5949SOL     OW29305   0.439   4.090   9.314  0.4479  0.4070  0.2408
 5949SOL    HW129306   0.502   4.132   9.255  2.0688 -0.1485  1.5935
 5949SOL    HW229307   0.364   4.148   9.305 -0.9791 -1.7090 -1.5284
 5950SOL     OW29308   3.172   0.239   3.726 -0.0533  0.3100  0.1784
 5950SOL    HW129309   3.114   0.238   3.802  2.5865 -1.8478  2.1459
 5950SOL    HW229310   3.128   0.302   3.669 -0.5144 -0.0837  0.0944
 5951SOL     OW29311   1.045   3.961   4.847  0.5453 -0.2409  0.0949
 5951SOL    HW129312   0.951   3.969   4.860  0.6730  0.4830  0.5653
 5951SOL    HW229313   1.061   4.051   4.819  3.1910  0.3844  3.5926
 5952SOL     OW29314   3.643   4.135   7.038 -0.1673 -0.1646 -1.0816
 5952SOL    HW129315   3.590   4.067   7.080  1.2987  0.0046  1.0232
 5952SOL    HW229316   3.733   4.100   7.036 -1.0715 -2.4625 -1.5603
 5953SOL     OW29317   3.963   3.127  12.504 -0.1332  0.2060  0.0313
 5953SOL    HW129318   4.057   3.145  12.501 -0.1139  0.2291  0.7592
 5953SOL    HW229319   3.960   3.107  12.598  2.5655  2.4788  0.6111
 5954SOL     OW29320   4.129   4.197  14.672 -0.7376  0.1396 -0.2622
 5954SOL    HW129321   4.164   4.276  14.713  1.3891 -1.4296  0.9485
 5954SOL    HW229322   4.119   4.235  14.585  0.9787 -0.7933 -0.8692
 5955SOL     OW29323   4.658   4.221  13.960 -0.0951 -0.4712 -0.4338
 5955SOL    HW129324   4.580   4.239  14.013 -0.3977 -1.5901 -0.4951
 5955SOL    HW229325   4.713   4.298  13.969 -1.5322  0.7303 -1.7720
 5956SOL     OW29326   1.934   3.287  12.882  0.3961  0.1970 -0.0656
 5956SOL    HW129327   1.854   3.234  12.885  0.0963  0.6943  0.6559
 5956SOL    HW229328   1.994   3.214  12.891 -1.1263 -0.8265  1.7477
 5957SOL     OW29329   1.589   1.670   2.557  0.3311 -0.2188 -0.0801
 5957SOL    HW129330   1.533   1.746   2.538  0.1687 -0.6177 -1.1860
 5957SOL    HW229331   1.660   1.728   2.587  2.5416 -2.1434 -1.5964
 5958SOL     OW29332   3.472   1.753   6.117  0.2944  0.7524 -0.6473
 5958SOL    HW129333   3.529   1.800   6.179  1.5242  0.0652 -1.2483
 5958SOL    HW229334   3.540   1.705   6.068 -1.1343 -0.5367 -1.3512
 5959SOL     OW29335   2.760   2.092  14.363  0.2712 -0.4677  0.5470
 5959SOL    HW129336   2.668   2.084  14.338  0.9583 -2.1767 -1.3722
 5959SOL    HW229337   2.789   2.165  14.307  3.1244 -1.4914  0.7055
 5960SOL     OW29338   0.534   2.884  14.954 -0.1613 -0.5658  0.2097
 5960SOL    HW129339   0.535   2.805  15.009  3.8411 -1.0444 -0.5864
 5960SOL    HW229340   0.568   2.845  14.874 -2.2503  0.5708 -1.2386
 5961SOL     OW29341   0.537   4.211  10.074  0.0793  0.1586 -0.6790
 5961SOL    HW129342   0.503   4.255  10.152 -0.1561 -0.2406 -0.5559
 5961SOL    HW229343   0.631   4.214  10.094 -0.1136 -1.1061  0.3996
 5962SOL     OW29344   2.204   3.528   2.225  0.2926  0.4610  0.9265
 5962SOL    HW129345   2.203   3.475   2.145 -0.4598  1.1780  0.4621
 5962SOL    HW229346   2.132   3.491   2.276  0.9018 -1.3022  0.5067
 5963SOL     OW29347   0.265   3.851   6.210  0.8468 -0.2312 -0.1532
 5963SOL    HW129348   0.231   3.933   6.246 -0.7561 -0.4640 -1.1302
 5963SOL    HW229349   0.229   3.790   6.274  0.4158 -0.0535 -0.2173
 5964SOL     OW29350   0.938   3.605   2.831 -0.3103 -0.1940 -0.2537
 5964SOL    HW129351   0.862   3.617   2.888 -1.2570 -0.6855 -1.4346
 5964SOL    HW229352   0.895   3.551   2.765 -0.2430 -0.2380 -0.2611
 5965SOL     OW29353   1.809   0.399   4.993  0.4792 -0.0551 -0.4319
 5965SOL    HW129354   1.902   0.384   5.008  0.1104 -1.8599 -0.0170
 5965SOL    HW229355   1.776   0.466   5.053  1.3893  0.7922 -0.8695
 5966SOL     OW29356   0.913   3.156   1.677  0.0634  0.4906 -0.5148
 5966SOL    HW129357   0.924   3.061   1.666 -0.1706  0.5445 -1.1886
 5966SOL    HW229358   0.882   3.177   1.589 -0.2580 -0.7765 -0.7115
 5967SOL     OW29359   2.202   2.526  15.852 -0.3601  0.1094  0.4980
 5967SOL    HW129360   2.170   2.598  15.907 -3.1660 -2.0610  1.7127
 5967SOL    HW229361   2.130   2.508  15.792 -0.4696  1.0048  0.3632
 5968SOL     OW29362   2.224   2.433  16.256  0.1075  0.1597  0.1284
 5968SOL    HW129363   2.319   2.445  16.264  0.1302 -1.3032  2.1290
 5968SOL    HW229364   2.208   2.405  16.346  3.2674 -2.2768 -0.0593
 5969SOL     OW29365   0.914   3.736   8.320 -0.0325 -0.0695 -1.0266
 5969SOL    HW129366   0.826   3.770   8.302  0.2944 -0.4984 -3.4008
 5969SOL    HW229367   0.900   3.673   8.391  0.3321 -0.1449 -1.0237
 5970SOL     OW29368   3.412   4.149   3.594 -0.1908  0.2126 -0.6538
 5970SOL    HW129369   3.447   4.197   3.669 -0.5280  1.2192 -1.1509
 5970SOL    HW229370   3.390   4.217   3.531  0.2661 -1.0180 -2.1697
 5971SOL     OW29371   0.827   4.062  12.260  0.0120 -0.9231 -0.1409
 5971SOL    HW129372   0.878   3.987  12.291  0.5536 -1.3104 -1.9753
 5971SOL    HW229373   0.895   4.112  12.215  0.2489 -0.4758  0.7103
 5972SOL     OW29374   0.934   2.778   3.374  0.2905  0.2573  0.0586
 5972SOL    HW129375   0.898   2.847   3.319  0.9580  0.9691  0.5278
 5972SOL    HW229376   1.026   2.790   3.353  0.4492 -0.4312  0.3380
 5973SOL     OW29377   0.754   3.895   6.509 -0.1584 -0.3602  0.1934
 5973SOL    HW129378   0.676   3.933   6.549 -0.1411 -1.5071  1.3312
 5973SOL    HW229379   0.820   3.920   6.573 -2.1044 -0.2639  2.1695
 5974SOL     OW29380   3.302   1.086  16.650 -0.0907 -0.2703 -0.0508
 5974SOL    HW129381   3.210   1.107  16.634 -0.3107 -0.7518  0.5757
 5974SOL    HW229382   3.339   1.165  16.610  1.0564 -1.4480 -1.3271
 5975SOL     OW29383   3.891   4.404   4.880  0.5926 -0.1531 -0.1115
 5975SOL    HW129384   3.888   4.329   4.819  0.0828  0.0136 -0.2891
 5975SOL    HW229385   3.983   4.421   4.897  0.9347 -1.9268 -0.1121
 5976SOL     OW29386   4.326   2.883   0.941 -0.1059  0.2813  0.4311
 5976SOL    HW129387   4.287   2.810   0.990  0.9323 -0.3702  0.2999
 5976SOL    HW229388   4.392   2.903   1.008 -1.9817 -1.4395  2.7966
 5977SOL     OW29389   0.931   3.972  17.589 -0.4123 -0.1930  0.8165
 5977SOL    HW129390   1.011   4.013  17.554 -0.2652 -1.1348  0.0299
 5977SOL    HW229391   0.969   3.907  17.649 -0.4192 -1.3990 -0.4797
 5978SOL     OW29392   0.427   3.208   9.899 -0.0623  0.2220 -0.3115
 5978SOL    HW129393   0.503   3.238   9.948 -0.7654  0.8497  0.3969
 5978SOL    HW229394   0.450   3.117   9.879  0.7516  0.5045 -0.6202
 5979SOL     OW29395   2.587   4.125  13.935  0.1061 -0.2744  0.1154
 5979SOL    HW129396   2.577   4.030  13.928  0.7818 -0.4834  1.8431
 5979SOL    HW229397   2.605   4.132  13.841  1.3537  1.2645  0.4729
 5980SOL     OW29398   2.340   2.487  12.450 -0.1477 -0.1055 -0.6981
 5980SOL    HW129399   2.339   2.399  12.412  1.0980  0.4021 -1.9271
 5980SOL    HW229400   2.330   2.529  12.365 -0.9848 -0.6365 -0.8657
 5981SOL     OW29401   2.031   0.102   6.694 -0.2488  0.2308 -0.3100
 5981SOL    HW129402   2.018   0.141   6.608  2.1221  1.8301  0.0593
 5981SOL    HW229403   2.049   0.011   6.671 -1.0085 -0.7932  3.0340
 5982SOL     OW29404   2.507   2.291   5.276  0.1615 -0.0416 -0.0024
 5982SOL    HW129405   2.566   2.334   5.214 -0.4669  1.5193  0.5118
 5982SOL    HW229406   2.543   2.202   5.271 -1.8719 -0.8966  0.4860
 5983SOL     OW29407   4.074   3.272  11.484 -0.2191 -0.1818 -0.2838
 5983SOL    HW129408   4.068   3.176  11.480 -0.6152 -0.1152 -1.1882
 5983SOL    HW229409   3.983   3.294  11.499  0.2213  1.4566 -0.0255
 5984SOL     OW29410   0.109   2.910   8.528 -0.3572 -0.0980  0.2919
 5984SOL    HW129411   0.089   2.828   8.484  0.6431 -0.2203  0.0580
 5984SOL    HW229412   0.104   2.876   8.618  2.0190 -0.0283  0.4419
 5985SOL     OW29413   4.123   2.548   5.443 -0.2528  0.1165  0.1054
 5985SOL    HW129414   4.032   2.577   5.437 -0.8776 -1.7795  0.6706
 5985SOL    HW229415   4.117   2.459   5.408 -1.2440 -0.0543  0.7067
 5986SOL     OW29416   4.468   4.513  12.358  0.2064  0.0417  0.0162
 5986SOL    HW129417   4.374   4.526  12.360  0.0778 -0.9818  0.2892
 5986SOL    HW229418   4.495   4.572  12.288  0.5108 -1.9748 -1.5654
 5987SOL     OW29419   0.137   3.545   8.520  0.5744  0.1590  0.4894
 5987SOL    HW129420   0.096   3.481   8.578 -2.2284  0.2611 -1.3537
 5987SOL    HW229421   0.229   3.527   8.540  0.0277 -2.4782  0.5936
 5988SOL     OW29422   1.594   4.443  16.741 -0.4553 -0.1740  0.7255
 5988SOL    HW129423   1.665   4.403  16.692  1.2645  0.0897  3.0424
 5988SOL    HW229424   1.627   4.433  16.830  0.3114 -0.5184  0.3983
 5989SOL     OW29425   4.278   3.835  13.557 -0.3616  0.1118 -0.7476
 5989SOL    HW129426   4.256   3.818  13.648 -1.8102 -1.3280 -1.3662
 5989SOL    HW229427   4.205   3.890  13.529 -1.6344 -1.1358  0.1348
 5990SOL     OW29428   3.682   1.765  15.548 -0.0192 -0.0488 -0.6880
 5990SOL    HW129429   3.634   1.806  15.475  1.1875  1.0759 -0.8601
 5990SOL    HW229430   3.770   1.797  15.527  0.1993 -1.6512 -2.2470
 5991SOL     OW29431   0.587   1.701  15.552  0.1522  0.0072 -0.2013
 5991SOL    HW129432   0.548   1.727  15.635  1.7837  1.9420 -0.0500
 5991SOL    HW229433   0.629   1.622  15.587 -1.4830  0.6112  3.0907
 5992SOL     OW29434   4.220   3.439   3.241  0.3055  0.0181 -0.1380
 5992SOL    HW129435   4.267   3.488   3.309  1.1709 -2.4360  1.0053
 5992SOL    HW229436   4.242   3.483   3.159 -1.2089 -0.8881 -1.0240
 5993SOL     OW29437   3.674   2.013  15.763  0.3546  0.2683 -0.6152
 5993SOL    HW129438   3.764   1.993  15.737  0.4052 -1.1612  0.6517
 5993SOL    HW229439   3.627   1.946  15.711 -0.6244 -0.1405  0.7876
 5994SOL     OW29440   0.498   0.646   1.306 -0.5825 -0.4886 -0.1691
 5994SOL    HW129441   0.470   0.627   1.396  0.9125  1.9345  0.7725
 5994SOL    HW229442   0.428   0.703   1.276  0.2551 -0.5808 -2.2560
 5995SOL     OW29443   2.266   0.031   8.255  0.0804 -0.4602  0.1470
 5995SOL    HW129444   2.330   0.084   8.207  0.2347 -0.3174  0.5158
 5995SOL    HW229445   2.210   0.101   8.290  2.0314  0.3890  1.5395
 5996SOL     OW29446   3.257   0.389   2.449  0.2108  0.2284 -0.0184
 5996SOL    HW129447   3.189   0.332   2.486 -0.5210  1.0509 -0.0825
 5996SOL    HW229448   3.202   0.465   2.429  0.5035  0.7649  1.2055
 5997SOL     OW29449   2.372   0.650   1.743  0.3790 -0.5820 -0.3944
 5997SOL    HW129450   2.339   0.677   1.657  2.4239 -0.8925 -1.2770
 5997SOL    HW229451   2.320   0.570   1.750  1.3636 -1.2190 -0.3957
 5998SOL     OW29452   0.906   2.142   0.236 -0.8192  0.6323  0.4028
 5998SOL    HW129453   0.814   2.135   0.259 -1.1626  0.6017 -0.9897
 5998SOL    HW229454   0.910   2.138   0.140  1.0732  0.8866  0.4596
 5999SOL     OW29455   2.507   2.285   0.560  0.4453 -0.0566  0.0846
 5999SOL    HW129456   2.529   2.340   0.485 -0.4968 -2.5957 -2.0529
 5999SOL    HW229457   2.507   2.198   0.521  0.5209 -0.4479  0.9422
 6000SOL     OW29458   3.267   4.425   4.367 -0.9741  0.2738 -0.4642
 6000SOL    HW129459   3.280   4.515   4.399  0.4447  0.0297 -0.3367
 6000SOL    HW229460   3.183   4.435   4.322 -0.6673  0.6417 -0.9587
 6001SOL     OW29461   4.084   4.151   5.347 -0.1079  0.1630 -0.4017
 6001SOL    HW129462   4.082   4.246   5.357  0.5527 -0.0390  1.4814
 6001SOL    HW229463   4.067   4.147   5.252  1.5679  1.8604 -0.7721
 6002SOL     OW29464   0.363   0.692   3.649 -0.3401  0.1023 -0.0498
 6002SOL    HW129465   0.339   0.773   3.606  0.2984  0.9566  1.2051
 6002SOL    HW229466   0.437   0.731   3.695  0.6189  0.7886 -2.2154
 6003SOL     OW29467   1.159   1.356   6.987  0.0853  0.4039  0.2221
 6003SOL    HW129468   1.091   1.419   6.965 -2.2522 -2.0323  0.4939
 6003SOL    HW229469   1.175   1.376   7.079 -0.0986  0.5402  0.2233
 6004SOL     OW29470   3.701   2.622   7.198  0.2977 -0.1937 -0.8667
 6004SOL    HW129471   3.667   2.663   7.278  2.6188  0.4527 -0.2178
 6004SOL    HW229472   3.796   2.610   7.209  0.8201  0.4257 -4.6608
 6005SOL     OW29473   0.240   0.611   8.276  0.4381 -0.0485  0.3574
 6005SOL    HW129474   0.296   0.541   8.241 -1.3087 -1.6271  0.6930
 6005SOL    HW229475   0.302   0.684   8.285 -1.3195  1.2059  2.2067
 6006SOL     OW29476   4.602   2.720  14.514 -0.4528  0.0723 -0.2751
 6006SOL    HW129477   4.661   2.754  14.582  0.2067  1.8134 -1.6848
 6006SOL    HW229478   4.518   2.717  14.559 -0.4974  1.4122 -0.2518
 6007SOL     OW29479   0.066   3.540   6.740 -0.1560  0.1027  0.2779
 6007SOL    HW129480   0.131   3.611   6.742  1.0867 -1.0220  0.3246
 6007SOL    HW229481   0.023   3.562   6.657 -0.2721 -1.1512  0.0065
 6008SOL     OW29482   0.513   0.679  10.918 -0.1660 -0.0147 -0.2651
 6008SOL    HW129483   0.426   0.687  10.880 -0.2820 -1.1955 -0.2642
 6008SOL    HW229484   0.568   0.739  10.869 -0.2464  0.2510 -0.0335
 6009SOL     OW29485   0.705   3.490  14.491 -0.4404 -0.4409  0.2666
 6009SOL    HW129486   0.786   3.447  14.521  0.8916  1.4368 -0.6202
 6009SOL    HW229487   0.726   3.579  14.520  2.7262  0.1883 -4.0117
 6010SOL     OW29488   0.461   0.497  15.152 -0.5544 -0.5822 -0.3828
 6010SOL    HW129489   0.374   0.479  15.188  0.2359 -0.5267  1.5301
 6010SOL    HW229490   0.517   0.522  15.225  0.2492  0.6403 -1.4096
 6011SOL     OW29491   2.889   1.600  15.277  0.3350 -0.0549  0.4720
 6011SOL    HW129492   2.913   1.560  15.361  1.1532 -0.5157  0.0272
 6011SOL    HW229493   2.950   1.674  15.283 -0.2064  0.5405 -1.5797
 6012SOL     OW29494   0.000   4.458   3.249 -0.3911  0.5637  0.5647
 6012SOL    HW129495   4.647   4.517   3.252  0.8769  2.3080 -1.2827
 6012SOL    HW229496   4.688   4.371   3.232  0.5225  0.1182  0.9545
 6013SOL     OW29497   4.554   1.601  12.968 -0.4319 -0.1526  0.1747
 6013SOL    HW129498   4.499   1.535  12.927  1.0359 -0.7620 -0.7719
 6013SOL    HW229499   4.515   1.592  13.055 -0.5810 -0.3197  0.0908
 6014SOL     OW29500   3.591   0.384   7.615  0.3184 -0.4991 -0.5554
 6014SOL    HW129501   3.582   0.366   7.709  0.0707 -0.2908 -0.5393
 6014SOL    HW229502   3.594   0.480   7.616 -1.3180 -0.4334 -2.1925
 6015SOL     OW29503   0.778   3.112   3.250 -0.2474  1.2206 -0.2990
 6015SOL    HW129504   0.691   3.089   3.217  1.5294 -2.4712 -2.4541
 6015SOL    HW229505   0.758   3.165   3.327 -2.0895 -0.5757  0.4597
 6016SOL     OW29506   3.058   2.690  15.515 -0.0437 -0.1386  0.3878
 6016SOL    HW129507   3.053   2.783  15.493 -3.2749 -0.0080  1.6674
 6016SOL    HW229508   3.079   2.688  15.609  0.1644  0.2697  0.3528
 6017SOL     OW29509   3.515   2.798   6.292 -0.1568 -0.3750  0.2748
 6017SOL    HW129510   3.428   2.767   6.318  0.3440 -2.1424 -0.1476
 6017SOL    HW229511   3.516   2.771   6.200 -1.6936 -1.9696  0.7157
 6018SOL     OW29512   1.318   2.111  14.493  0.4682 -0.0312 -0.2661
 6018SOL    HW129513   1.270   2.193  14.503  1.4199  0.1502  2.8417
 6018SOL    HW229514   1.404   2.139  14.462  1.0617 -2.1906 -0.5606
 6019SOL     OW29515   4.688   0.261   0.879 -0.0705  0.1490 -0.4230
 6019SOL    HW129516   4.617   0.287   0.821  1.0839  0.0384 -1.8874
 6019SOL    HW229517   0.019   0.219   0.812 -2.8031 -0.0816 -2.4657
 6020SOL     OW29518   2.513   4.021  11.929 -0.1733  0.5942  0.1460
 6020SOL    HW129519   2.521   4.115  11.919 -0.2010  0.7645  1.6340
 6020SOL    HW229520   2.427   4.020  11.973 -0.4471 -1.3810 -0.4224
 6021SOL     OW29521   3.070   0.471   2.767  0.2106 -0.7569  0.7740
 6021SOL    HW129522   3.076   0.383   2.804 -2.6360 -0.9780  0.6996
 6021SOL    HW229523   3.065   0.524   2.847 -3.0402  2.3915 -1.5378
 6022SOL     OW29524   3.337   1.065  12.927 -0.1420 -0.4790 -0.3755
 6022SOL    HW129525   3.368   0.979  12.953  1.5021  0.0825 -0.4879
 6022SOL    HW229526   3.275   1.039  12.858 -1.3376 -2.9548  1.6587
 6023SOL     OW29527   4.250   2.678   5.240 -0.0218  0.3630 -0.2353
 6023SOL    HW129528   4.216   2.646   5.324  0.5466  1.9055  0.5855
 6023SOL    HW229529   4.174   2.695   5.185  0.5611 -1.5055 -1.6127
 6024SOL     OW29530   3.115   0.630   6.051  0.4870  0.3722 -0.3721
 6024SOL    HW129531   3.047   0.695   6.068  0.6518  0.4663 -0.0790
 6024SOL    HW229532   3.096   0.608   5.960  0.0608  0.8561 -0.3999
 6025SOL     OW29533   2.968   1.590   4.757 -0.6375  0.3883  0.0465
 6025SOL    HW129534   2.990   1.521   4.694 -0.2991  0.7102 -0.1846
 6025SOL    HW229535   2.937   1.535   4.829 -0.7530  0.3073 -0.0634
 6026SOL     OW29536   2.749   2.282  15.576 -0.3668 -0.2436 -0.0670
 6026SOL    HW129537   2.684   2.352  15.583 -0.9498 -0.9278  1.3833
 6026SOL    HW229538   2.814   2.316  15.515  2.1244 -1.6696  1.7745
 6027SOL     OW29539   2.583   1.371   9.331 -0.4654 -0.6503 -0.2602
 6027SOL    HW129540   2.582   1.288   9.379  2.0398  0.6991  2.1359
 6027SOL    HW229541   2.635   1.345   9.256  3.1202  2.2810  1.2123
 6028SOL     OW29542   1.756   1.643   6.125 -0.2544  0.0489  0.4956
 6028SOL    HW129543   1.740   1.737   6.115 -0.7218 -0.2959 -1.9958
 6028SOL    HW229544   1.670   1.603   6.116 -0.2193 -0.3948  2.2057
 6029SOL     OW29545   4.470   3.114  16.453 -0.5164 -0.1671 -0.7756
 6029SOL    HW129546   4.533   3.181  16.426  0.5205 -0.4665  0.9149
 6029SOL    HW229547   4.387   3.157  16.435 -1.2283 -1.2528 -0.0957
 6030SOL     OW29548   1.939   4.679   0.804 -0.0374  0.4448 -0.3950
 6030SOL    HW129549   1.899   4.599   0.769 -0.8643  0.3142  0.8553
 6030SOL    HW229550   1.985   4.643   0.879 -1.5265 -1.3760 -0.3543
 6031SOL     OW29551   4.391   0.841   3.099  0.0285  0.2829 -0.4704
 6031SOL    HW129552   4.398   0.889   3.017  0.1965  0.3005 -0.4452
 6031SOL    HW229553   4.405   0.752   3.064 -0.9416  0.6663 -1.8384
 6032SOL     OW29554   0.781   2.550   9.237  0.2112 -0.3174  0.2451
 6032SOL    HW129555   0.753   2.638   9.264  0.9267 -0.6664  2.1489
 6032SOL    HW229556   0.696   2.510   9.219  0.8940 -0.0711 -3.4916
 6033SOL     OW29557   1.244   0.543   1.055 -0.0036  0.0303  0.5263
 6033SOL    HW129558   1.282   0.531   0.968 -1.3230 -1.4581  0.1631
 6033SOL    HW229559   1.250   0.459   1.101  1.4251  0.2360  0.7172
 6034SOL     OW29560   0.228   3.407   7.700 -0.3790  0.3130 -0.3603
 6034SOL    HW129561   0.260   3.494   7.676  3.0309 -1.0381 -0.6335
 6034SOL    HW229562   0.290   3.346   7.659  0.5362 -0.0140  1.5039
 6035SOL     OW29563   0.105   3.646   3.981 -0.6220 -0.2401  0.2488
 6035SOL    HW129564   0.108   3.553   4.007  2.4051 -0.0655  0.5392
 6035SOL    HW229565   0.195   3.670   4.004 -0.2432 -1.0758 -0.3483
 6036SOL     OW29566   0.569   0.711   9.173 -0.6990 -0.4253  0.0736
 6036SOL    HW129567   0.656   0.672   9.184 -1.7496 -2.4891  1.0775
 6036SOL    HW229568   0.513   0.645   9.213  2.3177 -2.3125  1.2155
 6037SOL     OW29569   1.386   3.148   3.191  0.0354  0.4478 -0.4008
 6037SOL    HW129570   1.319   3.158   3.124 -1.3660 -0.6728  0.8183
 6037SOL    HW229571   1.361   3.211   3.258  2.0720  0.4320  0.3879
 6038SOL     OW29572   3.028   1.682   7.329  0.7748  0.5785 -0.6353
 6038SOL    HW129573   3.088   1.618   7.368  2.3513  1.3415 -1.7560
 6038SOL    HW229574   3.035   1.648   7.239  0.5032 -0.4978 -0.2409
 6039SOL     OW29575   3.564   1.980   0.171  0.6394 -0.3302  0.5494
 6039SOL    HW129576   3.504   1.954   0.101 -0.6431  1.3218  1.0520
 6039SOL    HW229577   3.506   2.050   0.199  0.3521 -0.2759 -0.1757
 6040SOL     OW29578   4.566   3.964   2.517 -0.1888  0.6529 -0.0781
 6040SOL    HW129579   4.577   4.047   2.470  0.6029  0.7211  0.2202
 6040SOL    HW229580   4.473   3.960   2.535 -0.1475 -1.9278 -0.4586
 6041SOL     OW29581   3.376   3.387   7.505  0.1300 -0.0588 -0.2918
 6041SOL    HW129582   3.407   3.329   7.436 -3.6336 -0.1911 -1.8455
 6041SOL    HW229583   3.367   3.473   7.464 -0.9152  0.3623  0.8032
 6042SOL     OW29584   4.711   3.584  11.317 -0.5530 -0.1655  0.2147
 6042SOL    HW129585   0.008   3.573  11.410 -0.1724 -1.7051 -0.0421
 6042SOL    HW229586   4.629   3.630  11.333 -0.9065 -0.7072 -0.0403
 6043SOL     OW29587   1.327   3.742  15.721  0.0850  0.1126 -0.0008
 6043SOL    HW129588   1.254   3.785  15.678  0.7985  0.5680 -0.7362
 6043SOL    HW229589   1.374   3.815  15.761  2.0616 -0.7943 -0.6807
 6044SOL     OW29590   2.088   2.434  17.174 -0.1754  0.3188  0.6212
 6044SOL    HW129591   2.159   2.461  17.232  1.9800 -1.0214 -1.4053
 6044SOL    HW229592   2.133   2.422  17.091  1.9479  0.7056  1.7269
 6045SOL     OW29593   3.613   3.378   4.188  0.8034  0.9031  0.0411
 6045SOL    HW129594   3.556   3.316   4.144 -0.2937  2.6296 -0.9784
 6045SOL    HW229595   3.553   3.445   4.220 -0.1033 -0.3382  0.9260
 6046SOL     OW29596   4.423   1.496   8.290  0.1173  0.1262 -0.5472
 6046SOL    HW129597   4.367   1.557   8.243  0.2274  1.2680  0.8089
 6046SOL    HW229598   4.439   1.540   8.374  0.1673 -1.2872  0.1939
 6047SOL     OW29599   4.060   1.421   9.076 -0.0270  0.4255  0.4903
 6047SOL    HW129600   4.006   1.364   9.021  2.2681 -1.1059 -0.1691
 6047SOL    HW229601   4.114   1.353   9.115 -1.9888  0.6659  3.6061
 6048SOL     OW29602   0.715   4.253   9.479 -0.1020  0.2709 -0.5074
 6048SOL    HW129603   0.702   4.341   9.442  2.2175 -0.3665 -2.8230
 6048SOL    HW229604   0.629   4.212   9.467  0.2245  0.2923 -2.9226
 6049SOL     OW29605   3.348   2.387   7.116  0.0388  0.1591 -0.5874
 6049SOL    HW129606   3.415   2.349   7.059 -0.0039 -1.3773  0.3784
 6049SOL    HW229607   3.279   2.322   7.130  0.8320 -0.7376 -0.8384
 6050SOL     OW29608   3.631   1.475  15.987  0.2500  0.0297  0.0752
 6050SOL    HW129609   3.704   1.413  15.981 -2.1745 -2.6800 -1.6573
 6050SOL    HW229610   3.622   1.512  15.899 -0.3669 -0.4653 -0.0693
 6051SOL     OW29611   3.913   3.887  12.358  0.3279 -0.1536  0.2379
 6051SOL    HW129612   3.918   3.795  12.332  1.4037 -0.2793  0.8968
 6051SOL    HW229613   3.965   3.922  12.286  0.5643 -1.1426 -0.0771
 6052SOL     OW29614   3.666   1.236   2.374  0.6940  0.4033  0.3043
 6052SOL    HW129615   3.667   1.142   2.390  0.2694  0.2664 -0.4445
 6052SOL    HW229616   3.725   1.242   2.298 -0.8921 -1.5820 -1.0631
 6053SOL     OW29617   0.553   1.494   2.960  0.1867 -0.4597 -0.0862
 6053SOL    HW129618   0.474   1.439   2.955  0.5349 -1.1500  1.8859
 6053SOL    HW229619   0.622   1.432   2.983  0.7318 -0.9459 -2.9948
 6054SOL     OW29620   2.479   3.082   4.332 -0.5661  0.0758 -0.3219
 6054SOL    HW129621   2.433   2.998   4.340  1.6825 -1.4119 -2.9152
 6054SOL    HW229622   2.417   3.147   4.298 -1.2602  0.0957  0.9786
 6055SOL     OW29623   4.161   1.785   2.492 -0.0800 -0.4521  0.1455
 6055SOL    HW129624   4.156   1.702   2.540  2.0633 -0.6412  0.0535
 6055SOL    HW229625   4.254   1.798   2.478 -0.7734  0.4612 -3.3604
 6056SOL     OW29626   1.081   3.786   0.041  0.5028 -0.4135 -0.0861
 6056SOL    HW129627   1.169   3.748   0.037  0.5752 -0.3721  1.2435
 6056SOL    HW229628   1.094   3.846   0.114 -1.1068 -1.1705  0.8184
 6057SOL     OW29629   3.241   1.090  14.406  0.0294  0.1079  0.3878
 6057SOL    HW129630   3.300   1.132  14.469 -0.6685  1.3028  0.2452
 6057SOL    HW229631   3.161   1.143  14.401  0.7621  1.0756 -1.3492
 6058SOL     OW29632   4.313   4.620   8.698  0.4369  0.0316  0.7601
 6058SOL    HW129633   4.306   4.563   8.774  0.4133 -2.6407 -1.2749
 6058SOL    HW229634   4.367   4.692   8.732 -0.1828 -0.7555  3.3351
 6059SOL     OW29635   2.290   1.685   2.218 -1.0102  0.2378 -0.3714
 6059SOL    HW129636   2.241   1.629   2.279 -0.0681 -0.5659 -0.3593
 6059SOL    HW229637   2.338   1.737   2.283  0.6471 -1.1703 -0.4908
 6060SOL     OW29638   4.334   2.742   6.411  0.4591 -0.6119  0.0295
 6060SOL    HW129639   4.428   2.756   6.418  0.1532  2.0344 -1.3527
 6060SOL    HW229640   4.312   2.650   6.424 -1.4198 -0.0760  0.6803
 6061SOL     OW29641   2.156   2.710   0.336  0.2820 -0.0559  0.4196
 6061SOL    HW129642   2.107   2.650   0.393 -0.2305  2.6623  2.8261
 6061SOL    HW229643   2.211   2.649   0.286 -0.0449 -0.5958  0.7186
 6062SOL     OW29644   2.947   1.276   8.760  0.3198  0.1649 -0.1422
 6062SOL    HW129645   2.909   1.362   8.776  1.6730  0.8166 -0.4314
 6062SOL    HW229646   2.896   1.249   8.683 -0.1344 -0.3897  0.3433
 6063SOL     OW29647   4.373   1.237   4.798 -0.4254  0.0763 -0.0221
 6063SOL    HW129648   4.400   1.282   4.879 -2.2408  1.8353 -0.4108
 6063SOL    HW229649   4.383   1.145   4.821  1.4217 -0.1035 -1.5957
 6064SOL     OW29650   2.117   0.316   7.356  0.2856  0.0743  0.0342
 6064SOL    HW129651   2.033   0.306   7.310 -0.8729  0.3374  2.0669
 6064SOL    HW229652   2.144   0.408   7.349  4.8221 -1.1698  1.5762
 6065SOL     OW29653   3.728   0.814  12.629 -0.2771  0.9391 -0.0252
 6065SOL    HW129654   3.680   0.735  12.653  1.5376 -0.2292 -0.2250
 6065SOL    HW229655   3.784   0.829  12.705 -0.4466 -1.6275  0.5987
 6066SOL     OW29656   4.057   0.447   3.469  0.4320  0.2410  0.1957
 6066SOL    HW129657   4.029   0.432   3.559  0.6217  1.6290  0.4898
 6066SOL    HW229658   4.055   0.357   3.438  2.2393  0.5555 -0.8493
 6067SOL     OW29659   4.418   0.422   8.078  0.6783  0.0648 -0.2771
 6067SOL    HW129660   4.495   0.472   8.104  0.1833  0.5981  0.1629
 6067SOL    HW229661   4.405   0.362   8.152 -0.7081  0.5745 -0.0975
 6068SOL     OW29662   4.619   0.190  12.397 -0.2416  0.1772  0.1764
 6068SOL    HW129663   4.614   0.209  12.491 -0.1579  1.2955 -0.0515
 6068SOL    HW229664   4.546   0.128  12.403  0.0534 -0.2945 -1.1528
 6069SOL     OW29665   2.417   4.377   0.714 -0.1855 -0.1395  0.5163
 6069SOL    HW129666   2.458   4.460   0.690  1.1769 -1.0346 -0.2448
 6069SOL    HW229667   2.437   4.345   0.626  3.0112 -1.1956  1.6243
 6070SOL     OW29668   1.868   3.753  14.386 -0.7044 -0.4617  0.7680
 6070SOL    HW129669   1.911   3.712  14.311  0.3898 -0.1341  1.2239
 6070SOL    HW229670   1.951   3.767  14.431  0.0713  0.1698 -0.8516
 6071SOL     OW29671   2.029   0.295   0.643  0.2227 -0.5552  0.1038
 6071SOL    HW129672   1.949   0.250   0.616 -0.8583  1.2199  0.3825
 6071SOL    HW229673   2.093   0.246   0.591 -1.0375 -2.7357  0.6155
 6072SOL     OW29674   0.141   0.138   6.174  0.2105  0.0639 -0.1361
 6072SOL    HW129675   0.048   0.131   6.195  0.6500 -0.8961  1.4422
 6072SOL    HW229676   0.180   0.110   6.257  0.7017  1.3632  0.0719
 6073SOL     OW29677   4.568   0.564   0.167  0.0094  0.1695  0.3164
 6073SOL    HW129678   4.604   0.569   0.255 -0.6852  0.1744  0.5979
 6073SOL    HW229679   4.635   0.609   0.115 -0.7878 -0.4028 -1.2237
 6074SOL     OW29680   3.574   1.045   6.695 -0.5281  0.3598  0.3352
 6074SOL    HW129681   3.573   1.017   6.787  0.9991 -0.7788  0.0092
 6074SOL    HW229682   3.520   0.981   6.648 -0.7147  1.1432 -0.5073
 6075SOL     OW29683   4.452   2.219   8.610  0.3401 -0.4610  0.8640
 6075SOL    HW129684   4.403   2.253   8.535  0.6133 -0.1041  0.8474
 6075SOL    HW229685   4.437   2.125   8.603  2.9879 -0.9241  1.4173
 6076SOL     OW29686   2.056   2.675   9.118  0.2570 -0.3366 -0.4485
 6076SOL    HW129687   2.092   2.644   9.201  0.6080  0.9704 -0.0987
 6076SOL    HW229688   1.976   2.719   9.146 -0.4933 -1.8972 -0.1387
 6077SOL     OW29689   0.423   4.179   2.573  0.0481  0.1465 -0.1800
 6077SOL    HW129690   0.451   4.177   2.481  0.3545 -0.4507 -0.0743
 6077SOL    HW229691   0.505   4.192   2.620  0.3082 -1.0522 -0.3062
 6078SOL     OW29692   0.086   4.450   1.575 -0.1496  0.3156  0.0659
 6078SOL    HW129693   0.118   4.398   1.650 -0.5406  1.2007  0.8486
 6078SOL    HW229694   0.163   4.446   1.519  0.6631  1.3562  1.1099
 6079SOL     OW29695   4.723   1.090   7.869 -0.5611 -0.1330  0.5101
 6079SOL    HW129696   4.695   1.038   7.794 -1.9848 -0.1570  1.0527
 6079SOL    HW229697   0.048   1.017   7.908  1.7086  1.3024  0.3468
 6080SOL     OW29698   0.576   1.527  12.207  0.4127  0.1124 -0.2872
 6080SOL    HW129699   0.571   1.538  12.112  0.1284 -1.3957 -0.4426
 6080SOL    HW229700   0.656   1.474  12.210 -0.3360 -1.0081 -0.1180
 6081SOL     OW29701   1.397   1.917   2.811  0.1106 -0.4210  0.2252
 6081SOL    HW129702   1.404   2.011   2.830  0.1861 -0.0771 -1.5762
 6081SOL    HW229703   1.433   1.882   2.893  0.7011 -1.2887 -0.4178
 6082SOL     OW29704   4.714   2.243   5.617  0.6444 -0.3417 -0.2121
 6082SOL    HW129705   0.060   2.202   5.669  2.1500  0.2576 -1.7335
 6082SOL    HW229706   0.006   2.335   5.639 -1.1065 -0.3745  1.1100
 6083SOL     OW29707   3.786   1.781   7.978  0.0146  0.2354 -0.6744
 6083SOL    HW129708   3.768   1.846   8.046  1.6835  0.9716 -0.9405
 6083SOL    HW229709   3.803   1.703   8.032  1.3476  0.8505 -0.2193
 6084SOL     OW29710   0.579   3.829   2.722  0.3399  0.5092 -0.1999
 6084SOL    HW129711   0.514   3.805   2.789 -1.2905  1.4111 -1.4654
 6084SOL    HW229712   0.535   3.809   2.640  0.6749 -2.8759  0.4672
 6085SOL     OW29713   4.312   3.293  16.921 -0.5704  0.2913 -0.2987
 6085SOL    HW129714   4.344   3.265  16.835  2.0680  0.3171  0.6906
 6085SOL    HW229715   4.395   3.296  16.968 -0.1990  2.2485 -1.0927
 6086SOL     OW29716   0.634   4.246  16.195  0.1650  0.1025 -0.3507
 6086SOL    HW129717   0.675   4.325  16.161 -0.0097  0.2659 -0.1803
 6086SOL    HW229718   0.543   4.272  16.212  0.0321  0.1191 -1.0542
 6087SOL     OW29719   3.759   1.476  15.028  0.0078  0.5676 -0.6047
 6087SOL    HW129720   3.854   1.465  15.022  0.0909  0.4255  0.9195
 6087SOL    HW229721   3.750   1.471  14.933  1.0425 -0.8176 -0.6364
 6088SOL     OW29722   2.465   1.826   5.342  0.3514 -0.5645 -0.7189
 6088SOL    HW129723   2.510   1.911   5.339 -1.6819  0.5894  2.5371
 6088SOL    HW229724   2.541   1.777   5.309 -0.3770 -1.8194 -0.5448
 6089SOL     OW29725   2.535   3.412   2.173 -0.0190  0.3560  0.0535
 6089SOL    HW129726   2.551   3.357   2.097  0.7937  0.8686 -0.1432
 6089SOL    HW229727   2.624   3.411   2.209 -0.3844  3.2368  1.0334
 6090SOL     OW29728   2.039   3.878   4.838  0.0648  0.7702  0.5873
 6090SOL    HW129729   2.065   3.942   4.771  0.8021 -1.4371 -1.2356
 6090SOL    HW229730   2.120   3.830   4.854  0.2223  0.4155 -1.2633
 6091SOL     OW29731   2.209   3.079   5.794 -0.1163 -0.0100 -0.2888
 6091SOL    HW129732   2.284   3.087   5.853 -1.7292 -2.9286  2.0865
 6091SOL    HW229733   2.227   2.993   5.758 -0.7427 -0.2029 -0.1350
 6092SOL     OW29734   1.490   2.288   5.092 -0.6990  0.3059  0.0221
 6092SOL    HW129735   1.425   2.358   5.083 -0.1405  0.7371 -0.6852
 6092SOL    HW229736   1.566   2.320   5.043 -0.7154  1.2573  0.6341
 6093SOL     OW29737   0.915   2.042   4.554  0.4789  0.2197 -0.1108
 6093SOL    HW129738   0.926   2.119   4.497  1.7982  0.3677  0.3450
 6093SOL    HW229739   0.844   2.067   4.613 -1.0423  1.9422 -2.6433
 6094SOL     OW29740   1.774   2.979   8.431  0.1742  0.1224  0.5901
 6094SOL    HW129741   1.814   2.950   8.350  1.5773  2.2503  0.5224
 6094SOL    HW229742   1.766   3.071   8.407  1.8725  0.3469  0.9040
 6095SOL     OW29743   2.341   3.212  16.675 -0.1034 -0.0322  0.2329
 6095SOL    HW129744   2.405   3.262  16.623 -1.1231  0.5458 -0.4628
 6095SOL    HW229745   2.377   3.126  16.654 -0.0500  0.0983 -0.2224
 6096SOL     OW29746   1.613   2.759   8.801  0.7510 -0.0716 -0.4826
 6096SOL    HW129747   1.571   2.822   8.743 -0.9366  0.3297  1.2046
 6096SOL    HW229748   1.615   2.803   8.886 -1.1012  1.6037 -1.2949
 6097SOL     OW29749   2.058   2.883   7.560  0.5597  0.0093  0.0181
 6097SOL    HW129750   1.970   2.904   7.592  0.5286 -0.6114  0.3475
 6097SOL    HW229751   2.073   2.966   7.515  1.1070 -0.3506 -0.4467
 6098SOL     OW29752   0.134   4.026   5.161 -0.0861 -0.2082 -0.1776
 6098SOL    HW129753   0.135   4.066   5.074  1.5775 -1.0665 -0.5566
 6098SOL    HW229754   0.223   3.991   5.164 -0.5023 -1.2561  0.0288
 6099SOL     OW29755   0.199   1.654   3.466  0.1162 -0.2406  0.4615
 6099SOL    HW129756   0.232   1.740   3.438 -2.0405  0.3667 -0.2401
 6099SOL    HW229757   0.118   1.642   3.417  0.7427 -0.5331 -0.5071
 6100SOL     OW29758   1.835   4.429  11.911  0.5146 -0.4714 -0.7702
 6100SOL    HW129759   1.754   4.466  11.877  1.5575  2.1966 -0.3675
 6100SOL    HW229760   1.887   4.425  11.831 -0.2530 -1.2709 -1.2195
 6101SOL     OW29761   0.357   4.711   3.364 -0.0420  0.0559  0.2751
 6101SOL    HW129762   0.322   4.622   3.360  4.2546 -1.5484 -1.8948
 6101SOL    HW229763   0.344   0.011   3.456  2.4656  0.1281  0.6001
 6102SOL     OW29764   4.069   4.296  12.513 -0.0874  0.6679  0.0684
 6102SOL    HW129765   4.005   4.277  12.444 -1.4629 -0.0355  1.5379
 6102SOL    HW229766   4.048   4.222  12.570  0.0287  0.6678  0.1116
 6103SOL     OW29767   1.481   0.776   0.368 -0.1061 -0.3047  0.0259
 6103SOL    HW129768   1.499   0.791   0.275 -0.2550 -0.2919 -0.0015
 6103SOL    HW229769   1.420   0.848   0.386  0.2671  0.2563 -0.9616
 6104SOL     OW29770   2.079   4.370   3.877 -0.1871 -0.0799 -0.1591
 6104SOL    HW129771   2.044   4.458   3.865  0.1644  0.3034  1.5657
 6104SOL    HW229772   2.173   4.386   3.868 -0.0291 -0.8060  0.2558
 6105SOL     OW29773   1.185   2.781   7.307  0.1281  0.1271  0.7303
 6105SOL    HW129774   1.224   2.694   7.295  0.0972 -0.0360  1.7939
 6105SOL    HW229775   1.122   2.761   7.376 -0.2322  2.4503  1.0626
 6106SOL     OW29776   2.710   4.366   7.843  0.3015  0.7588  0.1892
 6106SOL    HW129777   2.797   4.388   7.808 -0.2426  0.8641 -1.0961
 6106SOL    HW229778   2.704   4.419   7.922 -3.0503  1.9950 -0.8981
 6107SOL     OW29779   1.269   0.433  12.374 -0.0609 -0.3199 -0.3515
 6107SOL    HW129780   1.342   0.463  12.428  0.6902 -1.1972 -0.9016
 6107SOL    HW229781   1.222   0.377  12.436 -0.1264 -0.9638 -0.9869
 6108SOL     OW29782   2.317   3.699   2.411 -0.2132  0.0635  0.1992
 6108SOL    HW129783   2.321   3.793   2.393 -2.5442  0.1814  0.2954
 6108SOL    HW229784   2.287   3.669   2.325 -2.6965  3.0531  0.0009
 6109SOL     OW29785   2.341   1.495   3.616 -0.5034  0.2000 -0.0074
 6109SOL    HW129786   2.428   1.483   3.654 -1.2460 -1.5448  1.1507
 6109SOL    HW229787   2.290   1.539   3.684 -3.4272  0.5310 -2.4410
 6110SOL     OW29788   4.157   0.189   4.803 -0.9209  0.0594 -0.3852
 6110SOL    HW129789   4.155   0.151   4.715  0.5271 -2.8849  0.8273
 6110SOL    HW229790   4.250   0.180   4.823 -1.0467  0.5989  0.4450
 6111SOL     OW29791   4.312   2.711   8.263  0.3338 -0.3306  0.2267
 6111SOL    HW129792   4.320   2.669   8.178  0.3252 -0.5200  0.3192
 6111SOL    HW229793   4.380   2.778   8.261 -1.7172  1.7293 -1.7782
 6112SOL     OW29794   4.481   0.448   9.978  0.1356 -0.2503 -0.7278
 6112SOL    HW129795   4.498   0.472   9.887 -2.0432 -2.3010 -1.6635
 6112SOL    HW229796   4.510   0.522  10.031 -2.5327  0.1503  0.1880
 6113SOL     OW29797   2.626   4.269  17.170  0.3871  0.0419 -0.0169
 6113SOL    HW129798   2.619   4.230  17.083 -0.0113 -0.8079  0.3917
 6113SOL    HW229799   2.720   4.283  17.179  0.0379  2.6953 -0.5602
 6114SOL     OW29800   0.111   3.616   4.872  0.2072 -0.6235  0.6018
 6114SOL    HW129801   0.145   3.550   4.811  0.8905 -0.0433  0.3567
 6114SOL    HW229802   0.029   3.642   4.829  1.1030  1.3275  0.0675
 6115SOL     OW29803   1.257   0.813  13.800  0.2002 -0.1680 -0.1592
 6115SOL    HW129804   1.241   0.763  13.880 -0.7289 -0.6648 -0.6661
 6115SOL    HW229805   1.353   0.804  13.803  0.2601 -0.9063 -3.6973
 6116SOL     OW29806   3.208   0.684  14.635  0.1744 -0.7976 -0.0134
 6116SOL    HW129807   3.228   0.775  14.656 -1.8407 -0.3703  0.0029
 6116SOL    HW229808   3.269   0.666  14.564  1.4701 -0.4264  0.9950
 6117SOL     OW29809   0.032   4.190  11.796 -0.4186 -0.3621 -0.3416
 6117SOL    HW129810   4.718   4.123  11.853  1.8770 -0.4839  0.9809
 6117SOL    HW229811   0.024   4.162  11.705 -1.4918  3.0281 -1.2628
 6118SOL     OW29812   2.438   0.463   0.851  0.7308  0.2609 -0.0978
 6118SOL    HW129813   2.381   0.497   0.783 -1.3846 -0.7591  1.1740
 6118SOL    HW229814   2.403   0.377   0.874  3.8766 -0.6802  1.2899
 6119SOL     OW29815   2.491   3.571   4.767 -0.1255  0.0924 -0.3334
 6119SOL    HW129816   2.515   3.596   4.856  3.5426  0.8618 -1.5420
 6119SOL    HW229817   2.579   3.590   4.734  0.5120  0.4815  1.5932
 6120SOL     OW29818   0.121   4.385   2.163  0.1451  0.2100 -0.1510
 6120SOL    HW129819   0.198   4.349   2.208  0.5497  0.8633 -0.3231
 6120SOL    HW229820   0.053   4.319   2.180 -0.2902  0.0248 -2.7503
 6121SOL     OW29821   4.170   4.364   6.779  0.3796 -0.1777  0.1227
 6121SOL    HW129822   4.224   4.298   6.821 -0.6401 -1.4014 -0.4903
 6121SOL    HW229823   4.229   4.430   6.742  1.2583 -0.5734  0.8195
 6122SOL     OW29824   3.085   3.283   7.991 -0.3813 -0.4555  0.3132
 6122SOL    HW129825   3.121   3.356   8.041  0.7614 -0.5322 -0.4036
 6122SOL    HW229826   3.120   3.211   8.043  0.9318  1.3419  1.9409
 6123SOL     OW29827   4.183   0.749   1.540 -0.3231  0.0619  0.6872
 6123SOL    HW129828   4.202   0.790   1.456 -0.1782  1.1393  1.2425
 6123SOL    HW229829   4.238   0.671   1.536  3.2533  2.5443  0.8777
 6124SOL     OW29830   2.763   3.081   2.640 -0.3241  0.3701 -0.1376
 6124SOL    HW129831   2.725   3.160   2.679 -1.7553 -0.4090  0.0315
 6124SOL    HW229832   2.825   3.052   2.707 -0.9065 -1.5476 -0.4296
 6125SOL     OW29833   4.688   3.398   8.953 -0.1579  0.4147  0.1595
 6125SOL    HW129834   4.720   3.339   8.885 -0.8800  0.0888  0.1037
 6125SOL    HW229835   0.045   3.437   8.990 -0.9894  2.2118  0.0854
 6126SOL     OW29836   3.152   2.375   2.708 -0.6869 -0.3698  0.0607
 6126SOL    HW129837   3.172   2.464   2.678 -0.2551  0.1630  1.8848
 6126SOL    HW229838   3.224   2.362   2.770 -2.5151 -1.6099  1.9346
 6127SOL     OW29839   1.783   0.888   2.668  0.1444 -0.6940  0.4397
 6127SOL    HW129840   1.704   0.854   2.627 -1.0678  1.8825  0.6339
 6127SOL    HW229841   1.750   0.969   2.708  1.3678 -0.1562  0.3742
 6128SOL     OW29842   2.214   1.926   1.692  0.0413  0.1167  0.1412
 6128SOL    HW129843   2.306   1.900   1.698  0.4991  1.5018 -1.1209
 6128SOL    HW229844   2.180   1.858   1.634  1.1538 -0.8181  0.5879
 6129SOL     OW29845   0.666   1.412  16.473 -0.8283  0.5955 -0.3366
 6129SOL    HW129846   0.587   1.416  16.527 -0.0416  0.1357  0.8296
 6129SOL    HW229847   0.725   1.456  16.535 -0.7456 -1.7539  1.2409
 6130SOL     OW29848   3.376   4.406   2.953 -0.2199 -0.0032  0.5389
 6130SOL    HW129849   3.324   4.471   3.000 -1.4596 -0.2365 -0.4953
 6130SOL    HW229850   3.435   4.366   3.016 -0.7307  0.6259  1.4125
 6131SOL     OW29851   2.639   4.049   7.062 -0.7573  0.5328 -0.2111
 6131SOL    HW129852   2.637   4.133   7.016 -0.2029 -0.6614 -2.3862
 6131SOL    HW229853   2.577   4.065   7.133  0.1436 -0.6695  0.8466
 6132SOL     OW29854   2.647   3.848   4.759 -0.0535 -0.4550 -0.2565
 6132SOL    HW129855   2.671   3.756   4.750  1.8073 -0.0804  0.9705
 6132SOL    HW229856   2.723   3.892   4.720 -1.1859  2.2282  0.5682
 6133SOL     OW29857   3.524   4.218   7.571 -0.4038  0.3836  0.1616
 6133SOL    HW129858   3.531   4.128   7.600  0.1118  0.0133 -1.0918
 6133SOL    HW229859   3.436   4.225   7.532  0.0693  1.4949 -0.7088
 6134SOL     OW29860   2.033   0.090   4.777 -0.0926  0.2221  0.2511
 6134SOL    HW129861   1.961   0.061   4.834 -0.3296  0.0669 -0.1194
 6134SOL    HW229862   2.109   0.085   4.834  0.3482  0.4686 -0.3079
 6135SOL     OW29863   4.057   0.493  13.538  0.1894 -0.5954  0.5391
 6135SOL    HW129864   4.019   0.577  13.564 -0.0528  0.4255 -3.1403
 6135SOL    HW229865   3.986   0.433  13.518 -0.7957 -0.3356  3.1805
 6136SOL     OW29866   3.813   0.999   6.262 -0.1660 -0.0614 -0.6211
 6136SOL    HW129867   3.758   1.051   6.321  1.8657 -0.4973  1.6957
 6136SOL    HW229868   3.818   0.927   6.325  0.6469 -0.8014 -1.5296
 6137SOL     OW29869   0.260   3.573   9.814  0.0967  0.0476  0.4380
 6137SOL    HW129870   0.229   3.595   9.726 -0.9634 -3.7989 -0.1533
 6137SOL    HW229871   0.349   3.610   9.815 -0.0455  0.3838  0.5143
 6138SOL     OW29872   1.545   3.372   6.175 -0.2954 -0.8258  0.1204
 6138SOL    HW129873   1.588   3.436   6.231  0.1012 -2.1015  1.2481
 6138SOL    HW229874   1.454   3.402   6.183 -0.6668 -2.7182  2.9545
 6139SOL     OW29875   2.851   1.934   5.959 -0.0084  0.5674  0.1856
 6139SOL    HW129876   2.847   2.013   5.905  0.2283 -0.5247 -1.4235
 6139SOL    HW229877   2.943   1.918   5.979 -0.0874 -1.2804 -0.8583
 6140SOL     OW29878   2.775   1.034   3.943 -0.0722 -0.0274  0.0644
 6140SOL    HW129879   2.813   1.117   3.915  1.1574 -0.7216 -0.3262
 6140SOL    HW229880   2.850   0.977   3.925 -0.7715 -0.3138 -1.9626
 6141SOL     OW29881   0.891   2.178   8.980  0.3063  0.0159 -0.0096
 6141SOL    HW129882   0.969   2.221   8.945  0.2946 -0.3724 -0.5108
 6141SOL    HW229883   0.888   2.098   8.928 -1.1464 -1.2328  1.9762
 6142SOL     OW29884   4.496   3.088  15.760 -0.1714 -0.0223 -0.3053
 6142SOL    HW129885   4.528   3.067  15.672  1.7780  0.0646  0.3760
 6142SOL    HW229886   4.482   2.999  15.792  0.3372  1.0582  2.8382
 6143SOL     OW29887   4.694   0.546   0.403 -0.0813 -0.3959 -0.4326
 6143SOL    HW129888   0.011   0.481   0.460 -0.9804 -1.7153 -1.3034
 6143SOL    HW229889   4.693   0.616   0.469 -0.4485  0.0459 -0.9017
 6144SOL     OW29890   1.553   4.131  17.430  0.5125 -0.4588  0.1245
 6144SOL    HW129891   1.558   4.222  17.459 -2.2347 -0.1004 -0.4932
 6144SOL    HW229892   1.646   4.110  17.426  0.8303  1.0365 -0.3084
 6145SOL     OW29893   2.119   1.354   4.324  0.0012  0.6170  0.1733
 6145SOL    HW129894   2.111   1.423   4.258 -1.8534 -0.8200 -1.1050
 6145SOL    HW229895   2.113   1.402   4.407 -0.4811  1.0150 -0.0925
 6146SOL     OW29896   1.457   3.303   4.066 -0.4063  0.3734 -0.4909
 6146SOL    HW129897   1.390   3.238   4.087 -0.1742  0.8022  1.5536
 6146SOL    HW229898   1.417   3.380   4.106 -1.8032 -0.2873 -0.6309
 6147SOL     OW29899   3.796   2.254   9.388  0.2247 -0.1756 -0.5893
 6147SOL    HW129900   3.795   2.344   9.356 -0.7354 -0.1119 -0.3544
 6147SOL    HW229901   3.862   2.222   9.326  1.6939 -0.6082  1.2059
 6148SOL     OW29902   1.126   1.997   2.848 -0.5191 -0.1808  0.5425
 6148SOL    HW129903   1.132   2.061   2.919 -0.5474 -2.8913  2.9624
 6148SOL    HW229904   1.218   1.981   2.828 -0.1007  0.8165  1.6712
 6149SOL     OW29905   2.422   2.867   6.405 -0.9424 -0.7379 -0.3327
 6149SOL    HW129906   2.492   2.816   6.365 -0.4475  0.5108 -1.0488
 6149SOL    HW229907   2.393   2.923   6.333 -2.1992  0.8065  1.3677
 6150SOL     OW29908   1.375   4.540   3.947  0.0170 -0.0715  0.5896
 6150SOL    HW129909   1.467   4.561   3.933 -0.2170  1.8836  1.9737
 6150SOL    HW229910   1.363   4.592   4.026  2.2956  1.5448 -0.1174
 6151SOL     OW29911   2.264   3.088   8.092 -0.5695 -0.6966 -0.2561
 6151SOL    HW129912   2.296   3.002   8.063  2.6274  0.5689 -0.4740
 6151SOL    HW229913   2.208   3.051   8.160 -0.3277 -1.2158 -0.3320
 6152SOL     OW29914   1.564   3.091   6.090 -0.4431  0.2508  0.1770
 6152SOL    HW129915   1.548   3.163   6.151 -0.4113  0.1125  0.3508
 6152SOL    HW229916   1.656   3.079   6.117 -0.3125  0.0305 -0.3668
 6153SOL     OW29917   3.058   3.667   6.410  0.0678 -0.3226  0.3195
 6153SOL    HW129918   3.145   3.705   6.419  0.0035  0.2165 -1.3429
 6153SOL    HW229919   3.040   3.681   6.503  0.7652  1.7114  0.1441
 6154SOL     OW29920   0.245   4.207  14.297  0.2167  0.5359 -0.0129
 6154SOL    HW129921   0.336   4.232  14.315 -0.5510  1.3708  2.5673
 6154SOL    HW229922   0.235   4.245  14.209 -1.4929 -4.0089 -1.7744
 6155SOL     OW29923   1.034   2.655   2.010  0.9458 -0.3840  0.9631
 6155SOL    HW129924   0.998   2.742   1.993  1.4709 -0.2925  0.3039
 6155SOL    HW229925   0.960   2.600   2.037 -0.5232  2.0962  2.0299
 6156SOL     OW29926   2.995   1.428   3.493 -0.2954  0.1305  0.0594
 6156SOL    HW129927   2.915   1.480   3.502 -0.0799  0.1210  2.1893
 6156SOL    HW229928   2.990   1.408   3.400 -2.9434 -0.0145  0.2405
 6157SOL     OW29929   0.389   0.262   3.438 -0.2960  0.1831  0.4935
 6157SOL    HW129930   0.299   0.264   3.472 -0.3570 -0.0637  0.3442
 6157SOL    HW229931   0.396   0.187   3.378 -2.4971  0.7642 -0.5077
 6158SOL     OW29932   1.985   4.205   2.375 -0.3594 -0.3315 -0.3778
 6158SOL    HW129933   2.067   4.253   2.367 -1.5139  1.7215  0.1454
 6158SOL    HW229934   1.991   4.164   2.288  2.1175 -0.1502 -0.2812
 6159SOL     OW29935   2.995   3.024   9.112  0.1765 -0.7219  0.3520
 6159SOL    HW129936   2.923   2.973   9.075  0.2194 -0.4268 -0.1417
 6159SOL    HW229937   3.044   2.955   9.156  1.5416 -0.7956 -1.3137
 6160SOL     OW29938   0.861   0.270   3.829  0.1527 -0.2159  0.0863
 6160SOL    HW129939   0.868   0.343   3.767 -0.9744  1.0693  1.4520
 6160SOL    HW229940   0.915   0.303   3.901 -0.7814  1.2843  0.0962
 6161SOL     OW29941   4.399   0.160  14.128 -0.0941  0.2815  0.2245
 6161SOL    HW129942   4.490   0.163  14.099 -0.1742 -1.1108 -0.1600
 6161SOL    HW229943   4.363   0.231  14.075 -1.0136 -0.3303  0.0287
 6162SOL     OW29944   1.847   3.597   7.115 -0.2917 -0.7274 -0.2882
 6162SOL    HW129945   1.866   3.687   7.088 -0.4264 -0.6756 -0.2115
 6162SOL    HW229946   1.919   3.542   7.083 -0.3282 -0.0078 -1.6051
 6163SOL     OW29947   0.969   4.318   2.609  0.4567  0.2425  0.0585
 6163SOL    HW129948   0.980   4.401   2.562 -1.3155  0.8144  0.6914
 6163SOL    HW229949   1.003   4.336   2.696  0.8908  2.2479 -0.5230
 6164SOL     OW29950   1.613   0.213   4.880  0.3149 -0.3569 -0.0135
 6164SOL    HW129951   1.580   0.276   4.815  0.3838 -0.5013 -0.1865
 6164SOL    HW229952   1.675   0.264   4.932  0.5785  0.0964 -0.7905
 6165SOL     OW29953   3.241   2.157   2.556  0.0271  0.1878 -0.3241
 6165SOL    HW129954   3.220   2.179   2.465 -1.8528 -2.6175 -0.5907
 6165SOL    HW229955   3.196   2.228   2.601  0.8385 -1.6785  3.3994
 6166SOL     OW29956   0.420   1.168   4.676 -0.2820 -0.1170  0.0696
 6166SOL    HW129957   0.436   1.262   4.673  0.2957 -0.2060  0.2930
 6166SOL    HW229958   0.503   1.150   4.721  1.2507  1.7441 -2.0355
 6167SOL     OW29959   1.978   2.744  14.380  0.2599 -0.1790  0.0287
 6167SOL    HW129960   1.965   2.666  14.433  1.0849 -1.3328 -1.4571
 6167SOL    HW229961   1.974   2.814  14.445 -1.6247  0.4190 -0.7254
 6168SOL     OW29962   4.082   3.059  12.807 -0.0424  0.1882  0.5790
 6168SOL    HW129963   4.138   3.010  12.867 -2.4022 -1.6384  1.3508
 6168SOL    HW229964   4.078   3.145  12.847  0.8400 -0.0329  1.1357
 6169SOL     OW29965   0.792   3.679   8.849 -0.2437  0.4946  0.5377
 6169SOL    HW129966   0.879   3.718   8.856  0.3282 -1.0254  1.7306
 6169SOL    HW229967   0.766   3.691   8.941 -0.1517  0.0457  0.6203
 6170SOL     OW29968   0.187   4.457   0.224  1.0585  0.4307  0.3290
 6170SOL    HW129969   0.121   4.412   0.277  0.3619  0.7997 -0.2193
 6170SOL    HW229970   0.154   4.547   0.231  0.8936  0.1872  2.6307
 6171SOL     OW29971   1.211   3.746   2.091 -0.3629  0.3488 -0.2918
 6171SOL    HW129972   1.261   3.826   2.099  0.0126  0.2534 -1.6931
 6171SOL    HW229973   1.252   3.719   2.009 -0.7685  0.9125 -0.6779
 6172SOL     OW29974   1.673   2.502  15.313 -0.3158  0.6450 -0.6745
 6172SOL    HW129975   1.631   2.581  15.345 -0.3791  0.9100 -1.3966
 6172SOL    HW229976   1.737   2.490  15.383 -1.4502 -1.0828  0.0666
 6173SOL     OW29977   1.723   0.076   8.082 -0.0215  0.5787 -0.2934
 6173SOL    HW129978   1.675   0.099   8.162  2.1331  1.0005  0.8892
 6173SOL    HW229979   1.652   0.056   8.022  0.5475  0.3571 -0.8886
 6174SOL     OW29980   0.653   1.012   3.596  0.1230  0.3979  0.3143
 6174SOL    HW129981   0.558   1.010   3.597  0.1700 -1.4912  1.1000
 6174SOL    HW229982   0.671   0.983   3.507 -2.0809  3.5343 -1.1227
 6175SOL     OW29983   2.341   2.252   2.421  0.6101  0.5176 -0.1528
 6175SOL    HW129984   2.257   2.291   2.399 -0.0189 -0.2751  0.8823
 6175SOL    HW229985   2.350   2.310   2.497 -0.6520  2.2530 -1.3437
 6176SOL     OW29986   1.478   0.391   4.706  0.0831 -0.2004  0.1454
 6176SOL    HW129987   1.511   0.466   4.756  3.0777 -1.4523 -0.0095
 6176SOL    HW229988   1.383   0.404   4.710  0.1367 -0.1341  1.1719
 6177SOL     OW29989   2.556   0.237   7.543  0.2274 -0.1473 -0.0094
 6177SOL    HW129990   2.618   0.306   7.520  0.2399  0.4830  1.8938
 6177SOL    HW229991   2.487   0.295   7.574  0.3464  0.4403 -0.8574
 6178SOL     OW29992   1.497   1.681   0.946  0.5484 -0.1296 -0.1966
 6178SOL    HW129993   1.590   1.693   0.929  0.5460 -0.7880 -0.6650
 6178SOL    HW229994   1.491   1.721   1.033  1.6040 -0.3882 -0.0085
 6179SOL     OW29995   0.746   1.795   4.282  0.4827  0.8289 -0.6941
 6179SOL    HW129996   0.714   1.850   4.354  0.4662  0.5801 -0.5131
 6179SOL    HW229997   0.705   1.712   4.308 -0.2951  1.7857  1.1971
 6180SOL     OW29998   3.073   3.376  15.320  0.0470  0.0025 -0.3371
 6180SOL    HW129999   3.133   3.307  15.290 -1.1223 -1.6535  1.0998
 6180SOL    HW230000   3.059   3.365  15.414  0.5526  1.3113 -0.1115
 6181SOL     OW30001   3.860   3.061   2.721 -0.2354  0.3704 -0.5186
 6181SOL    HW130002   3.856   3.003   2.646 -0.8763  2.0554 -1.7956
 6181SOL    HW230003   3.786   3.120   2.704 -0.1121  0.3564 -1.0771
 6182SOL     OW30004   4.562   0.602   4.131 -0.1432 -0.1352  0.1181
 6182SOL    HW130005   4.616   0.652   4.070  0.0087 -1.4601 -0.8417
 6182SOL    HW230006   4.548   0.523   4.078 -2.3299  0.4864 -0.2095
 6183SOL     OW30007   1.735   1.459   1.944  0.4904  0.6333 -0.3858
 6183SOL    HW130008   1.816   1.436   1.990 -0.0909  1.6993  1.1635
 6183SOL    HW230009   1.668   1.464   2.013  0.8332 -0.9995  0.0679
 6184SOL     OW30010   0.011   2.350  17.454 -0.5638 -0.1657 -0.4358
 6184SOL    HW130011   0.101   2.356  17.424 -0.1742  0.0353  0.7785
 6184SOL    HW230012   4.716   2.438  17.487 -3.4763 -0.9737  0.1711
 6185SOL     OW30013   2.573   4.644   9.332  0.5614 -0.1621  0.0811
 6185SOL    HW130014   2.509   4.627   9.263 -0.5926 -0.8866  1.3302
 6185SOL    HW230015   2.636   4.574   9.316  0.2408 -0.2347 -0.8798
 6186SOL     OW30016   1.668   1.423  12.918  0.4960 -0.4892 -0.5712
 6186SOL    HW130017   1.600   1.489  12.904  0.1701 -0.5706  0.6774
 6186SOL    HW230018   1.754   1.466  12.913 -1.1306  2.9507  1.4502
 6187SOL     OW30019   0.920   4.696   4.441  0.0181 -0.0542  0.3410
 6187SOL    HW130020   0.875   4.613   4.456  1.2787 -0.4800  1.7541
 6187SOL    HW230021   0.979   4.708   4.516  0.9158  0.3498 -0.4410
 6188SOL     OW30022   3.448   2.388   7.760  0.4017 -0.1735 -0.1280
 6188SOL    HW130023   3.513   2.398   7.691 -2.5850 -1.6355 -3.1615
 6188SOL    HW230024   3.488   2.331   7.826  0.9585  0.6049  0.2075
 6189SOL     OW30025   2.046   4.386   6.993 -0.0266  0.5959  0.6903
 6189SOL    HW130026   2.060   4.396   7.087 -2.0517  0.0239  1.0396
 6189SOL    HW230027   1.968   4.436   6.970  0.4790  1.0299 -0.0894
 6190SOL     OW30028   4.462   3.636   8.018 -0.0959 -0.4961  0.1200
 6190SOL    HW130029   4.429   3.644   7.928 -0.0469 -2.3908 -0.0698
 6190SOL    HW230030   4.413   3.709   8.056 -2.7846 -2.1530 -0.1418
 6191SOL     OW30031   0.577   3.546   4.695  0.0656  0.2022  0.3299
 6191SOL    HW130032   0.643   3.554   4.763  0.4997 -0.4136 -0.0192
 6191SOL    HW230033   0.625   3.587   4.624  0.3343 -1.2840 -0.3566
 6192SOL     OW30034   0.416   2.650  12.954 -0.5173  0.9311 -0.7238
 6192SOL    HW130035   0.346   2.604  13.001  0.4514 -1.2387 -1.4114
 6192SOL    HW230036   0.395   2.622  12.865 -0.2550 -0.0717 -0.4617
 6193SOL     OW30037   3.462   1.496   9.644  0.1505  0.3198  0.3736
 6193SOL    HW130038   3.423   1.498   9.731  3.2500  0.3470  1.7551
 6193SOL    HW230039   3.398   1.547   9.595 -0.9373  1.4170  2.9894
 6194SOL     OW30040   1.595   1.806  15.343  0.0549 -0.0333  0.1886
 6194SOL    HW130041   1.664   1.748  15.375  1.2343  0.6776 -1.1024
 6194SOL    HW230042   1.631   1.878  15.393  1.4574 -1.6293  1.4781
 6195SOL     OW30043   3.713   3.655   2.318  0.2926  0.4393 -0.2127
 6195SOL    HW130044   3.634   3.706   2.304  0.4506  0.6428 -0.3590
 6195SOL    HW230045   3.713   3.657   2.414  2.4532  1.8112 -0.2408
 6196SOL     OW30046   3.610   2.079   3.073 -0.4511  0.5667 -0.0576
 6196SOL    HW130047   3.636   2.060   2.983 -2.1438  0.4442 -0.5292
 6196SOL    HW230048   3.676   2.146   3.093 -0.2495  0.0287  1.1263
 6197SOL     OW30049   0.326   3.739  13.031 -0.0045 -0.0380  0.1765
 6197SOL    HW130050   0.260   3.750  12.962 -0.1708  2.5909  0.7548
 6197SOL    HW230051   0.392   3.794  12.989  0.5987 -2.2198 -1.7504
 6198SOL     OW30052   3.386   4.713   6.172 -0.1227  0.3324  0.4375
 6198SOL    HW130053   3.469   4.683   6.135 -0.5433  1.1832 -1.1911
 6198SOL    HW230054   3.383   0.085   6.161  0.1626  0.5091  1.9188
 6199SOL     OW30055   1.038   1.032   7.313 -0.3223  0.6007 -0.3295
 6199SOL    HW130056   0.945   1.047   7.294 -0.2867 -0.2798 -1.1887
 6199SOL    HW230057   1.054   0.947   7.271  2.0505  0.9886 -0.2116
 6200SOL     OW30058   4.677   2.720  15.575 -0.5060  0.2608 -0.5664
 6200SOL    HW130059   4.587   2.750  15.561 -0.4111  1.1951  0.8303
 6200SOL    HW230060   4.711   2.794  15.525 -1.8008  0.2699 -1.4435
 6201SOL     OW30061   3.778   0.538   3.427 -0.1905 -0.0235 -0.3178
 6201SOL    HW130062   3.873   0.541   3.415 -0.2595 -0.8882 -1.0878
 6201SOL    HW230063   3.772   0.527   3.522  1.1194  3.9043  0.2409
 6202SOL     OW30064   0.476   1.786   0.426  0.0974 -0.2732  0.1004
 6202SOL    HW130065   0.462   1.739   0.508  0.8962  2.1433  1.6288
 6202SOL    HW230066   0.409   1.854   0.430 -1.9847 -2.2403 -1.3481
 6203SOL     OW30067   3.387   1.188   3.681  0.0735  0.4104 -0.1684
 6203SOL    HW130068   3.331   1.258   3.649  1.0621  0.7580 -1.1439
 6203SOL    HW230069   3.450   1.238   3.734  1.0112 -0.9040 -0.0127
 6204SOL     OW30070   2.869   2.458  14.980 -0.1683  0.0255 -0.4269
 6204SOL    HW130071   2.878   2.387  15.043  0.0344  2.8806  2.7503
 6204SOL    HW230072   2.920   2.525  15.025  0.6848 -0.7439 -0.2541
 6205SOL     OW30073   0.764   4.442   2.223  0.1651 -0.4012  0.2390
 6205SOL    HW130074   0.846   4.487   2.202  0.1741 -0.3804  0.3177
 6205SOL    HW230075   0.772   4.443   2.319 -2.4268  1.3092  0.4486
 6206SOL     OW30076   3.485   3.138  12.263  0.2622 -0.4262  0.3869
 6206SOL    HW130077   3.541   3.098  12.330 -1.5473  0.7772  2.6288
 6206SOL    HW230078   3.537   3.218  12.254  0.3966 -0.5336  0.2212
 6207SOL     OW30079   1.082   3.379   8.251 -0.4673 -0.3201  0.5494
 6207SOL    HW130080   0.995   3.342   8.241  0.4050 -2.8784  2.2565
 6207SOL    HW230081   1.147   3.310   8.237 -1.1760 -0.2875 -2.8568
 6208SOL     OW30082   3.984   0.523  10.047 -0.5183  0.2562  0.0999
 6208SOL    HW130083   4.038   0.476   9.984 -1.3347  0.5533 -0.8232
 6208SOL    HW230084   3.898   0.481  10.042 -0.1217 -0.5718  0.2291
 6209SOL     OW30085   2.323   1.031  11.311 -0.2522 -0.1278  0.4148
 6209SOL    HW130086   2.233   1.003  11.296 -0.5658  1.3050 -0.3905
 6209SOL    HW230087   2.325   1.052  11.404 -1.3932  0.6133  0.2772
 6210SOL     OW30088   4.551   3.314   2.468 -0.3561 -0.1021  0.0938
 6210SOL    HW130089   4.528   3.386   2.410 -1.6139 -0.1287  0.5526
 6210SOL    HW230090   4.645   3.301   2.461 -0.2264  0.5862  0.5981
 6211SOL     OW30091   0.993   2.835   7.767  0.0219 -0.5390 -0.0917
 6211SOL    HW130092   0.918   2.875   7.810  0.9479 -0.4008  1.3744
 6211SOL    HW230093   0.981   2.886   7.686  0.2932 -1.3604 -0.6531
 6212SOL     OW30094   4.658   0.190  14.048 -0.2665 -0.4759  0.2549
 6212SOL    HW130095   4.687   0.131  13.979 -1.6690  1.0942 -1.6839
 6212SOL    HW230096   4.714   0.164  14.122 -0.4695  1.0323  0.9387
 6213SOL     OW30097   2.669   2.714   1.842  0.1011  0.3674  0.1332
 6213SOL    HW130098   2.602   2.649   1.821 -0.8265  1.3366  0.0977
 6213SOL    HW230099   2.733   2.660   1.887  0.0781 -1.2243 -1.7701
 6214SOL     OW30100   2.033   3.796   1.840 -0.2028  0.1001  0.6047
 6214SOL    HW130101   1.944   3.832   1.846 -0.5370 -0.5137 -0.5369
 6214SOL    HW230102   2.052   3.767   1.929 -0.5326 -0.7560  0.4012
 6215SOL     OW30103   1.357   4.215   8.174 -0.6073  0.4618  0.4057
 6215SOL    HW130104   1.370   4.245   8.264 -0.3015 -2.4060  1.3155
 6215SOL    HW230105   1.268   4.181   8.172  0.0840 -1.2982 -0.8511
 6216SOL     OW30106   1.460   2.450   8.165  0.3305  0.6406  0.1279
 6216SOL    HW130107   1.442   2.544   8.158 -1.1174  0.5121  2.0728
 6216SOL    HW230108   1.548   2.459   8.202  0.1572 -1.6985  1.1008
 6217SOL     OW30109   1.796   4.549   8.589 -0.2767  0.3193 -0.2532
 6217SOL    HW130110   1.833   4.541   8.677  1.0757  0.6061 -0.7997
 6217SOL    HW230111   1.875   4.572   8.539  1.3102  2.1563  3.1644
 6218SOL     OW30112   4.339   4.239   5.111 -0.4173 -0.1952 -0.2004
 6218SOL    HW130113   4.397   4.315   5.115  2.1271 -2.1178 -1.2967
 6218SOL    HW230114   4.348   4.199   5.198 -1.1973  0.3495  0.1380
 6219SOL     OW30115   3.566   0.667   4.588 -0.0136 -0.5376 -0.2809
 6219SOL    HW130116   3.564   0.607   4.662  2.1169  0.6576  0.7320
 6219SOL    HW230117   3.572   0.598   4.522 -2.3880 -0.7607 -0.2703
 6220SOL     OW30118   3.822   0.132   8.855 -0.1626 -0.0228 -0.3427
 6220SOL    HW130119   3.848   0.213   8.897 -0.1671  0.7116 -1.7483
 6220SOL    HW230120   3.771   0.095   8.927 -1.5657  0.2117 -1.2123
 6221SOL     OW30121   0.868   4.019   1.059 -1.0635  0.0949  0.2601
 6221SOL    HW130122   0.929   3.956   1.098 -1.6248  0.2342  1.3708
 6221SOL    HW230123   0.861   3.992   0.968  0.7046  0.6474 -0.0564
 6222SOL     OW30124   1.236   2.486   7.640 -0.1129  0.2449 -0.0849
 6222SOL    HW130125   1.269   2.575   7.653  1.5379 -0.3008 -0.5123
 6222SOL    HW230126   1.213   2.490   7.547 -1.8069 -1.2570  0.2652
 6223SOL     OW30127   0.717   2.859   3.892 -0.3533 -0.2735 -0.2347
 6223SOL    HW130128   0.625   2.832   3.881 -0.1132 -1.1540 -0.1182
 6223SOL    HW230129   0.741   2.848   3.984  0.8735 -2.0809 -0.7674
 6224SOL     OW30130   4.423   4.198   2.323 -0.0923 -0.2397 -0.0989
 6224SOL    HW130131   4.414   4.289   2.349  1.3384 -0.3806  0.8789
 6224SOL    HW230132   4.516   4.185   2.342 -0.6093 -0.3362  2.3609
 6225SOL     OW30133   2.246   4.157   4.140 -0.7387 -0.3306 -0.2349
 6225SOL    HW130134   2.160   4.131   4.174  1.0320 -1.7031  3.1158
 6225SOL    HW230135   2.218   4.234   4.091 -1.1036 -0.7087 -0.6292
 6226SOL     OW30136   1.815   2.531  13.700  0.2952  0.0861 -0.0596
 6226SOL    HW130137   1.874   2.519  13.626 -0.4993  0.9748 -0.8380
 6226SOL    HW230138   1.846   2.610  13.744  0.3277  0.7906 -1.3334
 6227SOL     OW30139   1.944   0.246   4.582 -1.0059  0.2088  0.0950
 6227SOL    HW130140   1.993   0.190   4.522 -1.3973 -0.4159  0.3634
 6227SOL    HW230141   1.966   0.199   4.663  0.7321  0.4065 -0.2617
 6228SOL     OW30142   0.114   4.685   0.007  0.4481  0.3424  0.0544
 6228SOL    HW130143   0.104   0.052  17.669 -0.4049  0.2632  0.1140
 6228SOL    HW230144   0.113   4.695   0.102  0.4033  0.5309  0.0341
 6229SOL     OW30145   4.420   2.107   6.686 -0.2938 -0.9115  0.2458
 6229SOL    HW130146   4.375   2.109   6.770 -2.3948  0.9479 -0.9107
 6229SOL    HW230147   4.367   2.051   6.630 -0.3832 -1.9137  1.3552
 6230SOL     OW30148   1.528   3.939  10.343 -0.0389  0.4340 -0.1049
 6230SOL    HW130149   1.434   3.924  10.330 -0.3676  0.9759  1.6587
 6230SOL    HW230150   1.529   3.922  10.437 -1.4821  0.0544 -0.1472
 6231SOL     OW30151   2.191   3.946  17.523 -0.1357  0.0577 -0.7431
 6231SOL    HW130152   2.265   3.888  17.542 -0.4224  0.4888  1.8081
 6231SOL    HW230153   2.118   3.904  17.569  0.6193 -0.0910  0.3311
 6232SOL     OW30154   0.330   0.300   7.020 -0.5748 -0.1471 -0.3576
 6232SOL    HW130155   0.330   0.204   7.017 -0.6811 -0.1182 -1.2001
 6232SOL    HW230156   0.406   0.321   7.074 -0.3941  0.6525 -0.9219
 6233SOL     OW30157   2.252   3.969   2.349  0.5144  0.1187 -0.0840
 6233SOL    HW130158   2.312   4.026   2.301  1.7120  0.4075  1.7855
 6233SOL    HW230159   2.174   3.988   2.295 -0.0070  0.3259  0.7448
 6234SOL     OW30160   1.514   4.536   5.693  0.5756 -0.4849  0.6221
 6234SOL    HW130161   1.517   4.562   5.785  2.5607 -0.1650  0.4559
 6234SOL    HW230162   1.607   4.541   5.674  0.1239  1.1637 -1.1152
 6235SOL     OW30163   0.759   3.999   4.473  0.0278 -0.1215  0.0129
 6235SOL    HW130164   0.823   4.068   4.491 -1.5385  1.5867 -1.0007
 6235SOL    HW230165   0.688   4.054   4.440 -0.2988  0.0336  0.9842
 6236SOL     OW30166   0.152   3.373   4.024  0.4753  0.1443  0.1884
 6236SOL    HW130167   0.149   3.389   4.118 -0.5446 -1.9783  0.5131
 6236SOL    HW230168   0.064   3.347   3.998  0.5779 -0.5661  0.5723
 6237SOL     OW30169   1.383   0.151   3.302 -0.4806  0.1070 -0.2402
 6237SOL    HW130170   1.419   0.184   3.384 -1.1476 -0.3345  0.2416
 6237SOL    HW230171   1.304   0.114   3.342 -0.1164  1.0848  1.3626
 6238SOL     OW30172   0.039   4.161   1.245 -0.3946  0.2446 -0.3681
 6238SOL    HW130173   0.028   4.254   1.227  0.4094  0.3539 -0.2972
 6238SOL    HW230174   4.703   4.158   1.320 -0.8307  1.6506 -0.6549
 6239SOL     OW30175   0.629   2.917   5.537 -0.6223  0.2263 -0.4145
 6239SOL    HW130176   0.675   2.959   5.465  1.2490 -0.5842  0.3077
 6239SOL    HW230177   0.545   2.907   5.493 -1.4483 -2.0886  1.7097
 6240SOL     OW30178   4.659   0.533   8.711 -0.3571  0.2160  0.1222
 6240SOL    HW130179   4.681   0.620   8.743  1.1870  0.0519 -0.4736
 6240SOL    HW230180   0.012   0.518   8.654 -0.1807  0.4052  0.3081
 6241SOL     OW30181   1.311   2.597  10.910 -0.3052 -0.1848  0.3652
 6241SOL    HW130182   1.296   2.514  10.954  1.3345 -2.0441 -2.5958
 6241SOL    HW230183   1.407   2.601  10.916 -0.1986  0.2042 -1.4622
 6242SOL     OW30184   2.556   1.190   5.092 -0.1592 -0.0769 -0.3160
 6242SOL    HW130185   2.642   1.150   5.081  0.0422  0.1649  0.3367
 6242SOL    HW230186   2.555   1.179   5.187 -1.9297 -0.1506 -0.3387
 6243SOL     OW30187   0.059   0.770   7.266 -0.3090 -0.2289  0.2027
 6243SOL    HW130188   0.145   0.809   7.250 -0.9273  0.3977 -1.6401
 6243SOL    HW230189   0.003   0.823   7.210 -0.6674  1.5603  2.2755
 6244SOL     OW30190   0.832   0.140   3.152 -0.0219 -0.3817  0.3828
 6244SOL    HW130191   0.751   0.149   3.102 -0.3148  4.1842  1.6540
 6244SOL    HW230192   0.885   0.086   3.093  3.0630  1.8622  1.1107
 6245SOL     OW30193   2.873   1.249   6.765  0.4637 -0.0016  0.1551
 6245SOL    HW130194   2.839   1.165   6.736  0.3069  0.0498  0.1905
 6245SOL    HW230195   2.915   1.292   6.690 -1.0409  0.7217 -0.2769
 6246SOL     OW30196   0.017   2.497   2.007  0.6739 -0.4379 -0.1574
 6246SOL    HW130197   4.654   2.518   2.044 -0.3621 -0.2192 -2.7452
 6246SOL    HW230198   0.028   2.562   1.938 -0.9868  0.0316  0.0095
 6247SOL     OW30199   2.728   2.937   0.914  0.5227  0.2513 -0.4192
 6247SOL    HW130200   2.707   2.952   1.006 -0.3452  0.9588 -0.7350
 6247SOL    HW230201   2.824   2.937   0.911  0.4957  0.3590 -1.2771
 6248SOL     OW30202   0.612   0.359   2.182  0.6268  0.1189  0.1409
 6248SOL    HW130203   0.668   0.285   2.158 -0.4389 -1.2488  1.9152
 6248SOL    HW230204   0.634   0.432   2.124  0.9378 -1.5218 -1.8288
 6249SOL     OW30205   3.163   2.399   3.820  0.7349 -0.4003  0.3038
 6249SOL    HW130206   3.137   2.382   3.910  0.1699 -0.2905  0.1567
 6249SOL    HW230207   3.241   2.453   3.838 -0.2137  0.6105  1.3979
 6250SOL     OW30208   4.469   1.499   7.676 -0.3681 -0.6679 -0.0460
 6250SOL    HW130209   4.527   1.481   7.750 -0.2940  2.2886  0.5981
 6250SOL    HW230210   4.390   1.529   7.721  0.2899 -2.0161  2.0082
 6251SOL     OW30211   0.510   2.338   1.876 -0.0271  0.8009 -0.4294
 6251SOL    HW130212   0.569   2.408   1.848  0.6695  0.7191  0.8409
 6251SOL    HW230213   0.519   2.265   1.813 -2.6883  0.4442 -0.4026
 6252SOL     OW30214   2.334   3.916   4.040  0.0732 -0.0476  0.3268
 6252SOL    HW130215   2.351   4.010   4.051  1.2059 -0.2452  0.2457
 6252SOL    HW230216   2.243   3.923   4.010 -0.1958  1.0837  1.3870
 6253SOL     OW30217   2.832   2.831  12.735  0.0910  0.0924 -0.0085
 6253SOL    HW130218   2.816   2.737  12.724 -2.0161  0.5748 -0.9548
 6253SOL    HW230219   2.756   2.866  12.689 -0.9881 -0.8725  1.0322
 6254SOL     OW30220   0.692   1.855   9.236  0.3329 -0.1625 -0.0898
 6254SOL    HW130221   0.648   1.905   9.305 -2.5400 -2.5306 -0.2283
 6254SOL    HW230222   0.661   1.765   9.240  0.6227 -0.3576 -2.1739
 6255SOL     OW30223   2.017   2.703  17.226 -0.4628 -0.7294  0.1903
 6255SOL    HW130224   1.925   2.729  17.228 -0.0003  0.8596  0.3319
 6255SOL    HW230225   2.011   2.613  17.193 -1.6355 -0.7089  0.3487
 6256SOL     OW30226   3.975   3.625   2.516  0.1096 -0.0135  0.4917
 6256SOL    HW130227   4.021   3.644   2.435 -0.7299 -1.5915 -0.3547
 6256SOL    HW230228   3.948   3.710   2.550  2.2154  0.7441  0.2733
 6257SOL     OW30229   0.430   2.007   3.980 -0.0628 -0.2490  0.4041
 6257SOL    HW130230   0.457   1.925   4.022 -0.2857 -1.2483 -1.4104
 6257SOL    HW230231   0.512   2.056   3.982  0.0341 -0.4008  0.0614
 6258SOL     OW30232   0.798   1.049   4.506 -0.3863  0.7184  0.2093
 6258SOL    HW130233   0.881   1.038   4.552  0.3567 -0.6157 -1.4803
 6258SOL    HW230234   0.804   1.144   4.495 -1.0891  0.7327 -0.0994
 6259SOL     OW30235   0.235   1.842   8.157 -0.3961  0.1802 -0.2683
 6259SOL    HW130236   0.306   1.793   8.199 -0.3905  1.4698  1.2156
 6259SOL    HW230237   0.242   1.927   8.199  1.7085 -0.7491  1.2318
 6260SOL     OW30238   0.101   1.320   5.708 -0.1002 -0.3096 -0.0614
 6260SOL    HW130239   0.098   1.228   5.731 -0.8454 -0.2566  0.0637
 6260SOL    HW230240   0.067   1.320   5.618  0.6758  0.4246 -0.3613
 6261SOL     OW30241   2.633   0.986   3.474 -0.8917 -0.1554  0.1494
 6261SOL    HW130242   2.569   0.979   3.545  0.3947  0.6834  1.3772
 6261SOL    HW230243   2.621   1.079   3.458 -2.5925 -0.3765  0.1540
 6262SOL     OW30244   2.388   3.836   4.285  0.2033  0.3834 -0.1921
 6262SOL    HW130245   2.318   3.773   4.297  0.0416  0.7446  0.7426
 6262SOL    HW230246   2.373   3.874   4.198  2.1826 -0.5512 -0.9403
 6263SOL     OW30247   1.069   2.762  13.466  0.9522  0.2976  0.5961
 6263SOL    HW130248   1.057   2.831  13.402  1.8951  1.0852  1.2733
 6263SOL    HW230249   0.982   2.767  13.505  0.6339  0.3025 -0.1119
 6264SOL     OW30250   0.185   1.329   0.126 -0.2081  0.5897 -0.6653
 6264SOL    HW130251   0.131   1.358   0.199 -0.2962 -1.1370 -0.0312
 6264SOL    HW230252   0.206   1.241   0.158 -0.8838  0.1465 -1.4447
 6265SOL     OW30253   2.035   4.162  10.029 -0.0479 -0.4911 -0.6598
 6265SOL    HW130254   1.992   4.132   9.950 -1.4041 -0.5283  0.0928
 6265SOL    HW230255   2.127   4.166  10.001 -0.3505 -0.9851 -1.7344
 6266SOL     OW30256   2.498   2.437   0.325  0.0801 -0.2347 -0.4484
 6266SOL    HW130257   2.516   2.530   0.313 -1.4358  0.1010 -0.1117
 6266SOL    HW230258   2.458   2.412   0.242 -0.6664  0.8988 -0.4439
 6267SOL     OW30259   0.716   2.228   5.090 -0.4788 -0.3891  0.0823
 6267SOL    HW130260   0.719   2.313   5.046 -2.6379  0.2859  1.2258
 6267SOL    HW230261   0.805   2.194   5.083 -0.4508 -0.4058  0.5358
 6268SOL     OW30262   1.724   0.095   7.371  0.2770 -0.2117  0.5508
 6268SOL    HW130263   1.644   0.100   7.319 -0.1187 -1.9304  0.9810
 6268SOL    HW230264   1.693   0.142   7.449 -0.3119 -0.0831  0.2391
 6269SOL     OW30265   2.393   2.682  10.950  0.1951  0.1039  0.1678
 6269SOL    HW130266   2.352   2.733  10.880 -0.8438  0.1076  0.7744
 6269SOL    HW230267   2.417   2.603  10.902  1.2197  0.8216 -0.5088
 6270SOL     OW30268   0.375   3.919   3.583 -0.5144  0.0539  0.1053
 6270SOL    HW130269   0.401   3.996   3.533 -0.4694  1.3650  2.1383
 6270SOL    HW230270   0.348   3.962   3.664 -1.9635 -0.2824 -0.1993
 6271SOL     OW30271   4.421   2.058  10.279 -0.0265  0.1378  0.2338
 6271SOL    HW130272   4.372   2.011  10.347  3.6626 -1.9559  1.4395
 6271SOL    HW230273   4.368   2.032  10.204 -1.6260  0.1608  1.3347
 6272SOL     OW30274   1.754   1.086   3.401  0.0210  0.5225 -0.7493
 6272SOL    HW130275   1.745   1.178   3.376  0.3341  1.0860  1.2330
 6272SOL    HW230276   1.832   1.062   3.351 -0.4864  0.0075 -1.3016
 6273SOL     OW30277   2.838   2.054   4.814  0.7104  0.8479  0.7801
 6273SOL    HW130278   2.848   1.975   4.761  0.3547  0.8368  0.7290
 6273SOL    HW230279   2.915   2.044   4.871  0.3308 -1.9331  0.8416
 6274SOL     OW30280   2.337   2.648   4.704  0.3046 -0.8664  0.4640
 6274SOL    HW130281   2.259   2.664   4.757  0.7635 -1.6504  1.3780
 6274SOL    HW230282   2.313   2.569   4.655  0.8764 -0.2406 -0.8017
 6275SOL     OW30283   3.476   3.218   7.787  0.5170  0.1751 -0.3636
 6275SOL    HW130284   3.392   3.263   7.789  0.2999 -0.2814  0.6359
 6275SOL    HW230285   3.474   3.166   7.867  1.8509 -0.0449 -0.4732
 6276SOL     OW30286   4.519   1.940   0.610  0.4304  0.4861 -0.6280
 6276SOL    HW130287   4.612   1.920   0.598 -0.3535 -1.2239 -3.6988
 6276SOL    HW230288   4.509   1.959   0.704  1.3306  1.0694 -0.6489
 6277SOL     OW30289   4.396   1.594  12.636 -0.0037 -0.0482 -0.4328
 6277SOL    HW130290   4.409   1.500  12.646 -1.8556 -0.2187  0.2943
 6277SOL    HW230291   4.343   1.595  12.556 -3.1809  0.2352  1.6623
 6278SOL     OW30292   1.671   3.429   5.912 -0.3363  0.2440  0.5405
 6278SOL    HW130293   1.602   3.450   5.848  0.0726  1.4732  0.5056
 6278SOL    HW230294   1.623   3.419   5.994 -0.4626  0.6269  0.5111
 6279SOL     OW30295   2.710   0.670   4.112 -0.1647 -0.7655 -0.3823
 6279SOL    HW130296   2.660   0.591   4.089 -0.7629  0.1167 -2.0806
 6279SOL    HW230297   2.728   0.695   4.022  0.6864 -0.0679 -0.0178
 6280SOL     OW30298   3.990   3.635  16.017 -0.4281  0.3740  0.0249
 6280SOL    HW130299   3.944   3.555  15.995  1.0081 -0.5171  0.2799
 6280SOL    HW230300   4.078   3.603  16.036 -0.6551 -0.3698 -0.1758
 6281SOL     OW30301   1.356   1.341   2.980  0.2295 -0.4941  0.5030
 6281SOL    HW130302   1.353   1.245   2.976 -1.5404 -0.4840  1.7763
 6281SOL    HW230303   1.430   1.359   2.922  1.2404 -0.2885  1.8563
 6282SOL     OW30304   3.887   0.342   9.000  0.3317 -0.0209  0.6055
 6282SOL    HW130305   3.823   0.400   9.042  0.8149  1.7249 -1.0864
 6282SOL    HW230306   3.961   0.396   9.027  0.0027  0.6556  0.1407
 6283SOL     OW30307   2.998   3.993   3.369 -0.3018  0.0695  0.4022
 6283SOL    HW130308   2.995   4.042   3.287  1.5020  0.1711  0.3907
 6283SOL    HW230309   3.047   3.914   3.346  0.5847  1.0570 -1.0660
 6284SOL     OW30310   1.461   3.580   6.597 -0.4074 -0.2553  0.6905
 6284SOL    HW130311   1.458   3.519   6.670  0.9962  0.6932  1.5357
 6284SOL    HW230312   1.498   3.653   6.647 -0.6388  1.2383 -1.2890
 6285SOL     OW30313   4.065   0.729   9.518  0.4889 -0.2041  0.0225
 6285SOL    HW130314   4.081   0.669   9.445 -0.5882  1.0092 -1.2109
 6285SOL    HW230315   4.054   0.808   9.465  0.9342  0.7578  1.3829
 6286SOL     OW30316   1.053   4.147  10.690 -0.2099 -0.3894 -0.7221
 6286SOL    HW130317   1.016   4.224  10.648  1.5909 -0.2604 -2.0600
 6286SOL    HW230318   1.132   4.180  10.733 -0.3963 -0.5748 -0.2404
 6287SOL     OW30319   0.054   0.918   1.191 -0.2361  0.4771 -0.5599
 6287SOL    HW130320   4.706   0.869   1.232 -0.9126  0.4627 -1.7287
 6287SOL    HW230321   0.010   1.000   1.166 -0.8485  0.6480  1.1165
 6288SOL     OW30322   0.740   1.528  10.530  0.0523 -0.0579  0.0875
 6288SOL    HW130323   0.793   1.460  10.488 -0.0035 -0.3537  0.4992
 6288SOL    HW230324   0.670   1.476  10.570  2.2955 -2.4299  0.8738
 6289SOL     OW30325   2.472   2.252  10.008 -0.4502 -0.4729  0.5038
 6289SOL    HW130326   2.453   2.342  10.034  1.2109  0.0526 -0.1088
 6289SOL    HW230327   2.406   2.200  10.054 -1.3497  1.3784  1.3356
 6290SOL     OW30328   4.682   1.544   5.334  0.5556  0.4331  0.2627
 6290SOL    HW130329   4.668   1.552   5.429  0.8200 -0.5976  0.3825
 6290SOL    HW230330   4.593   1.571   5.315  0.2508 -1.3873 -0.8656
 6291SOL     OW30331   1.456   1.240   4.824 -0.3688  0.4014  0.2323
 6291SOL    HW130332   1.492   1.155   4.797 -1.1712  0.1626 -0.0798
 6291SOL    HW230333   1.366   1.231   4.793 -0.2152  0.9523 -0.3850
 6292SOL     OW30334   4.428   4.464   2.405 -0.0527  0.2520  0.1945
 6292SOL    HW130335   4.395   4.484   2.317  0.7373  0.0861 -0.1358
 6292SOL    HW230336   4.373   4.526   2.453 -0.9154 -1.0406  0.8874
 6293SOL     OW30337   0.993   2.439   2.734 -0.2275 -0.2134 -0.4607
 6293SOL    HW130338   0.962   2.349   2.740  1.7155 -1.0563 -3.4445
 6293SOL    HW230339   1.027   2.442   2.645 -0.0669 -2.5239 -0.4693
 6294SOL     OW30340   3.204   2.578  15.325 -0.3669  0.1979 -0.9462
 6294SOL    HW130341   3.134   2.621  15.375  1.1836 -0.2767  1.6259
 6294SOL    HW230342   3.153   2.510  15.281  0.3171 -0.8379 -0.1454
 6295SOL     OW30343   1.249   4.527   0.542  0.0349  0.3687 -0.1229
 6295SOL    HW130344   1.182   4.465   0.570  1.4695 -2.3544 -2.7495
 6295SOL    HW230345   1.268   4.499   0.452  1.0710  1.4389 -0.2331
 6296SOL     OW30346   2.576   1.168  17.206 -0.0726  0.4019 -0.2232
 6296SOL    HW130347   2.533   1.147  17.289 -2.8175 -0.7196 -1.9316
 6296SOL    HW230348   2.564   1.085  17.158  0.2534  0.2518 -0.0513
 6297SOL     OW30349   0.239   3.276   6.132  0.3181 -0.6535 -0.2157
 6297SOL    HW130350   0.305   3.333   6.172 -0.9860  0.4807  0.3675
 6297SOL    HW230351   0.243   3.199   6.188  0.5719 -1.1536 -0.9244
 6298SOL     OW30352   4.711   0.804   5.574  0.1263  0.1181 -0.0117
 6298SOL    HW130353   0.039   0.724   5.569  0.4030  0.2947 -0.0128
 6298SOL    HW230354   4.627   0.774   5.610  0.5100  0.1093  0.8715
 6299SOL     OW30355   3.126   0.222   2.880  0.2299  0.4534  0.0897
 6299SOL    HW130356   3.166   0.142   2.845 -0.0668 -0.9391  2.8925
 6299SOL    HW230357   3.162   0.236   2.968  0.4083 -1.4247  0.3262
 6300SOL     OW30358   0.517   3.430   6.661 -0.6874  0.1081  0.5703
 6300SOL    HW130359   0.472   3.497   6.610 -0.2917 -0.9034 -1.1127
 6300SOL    HW230360   0.479   3.348   6.631  1.0256 -1.0194  1.4385
 6301SOL     OW30361   1.515   0.001  10.432  0.9199  0.4291 -0.0421
 6301SOL    HW130362   1.454   4.697  10.363 -1.1531 -0.2046  2.0553
 6301SOL    HW230363   1.588   0.035  10.379 -0.5377  0.3956 -2.0779
 6302SOL     OW30364   2.809   4.666   8.436  0.1816 -0.5966  0.0686
 6302SOL    HW130365   2.782   4.621   8.516  1.5497 -1.2663  0.1550
 6302SOL    HW230366   2.892   4.707   8.461 -0.6411  1.0975  0.0097
 6303SOL     OW30367   2.759   0.356   9.613  0.3340 -0.5487  0.2301
 6303SOL    HW130368   2.801   0.441   9.600 -0.1880 -0.2760  0.3314
 6303SOL    HW230369   2.667   0.384   9.612  0.1308 -1.2881 -1.7397
 6304SOL     OW30370   0.810   3.820   2.229 -0.0993 -0.4999  0.0566
 6304SOL    HW130371   0.825   3.741   2.282 -1.2078 -0.6585  0.1334
 6304SOL    HW230372   0.802   3.782   2.141 -0.6374  1.7640 -0.8737
 6305SOL     OW30373   3.098   1.650  17.284 -0.1222 -0.3661  0.0017
 6305SOL    HW130374   3.107   1.564  17.242  1.2670  0.7592 -1.9914
 6305SOL    HW230375   3.027   1.682  17.228 -1.8971 -0.6300  2.0889
 6306SOL     OW30376   2.932   2.471  11.230  0.2166  0.1242  0.2038
 6306SOL    HW130377   2.991   2.534  11.270 -0.3473  0.3227  0.7193
 6306SOL    HW230378   2.900   2.422  11.306  3.2877 -2.3991 -0.1021
 6307SOL     OW30379   0.136   3.314   6.444  0.0476 -0.7147  0.1378
 6307SOL    HW130380   0.059   3.257   6.444 -1.0045  0.6886  2.9676
 6307SOL    HW230381   0.170   3.302   6.532 -2.5206 -0.4109  1.1862
 6308SOL     OW30382   2.004   1.946  10.111 -0.6515  0.1674 -0.3352
 6308SOL    HW130383   1.975   1.911  10.027 -0.1263  0.0176 -0.4515
 6308SOL    HW230384   1.926   1.979  10.157 -0.5892 -0.9165  0.5486
 6309SOL     OW30385   2.039   1.480   3.367 -0.0259 -0.1193 -0.1528
 6309SOL    HW130386   2.027   1.508   3.457  0.0866  0.4179 -0.3022
 6309SOL    HW230387   1.971   1.524   3.316  0.1566 -0.5247 -0.7486
 6310SOL     OW30388   1.744   2.375   8.145  0.3447 -0.3175 -0.5675
 6310SOL    HW130389   1.716   2.389   8.055 -0.7959  1.8754  0.1466
 6310SOL    HW230390   1.763   2.281   8.144 -1.4154 -0.6594 -0.8096
 6311SOL     OW30391   4.618   2.464   7.223 -0.2570 -0.1362  0.8617
 6311SOL    HW130392   4.614   2.383   7.273 -1.3669  1.4131  3.2781
 6311SOL    HW230393   4.658   2.438   7.140 -1.5393 -1.0042  0.5139
 6312SOL     OW30394   2.558   3.549  14.735 -0.0265  0.6277  1.2694
 6312SOL    HW130395   2.544   3.638  14.769 -1.5565  0.4923  1.0239
 6312SOL    HW230396   2.634   3.563  14.679 -0.5928 -0.5768  0.1959
 6313SOL     OW30397   1.268   0.069   5.535 -0.1670  0.4068  0.7677
 6313SOL    HW130398   1.302   0.149   5.574  1.1957 -0.5726  1.5854
 6313SOL    HW230399   1.215   0.037   5.608 -0.8788  1.1271  0.5676
 6314SOL     OW30400   3.153   0.469   6.666  0.1228  0.5651 -0.2052
 6314SOL    HW130401   3.124   0.546   6.618  2.7797  2.0582  0.6139
 6314SOL    HW230402   3.243   0.452   6.638  0.7330 -0.4169  2.3234
 6315SOL     OW30403   0.490   0.972   8.402 -0.2833 -0.5505  0.3464
 6315SOL    HW130404   0.397   0.958   8.416 -0.4004 -1.9166 -1.8224
 6315SOL    HW230405   0.498   0.938   8.313  0.6643  0.3135  0.1037
 6316SOL     OW30406   2.172   4.245  15.109 -0.1737 -0.7692  0.1035
 6316SOL    HW130407   2.088   4.247  15.154  0.1795  0.4493  0.7108
 6316SOL    HW230408   2.154   4.289  15.026  3.8898 -0.0482 -0.3922
 6317SOL     OW30409   1.937   0.970   1.911 -0.2557  0.4978 -0.6276
 6317SOL    HW130410   2.012   1.029   1.915 -1.6451  2.3709 -2.3590
 6317SOL    HW230411   1.968   0.881   1.928 -2.1097  0.0254  0.2339
 6318SOL     OW30412   1.185   0.777   2.519 -0.2284  0.7946  0.1131
 6318SOL    HW130413   1.230   0.842   2.573  0.7084 -0.2128  0.5606
 6318SOL    HW230414   1.217   0.806   2.434  2.7028  1.7781  1.5593
 6319SOL     OW30415   4.070   0.402   4.043 -0.4093 -0.2936 -0.1140
 6319SOL    HW130416   4.108   0.315   4.029 -1.3704 -0.7394  0.0715
 6319SOL    HW230417   4.080   0.427   4.135  0.6025 -2.5568  0.3941
 6320SOL     OW30418   2.759   3.429   0.069 -0.4479 -0.5431 -0.4492
 6320SOL    HW130419   2.753   3.432  17.668 -0.0742  3.0448 -0.3410
 6320SOL    HW230420   2.850   3.408   0.087  0.0462  1.8362 -0.2036
 6321SOL     OW30421   2.074   2.317   2.396  0.0217 -0.4588 -0.2573
 6321SOL    HW130422   2.011   2.265   2.447  0.8137 -1.4289 -0.2539
 6321SOL    HW230423   2.021   2.391   2.368 -0.5413 -0.9930 -0.6308
 6322SOL     OW30424   1.829   1.683   4.395 -0.3692 -0.3691 -0.2654
 6322SOL    HW130425   1.922   1.700   4.411 -0.4644 -0.8923  0.8047
 6322SOL    HW230426   1.817   1.730   4.312  4.1390 -0.9536 -1.2500
 6323SOL     OW30427   4.063   3.955  15.705 -0.1846 -0.2166  0.2653
 6323SOL    HW130428   4.005   3.982  15.634  0.5827  0.7009 -0.0165
 6323SOL    HW230429   4.146   3.995  15.677  0.4471 -1.5225  0.2985
 6324SOL     OW30430   2.111   2.219   4.210 -0.4203 -0.6955  0.4444
 6324SOL    HW130431   2.101   2.201   4.116  1.2570  0.9897 -0.0580
 6324SOL    HW230432   2.082   2.136   4.249 -3.4103 -0.9188 -2.1553
 6325SOL     OW30433   0.816   3.411  13.440 -0.3969  0.2018  0.1279
 6325SOL    HW130434   0.761   3.472  13.391  2.0621  1.9851 -0.4133
 6325SOL    HW230435   0.899   3.458  13.442  0.3655 -1.0319 -1.7486
 6326SOL     OW30436   2.632   3.376   5.540  0.4846 -0.1697  0.2755
 6326SOL    HW130437   2.654   3.367   5.632 -1.5947 -0.3014  0.7554
 6326SOL    HW230438   2.566   3.309   5.526 -1.7983  2.5393 -2.0300
 6327SOL     OW30439   1.906   3.066   2.401 -1.0358  0.3508  0.7337
 6327SOL    HW130440   1.942   3.067   2.489  0.7268 -1.2061  0.0396
 6327SOL    HW230441   1.876   3.154   2.379  0.2651  0.6965  0.3661
 6328SOL     OW30442   4.162   3.915   2.871  0.4173  0.0242 -0.0635
 6328SOL    HW130443   4.146   4.008   2.887  0.3693 -0.2971  1.7661
 6328SOL    HW230444   4.191   3.878   2.954 -0.3887  0.6930  0.5164
 6329SOL     OW30445   2.198   0.000  11.630 -0.2395  0.2080  0.2451
 6329SOL    HW130446   2.178   4.636  11.665  0.0955  0.2854  0.6312
 6329SOL    HW230447   2.194   0.047  11.714 -2.8809 -0.6911  0.6339
 6330SOL     OW30448   3.294   0.951  17.238 -0.2870 -0.8014  0.6420
 6330SOL    HW130449   3.282   0.856  17.248  0.9930 -1.0207  0.1247
 6330SOL    HW230450   3.384   0.965  17.208 -0.1945 -1.4278  0.6252
 6331SOL     OW30451   0.392   2.919   6.083 -0.0636 -0.7778  0.2505
 6331SOL    HW130452   0.427   2.981   6.019 -0.6945 -0.1967  0.4735
 6331SOL    HW230453   0.382   2.843   6.025  0.8103  0.1189 -1.0594
 6332SOL     OW30454   1.973   2.784   2.337 -0.2316 -0.3323 -0.6130
 6332SOL    HW130455   1.940   2.874   2.340  0.2971 -0.2331  2.0277
 6332SOL    HW230456   2.051   2.806   2.285 -0.8725  3.5682  0.1228
 6333SOL     OW30457   0.736   2.632   8.297 -0.3736  0.3424  0.0088
 6333SOL    HW130458   0.744   2.539   8.318 -0.1023  0.1399 -0.9908
 6333SOL    HW230459   0.808   2.642   8.234  0.6587  1.5010  1.3665
 6334SOL     OW30460   3.169   2.586  17.234 -0.7071 -0.0484  0.7989
 6334SOL    HW130461   3.078   2.617  17.231 -0.3178  1.0922  0.4328
 6334SOL    HW230462   3.196   2.616  17.321  1.0166 -0.2837  0.3461
 6335SOL     OW30463   1.515   0.545  13.717  0.2732  0.2363  0.3654
 6335SOL    HW130464   1.609   0.545  13.696  0.5530 -0.4620  1.5596
 6335SOL    HW230465   1.507   0.613  13.784  2.0364  0.7644  0.0395
 6336SOL     OW30466   1.708   4.423  13.189  0.4939  0.3445 -0.3713
 6336SOL    HW130467   1.627   4.424  13.138 -0.1521  0.0713  0.6504
 6336SOL    HW230468   1.771   4.409  13.119  0.8708  1.2844 -0.2244
 6337SOL     OW30469   3.431   2.819   7.658  0.1874 -0.0884  0.0411
 6337SOL    HW130470   3.360   2.755   7.661 -1.3099  1.5635  0.3222
 6337SOL    HW230471   3.407   2.867   7.579  3.7858 -0.5506 -1.3214
 6338SOL     OW30472   1.474   4.076   3.466 -0.2760 -0.2973  0.3575
 6338SOL    HW130473   1.424   4.138   3.414  1.0549  0.3434 -0.1564
 6338SOL    HW230474   1.512   4.021   3.397 -2.0341 -2.0021  0.7566
 6339SOL     OW30475   2.123   1.706   4.383  0.6364 -0.0967 -0.6687
 6339SOL    HW130476   2.108   1.622   4.427 -0.5351  1.5715  2.0957
 6339SOL    HW230477   2.210   1.716   4.422 -0.5169  2.2437  1.2812
 6340SOL     OW30478   2.686   3.178   6.052  0.0512 -0.3584  0.3259
 6340SOL    HW130479   2.734   3.122   6.112  1.0557  0.5620  0.3783
 6340SOL    HW230480   2.743   3.255   6.051 -0.7759  0.2563 -0.5141
 6341SOL     OW30481   4.253   3.155   6.195 -0.1580 -0.3963  0.4235
 6341SOL    HW130482   4.265   3.109   6.278  1.6803  0.6908  0.7421
 6341SOL    HW230483   4.176   3.205   6.224 -1.0512 -2.4847  1.6756
 6342SOL     OW30484   3.037   0.759   5.315 -0.3182  0.5609  0.3655
 6342SOL    HW130485   2.956   0.737   5.361 -1.4932  2.0465 -0.9901
 6342SOL    HW230486   3.104   0.741   5.381 -1.3029  0.1256  1.2468
 6343SOL     OW30487   1.847   2.901  13.484 -0.2234  0.4772 -0.5937
 6343SOL    HW130488   1.899   2.915  13.405 -1.2650  2.2435 -0.9710
 6343SOL    HW230489   1.795   2.826  13.454 -0.3531  1.6444 -3.3047
 6344SOL     OW30490   3.057   2.544   7.948  0.0093 -0.2752 -0.2158
 6344SOL    HW130491   3.098   2.458   7.957  2.7798  1.1837  1.0281
 6344SOL    HW230492   3.124   2.591   7.897  0.1948  0.2530  0.5105
 6345SOL     OW30493   3.350   0.682   5.892  0.3340  0.0599 -0.1453
 6345SOL    HW130494   3.271   0.677   5.946 -0.3585  0.9840 -1.0836
 6345SOL    HW230495   3.403   0.742   5.944 -1.9316  0.0908  2.1661
 6346SOL     OW30496   0.307   3.447   4.708  0.2017  0.2152 -0.4532
 6346SOL    HW130497   0.329   3.368   4.757 -0.0406  0.4329  0.0061
 6346SOL    HW230498   0.394   3.471   4.678 -0.4039  1.2373 -1.3873
 6347SOL     OW30499   3.150   0.717   3.564  0.3482  0.2479 -0.4108
 6347SOL    HW130500   3.088   0.788   3.578  2.7610  2.2051  0.3696
 6347SOL    HW230501   3.231   0.768   3.557  1.3632 -1.3429 -0.2439
 6348SOL     OW30502   0.181   3.084   5.571 -0.0954 -0.5410 -0.2530
 6348SOL    HW130503   0.130   3.004   5.590 -1.3217  0.1540 -0.6163
 6348SOL    HW230504   0.152   3.139   5.644  0.1254  0.3744 -0.8641
 6349SOL     OW30505   2.681   2.693   2.243  0.4636 -0.2400  0.0254
 6349SOL    HW130506   2.609   2.755   2.255  0.9138  0.6212 -1.7306
 6349SOL    HW230507   2.740   2.764   2.269 -0.0261  0.1841 -0.0283
 6350SOL     OW30508   0.970   3.536   4.385 -0.6024  0.3458 -0.8408
 6350SOL    HW130509   1.059   3.507   4.405 -0.3660  0.0427 -2.4079
 6350SOL    HW230510   0.935   3.459   4.341  0.5945  0.4838 -2.0149
 6351SOL     OW30511   2.278   1.304   2.013  0.5487 -0.6978 -0.1995
 6351SOL    HW130512   2.350   1.349   1.967  0.0131 -0.3345 -0.6841
 6351SOL    HW230513   2.231   1.247   1.951  1.6329 -0.2151 -1.4613
 6352SOL     OW30514   4.304   0.434   0.552 -0.3475 -0.0594  0.4341
 6352SOL    HW130515   4.210   0.451   0.550 -0.0629  1.4905  0.2659
 6352SOL    HW230516   4.325   0.410   0.462 -0.6561 -0.0025  0.3447
 6353SOL     OW30517   2.165   2.169   8.346  0.2321 -0.1871  0.0999
 6353SOL    HW130518   2.163   2.259   8.314 -0.5691 -1.2543 -2.8271
 6353SOL    HW230519   2.260   2.162   8.352  0.4379  1.4078 -1.5133
 6354SOL     OW30520   2.246   4.451   8.070 -0.2628  0.2895 -0.0886
 6354SOL    HW130521   2.334   4.480   8.095 -0.3327  0.0859  0.4012
 6354SOL    HW230522   2.263   4.425   7.980  2.0186  1.7000 -0.0642
 6355SOL     OW30523   4.088   3.516   3.684  0.3533 -0.2811 -0.1243
 6355SOL    HW130524   4.126   3.594   3.643 -0.3572 -0.2339 -0.6952
 6355SOL    HW230525   4.029   3.491   3.614 -1.1849  1.4819  0.5371
 6356SOL     OW30526   2.788   1.902   8.087 -0.2158  0.0800 -0.3887
 6356SOL    HW130527   2.826   1.904   8.175  0.3815  0.0130 -0.6496
 6356SOL    HW230528   2.715   1.964   8.094  0.5415  1.0648 -1.2609
 6357SOL     OW30529   4.598   2.165   1.916  0.5580  0.1516  0.3402
 6357SOL    HW130530   4.524   2.109   1.893 -0.3904  0.8511  1.6976
 6357SOL    HW230531   4.627   2.191   1.829  0.0247  2.5489  0.8728
 6358SOL     OW30532   0.563   2.878   5.805 -0.0635 -0.3652  0.1719
 6358SOL    HW130533   0.582   2.900   5.714 -0.7447 -1.0882 -0.1411
 6358SOL    HW230534   0.615   2.798   5.810  1.0861  0.4704  1.8984
 6359SOL     OW30535   2.742   1.190  17.655  0.0249  0.5064  0.2082
 6359SOL    HW130536   2.769   1.146   0.041 -0.4632  0.0487  0.1235
 6359SOL    HW230537   2.663   1.236  17.684 -0.5062 -0.1985 -0.1310
 6360SOL     OW30538   1.992   1.377   7.236  0.5561  0.0182 -0.0805
 6360SOL    HW130539   2.027   1.317   7.171  1.2601  1.6200 -1.1778
 6360SOL    HW230540   1.930   1.428   7.184  0.4968  1.2508  1.1883
 6361SOL     OW30541   2.708   3.556   5.339  0.7709  0.0337  0.0940
 6361SOL    HW130542   2.675   3.639   5.370 -0.2184 -0.7974  1.2302
 6361SOL    HW230543   2.696   3.503   5.417 -4.0321  0.0117 -0.6606
 6362SOL     OW30544   2.579   2.958   2.260 -0.4348 -0.4136  0.4503
 6362SOL    HW130545   2.673   2.968   2.276 -0.4869  1.4391 -0.4076
 6362SOL    HW230546   2.539   3.002   2.336 -2.9564  1.5025 -1.9508
 6363SOL     OW30547   2.335   0.370   5.991  0.0023  0.3645  0.2180
 6363SOL    HW130548   2.282   0.321   6.054  2.1243  1.3307  2.7613
 6363SOL    HW230549   2.371   0.306   5.930  1.2027  1.3824 -0.1490
 6364SOL     OW30550   0.594   3.115  10.561  0.1170 -0.2816 -0.5334
 6364SOL    HW130551   0.639   3.129  10.477 -1.8155  1.2710 -1.3174
 6364SOL    HW230552   0.620   3.190  10.614 -0.9996  0.1814 -0.6450
 6365SOL     OW30553   2.280   1.195   4.566 -0.8011 -0.1981 -0.1453
 6365SOL    HW130554   2.295   1.151   4.482  1.4492  0.7285 -0.2377
 6365SOL    HW230555   2.365   1.237   4.579  0.4438 -3.5977  2.7756
 6366SOL     OW30556   0.242   1.663   6.150 -0.8225 -0.3480  0.4619
 6366SOL    HW130557   0.233   1.644   6.244 -2.4547  0.0762  0.4054
 6366SOL    HW230558   0.288   1.745   6.168 -0.3169 -0.1030 -1.9603
 6367SOL     OW30559   3.509   3.408   3.340 -0.3862 -0.0498 -0.2486
 6367SOL    HW130560   3.431   3.356   3.318 -1.7236  0.6043  3.0345
 6367SOL    HW230561   3.575   3.341   3.354 -2.2890 -1.6791  0.9490
 6368SOL     OW30562   4.144   2.506  16.341 -0.1200 -0.5182  0.0269
 6368SOL    HW130563   4.210   2.464  16.396  1.5821  0.9801 -0.8635
 6368SOL    HW230564   4.176   2.594  16.320  0.2089 -0.8439 -0.8508
 6369SOL     OW30565   3.194   0.432   5.316 -0.2293 -0.2275  0.0466
 6369SOL    HW130566   3.258   0.391   5.374 -0.9146 -1.1051  0.1954
 6369SOL    HW230567   3.231   0.515   5.287  0.4737 -0.0419  1.4503
 6370SOL     OW30568   1.215   4.545   9.527 -0.3464 -0.4421  0.1639
 6370SOL    HW130569   1.172   4.626   9.500  2.1307  0.6113 -0.6888
 6370SOL    HW230570   1.146   4.513   9.584 -0.7578 -0.4548 -0.3461
 6371SOL     OW30571   1.219   1.040  16.093  0.3801 -0.1749  0.5123
 6371SOL    HW130572   1.310   1.065  16.076  0.8212  0.1491  3.3121
 6371SOL    HW230573   1.230   1.019  16.186  0.4674  0.2994  0.6084
 6372SOL     OW30574   1.154   2.429   3.697 -0.0750 -0.2916 -0.4032
 6372SOL    HW130575   1.143   2.418   3.791  0.5505 -0.0278 -0.3014
 6372SOL    HW230576   1.230   2.374   3.680 -0.2832 -0.0313 -2.2558
 6373SOL     OW30577   3.757   1.506   8.097 -0.0643 -0.0334  0.2609
 6373SOL    HW130578   3.740   1.541   8.184 -0.0219  0.0241  0.2458
 6373SOL    HW230579   3.670   1.521   8.060 -0.3129  0.2455  0.9493
 6374SOL     OW30580   0.939   0.114   2.306  0.6966  0.1270 -0.2542
 6374SOL    HW130581   0.995   0.188   2.329  2.9301 -1.3771 -0.8610
 6374SOL    HW230582   0.894   0.101   2.390 -0.2831  0.2670 -0.7663
 6375SOL     OW30583   3.134   1.091   4.457  0.4393 -0.4798 -0.4894
 6375SOL    HW130584   3.193   1.100   4.382  0.1399  0.4047 -0.6206
 6375SOL    HW230585   3.050   1.100   4.411  0.4374  0.5180 -0.3002
 6376SOL     OW30586   2.878   2.825   3.395 -0.3945  0.8876 -0.2568
 6376SOL    HW130587   2.944   2.797   3.332  0.6616  1.4334  0.6032
 6376SOL    HW230588   2.815   2.845   3.325  1.2768 -2.4175 -2.6988
 6377SOL     OW30589   2.465   1.662  17.513  0.1855 -0.7786  0.1963
 6377SOL    HW130590   2.458   1.629  17.424  0.2652  2.4512 -0.9984
 6377SOL    HW230591   2.508   1.592  17.563  4.9846  2.3689  0.4636
 6378SOL     OW30592   2.259   0.125  16.617  0.2990 -0.0795 -0.3732
 6378SOL    HW130593   2.183   0.174  16.585 -0.8301 -2.1885 -0.9349
 6378SOL    HW230594   2.257   0.130  16.712  4.0058  0.9819 -0.3380
 6379SOL     OW30595   4.096   1.511  16.759  0.2122  0.5857 -0.7829
 6379SOL    HW130596   4.089   1.417  16.776 -2.8740  0.8529 -0.5559
 6379SOL    HW230597   4.037   1.553  16.822  0.6606  0.2494 -0.1393
 6380SOL     OW30598   3.229   4.324   7.496 -0.7802 -0.0566  0.8458
 6380SOL    HW130599   3.207   4.329   7.589  1.6963  0.0679  1.4238
 6380SOL    HW230600   3.186   4.402   7.459  0.9705 -0.1153 -1.2920
 6381SOL     OW30601   3.671   1.564   3.628 -0.4644  0.1979 -0.1050
 6381SOL    HW130602   3.618   1.513   3.567 -2.5386  0.3697  1.5259
 6381SOL    HW230603   3.755   1.520   3.623 -1.3146 -1.4082 -0.1790
 6382SOL     OW30604   4.197   1.615  12.954  0.2871 -0.3702 -0.0646
 6382SOL    HW130605   4.257   1.687  12.933 -0.9688  0.9567  0.8954
 6382SOL    HW230606   4.240   1.533  12.930  0.6973 -0.0784 -0.3195
 6383SOL     OW30607   0.291   3.832   4.606 -0.1777  0.2569 -0.6498
 6383SOL    HW130608   0.344   3.826   4.685 -0.1258  0.0984 -0.6974
 6383SOL    HW230609   0.270   3.925   4.600 -0.7787  0.0039 -2.6108
 6384SOL     OW30610   4.501   0.970   8.941  0.3011 -0.3786  0.1650
 6384SOL    HW130611   4.460   0.908   9.000  2.0764  0.3109  2.1238
 6384SOL    HW230612   4.582   0.995   8.986  0.4851 -1.1755  0.2802
 6385SOL     OW30613   0.481   0.968   7.026  0.4973  0.4684 -0.2312
 6385SOL    HW130614   0.526   0.912   7.089  1.0333  1.8052  0.5683
 6385SOL    HW230615   0.557   1.016   6.991  1.3471  0.5789  1.7781
 6386SOL     OW30616   1.681   0.599   7.424  0.2907  0.1075  0.6747
 6386SOL    HW130617   1.636   0.651   7.491  0.6611  2.4646 -0.9193
 6386SOL    HW230618   1.702   0.655   7.349  1.5785  0.8896  1.6149
 6387SOL     OW30619   4.084   1.756   3.246  0.0909  0.3918  0.3065
 6387SOL    HW130620   4.118   1.667   3.246  1.0330  0.7492  0.1759
 6387SOL    HW230621   4.130   1.786   3.324  0.1275 -1.6588  1.0743
 6388SOL     OW30622   0.678   2.633  16.961  0.3004  0.4463 -0.1698
 6388SOL    HW130623   0.750   2.674  16.914  0.8190  0.2623  0.4585
 6388SOL    HW230624   0.618   2.623  16.887  1.7806  2.3341 -1.6123
 6389SOL     OW30625   2.683   1.692   5.220 -0.3944  0.3018 -0.2406
 6389SOL    HW130626   2.769   1.654   5.238 -0.1551  1.4995  1.1433
 6389SOL    HW230627   2.688   1.706   5.125 -0.7079 -3.1475 -0.7704
 6390SOL     OW30628   0.423   1.847  10.711 -0.2674  0.0294  0.0729
 6390SOL    HW130629   0.444   1.791  10.786 -2.0316  0.3920  0.8244
 6390SOL    HW230630   0.331   1.873  10.720  0.3245  2.0092  0.4365
 6391SOL     OW30631   1.723   1.034   4.150  0.1296 -0.3119 -0.2315
 6391SOL    HW130632   1.779   1.109   4.172 -0.1941 -0.6362  1.6793
 6391SOL    HW230633   1.779   0.958   4.166  0.0521 -0.2411  0.4107
 6392SOL     OW30634   1.143   1.753   0.144  0.0957 -0.0935  0.1935
 6392SOL    HW130635   1.092   1.775   0.066  1.8237  1.2600 -0.5690
 6392SOL    HW230636   1.127   1.829   0.200  3.8903 -0.1903  1.4119
 6393SOL     OW30637   2.815   0.891   1.963 -0.3780 -0.0308  0.3323
 6393SOL    HW130638   2.729   0.854   1.943 -0.5907 -0.5012  2.1861
 6393SOL    HW230639   2.796   0.981   1.939  0.0117 -0.0695 -0.1442
 6394SOL     OW30640   2.931   0.261  16.621  0.0905  0.1651  0.1243
 6394SOL    HW130641   2.972   0.197  16.563  0.8828  2.5679 -1.9462
 6394SOL    HW230642   2.902   0.205  16.692 -1.8816  0.1633 -0.6569
 6395SOL     OW30643   2.867   4.661   6.740 -0.1534 -0.4834  0.0104
 6395SOL    HW130644   2.960   4.642   6.726  0.2264  2.0726 -0.9840
 6395SOL    HW230645   2.848   4.631   6.828 -1.3030 -0.8816 -0.3670
 6396SOL     OW30646   1.902   2.397  14.940 -0.6050 -0.8035 -0.3981
 6396SOL    HW130647   1.979   2.406  14.995 -1.1948 -1.8741  0.5942
 6396SOL    HW230648   1.844   2.355  15.004 -0.5173 -0.2297  0.0481
 6397SOL     OW30649   2.581   2.119   1.642  0.4493 -0.5148 -0.2089
 6397SOL    HW130650   2.541   2.168   1.571  0.5985 -0.9429 -0.5840
 6397SOL    HW230651   2.519   2.048   1.656  0.0075 -0.0882  0.0084
 6398SOL     OW30652   3.977   2.109   6.557 -0.2443 -0.0696  0.8173
 6398SOL    HW130653   3.991   2.159   6.637 -1.6730  0.5196  0.6968
 6398SOL    HW230654   3.884   2.119   6.536  0.1811  2.2634  0.0555
 6399SOL     OW30655   2.928   1.329  12.477 -0.0068  0.0058  0.5921
 6399SOL    HW130656   3.022   1.319  12.460 -0.2911  0.4196 -1.2794
 6399SOL    HW230657   2.892   1.247  12.441  0.3461  1.6499 -3.5537
 6400SOL     OW30658   3.135   2.690  16.122  0.2729  0.3959  0.3770
 6400SOL    HW130659   3.179   2.726  16.199  3.1723 -1.9999 -0.1695
 6400SOL    HW230660   3.130   2.770  16.070 -0.6330  0.0937 -0.0115
 6401SOL     OW30661   1.869   0.194   6.291 -0.5354 -0.1194 -0.2772
 6401SOL    HW130662   1.943   0.219   6.346 -0.4466  0.2098 -0.5455
 6401SOL    HW230663   1.893   0.111   6.251 -1.7961 -1.0881  0.9617
 6402SOL     OW30664   0.176   1.270   6.583  0.0375 -0.3430  0.1837
 6402SOL    HW130665   0.125   1.329   6.528  2.0546  0.5372 -0.7130
 6402SOL    HW230666   0.161   1.182   6.549 -0.5851 -0.6526  1.2308
 6403SOL     OW30667   1.077   0.924   0.569 -0.1332  0.0052 -0.2350
 6403SOL    HW130668   1.073   1.018   0.585 -0.1604  0.1608 -1.1548
 6403SOL    HW230669   1.076   0.882   0.655  4.3922  1.6305  0.5745
 6404SOL     OW30670   0.418   4.355   2.833  0.0547 -0.0600 -0.3277
 6404SOL    HW130671   0.373   4.274   2.810 -0.3402 -0.1609  0.7628
 6404SOL    HW230672   0.358   4.376   2.905  3.4052 -1.5123  2.8757
 6405SOL     OW30673   4.307   1.505   9.740  0.2027 -0.3400 -0.0420
 6405SOL    HW130674   4.357   1.582   9.713 -1.8801 -0.1928 -3.4670
 6405SOL    HW230675   4.219   1.542   9.743  0.2352 -0.5150  2.8481
 6406SOL     OW30676   3.661   3.388   3.662 -0.3315  0.0444  0.0012
 6406SOL    HW130677   3.589   3.431   3.614 -0.8104  0.6366  1.2438
 6406SOL    HW230678   3.651   3.297   3.635 -0.5917  0.1240 -0.1685
 6407SOL     OW30679   2.022   3.439   0.042 -0.1150  0.0048  0.2053
 6407SOL    HW130680   2.065   3.365   0.085  0.6501  0.3194 -0.0135
 6407SOL    HW230681   2.089   3.471  17.676  1.1818 -0.0213  1.6350
 6408SOL     OW30682   4.010   0.004   4.961 -0.0617 -0.6339 -0.1848
 6408SOL    HW130683   4.068   0.068   4.919  0.5547 -2.3390 -1.9363
 6408SOL    HW230684   3.989   4.675   4.883 -1.0784 -0.5721  0.0473
 6409SOL     OW30685   3.717   3.707   4.850 -0.0693 -0.0952  0.6664
 6409SOL    HW130686   3.662   3.716   4.772 -0.2699  3.8963  1.2598
 6409SOL    HW230687   3.766   3.634   4.813  0.6957  0.3280  0.8544
 6410SOL     OW30688   1.579   0.575   1.091  0.2418 -0.1808  0.5037
 6410SOL    HW130689   1.528   0.525   1.154  0.7776  0.7107  1.6437
 6410SOL    HW230690   1.540   0.662   1.083 -1.0349 -0.4698  3.4189
 6411SOL     OW30691   1.834   2.155   1.161  0.6032  0.1945 -0.4732
 6411SOL    HW130692   1.926   2.129   1.167  1.0928  2.0200 -0.0601
 6411SOL    HW230693   1.842   2.248   1.183 -0.8980  0.6019 -1.6370
 6412SOL     OW30694   2.297   1.760   8.178  0.2558 -0.1981  0.6817
 6412SOL    HW130695   2.264   1.681   8.137  0.7526  0.4023 -0.8755
 6412SOL    HW230696   2.338   1.803   8.103 -0.2888 -1.7074 -0.4626
 6413SOL     OW30697   1.317   1.767  14.889 -0.3985  0.2507 -0.3744
 6413SOL    HW130698   1.376   1.760  14.963 -0.8775  0.1251 -0.0054
 6413SOL    HW230699   1.318   1.861  14.869 -3.1022  0.5039  0.6535
 6414SOL     OW30700   4.646   2.315   9.765 -0.0023 -0.3046 -0.0856
 6414SOL    HW130701   0.008   2.346   9.795  0.1742  0.5031 -1.4334
 6414SOL    HW230702   4.624   2.382   9.700  0.8144  0.2105  0.1737
 6415SOL     OW30703   3.752   3.622  16.687 -0.4691  0.6649  0.0600
 6415SOL    HW130704   3.719   3.532  16.681 -2.2386  1.3511 -0.3664
 6415SOL    HW230705   3.805   3.621  16.767  2.3507 -1.2438 -1.8559
 6416SOL     OW30706   2.812   0.299   2.862  0.1790  0.0806 -0.3081
 6416SOL    HW130707   2.862   0.265   2.788  2.2657  0.0335  1.1271
 6416SOL    HW230708   2.723   0.266   2.852 -0.3598  1.4323 -0.0931
 6417SOL     OW30709   1.473   0.834   2.937  0.2929  0.3035  0.5972
 6417SOL    HW130710   1.514   0.834   3.023  3.2994 -0.7366 -0.8568
 6417SOL    HW230711   1.458   0.740   2.925 -0.2002  0.1829  2.2065
 6418SOL     OW30712   4.718   1.916   6.184 -0.8715 -0.7705  0.6447
 6418SOL    HW130713   4.625   1.933   6.199 -0.1025  1.7788  2.4585
 6418SOL    HW230714   0.016   1.987   6.124 -0.3020 -0.9345  0.6440
 6419SOL     OW30715   1.875   1.242   2.820 -0.0609 -0.1558 -0.0724
 6419SOL    HW130716   1.841   1.325   2.853 -0.6824 -0.1977 -0.5860
 6419SOL    HW230717   1.874   1.266   2.727 -1.3065 -1.1665 -0.3377
 6420SOL     OW30718   3.212   4.697   2.758 -0.5851  0.0616  0.5918
 6420SOL    HW130719   3.145   4.696   2.690  0.7348 -1.8725 -0.6879
 6420SOL    HW230720   3.241   4.606   2.747  1.1207  0.5468  1.0981
 6421SOL     OW30721   1.836   0.955   0.009 -0.3036  0.8421 -0.0100
 6421SOL    HW130722   1.881   0.987   0.087  0.7558  0.8465 -0.6131
 6421SOL    HW230723   1.762   0.901   0.035 -0.2264  0.8121  0.1445
 6422SOL     OW30724   0.860   2.779   5.589 -0.3872 -0.1505  0.2451
 6422SOL    HW130725   0.769   2.807   5.577  0.6930  2.0845 -2.5237
 6422SOL    HW230726   0.859   2.697   5.540 -2.4424  0.8948 -1.4389
 6423SOL     OW30727   1.131   3.484  10.274 -0.0858  0.0728  0.6630
 6423SOL    HW130728   1.133   3.543  10.350  0.9584  0.8422  0.0323
 6423SOL    HW230729   1.217   3.442  10.281  0.5814  1.4213  0.5322
 6424SOL     OW30730   0.337   2.536   5.686 -0.2766 -0.6094  0.7180
 6424SOL    HW130731   0.350   2.612   5.628  1.7607 -0.5208  1.3146
 6424SOL    HW230732   0.309   2.588   5.761  0.2083 -0.9915  1.1522
 6425SOL     OW30733   2.498   2.960  11.277  0.4252 -0.1174 -0.3905
 6425SOL    HW130734   2.569   2.896  11.275 -0.5446 -1.2955  2.3779
 6425SOL    HW230735   2.431   2.903  11.240  0.3328 -1.0657  1.2186
 6426SOL     OW30736   1.229   1.422   5.410 -0.1772 -0.3896 -0.7194
 6426SOL    HW130737   1.214   1.352   5.474 -0.8983  0.9706  0.5806
 6426SOL    HW230738   1.263   1.372   5.335  0.0158 -3.6474  1.5287
 6427SOL     OW30739   2.279   3.159   2.703  0.0987  0.1610 -0.5607
 6427SOL    HW130740   2.332   3.166   2.624 -1.4774  0.6816 -1.5834
 6427SOL    HW230741   2.210   3.102   2.667  0.8391  1.1861 -3.6310
 6428SOL     OW30742   0.518   1.650   3.913 -0.4861  0.3468 -0.1992
 6428SOL    HW130743   0.594   1.679   3.963  1.6864 -2.2998 -1.9624
 6428SOL    HW230744   0.526   1.560   3.946  1.1758  0.3609 -0.5588
 6429SOL     OW30745   2.915   3.940  11.197 -0.6453 -0.4250 -0.4098
 6429SOL    HW130746   2.823   3.920  11.213 -0.7197 -0.2086 -0.5636
 6429SOL    HW230747   2.940   3.864  11.144  0.8037 -0.6502  0.5921
 6430SOL     OW30748   0.663   3.204   5.032 -0.1650 -0.1676 -0.1689
 6430SOL    HW130749   0.693   3.253   4.955  1.7944  0.4694  0.9994
 6430SOL    HW230750   0.709   3.123   5.008  0.0954  0.2800 -1.2161
 6431SOL     OW30751   0.427   2.897   6.604 -0.5714  0.0715  0.2636
 6431SOL    HW130752   0.342   2.863   6.577 -0.1078 -1.2852  0.5155
 6431SOL    HW230753   0.472   2.887   6.520  1.2814  2.6030  0.9660
 6432SOL     OW30754   3.448   1.748  14.409 -0.3961 -0.0254 -0.2726
 6432SOL    HW130755   3.412   1.734  14.497 -5.0550 -2.1323 -2.4732
 6432SOL    HW230756   3.385   1.813  14.378 -0.0869 -0.0035 -0.8475
 6433SOL     OW30757   2.100   1.265   7.039  0.4178  0.0409  0.8861
 6433SOL    HW130758   2.149   1.315   6.973 -2.0823  0.5382 -0.5681
 6433SOL    HW230759   2.174   1.208   7.061  0.5586  0.2193  0.8788
 6434SOL     OW30760   0.820   2.092   1.669 -0.6795  0.2534  0.0027
 6434SOL    HW130761   0.857   2.004   1.674 -0.0454  0.4978 -0.3869
 6434SOL    HW230762   0.810   2.104   1.575 -3.0138 -1.1595  0.0608
 6435SOL     OW30763   1.473   0.002  11.136  0.3800  0.0030 -0.0621
 6435SOL    HW130764   1.492   0.096  11.135 -5.5343  1.2055 -1.9779
 6435SOL    HW230765   1.545   4.698  11.192 -0.9860 -0.7934  1.2848
 6436SOL     OW30766   3.876   3.509   9.006  0.4990 -0.3339 -0.1933
 6436SOL    HW130767   3.821   3.524   9.082  0.3879  2.6104 -0.8536
 6436SOL    HW230768   3.890   3.601   8.983  1.6173 -0.6973 -0.9950
 6437SOL     OW30769   2.519   3.807   5.875  0.0896  0.1789  0.1093
 6437SOL    HW130770   2.576   3.744   5.919  1.1365 -0.4209 -2.0956
 6437SOL    HW230771   2.590   3.853   5.831 -0.1968  0.3610 -0.1619
 6438SOL     OW30772   2.289   3.802   9.730 -0.1751 -0.7439  0.0449
 6438SOL    HW130773   2.377   3.836   9.716 -0.5625  1.3069  2.6287
 6438SOL    HW230774   2.301   3.730   9.793  0.7726 -2.3556 -1.9950
 6439SOL     OW30775   4.593   1.086  17.492 -0.4562  0.0484  0.1715
 6439SOL    HW130776   4.601   0.992  17.476  0.0806  0.1402 -0.1051
 6439SOL    HW230777   4.661   1.094  17.559  0.1241 -0.6715 -0.3278
 6440SOL     OW30778   2.935   1.865  15.966 -0.5374  0.0761  0.8311
 6440SOL    HW130779   2.842   1.851  15.948 -0.1122 -2.5329  0.7815
 6440SOL    HW230780   2.979   1.792  15.923 -1.6303 -0.2925  0.3525
 6441SOL     OW30781   2.285   2.004   6.813 -0.1690 -0.3970  0.0015
 6441SOL    HW130782   2.198   1.984   6.846 -0.5952  0.0980 -0.8429
 6441SOL    HW230783   2.319   1.914   6.807  3.8869  1.0389  1.0354
 6442SOL     OW30784   2.077   1.239   0.381  0.3814  0.1383 -0.0460
 6442SOL    HW130785   2.098   1.332   0.373 -0.2566  0.3521  0.8023
 6442SOL    HW230786   2.049   1.214   0.292 -0.2066  0.9408 -0.0817
 6443SOL     OW30787   4.375   2.024   7.207  0.5166 -0.9405  0.0435
 6443SOL    HW130788   4.334   2.101   7.247 -1.6483 -1.8232 -0.4612
 6443SOL    HW230789   4.427   1.983   7.277  2.1493 -0.4384 -0.8895
 6444SOL     OW30790   1.928   2.024   5.007  0.3996  0.5436 -0.1791
 6444SOL    HW130791   1.857   2.085   4.989 -1.5245 -1.1975  1.5124
 6444SOL    HW230792   1.993   2.068   4.951 -0.5276  0.7773 -1.0769
 6445SOL     OW30793   1.087   2.424   4.588  0.1031 -0.3426  0.0430
 6445SOL    HW130794   1.125   2.345   4.627 -2.9776 -1.9672 -0.1939
 6445SOL    HW230795   1.117   2.491   4.649 -1.1222 -1.5019  1.9413
 6446SOL     OW30796   1.296   3.108   1.702  0.9400  0.5917 -0.2190
 6446SOL    HW130797   1.369   3.161   1.735  0.5361  0.7027  0.5113
 6446SOL    HW230798   1.265   3.077   1.787  0.6557 -0.8045 -0.8337
 6447SOL     OW30799   2.822   3.217   7.401 -0.1417 -0.0945  0.0855
 6447SOL    HW130800   2.844   3.136   7.448  1.1984  1.2374  1.7355
 6447SOL    HW230801   2.810   3.181   7.313 -0.3807 -2.4467  1.0796
 6448SOL     OW30802   1.218   0.618   6.704 -0.5049  0.3892 -0.3114
 6448SOL    HW130803   1.131   0.588   6.732  0.5480 -1.4200  0.9768
 6448SOL    HW230804   1.207   0.613   6.609  2.2484 -0.7907 -0.5636
 6449SOL     OW30805   4.568   4.479   9.393  0.5148 -0.3404  0.6294
 6449SOL    HW130806   4.596   4.495   9.303 -3.5011  1.3479 -0.3613
 6449SOL    HW230807   4.648   4.442   9.430 -0.1113 -2.3761 -0.0633
 6450SOL     OW30808   4.480   2.983   7.648 -0.5997 -0.1334  0.5648
 6450SOL    HW130809   4.439   3.036   7.579  0.8957 -1.2557 -1.1777
 6450SOL    HW230810   4.568   3.019   7.656 -1.2064  1.1399  1.3769
 6451SOL     OW30811   3.450   4.005   6.249 -0.1858 -0.4279  0.0472
 6451SOL    HW130812   3.438   4.099   6.242  0.8611 -0.2722  0.3960
 6451SOL    HW230813   3.544   3.987   6.244  0.1687  2.0865 -2.1865
 6452SOL     OW30814   0.206   2.093  17.211 -0.2759 -0.3751  0.1231
 6452SOL    HW130815   0.146   2.168  17.208  0.4503  0.1712 -0.5182
 6452SOL    HW230816   0.180   2.055  17.127 -0.0219  2.2178 -1.1242
 6453SOL     OW30817   1.214   1.775  13.054  0.2069 -0.3833  0.1930
 6453SOL    HW130818   1.274   1.800  12.984 -0.0134 -1.5097 -0.4034
 6453SOL    HW230819   1.218   1.850  13.113  0.7621  0.4863 -0.9344
 6454SOL     OW30820   1.583   1.172   8.677  0.5564  0.4077  0.5713
 6454SOL    HW130821   1.626   1.212   8.752 -0.0986 -1.1181  1.7582
 6454SOL    HW230822   1.621   1.226   8.607 -0.6757 -0.3180 -0.6576
 6455SOL     OW30823   0.053   0.662  17.664 -0.0949 -0.2565  0.1493
 6455SOL    HW130824   0.126   0.661   0.032 -0.5893 -0.3666  0.7344
 6455SOL    HW230825   0.058   0.755  17.640  3.0593  0.7659  4.7886
 6456SOL     OW30826   0.852   3.698   9.768  0.9845  0.1573  0.4867
 6456SOL    HW130827   0.923   3.687   9.831 -0.6412 -1.6793  1.9810
 6456SOL    HW230828   0.863   3.793   9.766  0.5240  0.2405  2.1264
 6457SOL     OW30829   2.769   3.561   4.716 -0.0301 -0.7250 -0.0894
 6457SOL    HW130830   2.776   3.478   4.668  0.9296  0.5159 -2.0803
 6457SOL    HW230831   2.862   3.580   4.719  0.2676 -2.2482  0.6025
 6458SOL     OW30832   0.576   4.551  11.316 -0.3173 -0.1834 -0.8640
 6458SOL    HW130833   0.647   4.489  11.331 -0.9853 -0.4775  0.9932
 6458SOL    HW230834   0.528   4.531  11.396 -1.0744  2.4798 -0.6240
 6459SOL     OW30835   3.835   2.223   0.395  0.0619  0.1091 -0.0878
 6459SOL    HW130836   3.758   2.171   0.371  0.8691 -2.5525  2.9837
 6459SOL    HW230837   3.874   2.249   0.312  0.4337 -0.8339 -0.2115
 6460SOL     OW30838   0.571   0.816   1.999  0.2844 -0.1907  0.0865
 6460SOL    HW130839   0.579   0.795   1.906  4.2304 -1.3928  0.6633
 6460SOL    HW230840   0.627   0.748   2.039 -0.2594  0.7559  2.4733
 6461SOL     OW30841   1.920   2.642  11.593  0.2180 -0.0937 -0.6486
 6461SOL    HW130842   1.845   2.700  11.605  0.9679  0.4036  1.7423
 6461SOL    HW230843   1.918   2.604  11.506  1.2087 -0.5811 -0.4547
 6462SOL     OW30844   2.288   4.625   7.485  0.3552 -0.1524 -0.1438
 6462SOL    HW130845   2.283   4.699   7.425  1.5352  1.1193  1.3436
 6462SOL    HW230846   2.218   4.653   7.544 -0.4582 -1.1773 -0.6098
 6463SOL     OW30847   0.624   4.654  13.362  0.2856 -0.3451  0.4679
 6463SOL    HW130848   0.538   4.698  13.367  0.3115  0.0529 -2.4626
 6463SOL    HW230849   0.689   4.695  13.419  1.2087 -0.2711 -0.6539
 6464SOL     OW30850   4.478   0.215   9.582 -0.1315 -0.0182 -0.2688
 6464SOL    HW130851   4.395   0.210   9.534  0.1513  0.6555 -0.8301
 6464SOL    HW230852   4.500   0.123   9.594 -1.8614 -0.1031  2.3321
 6465SOL     OW30853   1.952   1.754   3.809 -0.9062 -0.4930 -0.2329
 6465SOL    HW130854   1.867   1.739   3.849 -1.1977  0.6206 -0.4278
 6465SOL    HW230855   2.000   1.777   3.888 -0.4739  0.3301 -0.7273
 6466SOL     OW30856   0.754   4.029   6.989 -0.4717  0.2756 -0.2323
 6466SOL    HW130857   0.677   4.086   6.984  0.2203  0.9107 -4.2881
 6466SOL    HW230858   0.731   3.960   7.051  0.1929  0.0365 -0.2553
 6467SOL     OW30859   1.540   1.138   0.057 -0.1800 -0.1620 -0.2593
 6467SOL    HW130860   1.566   1.172  17.666  1.8350  1.0720  0.8592
 6467SOL    HW230861   1.612   1.167   0.112 -1.2264  1.3508  0.3203
 6468SOL     OW30862   2.442   3.788  10.130  1.0188 -0.2506  0.9743
 6468SOL    HW130863   2.511   3.760  10.191  1.5611 -0.7006  0.1474
 6468SOL    HW230864   2.423   3.879  10.155 -1.0862 -0.7189  1.1167
 6469SOL     OW30865   3.536   2.533   5.303  0.2282  0.0241  0.4290
 6469SOL    HW130866   3.459   2.590   5.299 -0.1406 -0.3448  2.4427
 6469SOL    HW230867   3.554   2.537   5.397  2.2713  0.4339  0.0075
 6470SOL     OW30868   4.212   4.553   3.781 -0.7133 -0.3869 -0.3692
 6470SOL    HW130869   4.138   4.570   3.839 -0.5941 -0.9957 -0.0479
 6470SOL    HW230870   4.237   4.466   3.809  1.7438  0.7705  1.0230
 6471SOL     OW30871   3.813   3.963   4.916 -0.3610 -0.0214  0.7037
 6471SOL    HW130872   3.780   3.998   4.999 -1.9570  3.1490 -1.2617
 6471SOL    HW230873   3.775   3.875   4.916  0.7950 -0.5224  0.4000
 6472SOL     OW30874   3.415   2.432   5.065 -0.7879  0.1037  0.3501
 6472SOL    HW130875   3.486   2.461   5.122 -2.7715 -1.0960  3.4349
 6472SOL    HW230876   3.371   2.516   5.048  0.4265  0.9559  1.4319
 6473SOL     OW30877   2.596   1.575   4.809 -0.1334 -0.5005  0.0002
 6473SOL    HW130878   2.624   1.502   4.753 -0.9757  1.3353 -2.7805
 6473SOL    HW230879   2.633   1.548   4.893 -0.7072 -0.1953  0.3477
 6474SOL     OW30880   2.647   0.964   8.279  0.6540 -0.0649 -0.3405
 6474SOL    HW130881   2.589   0.976   8.204  1.4797 -0.2230 -0.9997
 6474SOL    HW230882   2.591   0.952   8.356  1.5053 -1.2033  0.1044
 6475SOL     OW30883   3.088   1.057  16.479  0.2263 -0.0468  0.1263
 6475SOL    HW130884   3.166   1.035  16.428  0.6705  0.9921  0.3524
 6475SOL    HW230885   3.022   1.068  16.411 -0.7657 -0.1388  1.0821
 6476SOL     OW30886   0.304   0.876   8.834  0.3059  0.7344  0.0852
 6476SOL    HW130887   0.380   0.847   8.784 -0.3269 -2.0153  0.7361
 6476SOL    HW230888   0.343   0.925   8.906  0.0026  1.3022 -0.1360
 6477SOL     OW30889   1.006   2.392   9.283 -0.2519 -0.2002  0.6381
 6477SOL    HW130890   0.913   2.411   9.268 -0.3832 -0.1785  1.4943
 6477SOL    HW230891   1.057   2.456   9.234  0.7938 -1.0824  0.5579
 6478SOL     OW30892   0.337   0.061   9.377  0.5934  0.5051 -0.3699
 6478SOL    HW130893   0.334   0.141   9.428 -3.7295 -0.1368  0.4082
 6478SOL    HW230894   0.262   0.014   9.414 -0.1877  2.1914  0.1754
 6479SOL     OW30895   3.901   3.994   7.932 -0.2953  0.5801 -0.3199
 6479SOL    HW130896   3.869   3.931   7.996  3.2824  0.9062  1.7868
 6479SOL    HW230897   3.967   3.937   7.892  2.4366  1.5424  2.8644
 6480SOL     OW30898   4.591   0.088   0.515  0.0591  0.5695 -0.2441
 6480SOL    HW130899   4.560   0.042   0.436  2.3170 -3.7530  1.3944
 6480SOL    HW230900   4.681   0.056   0.515 -0.5783 -1.2860  1.3387
 6481SOL     OW30901   1.582   2.516   0.082 -0.1558  0.4760  0.4040
 6481SOL    HW130902   1.643   2.549   0.148  0.9340 -0.4864 -0.1146
 6481SOL    HW230903   1.600   2.422   0.080  0.2009  0.5573 -0.2583
 6482SOL     OW30904   3.723   2.280   8.196  0.3255 -0.3195  0.8508
 6482SOL    HW130905   3.758   2.338   8.264  1.4491  2.2188 -1.8455
 6482SOL    HW230906   3.711   2.210   8.259  0.1232 -0.6960  0.3925
 6483SOL     OW30907   3.258   3.265   4.163 -0.1742  0.0273  0.4846
 6483SOL    HW130908   3.293   3.315   4.088 -1.0180  2.1686  1.5053
 6483SOL    HW230909   3.330   3.206   4.184 -0.9275 -1.2493 -0.5416
 6484SOL     OW30910   1.508   2.156   9.908  0.1524 -0.2578  0.1743
 6484SOL    HW130911   1.501   2.074   9.957  1.5326 -1.0350 -0.9417
 6484SOL    HW230912   1.595   2.131   9.877 -1.2905  0.2107 -4.2029
 6485SOL     OW30913   0.233   3.821   9.210 -0.4740  0.0494 -0.0023
 6485SOL    HW130914   0.179   3.880   9.262 -0.6319 -2.2671  2.4627
 6485SOL    HW230915   0.169   3.810   9.141 -2.2296 -2.2927  2.0219
 6486SOL     OW30916   0.254   0.246   4.132 -0.7190 -0.4419  0.2548
 6486SOL    HW130917   0.344   0.257   4.164 -1.1190 -0.5118  1.3832
 6486SOL    HW230918   0.240   0.153   4.148  1.3128 -0.6196  0.9776
 6487SOL     OW30919   0.472   0.383   1.793  0.4147 -0.0254 -0.4102
 6487SOL    HW130920   0.446   0.474   1.806  0.3586 -0.2793  1.3320
 6487SOL    HW230921   0.411   0.342   1.854  1.3138 -0.4902  0.1757
 6488SOL     OW30922   0.016   2.671   5.465  0.1068  0.4602 -0.0412
 6488SOL    HW130923   0.011   2.674   5.369  1.8070  2.9834 -0.0381
 6488SOL    HW230924   0.108   2.646   5.467 -0.2434 -0.5287  3.5990
 6489SOL     OW30925   3.989   3.477  14.543  0.1262  0.4544  0.0262
 6489SOL    HW130926   4.043   3.549  14.575 -0.8227 -0.3322  3.4680
 6489SOL    HW230927   3.962   3.443  14.628 -1.6528  1.4626 -0.1384
 6490SOL     OW30928   3.239   3.413   2.286 -1.0012 -0.3358  0.3196
 6490SOL    HW130929   3.281   3.444   2.206 -0.2795  1.1330  1.2577
 6490SOL    HW230930   3.312   3.395   2.345  0.3464  2.7126 -0.4417
 6491SOL     OW30931   0.418   0.009   3.068 -0.2115 -0.5924  0.3224
 6491SOL    HW130932   0.347   0.063   3.034  0.5220  0.1215 -0.0653
 6491SOL    HW230933   0.392   4.711   3.158 -1.4098  0.1635  0.1521
 6492SOL     OW30934   4.142   0.607   3.086 -0.3144 -0.2634  0.5833
 6492SOL    HW130935   4.093   0.684   3.115 -1.2247 -0.9872  0.9497
 6492SOL    HW230936   4.169   0.647   3.003  1.0184 -3.1372 -0.3772
 6493SOL     OW30937   2.603   3.742   0.354 -0.2006  0.1684 -0.5626
 6493SOL    HW130938   2.663   3.760   0.282  0.7154 -2.4144 -0.4450
 6493SOL    HW230939   2.668   3.711   0.418 -1.5215 -2.2549 -0.3909
 6494SOL     OW30940   2.381   2.215   8.033  0.6565  0.4572 -0.4119
 6494SOL    HW130941   2.456   2.161   8.061  0.2404  0.5800  0.9432
 6494SOL    HW230942   2.348   2.162   7.960  1.8858 -0.1238 -0.5500
 6495SOL     OW30943   0.967   1.022   8.971 -0.6805  0.3029 -0.0861
 6495SOL    HW130944   0.941   1.044   8.881 -0.6136  0.0449 -0.1684
 6495SOL    HW230945   0.887   0.979   9.000 -0.5438 -0.9212 -1.5152
 6496SOL     OW30946   0.549   0.032   7.593  0.5676 -0.3137  0.2417
 6496SOL    HW130947   0.590   0.082   7.664  1.1237 -3.1792  1.9262
 6496SOL    HW230948   0.574   4.673   7.634  1.2435 -0.3936 -0.3283
 6497SOL     OW30949   4.452   1.718   9.650 -0.4160 -0.4004  0.1938
 6497SOL    HW130950   4.545   1.700   9.632 -0.9368 -2.2053 -0.7069
 6497SOL    HW230951   4.434   1.812   9.646  1.4309 -0.0045  1.1884
 6498SOL     OW30952   3.448   1.443   2.987 -0.0723 -0.1051  0.1958
 6498SOL    HW130953   3.537   1.479   2.984 -0.8444  2.1234  3.0246
 6498SOL    HW230954   3.457   1.349   2.999 -0.9962 -0.2120 -0.0237
 6499SOL     OW30955   0.355   3.765  15.628 -0.1239 -0.0820  0.2561
 6499SOL    HW130956   0.282   3.827  15.637  0.3151  0.5797 -0.6771
 6499SOL    HW230957   0.317   3.678  15.638  0.4807 -0.1298  2.0566
 6500SOL     OW30958   4.318   3.180  15.981  0.2058 -0.5300  0.1569
 6500SOL    HW130959   4.358   3.113  16.036  2.9196  3.5490  3.1512
 6500SOL    HW230960   4.379   3.173  15.907  0.7135 -2.2487  0.7252
 6501SOL     OW30961   0.514   0.708   8.275  0.0289  0.5410 -0.3598
 6501SOL    HW130962   0.503   0.639   8.209  1.1518 -1.1851  1.2686
 6501SOL    HW230963   0.602   0.692   8.308 -0.8544 -0.0696  1.6859
 6502SOL     OW30964   3.550   1.303  15.103 -0.3537 -0.3803 -0.1596
 6502SOL    HW130965   3.610   1.241  15.061 -1.4813 -1.4445 -0.2180
 6502SOL    HW230966   3.588   1.390  15.094  1.5523 -1.1273  0.6580
 6503SOL     OW30967   3.058   0.542   4.610  0.1200  0.1305  0.1880
 6503SOL    HW130968   3.043   0.503   4.524 -0.6645  1.1711 -0.1441
 6503SOL    HW230969   3.136   0.495   4.639  0.4409  1.0735  0.8477
 6504SOL     OW30970   0.085   3.323   2.777  0.5060 -0.1067  0.2636
 6504SOL    HW130971   0.083   3.368   2.692 -1.9723  1.2579  1.0393
 6504SOL    HW230972   0.072   3.235   2.741  1.3679  0.1662 -0.7133
 6505SOL     OW30973   3.738   2.933   6.632  0.0689  0.1029 -0.2529
 6505SOL    HW130974   3.643   2.921   6.626  0.3906 -1.5178 -1.9644
 6505SOL    HW230975   3.764   2.900   6.718 -0.2467  1.5219  0.3858
 6506SOL     OW30976   0.456   3.756   2.472 -0.6109  0.3394 -0.4223
 6506SOL    HW130977   0.417   3.828   2.423 -0.0780 -0.9999 -2.8216
 6506SOL    HW230978   0.407   3.679   2.443 -0.9780 -0.5639  2.5702
 6507SOL     OW30979   3.724   1.613   7.355 -0.8797 -0.3800 -0.1929
 6507SOL    HW130980   3.805   1.656   7.383 -0.9939 -0.0579 -0.3491
 6507SOL    HW230981   3.727   1.633   7.262 -3.0047 -1.4878 -0.4783
 6508SOL     OW30982   0.107   1.068  11.625 -0.2987 -0.2036 -0.4090
 6508SOL    HW130983   0.199   1.043  11.627 -0.0955  0.5619 -0.1517
 6508SOL    HW230984   0.100   1.113  11.710  0.6939  2.4776 -1.7366
 6509SOL     OW30985   1.362   1.085   5.570  0.3386 -0.5309  0.2940
 6509SOL    HW130986   1.390   1.060   5.658  1.4408 -0.8340 -0.1335
 6509SOL    HW230987   1.275   1.118   5.591 -0.2451 -2.6034  1.0845
 6510SOL     OW30988   2.100   2.698   3.270  0.0379  0.1472  0.2535
 6510SOL    HW130989   2.007   2.719   3.282  0.1483  1.9465 -2.0650
 6510SOL    HW230990   2.096   2.614   3.316 -0.9799 -0.5314 -1.0824
 6511SOL     OW30991   0.850   4.245   6.842  0.1547 -0.7140  0.2389
 6511SOL    HW130992   0.823   4.180   6.906  2.2971  0.4938  2.3849
 6511SOL    HW230993   0.768   4.272   6.801 -1.9959 -2.1384  3.6544
 6512SOL     OW30994   3.898   0.780   3.640  0.3171  0.4518 -0.0417
 6512SOL    HW130995   3.977   0.733   3.615  2.0588  2.7352  1.2134
 6512SOL    HW230996   3.938   0.865   3.626 -0.0810  0.5015 -0.8715
 6513SOL     OW30997   2.650   3.211  14.521 -0.0477  0.0279 -0.3975
 6513SOL    HW130998   2.614   3.194  14.609  0.1210 -0.2802 -0.3883
 6513SOL    HW230999   2.741   3.234  14.538  0.5713 -1.1511 -2.1122
 6514SOL     OW31000   1.403   1.987  13.496 -0.4035 -0.7948 -0.4647
 6514SOL    HW131001   1.434   2.048  13.429 -1.5431  0.7182  0.3769
 6514SOL    HW231002   1.431   1.903  13.459 -1.0912 -1.8179  1.3222
 6515SOL     OW31003   4.039   0.644   2.130 -0.1229 -0.3326 -0.1349
 6515SOL    HW131004   4.079   0.650   2.044  0.7032  2.0585  0.4101
 6515SOL    HW231005   4.036   0.734   2.164  0.1748 -0.1955 -0.4704
 6516SOL     OW31006   2.744   1.460   2.219  0.4483 -0.0043 -0.1222
 6516SOL    HW131007   2.649   1.461   2.227  0.3863 -5.7589  0.2105
 6516SOL    HW231008   2.760   1.391   2.284  1.4011  0.7631  0.4579
 6517SOL     OW31009   0.478   2.889   6.888  0.6025  0.4518  0.6232
 6517SOL    HW131010   0.527   2.809   6.866 -0.7927 -0.0513 -0.6951
 6517SOL    HW231011   0.444   2.906   6.800  1.7376 -1.0827 -0.1176
 6518SOL     OW31012   0.974   4.355   3.797 -0.2114 -0.0274  0.6379
 6518SOL    HW131013   1.029   4.277   3.791 -0.3983 -0.0126 -1.1047
 6518SOL    HW231014   1.009   4.410   3.867  0.3770 -0.0157  0.3393
 6519SOL     OW31015   3.048   3.833  11.890 -0.1046 -0.2712  0.1153
 6519SOL    HW131016   2.989   3.873  11.826 -0.3490  0.3579  0.7309
 6519SOL    HW231017   3.001   3.762  11.933 -0.5440  0.4479  0.8398
 6520SOL     OW31018   0.679   2.827  14.269 -0.0349  0.2707  0.4852
 6520SOL    HW131019   0.616   2.756  14.283 -0.4945  0.7366  0.8017
 6520SOL    HW231020   0.658   2.864  14.184 -2.2142 -1.4178  0.3006
 6521SOL     OW31021   1.875   3.896   7.332  0.2891 -0.0455 -0.2397
 6521SOL    HW131022   1.909   3.890   7.243 -0.8460  3.2412 -0.8861
 6521SOL    HW231023   1.867   3.991   7.341 -0.4197 -0.1545  0.3000
 6522SOL     OW31024   4.096   4.458   0.148 -0.5597  0.2036 -0.1362
 6522SOL    HW131025   4.122   4.431   0.060  0.7846  0.7832  0.0846
 6522SOL    HW231026   4.169   4.513   0.175 -0.9077  0.5680  0.0695
 6523SOL     OW31027   4.709   3.187   3.306 -0.5008  0.4786  0.2330
 6523SOL    HW131028   4.688   3.094   3.313  2.6068 -0.0801  2.1718
 6523SOL    HW231029   4.667   3.211   3.224 -0.1659 -0.4162 -0.2045
 6524SOL     OW31030   0.745   1.254  17.408  0.4104 -0.1047  0.1600
 6524SOL    HW131031   0.732   1.292  17.495 -0.6768 -1.9886  0.8094
 6524SOL    HW231032   0.819   1.193  17.415 -0.4979 -1.4806 -2.4484
 6525SOL     OW31033   3.544   0.060   3.079 -0.1910  0.4675 -0.2697
 6525SOL    HW131034   3.608   0.131   3.078  2.1286 -1.6631  0.0654
 6525SOL    HW231035   3.540   0.046   2.984  1.1981 -1.3297 -0.0529
 6526SOL     OW31036   0.164   3.063   4.849 -0.0269 -0.3741 -0.0172
 6526SOL    HW131037   0.173   3.125   4.777  1.7123  0.5543  0.9922
 6526SOL    HW231038   0.072   3.075   4.870 -0.1692  0.8517 -1.3309
 6527SOL     OW31039   1.713   1.514   7.160  0.1729 -0.6003  0.6559
 6527SOL    HW131040   1.683   1.581   7.221  1.1731 -1.5215  2.1734
 6527SOL    HW231041   1.631   1.484   7.121  0.4350  0.4563 -0.6922
 6528SOL     OW31042   0.364   0.297  13.705 -0.3916  0.2123  0.2969
 6528SOL    HW131043   0.393   0.387  13.725 -1.7228  0.8487 -0.6113
 6528SOL    HW231044   0.286   0.286  13.760  0.7693 -0.3168  1.8138
 6529SOL     OW31045   3.066   2.937   7.841 -0.5182 -0.7246 -0.8738
 6529SOL    HW131046   3.002   2.887   7.790 -2.0107 -1.1417  1.3777
 6529SOL    HW231047   3.039   2.906   7.928 -0.3906 -1.2253 -1.0116
 6530SOL     OW31048   4.703   0.291   8.946  0.1090  0.1502 -0.1546
 6530SOL    HW131049   4.630   0.242   8.908 -0.1667  0.9683 -0.6916
 6530SOL    HW231050   4.698   0.381   8.914  0.4989  0.2157 -0.0292
 6531SOL     OW31051   2.355   2.194   3.952  0.0869  0.2023 -0.0090
 6531SOL    HW131052   2.427   2.243   3.990 -0.0354  1.0887 -0.9056
 6531SOL    HW231053   2.350   2.112   4.001  1.1174 -1.2140 -2.2687
 6532SOL     OW31054   0.377   4.317  11.916  0.1775  0.0724  0.0213
 6532SOL    HW131055   0.404   4.404  11.947  0.1734  0.1450 -0.1817
 6532SOL    HW231056   0.290   4.308  11.957  1.1848  0.8239  2.3417
 6533SOL     OW31057   2.357   2.582  17.520 -0.0395  0.7360 -0.2295
 6533SOL    HW131058   2.317   2.502  17.552 -0.3149  1.5222  1.4199
 6533SOL    HW231059   2.383   2.546  17.436 -2.7408  0.7279 -1.0543
 6534SOL     OW31060   1.525   0.741   4.392 -0.3902 -0.0695 -0.1040
 6534SOL    HW131061   1.619   0.724   4.377 -0.4458 -2.9507  2.7283
 6534SOL    HW231062   1.515   0.792   4.312 -0.7617  0.5000  0.3118
 6535SOL     OW31063   3.523   4.467  17.141  0.0873 -0.2833 -0.1176
 6535SOL    HW131064   3.577   4.438  17.068  0.4023  0.4715 -0.1855
 6535SOL    HW231065   3.558   4.414  17.213  2.7486  1.6571  0.0168
 6536SOL     OW31066   1.238   1.886   1.878  0.0474 -0.1324  0.4124
 6536SOL    HW131067   1.229   1.963   1.822  1.6393 -0.5802 -0.4357
 6536SOL    HW231068   1.318   1.845   1.846  0.4597 -0.3006  1.6876
 6537SOL     OW31069   2.715   4.717   1.351  0.2683  0.1647 -0.3412
 6537SOL    HW131070   2.675   0.045   1.422  1.3970  1.7173 -0.8044
 6537SOL    HW231071   2.656   0.018   1.279 -0.2923  0.1503  0.1096
 6538SOL     OW31072   3.113   3.954   2.770 -0.4390 -0.2585 -0.0072
 6538SOL    HW131073   3.075   3.908   2.845 -0.1774 -1.6627 -0.7233
 6538SOL    HW231074   3.059   4.033   2.760  1.5639  1.3563  2.0609
 6539SOL     OW31075   0.712   2.171   3.212 -0.4442  0.2860  0.4459
 6539SOL    HW131076   0.788   2.228   3.227 -0.3069  0.3965 -0.6708
 6539SOL    HW231077   0.720   2.104   3.279 -0.3794  0.4962  0.6475
 6540SOL     OW31078   4.186   4.338   7.448  0.6593  0.0013  0.5933
 6540SOL    HW131079   4.267   4.295   7.476 -0.5791 -1.9303  1.1678
 6540SOL    HW231080   4.127   4.302   7.514 -1.0167 -1.6550 -1.7848
 6541SOL     OW31081   1.512   0.742  11.083  0.2144  0.0987  0.2886
 6541SOL    HW131082   1.510   0.684  11.007 -0.8959  0.4772  0.0376
 6541SOL    HW231083   1.417   0.751  11.087  0.2262  1.4590 -2.4711
 6542SOL     OW31084   0.921   2.780   0.977 -0.6348 -0.0426 -0.7922
 6542SOL    HW131085   1.015   2.789   0.992 -0.9473  2.0822 -0.2539
 6542SOL    HW231086   0.897   2.872   0.968  0.5051  0.2843 -0.4357
 6543SOL     OW31087   3.625   2.301   2.425  0.6841  0.2032 -0.8193
 6543SOL    HW131088   3.694   2.331   2.485 -1.0758 -0.8662  1.7479
 6543SOL    HW231089   3.670   2.232   2.376  0.4009  0.1494 -1.0035
 6544SOL     OW31090   1.894   2.280   6.550 -0.1192 -0.0316  0.1795
 6544SOL    HW131091   1.967   2.257   6.493 -0.5964  0.0735 -0.4731
 6544SOL    HW231092   1.827   2.227   6.506 -0.4490 -0.5613  1.3154
 6545SOL     OW31093   0.254   2.818   3.211  0.9029 -0.3360  0.2129
 6545SOL    HW131094   0.244   2.905   3.172  0.7070  0.0864  1.2084
 6545SOL    HW231095   0.345   2.818   3.240  1.1825 -1.4660 -0.6557
 6546SOL     OW31096   2.502   2.216  14.294 -0.4292 -0.0873 -0.1083
 6546SOL    HW131097   2.528   2.280  14.360 -0.5469  0.3829 -0.5163
 6546SOL    HW231098   2.521   2.265  14.213 -1.8965  2.2079  0.9385
 6547SOL     OW31099   3.922   3.271  14.385 -0.1095  0.4127  0.1406
 6547SOL    HW131100   3.860   3.224  14.440  1.4284 -1.1705  0.5014
 6547SOL    HW231101   3.936   3.348  14.441 -2.5002  0.8381  0.1748
 6548SOL     OW31102   2.022   4.620   8.178  0.1636 -0.3556 -0.1946
 6548SOL    HW131103   2.106   4.665   8.175 -0.8724  1.4419 -2.9177
 6548SOL    HW231104   1.971   4.695   8.146  1.1238  0.5352  0.3685
 6549SOL     OW31105   2.811   4.660   3.407  0.6888  0.5337 -0.2737
 6549SOL    HW131106   2.733   4.618   3.443  0.7829  0.3967 -0.2281
 6549SOL    HW231107   2.873   4.591   3.431  0.3777  0.1520 -0.5533
 6550SOL     OW31108   3.742   3.673   1.698 -0.0094 -0.7122  0.7306
 6550SOL    HW131109   3.748   3.747   1.638 -1.4282  0.1493  1.6570
 6550SOL    HW231110   3.655   3.644   1.670  0.8396 -1.8711 -0.7493
 6551SOL     OW31111   2.234   1.003   5.699 -0.1703 -0.0857 -0.2636
 6551SOL    HW131112   2.203   0.926   5.747 -1.0423  1.0653  0.9741
 6551SOL    HW231113   2.157   1.059   5.688  0.4664  0.3735 -2.4927
 6552SOL     OW31114   4.350   0.050   5.834  0.2944 -0.2325 -0.2201
 6552SOL    HW131115   4.368   0.080   5.923 -2.3808 -0.8804  0.5379
 6552SOL    HW231116   4.354   0.124   5.773  1.6109  0.2971  0.4951
 6553SOL     OW31117   2.766   3.456   6.602 -0.4293  0.1221 -0.1274
 6553SOL    HW131118   2.858   3.452   6.628 -0.1043  0.1923 -1.2589
 6553SOL    HW231119   2.745   3.529   6.661 -3.6602 -1.3928  0.5928
 6554SOL     OW31120   1.950   3.243  10.251  0.0906 -0.5427 -0.1087
 6554SOL    HW131121   1.871   3.191  10.262 -0.3562  0.2442  0.4551
 6554SOL    HW231122   1.975   3.226  10.161  0.4985  0.6165 -0.2167
 6555SOL     OW31123   0.029   1.057   5.785  0.2860 -0.2244 -0.0230
 6555SOL    HW131124   0.075   0.994   5.730  1.9685  1.2726 -0.3383
 6555SOL    HW231125   4.659   1.045   5.766  0.1477  0.8225 -0.0243
 6556SOL     OW31126   1.435   2.303   4.405  0.9368 -0.2769  0.6262
 6556SOL    HW131127   1.373   2.263   4.465 -0.2977  0.6265 -0.0538
 6556SOL    HW231128   1.490   2.337   4.476 -1.1217  0.8436  1.6995
 6557SOL     OW31129   0.485   0.710   2.536  0.0823  0.5039  0.0122
 6557SOL    HW131130   0.467   0.759   2.456 -0.0464 -2.7184 -1.9050
 6557SOL    HW231131   0.526   0.633   2.497 -0.6187 -0.8667  1.9451
 6558SOL     OW31132   2.881   2.761   4.636  0.5453  0.4388 -0.6075
 6558SOL    HW131133   2.850   2.707   4.709  1.9886  0.3719 -0.0382
 6558SOL    HW231134   2.887   2.847   4.679 -0.7485  0.3305 -0.2195
 6559SOL     OW31135   0.763   2.085   2.806 -0.1007  0.3047 -0.0094
 6559SOL    HW131136   0.733   2.028   2.877  3.2493 -1.6075 -0.1518
 6559SOL    HW231137   0.747   2.174   2.839  0.4499  0.6794 -0.7565
 6560SOL     OW31138   2.361   3.046  10.689  0.1443 -0.6271 -0.6320
 6560SOL    HW131139   2.316   2.965  10.713  2.2131 -1.5824 -0.0326
 6560SOL    HW231140   2.325   3.073  10.605 -0.9281 -1.4061 -0.4244
 6561SOL     OW31141   2.200   4.185   6.490  0.3398 -0.0781 -0.2522
 6561SOL    HW131142   2.295   4.181   6.476  0.1344  0.9894 -2.0921
 6561SOL    HW231143   2.191   4.225   6.576 -0.5657 -0.0833 -0.3468
 6562SOL     OW31144   3.125   2.877   8.526 -0.3636 -0.0945  0.3000
 6562SOL    HW131145   3.176   2.930   8.465  0.5479 -0.2118  0.9488
 6562SOL    HW231146   3.043   2.925   8.528 -0.7676 -0.7941  0.3141
 6563SOL     OW31147   4.125   1.664   5.768  0.5317  0.6792 -0.1427
 6563SOL    HW131148   4.158   1.750   5.743 -0.8218  0.6802 -1.8965
 6563SOL    HW231149   4.043   1.696   5.806 -0.4416 -1.5275 -0.3832
 6564SOL     OW31150   0.650   3.290   3.474 -0.2830 -0.0117 -0.1335
 6564SOL    HW131151   0.639   3.385   3.470 -0.3643 -0.0634 -1.2098
 6564SOL    HW231152   0.603   3.262   3.553 -0.0912  0.7843  0.2617
 6565SOL     OW31153   1.966   1.927   2.287 -0.0142 -0.2711  0.0721
 6565SOL    HW131154   2.043   1.923   2.343 -1.0328 -1.3445  1.3857
 6565SOL    HW231155   2.000   1.877   2.212  1.1720  0.2329  0.2747
 6566SOL     OW31156   1.012   1.713   4.717 -0.0521  0.5314  0.0503
 6566SOL    HW131157   1.056   1.775   4.658  1.9141  0.7294  1.7389
 6566SOL    HW231158   1.047   1.730   4.804  1.5540  0.6698 -0.6268
 6567SOL     OW31159   1.807   3.746  12.311  0.0542  0.8733 -0.3514
 6567SOL    HW131160   1.773   3.695  12.237  0.7399 -1.0494  0.6558
 6567SOL    HW231161   1.872   3.686  12.348 -0.4482  2.1389  2.5822
 6568SOL     OW31162   3.900   4.075  15.504 -0.0372  0.2811 -0.0730
 6568SOL    HW131163   3.809   4.050  15.489 -0.0822  1.4302 -1.6022
 6568SOL    HW231164   3.885   4.165  15.477 -1.6960  0.7015  2.2474
 6569SOL     OW31165   1.624   4.652   3.018 -0.2560 -0.4534 -0.4156
 6569SOL    HW131166   1.545   4.619   2.974 -0.1412  0.0458 -0.9857
 6569SOL    HW231167   1.594   0.019   3.029 -1.3769 -0.7548 -0.9472
 6570SOL     OW31168   0.945   1.191   2.240  0.0525  0.5565 -0.2181
 6570SOL    HW131169   1.007   1.178   2.168 -3.8379  0.9979 -3.6564
 6570SOL    HW231170   0.999   1.228   2.310 -1.9123 -0.9097  2.0728
 6571SOL     OW31171   2.238   4.236   2.835  0.4302 -0.8343  0.1527
 6571SOL    HW131172   2.281   4.316   2.807  0.0879 -0.2935  1.1657
 6571SOL    HW231173   2.261   4.184   2.758 -2.7608  1.3309 -2.2354
 6572SOL     OW31174   1.642   3.036   0.051  0.8911  0.1679  0.4032
 6572SOL    HW131175   1.731   3.001   0.041  0.5775 -0.6730  0.5494
 6572SOL    HW231176   1.598   2.952   0.062  2.1322 -0.5786 -0.3615
 6573SOL     OW31177   3.663   2.646  13.471  0.0440 -0.7042  0.2190
 6573SOL    HW131178   3.568   2.633  13.480  0.2904 -2.2755  0.5123
 6573SOL    HW231179   3.667   2.729  13.425 -0.8422 -3.3109 -4.5924
 6574SOL     OW31180   2.368   2.741  11.207 -0.5460  0.4980 -0.6048
 6574SOL    HW131181   2.293   2.681  11.199 -0.1643 -0.1636  0.7914
 6574SOL    HW231182   2.416   2.715  11.128 -1.7845 -0.1963 -1.1325
 6575SOL     OW31183   3.364   2.520   6.754 -0.1226  0.0618  0.0973
 6575SOL    HW131184   3.313   2.566   6.822 -0.0226 -0.4794  0.5394
 6575SOL    HW231185   3.352   2.429   6.781  0.4557  0.1039  0.5023
 6576SOL     OW31186   4.259   4.555   2.792  0.5331  0.5378 -0.2097
 6576SOL    HW131187   4.244   4.554   2.697 -0.2943  0.6860 -0.0809
 6576SOL    HW231188   4.177   4.520   2.825 -0.0485  2.3558  0.2865
 6577SOL     OW31189   2.304   0.167   6.482  0.3017 -0.0226 -0.3340
 6577SOL    HW131190   2.290   0.081   6.444  0.5334 -0.5730  0.8136
 6577SOL    HW231191   2.215   0.198   6.464 -0.8548 -4.2844 -1.9564
 6578SOL     OW31192   0.960   4.684  10.998 -0.5104  0.1034 -0.9143
 6578SOL    HW131193   0.949   0.054  10.977 -0.1829 -0.1469 -2.2505
 6578SOL    HW231194   0.973   4.675  11.092  2.5572 -0.1867 -1.3812
 6579SOL     OW31195   2.935   3.002   4.749 -0.1664  0.3358 -0.4938
 6579SOL    HW131196   2.999   3.024   4.681  1.1243  2.8242  1.5352
 6579SOL    HW231197   2.886   3.084   4.749 -0.4022  0.1954 -1.0480
 6580SOL     OW31198   1.380   3.460   2.596 -0.0768 -0.4658  0.1163
 6580SOL    HW131199   1.445   3.401   2.559  0.7137 -0.6128  1.7289
 6580SOL    HW231200   1.407   3.542   2.556  0.6208  0.0719  1.6865
 6581SOL     OW31201   4.391   0.279  13.447 -0.1016 -0.1117 -0.1632
 6581SOL    HW131202   4.406   0.190  13.415 -2.3678 -1.5144  2.6864
 6581SOL    HW231203   4.399   0.334  13.369  0.7432  0.0116  0.0185
 6582SOL     OW31204   0.768   3.179   2.645  0.3013 -0.2301 -0.0048
 6582SOL    HW131205   0.799   3.091   2.623 -0.6427 -0.1756 -1.5557
 6582SOL    HW231206   0.717   3.162   2.724 -0.7338 -0.2043 -0.6708
 6583SOL     OW31207   2.972   3.969   8.245 -0.5425 -0.2832  0.1285
 6583SOL    HW131208   3.058   4.012   8.252 -1.2997  1.3489 -0.5516
 6583SOL    HW231209   2.930   3.949   8.329  1.1429  0.7228  1.2142
 6584SOL     OW31210   2.485   2.750  16.280 -0.3014 -0.0262  0.3562
 6584SOL    HW131211   2.532   2.690  16.221  2.5014  3.5845 -1.0654
 6584SOL    HW231212   2.409   2.768  16.225 -0.2392 -0.0269  0.2705
 6585SOL     OW31213   2.740   1.113   1.849 -0.0541  0.4506 -0.1946
 6585SOL    HW131214   2.748   1.187   1.789  0.9576  0.2174 -0.3442
 6585SOL    HW231215   2.649   1.122   1.879  0.1911 -1.3916  1.1154
 6586SOL     OW31216   1.903   4.000  16.909  0.2478 -0.1408 -0.1475
 6586SOL    HW131217   1.899   4.051  16.828 -1.6745 -0.6012 -0.3433
 6586SOL    HW231218   1.932   3.916  16.873 -0.0114 -0.5884  0.7092
 6587SOL     OW31219   4.077   1.033   7.679 -0.0496  0.2130 -0.1632
 6587SOL    HW131220   4.161   0.989   7.668  0.4647  1.5457 -1.6716
 6587SOL    HW231221   4.067   1.027   7.774  1.4302 -1.3477 -0.1081
 6588SOL     OW31222   1.888   2.907  16.873  0.2270  0.3363 -0.0498
 6588SOL    HW131223   1.818   2.970  16.893  0.4954 -0.0207  1.9487
 6588SOL    HW231224   1.853   2.827  16.911 -1.6456  1.0436 -0.2766
 6589SOL     OW31225   3.742   0.260   3.066  0.2919 -0.6799 -0.2824
 6589SOL    HW131226   3.833   0.232   3.056 -0.1189 -1.9166 -0.4967
 6589SOL    HW231227   3.745   0.354   3.086  0.1648 -0.7126 -0.1066
 6590SOL     OW31228   4.180   1.484   3.300 -0.6308 -0.2297  0.5936
 6590SOL    HW131229   4.269   1.449   3.301 -0.4812  0.0949 -1.2330
 6590SOL    HW231230   4.127   1.405   3.291  2.0477 -1.8700 -0.6373
 6591SOL     OW31231   4.114   2.301   5.274  0.4142  0.3055  0.3824
 6591SOL    HW131232   4.115   2.261   5.187 -0.8936  0.6972  0.1906
 6591SOL    HW231233   4.208   2.311   5.290  0.3677  2.2104 -0.5755
 6592SOL     OW31234   4.379   4.283  12.775  0.5539 -0.4928  0.1665
 6592SOL    HW131235   4.419   4.267  12.861  0.3506  0.7664  0.4931
 6592SOL    HW231236   4.405   4.208  12.722  1.7258  1.0735 -1.4615
 6593SOL     OW31237   3.035   2.978  15.471  0.5766 -0.0718 -0.7313
 6593SOL    HW131238   3.088   3.011  15.543 -0.1304 -0.7101  0.0907
 6593SOL    HW231239   3.092   3.009  15.401  2.0219  2.3211  1.5303
 6594SOL     OW31240   4.338   3.122   4.368  0.3898  0.4000 -0.1789
 6594SOL    HW131241   4.396   3.046   4.378  0.3955  0.3955 -0.2417
 6594SOL    HW231242   4.309   3.136   4.458  1.7757 -2.4970  0.7147
 6595SOL     OW31243   3.931   1.476   1.708 -0.7106 -0.3533 -0.1390
 6595SOL    HW131244   3.979   1.398   1.734 -1.6647 -0.5428  1.0722
 6595SOL    HW231245   3.956   1.474   1.616  0.1534 -0.4072  0.1036
 6596SOL     OW31246   2.464   3.374  17.468  0.4827 -0.3809 -0.3143
 6596SOL    HW131247   2.497   3.343  17.384  1.1172  0.6387 -0.4440
 6596SOL    HW231248   2.544   3.395  17.516  0.2155 -0.9347  0.3743
 6597SOL     OW31249   1.877   4.055   0.595  0.1481 -0.3260  0.5175
 6597SOL    HW131250   1.924   4.137   0.608 -2.5646  0.9107  2.6835
 6597SOL    HW231251   1.937   4.000   0.545 -1.0145  0.0005 -1.2219
 6598SOL     OW31252   1.965   2.553   1.998  0.6134 -0.1008 -0.5535
 6598SOL    HW131253   1.906   2.526   1.927  1.2349 -0.3112 -0.9880
 6598SOL    HW231254   1.954   2.648   1.993 -1.1759 -0.3041 -0.7370
 6599SOL     OW31255   1.096   4.114   8.205  0.0188 -0.0624  0.1182
 6599SOL    HW131256   1.051   4.111   8.290 -2.3649  0.6149 -1.1233
 6599SOL    HW231257   1.115   4.021   8.195  0.7791  0.1379 -0.2507
 6600SOL     OW31258   0.251   2.949   7.431  0.5121 -0.1943 -0.3619
 6600SOL    HW131259   0.273   2.967   7.522 -1.7045 -1.5719  0.4394
 6600SOL    HW231260   0.182   2.886   7.450 -0.3546  1.4203  1.7515
 6601SOL     OW31261   2.200   0.317   3.765  0.0176  0.3778  0.3451
 6601SOL    HW131262   2.253   0.305   3.844 -0.3602 -0.1136  0.5177
 6601SOL    HW231263   2.226   0.409   3.753  2.2792 -0.4556 -1.1997
 6602SOL     OW31264   4.561   4.516   7.725  0.3460 -0.2909 -0.6284
 6602SOL    HW131265   4.499   4.576   7.682  0.6823  1.1589  0.9314
 6602SOL    HW231266   4.545   4.436   7.674 -0.3170 -2.4243  2.9690
 6603SOL     OW31267   0.077   3.571  11.567 -0.1578  0.7624  0.2119
 6603SOL    HW131268   0.167   3.543  11.550 -0.8758 -0.1830 -2.0548
 6603SOL    HW231269   0.065   3.552  11.660  2.1509 -2.3118 -0.1472
 6604SOL     OW31270   3.914   0.418  16.672 -0.1877  0.2092  0.4107
 6604SOL    HW131271   3.854   0.490  16.692 -2.4062 -1.5770  0.2227
 6604SOL    HW231272   3.964   0.383  16.746  1.4094  0.7191 -0.4301
 6605SOL     OW31273   0.479   2.414   9.677 -0.1931 -0.0122  0.6252
 6605SOL    HW131274   0.562   2.369   9.663 -0.6929 -0.8015  0.2260
 6605SOL    HW231275   0.494   2.496   9.630 -1.9799  0.5259  0.9914
 6606SOL     OW31276   0.192   3.849  12.449  0.3424 -0.4542  0.0704
 6606SOL    HW131277   0.268   3.873  12.503 -0.2706 -1.9327  1.6063
 6606SOL    HW231278   0.127   3.917  12.468  0.6499 -0.1335 -0.0218
 6607SOL     OW31279   3.376   3.112  15.880 -0.0300  0.2414 -0.3905
 6607SOL    HW131280   3.396   3.198  15.842  1.8255 -0.0876 -0.1312
 6607SOL    HW231281   3.374   3.138  15.972  0.2967 -4.9308  1.0776
 6608SOL     OW31282   2.855   1.429   6.985 -0.2505  0.1102  0.1966
 6608SOL    HW131283   2.882   1.372   6.913  2.1383 -0.1782  1.3311
 6608SOL    HW231284   2.761   1.412   6.986 -0.3701  0.8228  1.5406
 6609SOL     OW31285   2.590   1.013   5.354  0.4177  0.1772 -0.4091
 6609SOL    HW131286   2.558   1.103   5.346  1.0160  0.3719 -0.5772
 6609SOL    HW231287   2.520   0.974   5.407  0.4967 -0.0046 -0.4389
 6610SOL     OW31288   2.749   4.540  11.292  0.2082 -0.8717 -0.2506
 6610SOL    HW131289   2.812   4.522  11.223  0.1097 -0.3470 -0.4783
 6610SOL    HW231290   2.772   4.470  11.354 -1.4402 -0.2532  1.0623
 6611SOL     OW31291   3.008   3.656   4.499 -0.0235  1.0392  0.0685
 6611SOL    HW131292   2.933   3.639   4.441 -2.0551  2.0238  2.4382
 6611SOL    HW231293   3.090   3.662   4.449 -1.3034 -2.7382 -2.5109
 6612SOL     OW31294   4.287   0.874   9.314 -0.5644  0.1130  0.2376
 6612SOL    HW131295   4.325   0.813   9.378 -0.0171  1.1780  0.9174
 6612SOL    HW231296   4.295   0.957   9.360  1.0140 -0.4781  1.0431
 6613SOL     OW31297   0.490   1.258   1.509  0.2045  0.4076 -0.0448
 6613SOL    HW131298   0.419   1.277   1.447 -0.0744  1.8340  0.7012
 6613SOL    HW231299   0.484   1.336   1.565  0.0782  0.5321 -0.2311
 6614SOL     OW31300   1.587   0.249   6.830  0.2392  0.1635  0.4210
 6614SOL    HW131301   1.525   0.317   6.856  0.6176  0.8797 -0.5303
 6614SOL    HW231302   1.673   0.284   6.853  0.5986  0.0104 -0.6954
 6615SOL     OW31303   3.228   1.394   2.814 -0.2628 -0.3341 -0.8578
 6615SOL    HW131304   3.166   1.459   2.846  2.4722  0.9937  1.8129
 6615SOL    HW231305   3.306   1.423   2.862 -1.1878  2.3425 -1.0233
 6616SOL     OW31306   0.552   4.034  11.000  0.3975  0.5652  0.2971
 6616SOL    HW131307   0.462   4.053  10.974  0.2485  2.0012  1.8162
 6616SOL    HW231308   0.540   3.939  11.005  2.8532  0.1965 -0.7337
 6617SOL     OW31309   2.540   1.467   2.581 -0.8738  0.0467  0.3803
 6617SOL    HW131310   2.451   1.460   2.616 -0.1187  0.6820  2.4435
 6617SOL    HW231311   2.550   1.562   2.581  0.7716 -0.1340  0.4375
 6618SOL     OW31312   0.743   4.235  10.845  0.0578  0.1860  0.0424
 6618SOL    HW131313   0.648   4.223  10.852  0.0407 -1.4194 -2.5937
 6618SOL    HW231314   0.759   4.299  10.914  0.0716 -0.8908  1.0295
 6619SOL     OW31315   2.887   1.723  17.121 -0.1686 -0.5849 -0.1678
 6619SOL    HW131316   2.844   1.808  17.109  0.4283 -0.3833 -0.8819
 6619SOL    HW231317   2.947   1.728  17.046 -0.8791  0.6419 -0.6648
 6620SOL     OW31318   1.825   2.973  10.988  0.0554  0.5730 -0.4423
 6620SOL    HW131319   1.760   2.930  11.045 -0.7313  2.7574  0.3152
 6620SOL    HW231320   1.792   3.061  11.009 -0.5591  0.5682 -1.3976
 6621SOL     OW31321   0.838   2.641   5.821 -0.0391 -0.3436  0.4266
 6621SOL    HW131322   0.775   2.576   5.791  0.6940 -0.5756 -0.6112
 6621SOL    HW231323   0.855   2.679   5.735  1.1213 -0.6429  0.5200
 6622SOL     OW31324   1.757   3.368   5.186  0.0336 -0.0804  0.1221
 6622SOL    HW131325   1.688   3.408   5.240  1.9042  1.9067  1.0457
 6622SOL    HW231326   1.698   3.311   5.136  1.2046  1.4833 -3.0204
 6623SOL     OW31327   0.698   4.186   2.196 -0.5636 -0.0151  0.4520
 6623SOL    HW131328   0.609   4.173   2.230 -0.9081  1.3896  0.0707
 6623SOL    HW231329   0.705   4.280   2.181  0.3171 -0.2847 -0.8204
 6624SOL     OW31330   3.260   1.693  12.009  0.1121  0.0837 -0.0888
 6624SOL    HW131331   3.321   1.743  12.064 -1.5234  2.5357 -0.5235
 6624SOL    HW231332   3.214   1.645  12.077  1.3114  1.4515  1.7108
 6625SOL     OW31333   3.869   0.582   6.704 -0.1828  0.5064  0.3491
 6625SOL    HW131334   3.807   0.633   6.757 -0.5199  2.3496 -1.8668
 6625SOL    HW231335   3.828   0.586   6.618  1.7449  1.8641 -0.5056
 6626SOL     OW31336   2.234   1.515   7.812 -1.1293 -0.5430 -0.4983
 6626SOL    HW131337   2.227   1.530   7.906 -1.0225  0.5044 -0.6528
 6626SOL    HW231338   2.215   1.604   7.782  0.9849 -0.5210 -1.8160
 6627SOL     OW31339   3.600   3.760   4.586 -0.3053  0.1208 -0.4274
 6627SOL    HW131340   3.616   3.854   4.597 -0.1624 -0.0349  0.7438
 6627SOL    HW231341   3.632   3.748   4.497 -1.8775  0.5569 -1.0475
 6628SOL     OW31342   3.001   1.050  13.044  0.1001 -0.3270 -0.0026
 6628SOL    HW131343   2.983   1.117  13.110  0.4756 -0.0800 -0.1499
 6628SOL    HW231344   3.045   1.108  12.982  2.6646 -2.5568 -0.2799
 6629SOL     OW31345   3.917   1.390   6.309 -0.4843  0.4853  0.0004
 6629SOL    HW131346   4.002   1.390   6.353 -2.2073 -0.5954  3.3763
 6629SOL    HW231347   3.948   1.418   6.223 -1.8434 -2.2797 -1.3585
 6630SOL     OW31348   2.924   1.801   2.996  0.0200  0.4589 -0.6116
 6630SOL    HW131349   2.868   1.877   3.005  0.1400  0.5782 -0.8608
 6630SOL    HW231350   3.014   1.829   3.015 -0.0082 -0.2656  0.5775
 6631SOL     OW31351   4.702   2.515   1.531 -0.1499  0.9423 -0.2599
 6631SOL    HW131352   4.631   2.451   1.518 -0.0728  0.6559  0.7253
 6631SOL    HW231353   0.061   2.469   1.516 -0.8940 -0.4904  0.0250
 6632SOL     OW31354   3.683   0.247   9.245  0.3195 -0.3506 -0.3996
 6632SOL    HW131355   3.703   0.179   9.181 -1.7970 -1.6541  0.2975
 6632SOL    HW231356   3.662   0.330   9.203 -1.3398 -1.3099 -1.4560
 6633SOL     OW31357   0.718   0.545   2.403 -0.1392  0.2754 -0.2106
 6633SOL    HW131358   0.775   0.525   2.329  0.8021  0.5436  0.4477
 6633SOL    HW231359   0.642   0.499   2.368 -0.6569 -0.7304  2.2187
 6634SOL     OW31360   3.865   2.874   2.465 -0.1097  0.2261 -0.7768
 6634SOL    HW131361   3.934   2.808   2.453 -0.6196 -0.7558  1.7488
 6634SOL    HW231362   3.890   2.934   2.395 -0.5251  2.0208  0.6214
 6635SOL     OW31363   1.318   1.273   8.806 -0.0386  0.3763 -0.4763
 6635SOL    HW131364   1.370   1.246   8.730  0.4250  3.1635 -1.1651
 6635SOL    HW231365   1.304   1.196   8.861  2.0229 -0.6011 -1.2845
 6636SOL     OW31366   3.663   4.715   9.974 -0.5208  0.2534 -0.5238
 6636SOL    HW131367   3.675   4.622   9.992 -1.3048  0.2241 -0.1685
 6636SOL    HW231368   3.638   0.028  10.059 -1.3715 -0.5551 -0.4303
 6637SOL     OW31369   3.973   3.802  15.125 -0.0197  0.7641 -0.1538
 6637SOL    HW131370   3.882   3.812  15.153  0.1319 -2.5726  1.5324
 6637SOL    HW231371   4.019   3.841  15.199  1.1378  0.0721 -0.5084
 6638SOL     OW31372   3.381   1.528   2.603  0.2903  0.3170 -0.3004
 6638SOL    HW131373   3.418   1.465   2.541 -0.3429  0.7021 -1.0764
 6638SOL    HW231374   3.350   1.468   2.671  1.0169  1.5485  1.1262
 6639SOL     OW31375   1.001   4.538   4.215 -0.1245  0.3838  0.0785
 6639SOL    HW131376   1.047   4.524   4.133  0.6683  1.4852  0.3326
 6639SOL    HW231377   0.910   4.552   4.188  0.5256 -0.3185 -2.4058
 6640SOL     OW31378   4.124   0.537   9.333  0.2238 -0.6691 -0.1583
 6640SOL    HW131379   4.040   0.495   9.350 -0.2116  0.3766  0.2937
 6640SOL    HW231380   4.125   0.542   9.237  1.3038  2.9306  0.0371
 6641SOL     OW31381   1.886   2.919   0.517  0.1560 -0.2033  0.5798
 6641SOL    HW131382   1.928   2.915   0.603  1.2352  0.4578  0.0743
 6641SOL    HW231383   1.798   2.907   0.555 -0.4565  3.1306  0.1816
 6642SOL     OW31384   4.029   3.016  15.277 -0.3585  0.1415 -0.0260
 6642SOL    HW131385   4.037   3.089  15.216  0.0661  1.0501  1.1186
 6642SOL    HW231386   3.947   2.982  15.242  1.5752 -0.6380 -3.8476
 6643SOL     OW31387   0.798   3.119   9.992 -0.5254  0.4013  0.1574
 6643SOL    HW131388   0.867   3.058  10.018 -1.6189 -1.4768 -1.3322
 6643SOL    HW231389   0.726   3.097  10.051 -1.2126  1.6405 -0.2221
 6644SOL     OW31390   2.098   1.475   4.560  0.5000  0.4243 -0.2751
 6644SOL    HW131391   2.188   1.471   4.591  0.5971  1.6840 -0.3653
 6644SOL    HW231392   2.059   1.401   4.606 -0.2100  0.0254 -1.5399
 6645SOL     OW31393   4.074   2.593  17.211 -0.0111 -0.2026 -0.2507
 6645SOL    HW131394   4.029   2.657  17.266  0.0781 -0.1887 -0.1953
 6645SOL    HW231395   4.062   2.513  17.262  1.8324  1.1805  2.3155
 6646SOL     OW31396   3.838   2.090   7.051  0.9887 -0.0534 -0.1302
 6646SOL    HW131397   3.780   2.144   7.104  3.1373 -1.0506  3.2350
 6646SOL    HW231398   3.801   2.106   6.964  1.7471  1.7326 -0.1070
 6647SOL     OW31399   1.432   4.543   6.328  0.1355  0.1953 -0.0131
 6647SOL    HW131400   1.466   4.476   6.387 -2.6095  0.5833  2.0274
 6647SOL    HW231401   1.493   4.524   6.258 -0.7526  0.1502 -0.7832
 6648SOL     OW31402   1.644   4.144   4.338  0.2556 -0.2963 -0.7762
 6648SOL    HW131403   1.616   4.231   4.310 -0.3890 -0.3691 -0.3725
 6648SOL    HW231404   1.678   4.102   4.260 -0.0133 -1.5304 -0.2284
 6649SOL     OW31405   0.317   2.267   8.028  0.6051 -0.3399  0.6107
 6649SOL    HW131406   0.341   2.187   8.074 -0.2040  0.7742  3.0182
 6649SOL    HW231407   0.263   2.315   8.092 -0.0193  0.1987 -0.3156
 6650SOL     OW31408   1.181   4.066  17.446 -0.0402  0.0245  0.0876
 6650SOL    HW131409   1.231   3.996  17.406 -1.3658 -1.2661  0.7068
 6650SOL    HW231410   1.102   4.046  17.395  1.7428 -0.8020 -2.3173
 6651SOL     OW31411   1.494   4.165  12.764 -0.4670  0.1039 -0.2955
 6651SOL    HW131412   1.565   4.104  12.742 -0.3854 -0.8674  2.6632
 6651SOL    HW231413   1.546   4.210  12.831  0.2638  2.2004 -2.2699
 6652SOL     OW31414   1.330   2.417   9.477 -0.8815 -0.4988  0.2310
 6652SOL    HW131415   1.282   2.350   9.525  2.6962 -1.2183  2.8083
 6652SOL    HW231416   1.334   2.488   9.542 -0.0033  0.2769 -0.6716
 6653SOL     OW31417   3.095   3.678   7.716 -0.0735  0.6241 -0.5806
 6653SOL    HW131418   3.016   3.677   7.662 -0.5911 -1.5855  0.2361
 6653SOL    HW231419   3.145   3.746   7.670 -0.7575  1.5387  0.0086
 6654SOL     OW31420   1.215   2.699  13.229  0.1371  0.0110 -0.1132
 6654SOL    HW131421   1.212   2.684  13.323  1.4281 -0.8948 -0.2112
 6654SOL    HW231422   1.123   2.693  13.204  0.3790  0.7928 -1.1958
 6655SOL     OW31423   1.973   3.628   3.091 -0.0529 -0.5534 -0.2447
 6655SOL    HW131424   2.036   3.591   3.028 -0.5493 -1.6057 -0.1070
 6655SOL    HW231425   2.040   3.675   3.140  1.3175 -1.6878 -1.0299
 6656SOL     OW31426   4.206   2.657   3.544 -0.1289  0.3524 -0.4579
 6656SOL    HW131427   4.264   2.622   3.613  0.8903  0.1439 -1.4160
 6656SOL    HW231428   4.164   2.578   3.512  0.9730  0.0890 -1.2428
 6657SOL     OW31429   1.042   0.953   2.106 -0.1277 -0.4313 -0.2816
 6657SOL    HW131430   1.100   0.878   2.091 -1.3541 -1.2491 -0.9252
 6657SOL    HW231431   0.959   0.910   2.129 -0.5840  0.6962  0.1425
 6658SOL     OW31432   2.745   4.540   8.093  0.5407  0.6827  0.4460
 6658SOL    HW131433   2.779   4.465   8.141  0.3678 -0.7708 -1.6846
 6658SOL    HW231434   2.656   4.549   8.128  0.5851  1.0568  0.4645
 6659SOL     OW31435   4.503   0.834   4.301 -0.5989  0.3391  0.6825
 6659SOL    HW131436   4.496   0.900   4.232  2.6618  0.5315  0.5590
 6659SOL    HW231437   4.531   0.764   4.243 -1.1303 -0.3130  1.2112
 6660SOL     OW31438   3.553   0.264   5.975  0.0134 -0.1591  0.3218
 6660SOL    HW131439   3.497   0.212   5.917  0.0137  1.0831 -0.7815
 6660SOL    HW231440   3.511   0.251   6.060 -0.6261  1.5125  0.2724
 6661SOL     OW31441   3.765   0.465   4.242  0.9636  0.2140  0.0414
 6661SOL    HW131442   3.802   0.406   4.177  3.2899 -1.4347  2.8811
 6661SOL    HW231443   3.850   0.498   4.271  1.5108 -1.5691  0.4252
 6662SOL     OW31444   3.176   3.867   5.375  0.0606 -0.4514 -0.3000
 6662SOL    HW131445   3.127   3.825   5.445 -1.6438 -1.0023 -1.8232
 6662SOL    HW231446   3.200   3.796   5.314  1.1769  0.1934 -0.6183
 6663SOL     OW31447   2.567   2.702  15.978  0.1359  0.0214  0.6690
 6663SOL    HW131448   2.498   2.755  16.019  1.0556 -0.0325  2.2744
 6663SOL    HW231449   2.517   2.633  15.934  0.7297  0.3789 -0.5595
 6664SOL     OW31450   3.783   2.707   3.943 -0.3887  0.5353 -0.1289
 6664SOL    HW131451   3.863   2.673   3.984 -1.3103 -1.1179  0.3278
 6664SOL    HW231452   3.820   2.772   3.884  1.7472 -0.6779 -0.1455
 6665SOL     OW31453   2.799   1.899   7.086  0.3246  0.1236  0.5862
 6665SOL    HW131454   2.801   1.967   7.153  0.2446  1.3401 -0.6392
 6665SOL    HW231455   2.746   1.832   7.128 -0.8062  0.7219  0.1324
 6666SOL     OW31456   2.863   2.005  15.288  0.0512  0.3620  0.2932
 6666SOL    HW131457   2.869   1.944  15.362 -1.7552  0.0081  0.1396
 6666SOL    HW231458   2.772   1.982  15.269  0.4034 -1.9159  1.2943
 6667SOL     OW31459   1.224   4.212   9.115  0.7212 -0.1101  0.2126
 6667SOL    HW131460   1.233   4.257   9.030  0.8807 -0.7694 -0.1171
 6667SOL    HW231461   1.180   4.131   9.090  1.4187 -0.0264 -1.2989
 6668SOL     OW31462   1.592   3.496   5.384 -0.4450  0.0575  1.0269
 6668SOL    HW131463   1.594   3.559   5.456 -2.9897  0.7836  0.4496
 6668SOL    HW231464   1.502   3.516   5.358 -0.7489  0.8714  2.7044
 6669SOL     OW31465   0.197   1.858   9.436  0.1126  0.0671  0.2251
 6669SOL    HW131466   0.135   1.873   9.365 -0.2091 -0.9027  0.3002
 6669SOL    HW231467   0.277   1.861   9.384 -1.3314  3.2662 -1.8191
 6670SOL     OW31468   0.874   2.428   2.067 -0.1869  0.8659  0.8890
 6670SOL    HW131469   0.906   2.380   2.143 -4.0479  0.3403  2.1610
 6670SOL    HW231470   0.891   2.368   1.995 -0.2276  1.9577 -0.0343
 6671SOL     OW31471   4.328   2.357   3.367  0.2457 -0.0466 -0.2892
 6671SOL    HW131472   4.300   2.445   3.392 -0.1703 -0.2066 -0.1921
 6671SOL    HW231473   4.269   2.297   3.414  1.0520 -0.1748  0.5524
 6672SOL     OW31474   0.063   1.044  14.441 -0.8834  0.5946  0.5123
 6672SOL    HW131475   0.046   0.953  14.467  2.8743  0.1868  1.5646
 6672SOL    HW231476   0.133   1.072  14.500 -0.7261 -1.2990  1.2322
 6673SOL     OW31477   1.820   0.700   4.401 -0.2802  0.2579  0.0197
 6673SOL    HW131478   1.834   0.614   4.441 -0.5019 -0.1050 -0.6829
 6673SOL    HW231479   1.856   0.751   4.473  1.2527  0.6385 -1.0174
 6674SOL     OW31480   3.818   1.190   5.927  0.3992 -0.2713 -0.2316
 6674SOL    HW131481   3.857   1.126   5.867  1.0827 -0.0243 -0.0505
 6674SOL    HW231482   3.835   1.273   5.884  1.2181 -0.3505 -0.0563
 6675SOL     OW31483   3.373   0.441   8.409 -0.5121 -0.0661  0.2409
 6675SOL    HW131484   3.467   0.435   8.394 -0.3228 -0.1199  1.4085
 6675SOL    HW231485   3.341   0.447   8.319 -0.5798 -0.3774  0.2446
 6676SOL     OW31486   1.739   0.832   3.872 -0.1469  0.0663  0.3617
 6676SOL    HW131487   1.708   0.876   3.793 -2.3622  0.0297  1.2125
 6676SOL    HW231488   1.657   0.828   3.921  0.1662 -0.5822  0.8434
 6677SOL     OW31489   0.329   1.931  11.107 -0.2344  0.2163  0.1763
 6677SOL    HW131490   0.393   2.002  11.100 -1.7195  1.3558 -2.1034
 6677SOL    HW231491   0.366   1.866  11.048 -1.3682  0.5606 -0.9133
 6678SOL     OW31492   0.298   0.125   5.685  0.1378  0.6217  0.5240
 6678SOL    HW131493   0.233   0.194   5.687  0.1188  0.6061  0.4389
 6678SOL    HW231494   0.255   0.067   5.622  0.9436  0.5792 -0.0031
 6679SOL     OW31495   2.534   1.142  10.451 -0.0567 -0.0204  0.3035
 6679SOL    HW131496   2.459   1.093  10.418  0.4806 -1.2186  0.8601
 6679SOL    HW231497   2.567   1.089  10.524  0.3133  2.6983  2.1309
 6680SOL     OW31498   3.209   4.274   2.749 -0.0517 -0.1866 -0.2490
 6680SOL    HW131499   3.175   4.234   2.669 -0.0193 -0.9716  0.1336
 6680SOL    HW231500   3.135   4.314   2.794 -0.2082  1.0144 -1.5662
 6681SOL     OW31501   0.294   3.375   2.926  0.3899  0.1047 -0.7173
 6681SOL    HW131502   0.337   3.415   2.850 -0.0931  0.9944 -0.5337
 6681SOL    HW231503   0.223   3.323   2.889  1.9148 -1.2134 -1.7704
 6682SOL     OW31504   1.431   4.194   2.063 -0.2418 -0.5407  0.0857
 6682SOL    HW131505   1.461   4.262   2.124 -0.7535  0.5458 -0.8805
 6682SOL    HW231506   1.348   4.231   2.035 -0.1002  2.2648  3.3630
 6683SOL     OW31507   0.164   4.527  15.088 -0.1272 -0.2327 -0.0550
 6683SOL    HW131508   0.148   4.619  15.108  0.1841 -0.2579  0.3190
 6683SOL    HW231509   0.204   4.495  15.169  0.6194  1.1728  0.1183
 6684SOL     OW31510   2.368   4.548  11.889 -0.4758  0.2254 -0.8405
 6684SOL    HW131511   2.331   4.461  11.899 -1.9796  0.9767  0.1176
 6684SOL    HW231512   2.411   4.527  11.806  2.6381  0.1593  0.8339
 6685SOL     OW31513   3.527   4.150   6.793 -0.7750  0.5222 -0.7041
 6685SOL    HW131514   3.503   4.068   6.836  1.0164  0.1230 -0.4256
 6685SOL    HW231515   3.522   4.214   6.865  1.6084  1.2992 -1.2223
 6686SOL     OW31516   0.757   0.630   2.110 -0.2665  0.6465  0.0772
 6686SOL    HW131517   0.823   0.661   2.047  1.6226 -3.0214  0.2483
 6686SOL    HW231518   0.801   0.665   2.188 -0.3968  0.8164  0.0758
 6687SOL     OW31519   0.558   1.549   9.009 -0.3854  0.0148  0.5426
 6687SOL    HW131520   0.636   1.518   9.055 -1.1411 -2.0619  0.4354
 6687SOL    HW231521   0.494   1.477   9.013  0.2434 -0.6298 -1.1197
 6688SOL     OW31522   3.941   4.095   7.037  0.4697  0.2283 -0.3899
 6688SOL    HW131523   3.960   4.017   7.089  0.0704 -0.6044 -1.4975
 6688SOL    HW231524   3.934   4.158   7.108 -0.4689  0.6405 -0.8575
 6689SOL     OW31525   4.065   2.773   2.903 -0.3651 -0.8199  0.3103
 6689SOL    HW131526   4.102   2.763   2.991  0.8244  1.0712  0.0315
 6689SOL    HW231527   4.053   2.868   2.906 -0.4253 -0.7841 -1.1541
 6690SOL     OW31528   1.382   3.506   1.397  0.1909 -0.1872 -0.4082
 6690SOL    HW131529   1.338   3.503   1.312 -0.9016 -0.9290  0.1864
 6690SOL    HW231530   1.391   3.412   1.416 -1.6737  0.0031  1.3477
 6691SOL     OW31531   1.465   4.046   0.803  0.0944 -0.3791  0.0560
 6691SOL    HW131532   1.470   3.960   0.845 -0.8998 -0.3290  0.2709
 6691SOL    HW231533   1.377   4.037   0.766 -0.8998  3.9179  1.3747
 6692SOL     OW31534   1.077   4.127   1.783 -0.0600  0.0621  0.6306
 6692SOL    HW131535   1.007   4.123   1.847 -1.6959 -2.0897 -1.2810
 6692SOL    HW231536   1.102   4.036   1.767  1.2605  0.8437 -1.7880
 6693SOL     OW31537   4.162   1.686   5.004 -0.0889 -0.2669 -0.1972
 6693SOL    HW131538   4.085   1.671   4.950  0.2047 -1.0020 -0.4154
 6693SOL    HW231539   4.228   1.672   4.937  1.0025  1.2160  0.5728
 6694SOL     OW31540   4.199   1.729  11.460  0.1524  0.1194  0.1430
 6694SOL    HW131541   4.278   1.775  11.432 -1.2733  0.6513 -3.0448
 6694SOL    HW231542   4.173   1.699  11.372  0.6731 -0.7199  0.2736
 6695SOL     OW31543   4.086   4.427   9.403  0.6214 -0.2271  0.0797
 6695SOL    HW131544   4.028   4.497   9.433 -1.3593 -1.1141 -1.6772
 6695SOL    HW231545   4.072   4.356   9.465 -3.5555  0.9179  0.4277
 6696SOL     OW31546   2.954   0.017   1.550 -0.0248  1.1851  0.3735
 6696SOL    HW131547   2.868   0.022   1.590  1.9128  0.4663  4.5666
 6696SOL    HW231548   2.944   0.092   1.491  1.1817  2.1628  1.4162
 6697SOL     OW31549   2.937   2.161   2.427  0.6677  0.4631 -0.0471
 6697SOL    HW131550   3.026   2.167   2.390  0.9983 -1.3705  0.4461
 6697SOL    HW231551   2.898   2.086   2.382 -2.3962  0.1609  3.1068
 6698SOL     OW31552   3.765   0.992  16.598  0.1871  0.2133 -0.0467
 6698SOL    HW131553   3.778   1.054  16.670  1.4748  2.3706 -2.1484
 6698SOL    HW231554   3.848   1.000  16.551  0.2595 -2.2071 -0.3130
 6699SOL     OW31555   3.022   0.799   4.558 -0.1959 -0.5911 -0.8858
 6699SOL    HW131556   2.928   0.812   4.544 -0.3610 -0.4746  0.3114
 6699SOL    HW231557   3.017   0.709   4.590  0.6459 -0.2916  0.0800
 6700SOL     OW31558   3.153   3.636   4.786  0.4215 -0.0155  0.1949
 6700SOL    HW131559   3.220   3.637   4.718  0.6617  0.4353  0.4332
 6700SOL    HW231560   3.125   3.548   4.763  0.2884 -0.4272  1.9799
 6701SOL     OW31561   2.937   3.982   6.476  0.5209  0.7098 -0.2269
 6701SOL    HW131562   2.998   3.996   6.403  0.0919  0.2581 -0.6742
 6701SOL    HW231563   2.891   4.065   6.469  0.4620  0.7997  1.1631
 6702SOL     OW31564   3.949   4.291   7.236  0.3392  0.5646  0.0455
 6702SOL    HW131565   3.862   4.319   7.264 -0.4123  0.7673 -2.5531
 6702SOL    HW231566   4.004   4.312   7.312 -0.5838  0.6513  0.6827
 6703SOL     OW31567   1.710   3.041   7.029 -0.1063 -0.1648 -0.4818
 6703SOL    HW131568   1.636   2.982   7.044  1.0135 -1.5867 -0.5854
 6703SOL    HW231569   1.683   3.117   7.081 -0.5090 -0.6580  0.0308
 6704SOL     OW31570   0.956   2.694  13.108 -0.3556  0.4598  0.8448
 6704SOL    HW131571   1.008   2.713  13.030  1.4990 -1.5203  1.6193
 6704SOL    HW231572   0.873   2.666  13.069 -0.8379  0.1963  2.0694
 6705SOL     OW31573   1.784   0.440  16.023 -0.1247  0.2606 -0.8529
 6705SOL    HW131574   1.867   0.414  15.983  0.5608 -0.3425  0.9700
 6705SOL    HW231575   1.766   0.369  16.084 -0.3692  1.0262 -0.0418
 6706SOL     OW31576   0.201   4.001  10.734 -0.1068 -0.1213 -0.1851
 6706SOL    HW131577   0.130   4.007  10.671 -1.0633 -1.8434  0.7450
 6706SOL    HW231578   0.273   3.980  10.674  0.1602 -0.5116  0.2715
 6707SOL     OW31579   3.606   4.560  12.965  0.3697  0.1600  0.3319
 6707SOL    HW131580   3.624   4.515  12.883 -1.5194 -0.1403  0.0701
 6707SOL    HW231581   3.684   4.615  12.975  1.2127 -0.9243 -0.3733
 6708SOL     OW31582   1.423   1.204   2.131  0.2624  0.0219  0.1439
 6708SOL    HW131583   1.425   1.235   2.222  2.3947  0.4696 -0.0498
 6708SOL    HW231584   1.513   1.171   2.136  0.8763  1.7634  0.6384
 6709SOL     OW31585   2.025   2.518   0.506 -0.3306  0.1323  0.0789
 6709SOL    HW131586   1.970   2.547   0.578 -1.4439 -2.2788  0.2166
 6709SOL    HW231587   2.007   2.426   0.486  2.1908 -0.4047  0.3002
 6710SOL     OW31588   0.957   4.175   4.543  0.0052  0.1378 -0.7706
 6710SOL    HW131589   1.010   4.185   4.623  0.3743  1.0820 -1.1308
 6710SOL    HW231590   1.018   4.148   4.474 -1.2692  0.4408 -2.0105
 6711SOL     OW31591   1.779   0.157   0.488  0.4241  0.5028  0.0599
 6711SOL    HW131592   1.700   0.103   0.495 -0.2994  1.4967 -0.4528
 6711SOL    HW231593   1.831   0.085   0.453  0.4517  0.4241  0.2589
 6712SOL     OW31594   0.835   3.887   5.569  0.2976  0.3087  0.1580
 6712SOL    HW131595   0.904   3.918   5.628 -0.8350 -1.3163  2.3576
 6712SOL    HW231596   0.885   3.810   5.542  0.2540 -0.6337  2.7668
 6713SOL     OW31597   0.512   0.204  13.291 -0.1036 -0.6116  0.1741
 6713SOL    HW131598   0.488   0.135  13.229  1.0244 -1.8541  1.1261
 6713SOL    HW231599   0.577   0.249  13.237  0.8429  0.5695  2.3151
 6714SOL     OW31600   3.074   1.545   9.950  0.0761 -0.1324  0.4414
 6714SOL    HW131601   3.151   1.499   9.917  1.8339  3.6841 -0.6992
 6714SOL    HW231602   3.064   1.624   9.897 -0.5053 -0.8104 -0.4667
 6715SOL     OW31603   1.989   1.849  16.059 -0.4728 -0.1532 -0.7959
 6715SOL    HW131604   2.053   1.906  16.101 -0.2365 -0.4913 -0.6898
 6715SOL    HW231605   2.007   1.862  15.966  1.2309  1.9415 -0.1620
 6716SOL     OW31606   3.622   0.294   5.545  0.2098 -0.7795  0.3216
 6716SOL    HW131607   3.526   0.290   5.541  0.2612 -0.8788 -0.9420
 6716SOL    HW231608   3.627   0.377   5.497  0.2363 -1.1201 -0.2696
 6717SOL     OW31609   0.533   0.236   4.182 -0.4694  0.1052  0.3272
 6717SOL    HW131610   0.526   0.140   4.177  0.7783  0.0040  0.5210
 6717SOL    HW231611   0.545   0.256   4.089  1.3252 -3.1013 -0.1219
 6718SOL     OW31612   2.600   2.991   1.818 -1.3123 -0.3690  0.0466
 6718SOL    HW131613   2.620   2.899   1.835 -1.4479 -0.9158 -2.7941
 6718SOL    HW231614   2.601   2.987   1.723  3.6071 -1.6923  0.1504
 6719SOL     OW31615   0.974   1.558   3.434 -0.2460  0.1592 -0.5026
 6719SOL    HW131616   0.946   1.577   3.524 -0.1390  1.0668 -0.6710
 6719SOL    HW231617   1.068   1.542   3.437 -0.1862  0.4446 -0.9503
 6720SOL     OW31618   3.372   1.999   4.433  0.1953  0.1831 -0.0666
 6720SOL    HW131619   3.320   1.969   4.507 -0.3576  0.1088 -0.4871
 6720SOL    HW231620   3.307   2.033   4.371 -1.6195  0.0595  1.7782
 6721SOL     OW31621   3.149   3.250   5.362 -0.3782 -0.0926  0.8380
 6721SOL    HW131622   3.197   3.190   5.419  0.6104  2.3185  2.5357
 6721SOL    HW231623   3.079   3.273   5.423 -1.4595  0.6165 -0.6738
 6722SOL     OW31624   0.703   1.928   0.455 -0.5032  0.4562  0.0550
 6722SOL    HW131625   0.685   1.994   0.389 -2.3226 -0.6556 -0.5822
 6722SOL    HW231626   0.629   1.868   0.439  0.7034 -1.3186  1.0680
 6723SOL     OW31627   3.781   0.242   3.987  0.6378  0.1986  0.0314
 6723SOL    HW131628   3.731   0.164   4.011 -0.1945  0.9544  0.7372
 6723SOL    HW231629   3.809   0.208   3.902  0.4487  0.2159 -0.0380
 6724SOL     OW31630   3.316   2.392   4.508  0.1791  0.3627  0.3115
 6724SOL    HW131631   3.229   2.388   4.548 -0.3254  0.6624 -0.7422
 6724SOL    HW231632   3.361   2.450   4.569  1.0470 -0.9779  0.9558
 6725SOL     OW31633   2.408   3.507   0.673  0.2801  0.6986 -0.2171
 6725SOL    HW131634   2.432   3.594   0.643 -0.9350  1.6690  1.6185
 6725SOL    HW231635   2.316   3.495   0.648  0.6695 -0.4135 -1.1202
 6726SOL     OW31636   1.224   4.302  11.665  0.2255  0.1423  0.6474
 6726SOL    HW131637   1.288   4.373  11.654 -1.0985  0.8000 -2.8124
 6726SOL    HW231638   1.237   4.293  11.760  1.2477  1.4740  0.6285
 6727SOL     OW31639   0.583   1.362  12.462 -0.0383 -0.3965 -0.2941
 6727SOL    HW131640   0.629   1.421  12.522 -0.6426 -2.1506  1.8557
 6727SOL    HW231641   0.512   1.416  12.427 -0.0697 -0.7662 -0.8026
 6728SOL     OW31642   1.929   1.338   3.754  0.4281 -0.1708 -0.0528
 6728SOL    HW131643   1.977   1.264   3.717 -0.0756  0.4572 -1.9633
 6728SOL    HW231644   1.938   1.313   3.846  1.5341  0.7648  0.0869
 6729SOL     OW31645   1.977   1.449   4.871  0.3132  0.2038 -0.0323
 6729SOL    HW131646   1.986   1.379   4.806 -0.5628  0.1139 -0.0588
 6729SOL    HW231647   1.950   1.405   4.952  2.3049  0.2007  0.6152
 6730SOL     OW31648   3.798   0.703   9.283  0.8848  0.2175  0.0628
 6730SOL    HW131649   3.734   0.757   9.331  0.3570 -0.8572  0.5665
 6730SOL    HW231650   3.877   0.757   9.285  0.6346  0.6290 -0.8842
 6731SOL     OW31651   4.295   4.106   6.226  0.6887 -0.2281  0.7382
 6731SOL    HW131652   4.272   4.071   6.140 -1.4445 -0.7915  1.5346
 6731SOL    HW231653   4.240   4.053   6.283 -0.4900  1.2515  0.9844
 6732SOL     OW31654   3.619   0.467  13.365 -0.0176  0.1019  0.4317
 6732SOL    HW131655   3.534   0.472  13.408 -0.1461  2.9577 -0.1855
 6732SOL    HW231656   3.602   0.406  13.293  0.1146 -0.0842  0.5573
 6733SOL     OW31657   3.698   3.348   9.828 -0.2202 -0.4809  0.2029
 6733SOL    HW131658   3.716   3.268   9.778  0.6740 -0.8614  1.1383
 6733SOL    HW231659   3.736   3.331   9.914  2.6690 -0.4983 -1.0768
 6734SOL     OW31660   4.154   0.728   8.251 -0.1207 -0.1868  0.1161
 6734SOL    HW131661   4.198   0.785   8.313 -0.9427 -0.0425  0.5607
 6734SOL    HW231662   4.216   0.735   8.179 -1.1923 -0.0111 -0.8021
 6735SOL     OW31663   3.677   4.046  10.300 -0.0225  0.1629  0.2729
 6735SOL    HW131664   3.723   4.031  10.218 -0.6792  3.4589 -0.6800
 6735SOL    HW231665   3.631   4.127  10.279 -0.6706 -0.5343 -1.0006
 6736SOL     OW31666   0.941   3.980   9.729  0.2271 -0.2153 -0.2547
 6736SOL    HW131667   1.029   4.002   9.698  0.1817 -0.6487 -0.7006
 6736SOL    HW231668   0.926   4.054   9.787  2.9288  1.4594 -1.6678
 6737SOL     OW31669   4.430   0.324  15.251 -0.3105 -0.1073 -0.2583
 6737SOL    HW131670   4.447   0.298  15.342  2.4367  1.0537 -0.4442
 6737SOL    HW231671   4.352   0.270  15.241 -1.3949  1.8856 -2.4672
 6738SOL     OW31672   3.950   4.169   9.824  0.1027  0.0763 -0.1870
 6738SOL    HW131673   3.859   4.140   9.827  0.0675  0.1768 -0.2566
 6738SOL    HW231674   3.950   4.252   9.871  0.7684  0.0522 -0.1546
 6739SOL     OW31675   4.038   0.215   8.498  0.0592 -0.4614  0.4076
 6739SOL    HW131676   4.027   0.298   8.544 -0.8958 -0.7714  0.7438
 6739SOL    HW231677   3.974   0.169   8.551 -0.1671 -2.0152 -1.2008
 6740SOL     OW31678   4.613   2.298   4.811 -0.1706  0.7464 -0.0378
 6740SOL    HW131679   4.634   2.214   4.851 -2.3018  0.9684  1.5558
 6740SOL    HW231680   4.685   2.308   4.748  0.4183  3.3964  1.0834
 6741SOL     OW31681   3.693   2.042   9.069  0.8566 -0.2939  0.1121
 6741SOL    HW131682   3.656   2.122   9.107  0.4139  1.3421 -3.7665
 6741SOL    HW231683   3.751   2.021   9.142  0.4258 -0.4309  0.4115
 6742SOL     OW31684   1.561   0.753   8.752 -0.2493  0.0515 -0.0471
 6742SOL    HW131685   1.632   0.741   8.815  0.5890  1.4041 -0.7111
 6742SOL    HW231686   1.528   0.665   8.734 -1.7768  0.9695 -1.6698
 6743SOL     OW31687   0.134   1.307  13.051 -0.0867  0.1735 -0.1366
 6743SOL    HW131688   0.063   1.270  13.104 -0.6226 -0.0009 -0.9725
 6743SOL    HW231689   0.108   1.398  13.041  0.8222  0.3303 -1.0569
 6744SOL     OW31690   0.550   3.568   2.863  0.4724  0.2917 -0.3953
 6744SOL    HW131691   0.486   3.553   2.793  0.5359  2.5455 -0.9347
 6744SOL    HW231692   0.590   3.482   2.876 -0.6520 -0.1919 -0.0738
 6745SOL     OW31693   1.786   2.745   9.269  0.3528 -0.5501  0.1914
 6745SOL    HW131694   1.714   2.775   9.214  0.2957 -0.5053  0.2925
 6745SOL    HW231695   1.724   2.717   9.336  1.6344 -2.2000  0.7101
 6746SOL     OW31696   1.254   2.994   1.329 -0.9209 -0.1197 -0.0706
 6746SOL    HW131697   1.344   2.974   1.303 -1.2859 -0.8330 -0.8195
 6746SOL    HW231698   1.250   2.957   1.417 -0.6744  0.7598  0.3035
 6747SOL     OW31699   0.796   0.257   7.919  0.2061 -0.4342 -0.1496
 6747SOL    HW131700   0.724   0.319   7.908  1.3667  0.7134 -1.3490
 6747SOL    HW231701   0.756   0.182   7.962  0.6084 -1.8531 -2.2605
 6748SOL     OW31702   2.643   3.608  14.237  0.1480 -0.5369  0.1592
 6748SOL    HW131703   2.675   3.523  14.204 -1.6565  0.5577 -4.4288
 6748SOL    HW231704   2.725   3.657  14.232  0.0286 -0.2985  0.5462
 6749SOL     OW31705   1.810   0.432   9.054 -0.4029 -0.7289  0.0759
 6749SOL    HW131706   1.766   0.362   9.102 -0.3170 -2.2039 -2.0239
 6749SOL    HW231707   1.902   0.417   9.079 -0.5714 -0.4010  0.9031
 6750SOL     OW31708   1.794   4.149   4.114  0.7585  0.4534  0.6767
 6750SOL    HW131709   1.840   4.143   4.030  0.1745  2.0522  0.2292
 6750SOL    HW231710   1.808   4.243   4.125 -0.5159  0.6028  0.9754
 6751SOL     OW31711   4.156   0.172   7.892 -0.6478  0.0290 -0.3903
 6751SOL    HW131712   4.097   0.213   7.829 -2.0392  1.9339  2.1901
 6751SOL    HW231713   4.120   0.086   7.916 -0.5108 -0.0078 -0.3140
 6752SOL     OW31714   2.523   0.257   8.245  0.2532  0.2270  0.2346
 6752SOL    HW131715   2.535   0.258   8.150 -0.4552 -1.4649  0.1208
 6752SOL    HW231716   2.475   0.337   8.265  0.5274  0.3972  0.2170
 6753SOL     OW31717   3.471   2.810   2.781  0.0936  0.3605 -0.4303
 6753SOL    HW131718   3.407   2.760   2.730 -1.7844  3.5001 -1.1841
 6753SOL    HW231719   3.545   2.750   2.784  0.5686  0.8813 -1.5071
 6754SOL     OW31720   1.859   4.418   4.630 -0.0273  0.3144 -0.3170
 6754SOL    HW131721   1.801   4.434   4.555  0.6217 -0.4876 -0.9750
 6754SOL    HW231722   1.888   4.329   4.614 -0.3275  0.1909 -0.1848
 6755SOL     OW31723   3.976   3.712   2.236 -0.0254 -0.4640  0.4095
 6755SOL    HW131724   3.881   3.713   2.249  0.0224 -0.4936  0.7490
 6755SOL    HW231725   3.978   3.629   2.189  2.4652  0.3198 -0.8466
 6756SOL     OW31726   0.744   4.633   4.115 -1.0246 -0.3447 -0.3651
 6756SOL    HW131727   0.779   4.663   4.032  0.0744  0.3995  0.3777
 6756SOL    HW231728   0.652   4.660   4.121 -0.9776 -0.3817  0.6148
 6757SOL     OW31729   2.265   1.600   3.872  0.1195  0.5821  0.2066
 6757SOL    HW131730   2.346   1.634   3.910  0.6436 -0.0833 -0.3235
 6757SOL    HW231731   2.198   1.661   3.903  0.0499  0.2699  0.6552
 6758SOL     OW31732   4.504   1.487   0.952  0.3763 -0.5929  0.3740
 6758SOL    HW131733   4.441   1.523   1.015 -1.0168 -1.1406 -0.7074
 6758SOL    HW231734   4.464   1.400   0.946  0.6346 -0.9081  3.3205
 6759SOL     OW31735   3.634   1.324   1.295  0.4756  0.6262 -0.3835
 6759SOL    HW131736   3.627   1.410   1.338 -0.4275 -0.4635  1.6323
 6759SOL    HW231737   3.556   1.276   1.325  0.4012  0.1744 -1.3202
 6760SOL     OW31738   0.210   0.993   2.250  0.0993 -0.0354 -0.5810
 6760SOL    HW131739   0.142   0.928   2.231  0.1677 -0.1769 -0.3289
 6760SOL    HW231740   0.168   1.079   2.245 -0.0651 -0.0835  0.0239
 6761SOL     OW31741   4.427   3.962  10.733  0.4389 -0.1179 -0.1820
 6761SOL    HW131742   4.336   3.988  10.721  0.2034 -0.5258  0.7002
 6761SOL    HW231743   4.437   3.929  10.823 -0.4147 -1.0401 -0.4211
 6762SOL     OW31744   3.188   3.335  16.672  0.1643  0.3014 -0.2881
 6762SOL    HW131745   3.114   3.356  16.614 -0.9375 -2.5793  0.0746
 6762SOL    HW231746   3.234   3.270  16.619  2.2300  0.6053  1.1740
 6763SOL     OW31747   3.886   2.839  17.247  0.1700  0.4891  0.5084
 6763SOL    HW131748   3.970   2.885  17.245  0.1172  0.5622 -0.1807
 6763SOL    HW231749   3.876   2.845  17.152  0.9206  0.8090  0.4516
 6764SOL     OW31750   0.113   2.524   0.147 -0.6617 -0.0356  0.3456
 6764SOL    HW131751   0.137   2.580   0.221 -1.3409  2.2292 -1.1180
 6764SOL    HW231752   0.098   2.442   0.193  2.0335  0.1486  1.5422
 6765SOL     OW31753   0.937   3.133  11.348  0.3334  0.2099  0.2342
 6765SOL    HW131754   0.897   3.091  11.272  1.2014 -0.5647  0.2075
 6765SOL    HW231755   0.943   3.067  11.417  0.4748 -1.0173 -0.9573
 6766SOL     OW31756   0.299   2.499  17.615  0.4282 -0.1988 -0.4463
 6766SOL    HW131757   0.228   2.516  17.676  0.1569  0.6852 -1.0146
 6766SOL    HW231758   0.331   2.415  17.650 -0.0776  0.5876  1.8941
 6767SOL     OW31759   2.895   0.216   6.686  0.3704  0.2712 -0.0175
 6767SOL    HW131760   2.801   0.220   6.705  0.4023 -4.0625  1.1659
 6767SOL    HW231761   2.896   0.121   6.673 -1.0549  0.4640 -1.6178
 6768SOL     OW31762   4.532   3.761  16.401 -0.3228 -0.1794  0.4935
 6768SOL    HW131763   4.597   3.700  16.434  0.1492  1.2764  2.2149
 6768SOL    HW231764   4.581   3.839  16.373 -0.5834  0.1050  0.8404
 6769SOL     OW31765   1.091   1.399   8.908 -0.1426  0.3662  0.0234
 6769SOL    HW131766   1.028   1.368   8.844 -1.5805  0.8582  1.2031
 6769SOL    HW231767   1.168   1.350   8.879 -1.8612 -1.7974 -0.8862
 6770SOL     OW31768   4.675   0.759  13.322  0.4691  0.1122  0.6222
 6770SOL    HW131769   4.638   0.825  13.381  0.8091  0.6711  0.2098
 6770SOL    HW231770   4.675   0.812  13.243 -1.4485 -0.2037  0.4098
 6771SOL     OW31771   0.738   4.715   6.150  0.2983 -0.1739 -0.0019
 6771SOL    HW131772   0.730   4.647   6.083  0.6643  0.6364 -0.8554
 6771SOL    HW231773   0.770   4.660   6.222  0.1479  1.6027  1.4172
 6772SOL     OW31774   4.080   1.467   6.062  0.5763  0.6699  0.5235
 6772SOL    HW131775   4.157   1.411   6.074  0.5243  0.3358 -0.7868
 6772SOL    HW231776   4.043   1.437   5.979 -0.6079 -1.7563  1.9285
 6773SOL     OW31777   3.745   4.066   6.642  0.0353  0.1165 -0.6756
 6773SOL    HW131778   3.676   4.081   6.707 -0.0646  1.3798 -1.0706
 6773SOL    HW231779   3.818   4.104   6.691  0.8563 -2.6700  0.2863
 6774SOL     OW31780   3.603   2.071   4.618  0.1281  0.3641 -0.1387
 6774SOL    HW131781   3.577   2.027   4.698 -0.0338  1.4090  0.3806
 6774SOL    HW231782   3.543   2.043   4.549 -1.5731  0.6438  1.2359
 6775SOL     OW31783   3.213   3.827   7.490 -0.4129  0.2446  0.1651
 6775SOL    HW131784   3.302   3.835   7.527 -1.7682  0.4666  3.4142
 6775SOL    HW231785   3.216   3.912   7.445 -2.4563 -0.7970 -1.9309
 6776SOL     OW31786   2.005   4.293   0.571  0.2121 -0.1483  0.2872
 6776SOL    HW131787   1.954   4.327   0.497  2.0359  0.4195 -0.7180
 6776SOL    HW231788   2.065   4.368   0.570  2.3344 -1.8487  0.6588
 6777SOL     OW31789   1.780   0.180   9.376 -0.3270  0.0335 -0.3332
 6777SOL    HW131790   1.755   0.252   9.434 -2.7791  0.9390 -2.5334
 6777SOL    HW231791   1.788   0.112   9.444 -0.4672  1.1446  0.7818
 6778SOL     OW31792   3.656   4.026   6.016 -0.5818 -0.0818  0.3936
 6778SOL    HW131793   3.682   4.061   6.101 -2.2260 -0.0439  0.8946
 6778SOL    HW231794   3.590   4.091   5.991  0.5273  1.6525  1.9566
 6779SOL     OW31795   0.164   2.216  12.597  0.2161  0.1450  0.1171
 6779SOL    HW131796   0.124   2.130  12.613 -1.4339  0.9319  0.1393
 6779SOL    HW231797   0.246   2.212  12.647  0.7155 -0.4346 -0.7353
 6780SOL     OW31798   3.916   1.146   4.322 -0.4391  0.2588 -0.0336
 6780SOL    HW131799   3.842   1.205   4.341  1.4452  1.6025  3.0329
 6780SOL    HW231800   3.866   1.075   4.281 -2.8407 -0.0597  3.4492
 6781SOL     OW31801   1.340   1.965   0.439 -0.1031  0.2443 -0.3006
 6781SOL    HW131802   1.387   2.026   0.495  0.5804 -1.6584  1.1941
 6781SOL    HW231803   1.414   1.924   0.394 -0.3110  1.1861 -1.5101
 6782SOL     OW31804   4.056   1.884  16.859  0.2943  0.0929  0.1691
 6782SOL    HW131805   3.973   1.914  16.896 -0.0340  0.3698 -0.7848
 6782SOL    HW231806   4.030   1.875  16.767  1.3033 -0.6743 -0.0448
 6783SOL     OW31807   2.305   4.091   1.913  0.2308 -0.3218 -0.0229
 6783SOL    HW131808   2.344   4.035   1.846  0.3444 -0.7750  0.4202
 6783SOL    HW231809   2.209   4.087   1.908  0.3172 -1.5388 -0.8243
 6784SOL     OW31810   0.667   3.344  10.008 -0.0494  0.1780 -0.0129
 6784SOL    HW131811   0.668   3.352   9.912  1.6019 -0.5313 -0.0549
 6784SOL    HW231812   0.728   3.271  10.020 -1.8073 -1.5154 -1.2424
 6785SOL     OW31813   2.606   4.519   7.312 -0.2052 -0.1047  0.2948
 6785SOL    HW131814   2.666   4.532   7.385 -0.6558 -1.9179  0.9907
 6785SOL    HW231815   2.661   4.571   7.253 -0.8818  0.9238  0.5560
 6786SOL     OW31816   1.312   3.783   9.497 -0.2901 -1.2182 -0.1950
 6786SOL    HW131817   1.298   3.782   9.592 -0.9709 -2.1026 -0.3089
 6786SOL    HW231818   1.233   3.831   9.471  1.4929  1.6309 -0.4669
 6787SOL     OW31819   3.735   2.357  11.243 -0.4084  0.5145 -0.5308
 6787SOL    HW131820   3.767   2.294  11.178  1.4554 -1.7899  2.6551
 6787SOL    HW231821   3.811   2.411  11.261 -1.0279  1.3481 -0.3917
 6788SOL     OW31822   0.374   1.535   5.932 -0.2775 -0.3356  0.3536
 6788SOL    HW131823   0.300   1.546   5.991 -0.8762  4.8493 -1.3754
 6788SOL    HW231824   0.447   1.522   5.993 -0.7639 -0.4798  0.9062
 6789SOL     OW31825   1.054   2.655  12.860 -0.0008  0.0350  0.4889
 6789SOL    HW131826   1.062   2.727  12.797  3.6333 -0.9375 -0.1605
 6789SOL    HW231827   1.009   2.584  12.814  4.0601 -1.5407 -1.0894
 6790SOL     OW31828   0.876   2.020   2.297 -0.5041  0.2106  0.0152
 6790SOL    HW131829   0.902   1.984   2.212  0.7230 -1.7074  1.2230
 6790SOL    HW231830   0.781   2.015   2.286  0.0129 -2.3327 -3.1854
 6791SOL     OW31831   1.998   1.792   6.083 -0.8269 -0.3890  0.0369
 6791SOL    HW131832   1.994   1.700   6.056  1.8886 -0.0079 -1.5870
 6791SOL    HW231833   2.005   1.774   6.177  2.0785  0.0617 -0.1168
 6792SOL     OW31834   0.139   4.592   8.597 -0.4589 -0.0566  0.3352
 6792SOL    HW131835   0.210   4.532   8.574  0.8214  1.8684 -0.8026
 6792SOL    HW231836   0.097   4.541   8.665  1.1331  2.4874  3.2344
 6793SOL     OW31837   2.112   2.990   8.320 -0.2590 -0.5513 -0.2553
 6793SOL    HW131838   2.077   3.079   8.312  1.1364 -0.0554 -0.7761
 6793SOL    HW231839   2.040   2.936   8.286  0.1670 -0.2502 -1.6638
 6794SOL     OW31840   1.004   0.551  14.928  0.2169  0.2789 -0.4261
 6794SOL    HW131841   0.989   0.643  14.907 -1.5566  0.2935  0.8740
 6794SOL    HW231842   0.914   0.518  14.928  0.7777 -1.2473 -0.7444
 6795SOL     OW31843   3.302   1.430   5.691  0.3824  0.2965  0.3505
 6795SOL    HW131844   3.269   1.505   5.740 -1.6526 -1.1267  1.1561
 6795SOL    HW231845   3.392   1.433   5.723  0.0652 -2.2733  1.5316
 6796SOL     OW31846   3.428   2.880  12.949  1.2106  0.0755 -0.0839
 6796SOL    HW131847   3.403   2.964  12.987  2.0920 -1.0415  2.9752
 6796SOL    HW231848   3.433   2.909  12.857  0.2149 -1.8979 -0.7566
 6797SOL     OW31849   3.755   1.315   9.236  0.0811 -0.7468  0.1694
 6797SOL    HW131850   3.759   1.243   9.299 -0.2839 -1.7332 -0.9328
 6797SOL    HW231851   3.694   1.281   9.171 -1.0060  0.4652  0.5403
 6798SOL     OW31852   2.469   1.070   6.186  0.2600 -0.1740  0.1980
 6798SOL    HW131853   2.414   0.994   6.205 -1.1401  0.7844 -0.0228
 6798SOL    HW231854   2.465   1.082   6.091  4.9004  1.4012  0.1590
 6799SOL     OW31855   2.733   0.765   8.763  0.0203  0.5649 -0.0781
 6799SOL    HW131856   2.663   0.722   8.713  0.3405  0.2315 -0.2405
 6799SOL    HW231857   2.697   0.837   8.815 -0.0387  2.1284 -2.2875
 6800SOL     OW31858   1.778   0.253   7.804  0.2573  0.0646  0.2896
 6800SOL    HW131859   1.815   0.211   7.882 -0.3271  2.3303  1.8096
 6800SOL    HW231860   1.785   0.345   7.831 -0.8326  0.5038 -0.9442
 6801SOL     OW31861   2.850   1.135   8.250  0.8889  0.0896 -0.1676
 6801SOL    HW131862   2.792   1.059   8.257  0.6964  0.0870 -1.8302
 6801SOL    HW231863   2.798   1.179   8.183  1.3569 -0.3802 -0.8358
 6802SOL     OW31864   4.103   3.108   2.111 -0.0832 -0.2846 -0.5243
 6802SOL    HW131865   4.024   3.096   2.163 -0.2372  1.3426 -0.3783
 6802SOL    HW231866   4.068   3.141   2.028 -0.1143  0.1363 -0.3432
 6803SOL     OW31867   0.196   2.548  17.364  0.7982 -0.3726 -0.5070
 6803SOL    HW131868   0.140   2.626  17.360 -0.3500 -1.1548  0.0714
 6803SOL    HW231869   0.255   2.558  17.438 -1.2235  0.8446  0.9696
 6804SOL     OW31870   0.702   1.960  15.114  0.3238 -0.0002  0.2176
 6804SOL    HW131871   0.704   2.026  15.045 -0.2069 -0.7748 -0.5526
 6804SOL    HW231872   0.672   2.015  15.186  0.0477 -3.0496  2.4457
 6805SOL     OW31873   2.687   1.320  13.591  0.0138 -0.2002 -0.1794
 6805SOL    HW131874   2.660   1.273  13.670 -0.7969 -1.9184 -1.4918
 6805SOL    HW231875   2.779   1.341  13.608  0.3396 -2.2791  0.5921
 6806SOL     OW31876   3.089   1.839   8.712  0.3133 -0.0324 -0.1868
 6806SOL    HW131877   3.083   1.803   8.623 -1.8203 -0.2046  0.0237
 6806SOL    HW231878   3.009   1.890   8.703  0.5600  0.3334 -0.2939
 6807SOL     OW31879   4.364   2.887  13.198 -0.4798  1.1138 -0.2731
 6807SOL    HW131880   4.455   2.866  13.177  0.2355  2.8549  1.1075
 6807SOL    HW231881   4.378   2.904  13.291 -1.2898  1.1139 -0.1500
 6808SOL     OW31882   4.584   4.715   4.984 -0.5146 -0.5602  0.3830
 6808SOL    HW131883   4.534   0.074   4.984 -0.9111 -0.8077 -2.9511
 6808SOL    HW231884   4.514   4.650   4.990  0.6952 -2.0315 -1.4566
 6809SOL     OW31885   0.480   1.340   4.427  0.1166 -0.3491 -0.0707
 6809SOL    HW131886   0.544   1.313   4.492  0.6186 -2.2586 -1.3714
 6809SOL    HW231887   0.422   1.390   4.485  1.0853  3.4327 -2.3818
 6810SOL     OW31888   1.384   1.421  16.124 -0.4747 -0.0960  0.0774
 6810SOL    HW131889   1.454   1.425  16.059  0.2440 -0.1374  0.8477
 6810SOL    HW231890   1.420   1.366  16.194  2.3102 -0.5237 -1.6712
 6811SOL     OW31891   0.323   2.735   4.596 -0.4030  0.2110  0.0172
 6811SOL    HW131892   0.267   2.746   4.673  0.0486  1.7895  0.1182
 6811SOL    HW231893   0.296   2.808   4.541  1.8295  2.2462  1.5986
 6812SOL     OW31894   3.794   1.196  16.791 -0.0113  0.3326 -0.2770
 6812SOL    HW131895   3.878   1.162  16.820  0.0654 -0.7376 -1.7417
 6812SOL    HW231896   3.810   1.281  16.833  0.2424  0.9431 -1.6013
 6813SOL     OW31897   0.002   4.164   2.402 -0.6303  0.3390  0.6459
 6813SOL    HW131898   0.052   4.083   2.415  1.4205  1.4270 -0.5068
 6813SOL    HW231899   0.044   4.243   2.434  3.6469 -1.5153 -0.4157
 6814SOL     OW31900   1.948   2.117   6.825 -0.2268 -0.1078 -0.1004
 6814SOL    HW131901   1.853   2.116   6.834 -0.0698 -2.5426  1.1860
 6814SOL    HW231902   1.975   2.157   6.743  3.4015 -0.0422  1.1189
 6815SOL     OW31903   0.890   2.623   5.187  0.2804 -0.8633  0.2362
 6815SOL    HW131904   0.811   2.663   5.149  0.4792 -0.9334 -0.2465
 6815SOL    HW231905   0.923   2.585   5.105 -0.6445  0.0618 -0.5813
 6816SOL     OW31906   2.730   0.380   6.468  0.1734 -0.5403  0.2987
 6816SOL    HW131907   2.674   0.315   6.425 -1.8056  0.9008  0.7071
 6816SOL    HW231908   2.671   0.450   6.498  1.2779  0.0239  1.1639
 6817SOL     OW31909   4.219   2.888  12.958 -0.3269 -0.1683 -0.2024
 6817SOL    HW131910   4.267   2.876  13.039 -0.3338 -1.2996 -0.3703
 6817SOL    HW231911   4.299   2.874  12.907 -2.0797 -1.2740 -2.6494
 6818SOL     OW31912   2.623   3.832  12.147  0.1640  0.6426 -0.2409
 6818SOL    HW131913   2.640   3.901  12.212 -3.4944  1.5345 -0.2592
 6818SOL    HW231914   2.607   3.886  12.070  4.4157  1.4605 -0.5839
 6819SOL     OW31915   1.628   1.485   5.443 -0.1321  0.0787 -0.0045
 6819SOL    HW131916   1.608   1.391   5.446  0.5179 -0.0644 -0.2750
 6819SOL    HW231917   1.586   1.514   5.362  1.2127  1.2440 -0.2895
 6820SOL     OW31918   2.338   2.848   7.963 -0.1809 -0.1189  0.1973
 6820SOL    HW131919   2.244   2.833   7.970 -0.3606 -0.6405 -3.1049
 6820SOL    HW231920   2.372   2.766   7.928  1.1242  0.9111 -0.9264
 6821SOL     OW31921   0.985   0.162   4.214 -0.0303  0.1009  0.1071
 6821SOL    HW131922   1.059   0.104   4.231  1.5370  1.6941 -1.2854
 6821SOL    HW231923   0.913   0.103   4.232  1.7970 -1.8975  0.8624
 6822SOL     OW31924   3.091   4.594   6.625  0.6438  0.0441  0.2699
 6822SOL    HW131925   3.170   4.646   6.644 -0.2765  1.8369 -0.7303
 6822SOL    HW231926   3.108   4.590   6.530  1.6136  1.0245  0.4031
 6823SOL     OW31927   3.803   1.845   2.234 -0.1563  0.3772  0.5100
 6823SOL    HW131928   3.881   1.875   2.188  0.0769 -2.0754 -0.6677
 6823SOL    HW231929   3.825   1.755   2.257 -0.1874  0.2756  0.1440
 6824SOL     OW31930   2.364   0.221  11.942  0.3524 -0.0923  0.4607
 6824SOL    HW131931   2.388   0.204  12.034  0.1672 -2.1491  0.1269
 6824SOL    HW231932   2.417   0.155  11.898  2.2226  1.4301  0.3963
 6825SOL     OW31933   4.035   1.680   8.293  0.1813  0.4898  0.4482
 6825SOL    HW131934   4.078   1.644   8.371 -0.6271  1.5512  1.3772
 6825SOL    HW231935   3.962   1.719   8.340 -0.9980 -0.7410 -0.3781
 6826SOL     OW31936   3.765   0.891  13.151 -0.7786  0.5035 -0.0914
 6826SOL    HW131937   3.745   0.801  13.177 -1.6353  0.5739 -0.4980
 6826SOL    HW231938   3.860   0.889  13.151 -0.8089 -1.0736  0.6636
 6827SOL     OW31939   1.370   4.619   2.856  0.5894 -0.2591  0.0248
 6827SOL    HW131940   1.339   4.573   2.778  1.9669 -0.0938 -0.6226
 6827SOL    HW231941   1.289   4.604   2.903 -0.0001  0.9768 -0.5828
 6828SOL     OW31942   0.267   4.341   7.561  0.5152 -0.0284  0.2419
 6828SOL    HW131943   0.333   4.300   7.505 -1.6258 -1.8770 -0.9690
 6828SOL    HW231944   0.266   4.281   7.636 -0.7919 -1.0341 -0.5638
 6829SOL     OW31945   4.476   3.165  12.041  0.2848 -0.0799  0.2685
 6829SOL    HW131946   4.533   3.122  11.977 -0.3340 -0.0534 -0.2984
 6829SOL    HW231947   4.397   3.113  12.032  0.6771 -0.6456  0.1053
 6830SOL     OW31948   4.417   1.987  11.896  0.4969 -0.6454  0.2415
 6830SOL    HW131949   4.377   1.949  11.818  0.0130  0.8946 -0.2672
 6830SOL    HW231950   4.435   2.073  11.858  0.0547 -0.5026  0.3566
 6831SOL     OW31951   4.478   3.305   2.792 -0.1907 -0.3663  0.1753
 6831SOL    HW131952   4.481   3.256   2.709  2.1346  0.2467 -0.1134
 6831SOL    HW231953   4.445   3.391   2.765  0.8091 -0.4819 -1.4503
 6832SOL     OW31954   2.467   2.464   6.637  1.0512  0.8279  0.0525
 6832SOL    HW131955   2.393   2.510   6.678  0.9127  0.9273 -0.3099
 6832SOL    HW231956   2.531   2.449   6.706 -0.4903 -1.3435  1.0099
 6833SOL     OW31957   3.162   1.666  14.386 -0.4658  0.5590  0.1447
 6833SOL    HW131958   3.160   1.678  14.481  1.6271 -1.9573  0.4848
 6833SOL    HW231959   3.190   1.757  14.373 -1.2714  0.7367 -0.3389
 6834SOL     OW31960   1.711   1.239  11.633  0.0062  0.3221 -0.6829
 6834SOL    HW131961   1.794   1.218  11.676 -0.4025  0.2911  0.0900
 6834SOL    HW231962   1.696   1.160  11.581  0.9828 -0.0336 -0.4225
 6835SOL     OW31963   1.233   4.361   1.819  0.1643 -0.0523 -0.3673
 6835SOL    HW131964   1.243   4.414   1.740  0.4920  0.5475  0.0757
 6835SOL    HW231965   1.166   4.295   1.802  1.3135 -1.3360  0.0987
 6836SOL     OW31966   0.167   4.523   8.248 -0.0352  0.1100 -0.0971
 6836SOL    HW131967   0.226   4.498   8.177 -0.2598  2.8417 -1.2283
 6836SOL    HW231968   0.227   4.508   8.322 -0.6709 -1.7155  0.0478
 6837SOL     OW31969   1.580   0.961   6.877 -0.1835 -0.1750  0.3148
 6837SOL    HW131970   1.557   0.915   6.957  1.8692  2.2164  2.2625
 6837SOL    HW231971   1.500   1.013   6.868  1.7015  2.4865 -1.0180
 6838SOL     OW31972   2.338   3.285   5.425 -0.1097 -0.2732  0.4771
 6838SOL    HW131973   2.409   3.224   5.445 -0.2445  0.0872  2.1152
 6838SOL    HW231974   2.274   3.254   5.489  0.0666 -1.6885 -0.0464
 6839SOL     OW31975   1.482   0.581  15.748  0.4662  0.3393 -0.1111
 6839SOL    HW131976   1.404   0.595  15.693 -1.6087  0.1127  2.7786
 6839SOL    HW231977   1.460   0.497  15.789  0.5115  0.4964  0.2375
 6840SOL     OW31978   4.408   1.744   3.364  0.1408  1.0695  0.0184
 6840SOL    HW131979   4.433   1.770   3.275 -0.0743 -0.2153 -0.4149
 6840SOL    HW231980   4.328   1.794   3.378 -1.3484 -1.2367 -0.3142
 6841SOL     OW31981   3.284   3.895   4.741  0.3966  0.0935  0.2276
 6841SOL    HW131982   3.264   3.811   4.783 -1.1569 -1.0585 -2.7622
 6841SOL    HW231983   3.344   3.940   4.799  1.8234  0.0173 -1.1898
 6842SOL     OW31984   3.938   3.475   7.835 -0.5972  0.6904 -0.5552
 6842SOL    HW131985   3.966   3.508   7.921  1.2734  2.5852 -1.9112
 6842SOL    HW231986   4.018   3.429   7.810 -0.9297 -1.1765  1.6840
 6843SOL     OW31987   0.608   1.092   8.863  0.4156  0.2953  0.3132
 6843SOL    HW131988   0.674   1.150   8.901 -1.1893  1.2282  1.6794
 6843SOL    HW231989   0.580   1.146   8.789  0.5712  0.2898  0.2505
 6844SOL     OW31990   4.669   4.330  12.326 -0.1938 -0.1655  0.1397
 6844SOL    HW131991   4.722   4.369  12.256 -3.5165  3.3250 -0.3813
 6844SOL    HW231992   4.600   4.395  12.337 -1.4300 -1.6674  1.2746
 6845SOL     OW31993   0.428   1.931   4.803  0.2463  0.4778 -0.6159
 6845SOL    HW131994   0.364   1.867   4.834 -0.0934  0.2181 -1.8595
 6845SOL    HW231995   0.507   1.878   4.792 -0.3913 -0.0692 -2.6183
 6846SOL     OW31996   3.762   2.791   5.570  0.2192  0.4765  0.3927
 6846SOL    HW131997   3.771   2.859   5.637  2.6821 -0.4316  0.9607
 6846SOL    HW231998   3.678   2.816   5.532 -0.1915 -0.5398  0.6376
 6847SOL     OW31999   4.099   4.123   5.050 -0.5066  0.2449 -0.7064
 6847SOL    HW132000   4.139   4.054   4.997 -1.9821 -1.1835  0.0608
 6847SOL    HW232001   4.175   4.179   5.063  0.0563 -0.4621 -0.9673
 6848SOL     OW32002   0.047   4.621   1.999  0.2073 -0.6922 -0.5313
 6848SOL    HW132003   0.060   4.537   2.042  0.1688 -0.4405 -0.0217
 6848SOL    HW232004   0.131   4.654   1.965 -0.7957  2.7295  0.2403
 6849SOL     OW32005   4.233   4.566   2.235 -0.0337  0.2587 -0.3929
 6849SOL    HW132006   4.198   4.646   2.274 -0.4521 -0.1761  0.1170
 6849SOL    HW232007   4.228   4.587   2.141 -0.4643  1.1009 -0.1855
 6850SOL     OW32008   1.779   3.367   2.802  0.3623 -0.8505  0.1072
 6850SOL    HW132009   1.741   3.288   2.765  0.2422  0.4138 -2.5046
 6850SOL    HW232010   1.871   3.343   2.817  1.4329  2.0821 -1.5355
 6851SOL     OW32011   2.071   2.580  12.233  0.0064  0.5434 -0.0793
 6851SOL    HW132012   2.092   2.509  12.293  2.4142  1.1474 -0.2151
 6851SOL    HW232013   2.104   2.661  12.272 -1.0352  0.0450  1.8233
 6852SOL     OW32014   0.561   3.370   2.479 -0.2063 -0.1976  0.1906
 6852SOL    HW132015   0.579   3.393   2.388 -1.1957 -0.3543 -0.0378
 6852SOL    HW232016   0.618   3.294   2.491  0.5906  0.3815  0.0571
 6853SOL     OW32017   1.183   1.296   7.278  0.0085 -0.0987 -0.2757
 6853SOL    HW132018   1.142   1.360   7.337  1.0928  1.2479 -0.9953
 6853SOL    HW232019   1.160   1.213   7.321  0.0664 -0.5973 -1.2091
 6854SOL     OW32020   3.038   3.678   3.151 -0.5987  0.0982 -0.7306
 6854SOL    HW132021   3.127   3.711   3.139 -0.5717 -0.1999 -1.3631
 6854SOL    HW232022   3.046   3.622   3.228 -1.1512 -3.7346 -3.4505
 6855SOL     OW32023   0.517   4.502   8.197 -0.0958 -0.2667  0.2987
 6855SOL    HW132024   0.502   4.416   8.238 -3.5848  0.5742  0.7570
 6855SOL    HW232025   0.569   4.542   8.266  0.8662 -0.2261 -0.4549
 6856SOL     OW32026   0.831   3.519  11.987  0.1210  0.6294 -0.1112
 6856SOL    HW132027   0.853   3.466  11.911 -0.4325  1.3145 -0.7535
 6856SOL    HW232028   0.859   3.465  12.061 -2.0002 -1.4702 -0.8357
 6857SOL     OW32029   0.583   4.355   5.140 -0.1236 -0.0799 -0.3830
 6857SOL    HW132030   0.594   4.407   5.220 -1.7420 -0.9477  0.3980
 6857SOL    HW232031   0.611   4.266   5.161  0.3041  0.2276  0.3530
 6858SOL     OW32032   3.988   2.069   0.572 -0.0276  0.1092 -0.3662
 6858SOL    HW132033   4.008   1.984   0.534 -0.6314  0.2685 -1.0434
 6858SOL    HW232034   3.956   2.121   0.498  2.5824  1.3893 -0.5862
 6859SOL     OW32035   3.991   2.168  11.760  0.3504 -0.4911 -0.0260
 6859SOL    HW132036   4.046   2.138  11.832  3.0026  1.6430 -1.1515
 6859SOL    HW232037   4.013   2.097  11.699  0.1543 -0.0364 -0.6332
 6860SOL     OW32038   1.247   3.469   7.651  0.0859 -0.8245 -0.3006
 6860SOL    HW132039   1.169   3.525   7.647  0.3164 -0.2824  2.3635
 6860SOL    HW232040   1.259   3.457   7.557 -0.6431  0.2667 -0.5421
 6861SOL     OW32041   3.311   1.174   6.406 -0.1844  0.0230 -0.1275
 6861SOL    HW132042   3.347   1.139   6.325 -0.9352 -0.7039 -0.1469
 6861SOL    HW232043   3.313   1.090   6.453 -1.0741 -0.3046 -0.6718
 6862SOL     OW32044   4.471   3.210   7.930  0.1227 -0.0100  0.2800
 6862SOL    HW132045   4.451   3.118   7.911  0.1984 -0.3514  1.8682
 6862SOL    HW232046   4.548   3.229   7.876 -0.0774  0.2351  0.0815
 6863SOL     OW32047   0.236   1.279  15.557  0.1805  0.4550  0.1199
 6863SOL    HW132048   0.255   1.192  15.520  2.7443  2.0149 -2.2122
 6863SOL    HW232049   0.213   1.252  15.646  1.6552 -2.6980 -0.4472
 6864SOL     OW32050   0.517   1.858   3.173 -0.4430  0.3686  0.0157
 6864SOL    HW132051   0.466   1.865   3.093  0.4774 -3.1554 -0.8980
 6864SOL    HW232052   0.451   1.863   3.243 -0.1527 -0.9990  0.3905
 6865SOL     OW32053   2.520   2.147   6.792 -0.4171  0.0014 -0.2773
 6865SOL    HW132054   2.436   2.117   6.827 -0.2142 -0.9295 -0.5691
 6865SOL    HW232055   2.544   2.070   6.740 -1.9496 -0.5493 -0.1706
 6866SOL     OW32056   3.295   1.892  10.454  0.1234 -0.4348  1.0129
 6866SOL    HW132057   3.365   1.830  10.432  1.2989  0.9935  0.7473
 6866SOL    HW232058   3.301   1.906  10.548 -2.1199  0.5170  1.0103
 6867SOL     OW32059   0.922   3.329  10.181 -0.0068  0.1594 -0.3150
 6867SOL    HW132060   0.981   3.393  10.221  0.3660 -0.5006  0.1784
 6867SOL    HW232061   0.984   3.291  10.118  0.3564  0.4214 -0.1169
 6868SOL     OW32062   0.478   1.185  16.967 -0.1736 -0.0269  0.1054
 6868SOL    HW132063   0.525   1.191  17.050 -2.3643  3.6764  1.0438
 6868SOL    HW232064   0.527   1.115  16.924 -1.3465 -1.0419  0.4322
 6869SOL     OW32065   4.468   0.721   4.856 -0.3880 -0.7472  0.0168
 6869SOL    HW132066   4.552   0.693   4.893 -0.2896  1.6236  1.5911
 6869SOL    HW232067   4.434   0.632   4.847 -1.2735 -0.2964 -1.0773
 6870SOL     OW32068   3.658   2.459   3.414  0.1245  0.3767  0.1625
 6870SOL    HW132069   3.658   2.365   3.435  0.6839  0.1972 -0.6793
 6870SOL    HW232070   3.575   2.474   3.369  0.0331 -0.9525 -0.1112
 6871SOL     OW32071   3.355   4.425   2.046 -0.1992  0.4258  0.1042
 6871SOL    HW132072   3.362   4.426   1.951 -1.5146  2.4675  0.0276
 6871SOL    HW232073   3.360   4.334   2.076 -1.1001 -0.7774 -3.4453
 6872SOL     OW32074   4.251   0.265   2.704  0.0841 -0.2000 -0.3871
 6872SOL    HW132075   4.310   0.245   2.777  0.8962  3.7226  0.0200
 6872SOL    HW232076   4.166   0.224   2.721 -0.1022 -0.8049 -2.7859
 6873SOL     OW32077   0.716   3.487   5.732 -0.2817 -0.2820 -0.2679
 6873SOL    HW132078   0.651   3.421   5.706 -1.5951  0.0670  2.0475
 6873SOL    HW232079   0.723   3.469   5.826 -1.1651 -0.4838 -0.2395
 6874SOL     OW32080   0.261   3.498  15.603 -0.1970  0.4391  0.1295
 6874SOL    HW132081   0.346   3.454  15.600 -0.4692 -0.0423 -0.4078
 6874SOL    HW232082   0.204   3.430  15.569 -1.9668  1.1190  1.6825
 6875SOL     OW32083   2.134   1.197   5.141 -0.2187 -0.0125  0.0779
 6875SOL    HW132084   2.159   1.284   5.110  0.5280  0.0680  0.8898
 6875SOL    HW232085   2.157   1.146   5.063 -1.3736 -0.6727  0.1710
 6876SOL     OW32086   3.887   3.178   3.385 -0.0887 -0.7495 -0.3391
 6876SOL    HW132087   3.958   3.210   3.440 -0.8112 -0.1496  0.2376
 6876SOL    HW232088   3.927   3.189   3.298  0.7239  2.7980  0.4830
 6877SOL     OW32089   3.723   2.927   1.250 -0.4267  0.4714  0.3153
 6877SOL    HW132090   3.765   2.845   1.223 -0.1421  1.2385 -1.5845
 6877SOL    HW232091   3.653   2.890   1.304 -1.8522  1.1421 -1.0741
 6878SOL     OW32092   1.038   3.812   4.347 -0.1092  0.2819  0.1248
 6878SOL    HW132093   1.024   3.719   4.328  2.1179  0.5620 -2.8332
 6878SOL    HW232094   1.012   3.813   4.439  0.5320  1.8011  0.2766
 6879SOL     OW32095   4.397   1.450   3.951  1.1503  0.6018 -0.4106
 6879SOL    HW132096   4.463   1.413   4.009  0.2373  3.9839  2.8136
 6879SOL    HW232097   4.368   1.374   3.900 -0.0128 -0.2718  1.5554
 6880SOL     OW32098   0.849   1.006   2.437  0.4636  0.2998 -0.3033
 6880SOL    HW132099   0.902   1.026   2.515 -1.1698 -4.7877  2.1227
 6880SOL    HW232100   0.858   1.084   2.383 -0.2968 -0.1362 -1.0505
 6881SOL     OW32101   0.639   0.210  13.611  0.5183  0.4150 -0.6673
 6881SOL    HW132102   0.703   0.281  13.621  2.4586 -1.4784  0.5768
 6881SOL    HW232103   0.658   0.150  13.683  2.2895  0.7398 -0.8478
 6882SOL     OW32104   3.302   1.737   9.585  0.1252  0.2405 -0.1194
 6882SOL    HW132105   3.370   1.776   9.530 -0.3527  2.3422  0.7909
 6882SOL    HW232106   3.233   1.745   9.519  0.9275  0.5889 -0.9291
 6883SOL     OW32107   0.098   1.777   0.840 -0.0006  0.4010  0.2695
 6883SOL    HW132108   0.008   1.755   0.815  0.1595 -0.4087  0.4154
 6883SOL    HW232109   0.151   1.774   0.761 -1.7485 -0.7747 -0.8540
 6884SOL     OW32110   3.809   4.020   9.278 -0.0392  0.0199  0.7801
 6884SOL    HW132111   3.716   4.036   9.262  0.4854 -1.8452 -4.4604
 6884SOL    HW232112   3.822   3.937   9.232 -0.9980  0.6112 -0.5843
 6885SOL     OW32113   1.131   0.098   9.429  0.7138 -0.2851 -0.0627
 6885SOL    HW132114   1.070   0.160   9.468  0.4463 -1.7086  1.8015
 6885SOL    HW232115   1.188   0.157   9.381  0.6705 -0.4375 -0.3016
 6886SOL     OW32116   1.625   1.661   4.694 -0.0365  0.0558 -0.2792
 6886SOL    HW132117   1.616   1.568   4.711 -0.3837  0.6417  2.7962
 6886SOL    HW232118   1.718   1.677   4.705  0.0319 -1.3897  1.1832
 6887SOL     OW32119   2.036   3.515   6.920 -0.7476  0.4825 -0.6885
 6887SOL    HW132120   1.956   3.524   6.869 -0.3405  1.5057 -1.1503
 6887SOL    HW232121   2.083   3.449   6.869 -0.7131 -1.0652  1.3287
 6888SOL     OW32122   0.863   0.654   5.514 -0.3339 -0.1549  0.9237
 6888SOL    HW132123   0.900   0.577   5.471  0.5389  1.7407 -1.6794
 6888SOL    HW232124   0.770   0.629   5.519 -0.5188 -0.0198 -1.8944
 6889SOL     OW32125   0.876   4.601   5.361  0.0172  0.4976  0.2060
 6889SOL    HW132126   0.848   4.611   5.452 -0.2742 -2.0343  0.3728
 6889SOL    HW232127   0.842   4.684   5.326 -3.8581 -0.5806  1.4841
 6890SOL     OW32128   2.230   2.366   3.800 -0.5191  0.0428  0.0350
 6890SOL    HW132129   2.157   2.374   3.861 -1.1453 -1.1652 -0.5650
 6890SOL    HW232130   2.286   2.302   3.844 -0.6159 -1.1491 -1.6005
 6891SOL     OW32131   3.787   3.010   7.655 -0.7345 -0.2473  0.1103
 6891SOL    HW132132   3.815   3.055   7.734 -0.1577  0.7702 -0.6786
 6891SOL    HW232133   3.728   3.079   7.624  0.3322  0.4444 -0.3812
 6892SOL     OW32134   2.980   3.093  16.038  0.8670 -0.2821 -0.0187
 6892SOL    HW132135   3.006   3.002  16.023 -0.4107 -0.5750 -0.4335
 6892SOL    HW232136   2.955   3.136  15.956  1.2687  1.6983  0.9007
 6893SOL     OW32137   3.182   2.327  15.210 -0.4669  0.1380 -0.6069
 6893SOL    HW132138   3.111   2.263  15.200 -0.9206  0.5932 -0.2883
 6893SOL    HW232139   3.222   2.322  15.124 -1.3820  1.6346 -1.1243
 6894SOL     OW32140   2.541   3.841   3.852  0.0253  0.3377  0.5116
 6894SOL    HW132141   2.607   3.834   3.920  1.4190 -0.1862 -0.8967
 6894SOL    HW232142   2.463   3.861   3.904  0.0054  0.4127  0.4537
 6895SOL     OW32143   3.478   2.745   3.995  0.1544  0.2339  0.0246
 6895SOL    HW132144   3.563   2.770   3.960 -0.1817  0.1704 -0.8445
 6895SOL    HW232145   3.507   2.703   4.076 -0.4927 -1.6847 -0.7491
 6896SOL     OW32146   4.538   1.449   9.916 -0.2806 -0.1754  0.2756
 6896SOL    HW132147   4.463   1.486   9.870 -0.3188 -1.3255 -0.6011
 6896SOL    HW232148   4.494   1.395   9.981 -2.7091  1.6652  0.1783
 6897SOL     OW32149   4.103   3.579   5.103 -0.2791  0.2294 -0.2280
 6897SOL    HW132150   4.089   3.641   5.031 -1.1719 -0.2776 -0.4914
 6897SOL    HW232151   4.140   3.502   5.061 -0.7934 -0.3642  0.3957
 6898SOL     OW32152   2.944   3.959   4.236 -0.1380  0.3051 -0.3455
 6898SOL    HW132153   3.011   4.010   4.282  0.7791 -1.0169 -0.2383
 6898SOL    HW232154   2.988   3.894   4.182 -0.6820 -0.9624  0.7389
 6899SOL     OW32155   2.540   0.898   4.858 -0.0347  0.0695  0.1422
 6899SOL    HW132156   2.510   0.989   4.858 -0.1088  0.0467  0.5941
 6899SOL    HW232157   2.556   0.864   4.946 -0.2305 -0.3554  0.0127
 6900SOL     OW32158   4.052   1.915  10.984  0.2781  0.1170  0.2151
 6900SOL    HW132159   4.058   1.820  10.970 -0.1287  0.4201 -2.0858
 6900SOL    HW232160   4.081   1.912  11.075  1.3411  2.2390 -0.0481
 6901SOL     OW32161   3.095   3.375   0.881 -0.0010 -0.0873  0.2243
 6901SOL    HW132162   3.030   3.386   0.950 -0.0830  0.3564  0.0720
 6901SOL    HW232163   3.033   3.339   0.817  1.0454 -1.9515  0.2410
 6902SOL     OW32164   3.976   1.224  14.326  0.2858  0.1822 -0.0423
 6902SOL    HW132165   3.979   1.154  14.261 -0.6783  1.3728 -1.3805
 6902SOL    HW232166   3.989   1.176  14.408 -2.3289 -1.0677 -0.3610
 6903SOL     OW32167   1.922   2.516   2.280 -0.1074 -0.0653  0.3927
 6903SOL    HW132168   1.961   2.601   2.300  2.0838 -1.4950  2.2933
 6903SOL    HW232169   1.950   2.515   2.188 -0.5069  0.1655  0.2686
 6904SOL     OW32170   4.474   0.181   1.957  0.4780  0.4678  0.2142
 6904SOL    HW132171   4.414   0.108   1.973 -0.6290  1.4702  0.6147
 6904SOL    HW232172   4.544   0.153   2.017 -1.3816 -1.8882  1.2665
 6905SOL     OW32173   3.429   0.386   6.571 -0.4390  0.3564 -0.2401
 6905SOL    HW132174   3.517   0.361   6.544 -1.6009 -2.9333 -0.9226
 6905SOL    HW232175   3.453   0.470   6.610 -2.6334  1.1742 -0.6210
 6906SOL     OW32176   0.880   3.062   0.939 -0.1867 -0.4411 -0.1920
 6906SOL    HW132177   0.808   3.087   0.996 -0.2083 -3.2405  1.0300
 6906SOL    HW232178   0.944   3.130   0.958 -0.0400  0.0874 -2.5819
 6907SOL     OW32179   0.943   3.853   1.734 -0.6753 -0.0650 -0.0344
 6907SOL    HW132180   0.955   3.760   1.752 -1.4136 -0.1847 -0.1547
 6907SOL    HW232181   0.960   3.865   1.640  0.1986 -0.4808  0.0738
 6908SOL     OW32182   3.646   2.584  13.791 -0.5721  0.2707 -0.5244
 6908SOL    HW132183   3.719   2.637  13.759 -0.7618  1.6617  1.3796
 6908SOL    HW232184   3.572   2.643  13.804 -2.4508 -1.9944 -1.0087
 6909SOL     OW32185   2.337   3.375  13.729  0.1732  0.1174 -0.5321
 6909SOL    HW132186   2.382   3.301  13.688  1.2110 -0.6574  2.0595
 6909SOL    HW232187   2.405   3.440  13.714 -0.2705  0.3304 -1.6258
 6910SOL     OW32188   4.685   1.551  14.162 -0.2223 -0.1886  0.4828
 6910SOL    HW132189   0.004   1.575  14.080  1.3431 -1.9141  0.7790
 6910SOL    HW232190   4.706   1.632  14.209  0.7428  0.7649 -1.5774
 6911SOL     OW32191   1.152   2.582   1.753 -0.4543  0.1918 -0.2771
 6911SOL    HW132192   1.248   2.580   1.746 -0.4364 -0.7550  0.2102
 6911SOL    HW232193   1.138   2.598   1.846 -0.0358 -0.1849 -0.1515
 6912SOL     OW32194   2.182   4.698   6.339 -0.1767 -0.6423 -0.4041
 6912SOL    HW132195   2.227   4.615   6.329 -2.5979 -2.2545  2.0009
 6912SOL    HW232196   2.104   4.693   6.283  0.3663  0.5328 -1.2641
 6913SOL     OW32197   0.852   4.437   4.454  0.7987 -0.0668  0.1537
 6913SOL    HW132198   0.880   4.350   4.483  0.2754  0.6618  2.8568
 6913SOL    HW232199   0.925   4.449   4.394 -0.8360  0.8959 -1.6502
 6914SOL     OW32200   4.594   0.444  13.976  0.0933 -0.1903 -0.9125
 6914SOL    HW132201   4.505   0.457  14.009 -0.6235  0.1413 -2.9638
 6914SOL    HW232202   4.625   0.364  14.018 -0.0106  0.6681  0.7808
 6915SOL     OW32203   1.522   4.486   1.380  0.0860  0.2118 -0.3178
 6915SOL    HW132204   1.549   4.397   1.400 -1.2532 -0.1529 -0.1021
 6915SOL    HW232205   1.590   4.522   1.324  1.4244  0.5780  1.5326
 6916SOL     OW32206   2.941   4.461   3.578 -0.2258  0.0841  0.0616
 6916SOL    HW132207   2.950   4.371   3.548 -1.3064 -0.0722  0.2084
 6916SOL    HW232208   2.913   4.448   3.669  1.0899  0.6315  0.5391
 6917SOL     OW32209   3.979   1.777   0.909 -0.3520  0.1814 -0.2732
 6917SOL    HW132210   3.940   1.864   0.907 -2.1616 -0.6171 -0.0081
 6917SOL    HW232211   3.949   1.741   0.826 -0.9843  0.3775 -0.1330
 6918SOL     OW32212   1.858   2.396  11.421  0.2142 -0.4372  0.6061
 6918SOL    HW132213   1.937   2.350  11.447  0.8595  0.8627  0.9672
 6918SOL    HW232214   1.790   2.365  11.480 -0.3774  0.1384  0.2341
 6919SOL     OW32215   1.817   3.879   3.860  0.0627 -0.0450  0.4595
 6919SOL    HW132216   1.831   3.968   3.894  0.5023  0.0227  0.0936
 6919SOL    HW232217   1.752   3.902   3.794  0.6090  0.2408  0.0247
 6920SOL     OW32218   3.071   2.997  12.704 -0.0763 -0.0587  0.3512
 6920SOL    HW132219   2.984   2.962  12.685  0.9049 -1.3669 -1.7433
 6920SOL    HW232220   3.117   2.924  12.745  2.9869  1.4499 -0.4436
 6921SOL     OW32221   1.938   2.851   5.312  0.2096  0.7231 -0.1145
 6921SOL    HW132222   1.918   2.818   5.400  0.1741  2.5718  0.5607
 6921SOL    HW232223   2.020   2.897   5.327  0.8215 -1.1861  2.4192
 6922SOL     OW32224   1.710   0.125  12.528 -0.5677 -0.0693  0.5053
 6922SOL    HW132225   1.694   0.177  12.607 -0.5448 -1.7797  1.6322
 6922SOL    HW232226   1.742   0.194  12.470 -2.0061 -0.0835 -0.3142
 6923SOL     OW32227   3.617   2.517   4.150  0.4870  0.1825  0.4319
 6923SOL    HW132228   3.672   2.586   4.113  0.0673 -0.8831 -2.1963
 6923SOL    HW232229   3.606   2.462   4.072  2.0749  0.1229  0.2451
 6924SOL     OW32230   3.439   1.795   8.318 -0.3960  0.0427  0.5927
 6924SOL    HW132231   3.418   1.819   8.408  1.4857 -3.1638  1.8854
 6924SOL    HW232232   3.411   1.872   8.270 -1.1314  0.2601  1.3596
 6925SOL     OW32233   3.279   1.149   4.706 -0.4184  0.5259 -0.6795
 6925SOL    HW132234   3.241   1.064   4.726 -1.9312  1.2042 -0.6670
 6925SOL    HW232235   3.248   1.159   4.616  0.1050  0.7675 -0.8352
 6926SOL     OW32236   0.149   1.154  17.129 -0.0352  0.3325 -0.1822
 6926SOL    HW132237   0.226   1.185  17.178 -0.7452  0.6329  0.7458
 6926SOL    HW232238   0.162   1.061  17.143 -2.1346  0.0010 -0.5523
 6927SOL     OW32239   2.319   2.909   2.562  0.1234  0.2595 -0.0370
 6927SOL    HW132240   2.361   2.842   2.615  1.2031  0.1218 -1.0535
 6927SOL    HW232241   2.374   2.988   2.561 -1.5847  1.4491  0.2486
 6928SOL     OW32242   1.206   0.130   0.716  0.1851 -0.0446  0.3650
 6928SOL    HW132243   1.164   0.098   0.796 -0.4463 -2.4390 -0.9358
 6928SOL    HW232244   1.132   0.162   0.665  1.6429 -2.1430 -3.0477
 6929SOL     OW32245   3.879   2.261   5.421 -0.4803 -0.1571  1.0544
 6929SOL    HW132246   3.808   2.244   5.359 -1.0770 -0.3666  1.8119
 6929SOL    HW232247   3.945   2.292   5.358 -0.4793  1.1727  1.7122
 6930SOL     OW32248   4.133   1.273   7.173 -0.2993  0.3128  0.5040
 6930SOL    HW132249   4.140   1.212   7.246  3.2394  0.3342  0.1918
 6930SOL    HW232250   4.039   1.270   7.156 -0.2750 -0.8960  0.5819
 6931SOL     OW32251   2.050   3.268   8.354 -0.3115 -0.0788 -0.3429
 6931SOL    HW132252   2.088   3.336   8.297  2.6264 -0.3739  1.2929
 6931SOL    HW232253   2.113   3.275   8.425 -0.5536  1.7130 -0.3036
 6932SOL     OW32254   0.207   2.637  11.008  0.6852 -0.1356  0.0113
 6932SOL    HW132255   0.272   2.695  10.967 -0.1810  1.7303  1.2882
 6932SOL    HW232256   0.138   2.645  10.943  0.1536 -0.5329  0.5259
 6933SOL     OW32257   2.162   0.472   6.745  0.5264  0.3945 -0.5800
 6933SOL    HW132258   2.124   0.542   6.798 -1.1812 -2.3223  1.7643
 6933SOL    HW232259   2.100   0.471   6.672  1.9529  0.0444 -1.7978
 6934SOL     OW32260   0.759   3.867   5.280  1.0349  0.4414 -0.0129
 6934SOL    HW132261   0.783   3.878   5.372  0.5065 -2.0360  0.4323
 6934SOL    HW232262   0.792   3.780   5.255  0.9308  1.2305 -2.8750
 6935SOL     OW32263   4.202   2.292   0.339 -0.6919 -0.1154  0.0345
 6935SOL    HW132264   4.280   2.311   0.287 -1.8310 -1.3946 -2.1434
 6935SOL    HW232265   4.226   2.209   0.380  0.9019  0.4032  0.1741
 6936SOL     OW32266   3.396   2.853   0.513  0.2717  0.1002 -0.4908
 6936SOL    HW132267   3.418   2.944   0.493 -0.4795  0.1046 -1.2721
 6936SOL    HW232268   3.364   2.839   0.424  1.1096 -2.2738 -0.4052
 6937SOL     OW32269   0.967   1.326   3.749 -0.3381 -0.1560 -0.4518
 6937SOL    HW132270   1.012   1.310   3.667 -1.1832 -0.2393 -0.8978
 6937SOL    HW232271   0.900   1.257   3.748 -3.0574  2.5008 -0.5892
 6938SOL     OW32272   4.485   0.371   4.030 -0.5730  0.0936 -0.2175
 6938SOL    HW132273   4.550   0.300   4.035 -1.2621 -0.3244  2.5662
 6938SOL    HW232274   4.433   0.350   3.953  0.6445 -1.4652 -0.6167
 6939SOL     OW32275   1.102   0.270   2.019 -0.2518  0.4786 -0.2853
 6939SOL    HW132276   1.136   0.261   1.930 -2.5040 -1.9611 -0.8823
 6939SOL    HW232277   1.129   0.189   2.061  1.1583  0.3342 -1.4785
 6940SOL     OW32278   2.592   4.440  16.110 -0.0567  0.2217 -0.1809
 6940SOL    HW132279   2.525   4.415  16.174 -0.3503  1.3619 -0.0381
 6940SOL    HW232280   2.642   4.503  16.163 -1.0114  0.2965  0.6237
 6941SOL     OW32281   3.565   0.843   4.020 -0.0448  0.2073  0.1940
 6941SOL    HW132282   3.642   0.826   4.074 -0.3677 -2.6069 -0.2277
 6941SOL    HW232283   3.492   0.839   4.082 -0.5771 -1.1293 -0.5183
 6942SOL     OW32284   1.070   2.314   1.621  0.2922  0.3038 -0.2748
 6942SOL    HW132285   0.984   2.314   1.663 -0.1718  1.0529 -1.2244
 6942SOL    HW232286   1.105   2.396   1.655 -0.0547  1.1434 -1.9266
 6943SOL     OW32287   4.146   1.942  14.451 -0.0404  0.2256 -0.1308
 6943SOL    HW132288   4.207   1.987  14.393 -1.6416  0.5135 -1.5752
 6943SOL    HW232289   4.162   1.996  14.529 -0.4643 -0.6112  0.5309
 6944SOL     OW32290   4.375   0.822   7.938 -0.1789  0.1466  0.2933
 6944SOL    HW132291   4.382   0.903   7.987  0.3007  0.4131 -0.2161
 6944SOL    HW232292   4.468   0.803   7.930 -0.4179 -0.9425 -0.0228
 6945SOL     OW32293   4.113   3.705   5.332  0.1841 -0.4418 -0.3229
 6945SOL    HW132294   4.187   3.766   5.324 -0.7384  0.8874  1.3066
 6945SOL    HW232295   4.109   3.660   5.248 -1.6129  0.9638 -0.9859
 6946SOL     OW32296   1.029   3.843   2.779  0.1175  0.8897 -0.4115
 6946SOL    HW132297   1.004   3.754   2.802 -1.7977  1.6717  0.5192
 6946SOL    HW232298   0.943   3.883   2.769  0.1332  0.6480 -1.5168
 6947SOL     OW32299   1.355   1.594  12.578 -0.5195 -0.0832  0.5142
 6947SOL    HW132300   1.338   1.662  12.513  0.2986 -0.8668 -0.5251
 6947SOL    HW232301   1.400   1.529  12.523  1.3585  0.1953  1.7504
 6948SOL     OW32302   0.140   2.326   4.712  0.3805  0.3823 -0.0328
 6948SOL    HW132303   0.194   2.249   4.697  1.8273  1.4150 -0.2099
 6948SOL    HW232304   0.201   2.370   4.772 -0.1488 -2.0683  2.2751
 6949SOL     OW32305   2.163   4.671  11.012 -0.4212  0.5312 -0.2566
 6949SOL    HW132306   2.247   4.645  11.050 -0.5384 -2.0411 -1.7165
 6949SOL    HW232307   2.168   4.621  10.930 -0.2999  3.6360 -2.1273
 6950SOL     OW32308   3.645   4.354  10.290  0.0197 -0.2479 -0.5669
 6950SOL    HW132309   3.559   4.315  10.271 -0.3979 -0.2801  1.4148
 6950SOL    HW232310   3.624   4.445  10.308  0.6995 -0.4801  1.3694
 6951SOL     OW32311   3.462   4.500   7.612  0.3509  0.2995  0.0571
 6951SOL    HW132312   3.481   4.415   7.652  0.4764 -0.1783 -1.0059
 6951SOL    HW232313   3.525   4.494   7.540  0.2204  2.8173 -0.2615
 6952SOL     OW32314   1.692   1.940   7.724 -0.0266 -0.2085 -0.2229
 6952SOL    HW132315   1.663   1.954   7.814  0.5766 -0.4515  0.0127
 6952SOL    HW232316   1.762   2.004   7.713 -0.4318  0.1741 -0.5793
 6953SOL     OW32317   1.678   2.956   4.157  0.1239 -0.0611  0.6605
 6953SOL    HW132318   1.679   2.943   4.252 -4.9733  1.2028  0.8941
 6953SOL    HW232319   1.758   3.008   4.157 -1.5814  2.5789 -0.5081
 6954SOL     OW32320   1.917   2.587  11.237  0.2250 -0.2814 -0.0288
 6954SOL    HW132321   2.003   2.554  11.213 -0.3265 -1.8403  0.1601
 6954SOL    HW232322   1.888   2.518  11.297  0.3488 -1.7414 -1.6494
 6955SOL     OW32323   4.621   0.907   7.713  0.6457 -0.0832 -0.5339
 6955SOL    HW132324   4.639   0.845   7.642  2.3041  0.6101 -0.7164
 6955SOL    HW232325   4.531   0.934   7.694  0.2297 -0.7679  0.4751
 6956SOL     OW32326   4.322   0.095  12.143 -0.0247  0.4125 -0.1722
 6956SOL    HW132327   4.312   0.043  12.064  2.2383  1.8692 -1.4263
 6956SOL    HW232328   4.264   0.168  12.119  1.4599  2.0559  1.2404
 6957SOL     OW32329   2.304   3.690   5.481 -0.1451  0.1525 -0.4374
 6957SOL    HW132330   2.250   3.633   5.427 -2.1627  1.0002  0.7173
 6957SOL    HW232331   2.300   3.656   5.570 -0.7097 -0.8441 -0.8525
 6958SOL     OW32332   2.108   3.359  10.745  0.0567 -0.3544 -0.9257
 6958SOL    HW132333   2.037   3.407  10.787 -1.3231 -3.0842 -0.1359
 6958SOL    HW232334   2.060   3.283  10.711 -0.0452 -0.0880 -1.3717
 6959SOL     OW32335   3.497   1.758   7.722  0.1071  0.8392 -0.8260
 6959SOL    HW132336   3.470   1.846   7.747 -1.4365 -0.5099  2.2249
 6959SOL    HW232337   3.535   1.786   7.638  0.3341 -0.8396 -1.2907
 6960SOL     OW32338   0.723   1.488  15.647 -0.2485 -1.0302  0.1889
 6960SOL    HW132339   0.704   1.407  15.694 -0.9703 -0.9485  0.0277
 6960SOL    HW232340   0.818   1.499  15.647 -0.6524  2.6701 -0.1170
 6961SOL     OW32341   2.857   4.660  13.914 -0.5436 -0.0436  0.3430
 6961SOL    HW132342   2.843   4.649  14.008  1.3426  0.9045  0.7492
 6961SOL    HW232343   2.926   4.595  13.900 -1.7089 -0.7830 -1.8492
 6962SOL     OW32344   3.222   3.053   0.700  0.0606  0.1968  0.4134
 6962SOL    HW132345   3.312   3.044   0.729 -0.1207 -2.4225  0.0839
 6962SOL    HW232346   3.195   2.964   0.677 -0.4085  0.3784  0.2514
 6963SOL     OW32347   0.704   3.428   7.372 -0.3429 -0.5392 -0.0090
 6963SOL    HW132348   0.629   3.405   7.317  0.1202 -0.2828 -0.7494
 6963SOL    HW232349   0.754   3.346   7.366  0.8974  0.0679  1.9454
 6964SOL     OW32350   1.619   1.619   6.541 -0.0338  0.0350  0.7790
 6964SOL    HW132351   1.530   1.652   6.544  0.5514  1.6657 -0.0206
 6964SOL    HW232352   1.619   1.538   6.593 -0.2621 -1.9119 -2.2139
 6965SOL     OW32353   1.141   0.874  15.869  0.4072  0.1816  0.0030
 6965SOL    HW132354   1.219   0.897  15.819  0.5351 -1.4722 -0.5638
 6965SOL    HW232355   1.135   0.937  15.941 -0.3640 -1.5948  1.5033
 6966SOL     OW32356   4.081   2.633  12.268 -0.5060  0.2353 -0.6145
 6966SOL    HW132357   4.087   2.723  12.301 -0.3879  1.3675 -3.6754
 6966SOL    HW232358   4.082   2.587  12.351  0.1148  1.4627  0.0590
 6967SOL     OW32359   1.181   3.907   6.283  0.5921  0.1910  0.4660
 6967SOL    HW132360   1.231   3.826   6.294 -2.2655 -1.8541 -1.6698
 6967SOL    HW232361   1.250   3.973   6.276 -0.8173  1.6000 -0.1071
 6968SOL     OW32362   1.681   4.338   1.833 -0.4982 -0.1248 -0.2793
 6968SOL    HW132363   1.670   4.280   1.757  2.4996  1.0018 -1.5563
 6968SOL    HW232364   1.724   4.413   1.793 -0.2319 -1.3527 -2.3459
 6969SOL     OW32365   0.433   1.148   2.096  0.1525  0.2939 -0.0720
 6969SOL    HW132366   0.430   1.096   2.015 -1.6430  1.1429 -0.5530
 6969SOL    HW232367   0.524   1.130   2.122 -0.0366 -2.3210 -1.1353
 6970SOL     OW32368   0.140   0.125  14.656  0.0643  0.2215 -0.5458
 6970SOL    HW132369   0.076   0.167  14.713 -0.4620  0.9023 -1.6362
 6970SOL    HW232370   0.223   0.169  14.675 -0.3825  0.0021  1.9398
 6971SOL     OW32371   2.223   3.720   1.667  0.0128  0.2586 -0.1315
 6971SOL    HW132372   2.156   3.765   1.720  1.0285 -0.3922  1.7138
 6971SOL    HW232373   2.221   3.769   1.585 -0.2493 -3.2329 -2.1754
 6972SOL     OW32374   0.286   2.437  14.376 -0.1829 -0.0014 -0.0875
 6972SOL    HW132375   0.257   2.350  14.403 -0.0549  0.5960  2.0031
 6972SOL    HW232376   0.257   2.437  14.285  3.6847  0.2100 -1.2970
 6973SOL     OW32377   1.841   3.962   5.601  0.4851  0.3482  0.2106
 6973SOL    HW132378   1.829   3.874   5.635  1.7494  0.0279 -0.1712
 6973SOL    HW232379   1.754   3.969   5.560  1.3123 -1.0312 -1.7904
 6974SOL     OW32380   4.234   4.115  15.070 -0.5187 -0.0598 -0.0669
 6974SOL    HW132381   4.178   4.085  15.141  0.0833  2.0792  1.3406
 6974SOL    HW232382   4.210   4.058  14.997  1.7365  0.8735 -1.5304
 6975SOL     OW32383   1.676   0.006   7.066 -0.1256 -0.3883  0.7850
 6975SOL    HW132384   1.656   4.648   7.113 -0.3992  0.4240  2.0575
 6975SOL    HW232385   1.766   0.016   7.097 -0.3467 -1.0453  1.6309
 6976SOL     OW32386   2.114   4.011   3.227 -0.3186 -0.0683  0.2632
 6976SOL    HW132387   2.145   3.965   3.148 -1.8470  0.6452 -0.7612
 6976SOL    HW232388   2.137   4.100   3.203  0.8767 -1.1855 -2.8239
 6977SOL     OW32389   3.732   3.239   4.665  0.0526  0.3177 -0.0757
 6977SOL    HW132390   3.706   3.192   4.744 -3.1768 -1.7250 -2.3883
 6977SOL    HW232391   3.713   3.189   4.586 -1.1519  2.2938 -1.0249
 6978SOL     OW32392   0.589   2.130  10.803  0.6695 -0.0264  0.2228
 6978SOL    HW132393   0.494   2.121  10.790  0.5816 -1.8517  2.1119
 6978SOL    HW232394   0.619   2.092  10.721 -1.9312 -0.3233 -0.5831
 6979SOL     OW32395   4.235   0.594   7.952  0.6366 -1.0909 -0.0730
 6979SOL    HW132396   4.277   0.678   7.936 -0.5974 -0.7460 -1.5691
 6979SOL    HW232397   4.311   0.543   7.979 -1.1614 -2.1402  3.0379
 6980SOL     OW32398   1.686   1.092   4.698 -0.3516  0.3254 -0.2752
 6980SOL    HW132399   1.621   1.042   4.747 -2.0225  2.0542 -0.7603
 6980SOL    HW232400   1.761   1.055   4.745  0.7835 -0.1086 -2.4012
 6981SOL     OW32401   1.046   0.015  10.278 -0.7547 -0.0446  0.1788
 6981SOL    HW132402   0.966   0.018  10.331 -1.8075  1.3991 -1.5110
 6981SOL    HW232403   1.053   0.107  10.252 -0.7905 -0.6386 -1.9170
 6982SOL     OW32404   1.837   2.494   0.702 -0.2037  0.3647 -0.5367
 6982SOL    HW132405   1.786   2.426   0.746  0.4018 -0.3196 -0.9118
 6982SOL    HW232406   1.764   2.526   0.649  0.6583 -1.3795 -2.7764
 6983SOL     OW32407   3.067   0.860  14.449  0.4131 -0.1932 -0.1117
 6983SOL    HW132408   3.139   0.922  14.447 -0.3877  0.7152 -1.1217
 6983SOL    HW232409   3.101   0.775  14.419 -2.9409 -1.3445 -0.6781
 6984SOL     OW32410   1.094   3.523   9.853  0.0797  0.5511  0.4690
 6984SOL    HW132411   1.067   3.432   9.852 -3.9037  1.7638 -2.5489
 6984SOL    HW232412   1.115   3.529   9.760  0.9178  0.1894  0.6351
 6985SOL     OW32413   2.063   0.209   5.109 -0.6654  0.3752  0.4476
 6985SOL    HW132414   2.124   0.190   5.039 -1.1967  2.1017 -0.4807
 6985SOL    HW232415   2.106   0.290   5.139 -0.4043 -1.3005  4.6745
 6986SOL     OW32416   1.496   2.807  15.326 -0.6409 -0.0201 -0.1431
 6986SOL    HW132417   1.588   2.829  15.312 -0.5551  1.1045  2.1592
 6986SOL    HW232418   1.496   2.801  15.422  1.5456 -1.4426 -0.2447
 6987SOL     OW32419   3.877   0.249   2.298 -0.3172  0.5398 -0.1617
 6987SOL    HW132420   3.841   0.328   2.337  0.1865 -0.3566  2.1281
 6987SOL    HW232421   3.828   0.243   2.216 -0.9282 -1.5973  0.3755
 6988SOL     OW32422   3.471   0.828   6.124 -0.1877 -0.3401 -0.8222
 6988SOL    HW132423   3.437   0.906   6.169  0.2917  0.3560 -1.6637
 6988SOL    HW232424   3.560   0.859   6.111  0.7885 -3.1527 -0.7866
 6989SOL     OW32425   4.300   0.930   6.189  0.4384 -0.7998  0.0002
 6989SOL    HW132426   4.210   0.963   6.188  0.3742 -0.9870 -0.6255
 6989SOL    HW232427   4.318   0.952   6.280  0.6035 -0.3608 -0.1395
 6990SOL     OW32428   3.415   3.250  15.449  0.1280 -0.6661 -0.9711
 6990SOL    HW132429   3.411   3.343  15.426 -3.6099 -1.0504 -1.7558
 6990SOL    HW232430   3.383   3.257  15.539 -0.3593 -1.3101 -1.0991
 6991SOL     OW32431   4.167   0.183   9.495  0.0247  0.3307 -0.0750
 6991SOL    HW132432   4.124   0.262   9.529 -1.6030  0.0151 -1.3767
 6991SOL    HW232433   4.147   0.198   9.403 -0.2683  0.3707 -0.0064
 6992SOL     OW32434   0.037   4.690   3.860 -0.8051  0.1265  0.1155
 6992SOL    HW132435   4.685   4.638   3.888 -1.3887  1.5709  1.2564
 6992SOL    HW232436   0.103   4.621   3.863 -0.4533  0.5084  1.1053
 6993SOL     OW32437   2.613   0.078   5.714 -0.6916  0.0300 -0.4980
 6993SOL    HW132438   2.611   0.046   5.624 -1.4141 -1.8368  0.1701
 6993SOL    HW232439   2.708   0.076   5.724 -1.1202  1.7637  4.0480
 6994SOL     OW32440   2.046   0.370   1.433  0.1508  0.5732  0.1086
 6994SOL    HW132441   2.063   0.290   1.482  1.4634  0.6719 -0.1707
 6994SOL    HW232442   2.046   0.444   1.493 -1.3681 -0.3662  1.2433
 6995SOL     OW32443   3.800   3.094  14.960 -0.3035 -0.2524 -0.3787
 6995SOL    HW132444   3.865   3.116  15.027  1.1390 -1.8581 -1.2525
 6995SOL    HW232445   3.861   3.103  14.887 -0.1294 -0.6896 -0.2906
 6996SOL     OW32446   4.700   1.663   2.213 -0.3970  0.1533 -0.5485
 6996SOL    HW132447   4.615   1.646   2.174  0.4347  1.9528 -3.1645
 6996SOL    HW232448   0.035   1.616   2.153 -1.6915 -0.7477 -1.0791
 6997SOL     OW32449   3.576   2.460   5.560  0.2788  0.8887  0.0533
 6997SOL    HW132450   3.523   2.451   5.639  1.2352  1.9606  0.8044
 6997SOL    HW232451   3.665   2.464   5.593  1.0717  3.9566 -2.4482
 6998SOL     OW32452   2.726   0.036   7.895  0.0740 -0.0757  0.0777
 6998SOL    HW132453   2.674   4.720   7.966 -1.1192  1.0545 -0.1649
 6998SOL    HW232454   2.668   0.021   7.820  2.1585 -0.3218 -1.4685
 6999SOL     OW32455   1.010   3.475   3.450  0.6881 -0.4484 -0.0253
 6999SOL    HW132456   1.025   3.409   3.518  1.4589 -0.4770 -0.2191
 6999SOL    HW232457   0.962   3.533   3.509 -1.2211 -1.3477 -0.6959
 7000SOL     OW32458   4.380   0.735   9.536 -0.0463  0.4520 -0.2719
 7000SOL    HW132459   4.332   0.712   9.616  2.6352 -1.9224  0.6245
 7000SOL    HW232460   4.450   0.784   9.578  0.8524 -1.0655  0.0012
 7001SOL     OW32461   3.428   4.692   4.392 -0.1313 -0.3979  0.1358
 7001SOL    HW132462   3.454   0.043   4.338  3.5211 -0.9736  1.1437
 7001SOL    HW232463   3.460   4.719   4.478 -0.7091 -0.3017  0.3263
 7002SOL     OW32464   0.443   0.975   9.141  0.6486 -0.2461 -0.2032
 7002SOL    HW132465   0.467   0.884   9.160  1.2589 -0.0910 -0.2278
 7002SOL    HW232466   0.521   1.028   9.163 -0.3724  1.0680  0.2852
 7003SOL     OW32467   1.633   3.217   3.133 -0.7422 -0.9891  0.0807
 7003SOL    HW132468   1.540   3.197   3.139 -1.0476  0.1734 -0.8003
 7003SOL    HW232469   1.644   3.302   3.175 -0.6024  0.1995 -2.3542
 7004SOL     OW32470   2.400   1.078   3.907  0.6577 -0.0447 -0.0131
 7004SOL    HW132471   2.368   1.167   3.916 -0.0421 -0.3526  0.5642
 7004SOL    HW232472   2.395   1.050   3.999 -0.4713  2.3460  0.6643
 7005SOL     OW32473   0.921   0.213   6.705  0.4087  0.2491 -0.7922
 7005SOL    HW132474   0.877   0.246   6.627 -1.4453 -1.1376 -0.3296
 7005SOL    HW232475   1.015   0.233   6.700  0.7753 -1.0280  0.9510
 7006SOL     OW32476   2.001   0.875  13.781 -0.1171 -0.4128  0.3911
 7006SOL    HW132477   2.028   0.890  13.691  1.4667  1.4066  1.1902
 7006SOL    HW232478   2.021   0.785  13.807  1.2692 -0.5594 -1.2297
 7007SOL     OW32479   0.399   0.760  11.974 -0.3598 -0.0745  0.0005
 7007SOL    HW132480   0.419   0.854  11.970 -0.1742 -0.0858  0.6142
 7007SOL    HW232481   0.395   0.733  11.882 -0.3275 -0.4821  0.1218
 7008SOL     OW32482   4.662   3.338  14.020  0.4229 -0.3797 -0.1693
 7008SOL    HW132483   4.643   3.385  14.101  1.4164  0.3594 -0.3661
 7008SOL    HW232484   0.021   3.385  14.008 -0.8404  1.2475 -2.3890
 7009SOL     OW32485   1.077   1.936   2.097  0.4311  0.1917  0.3538
 7009SOL    HW132486   1.140   1.930   2.025  0.0438  1.3705 -0.0873
 7009SOL    HW232487   0.996   1.957   2.050 -0.2484  0.5527  1.7068
 7010SOL     OW32488   0.524   3.116  15.701 -0.5381 -0.6987  0.2403
 7010SOL    HW132489   0.548   3.207  15.713  1.3153 -1.2257  0.4729
 7010SOL    HW232490   0.544   3.083  15.789  1.1381  0.6140  0.3480
 7011SOL     OW32491   2.258   4.677   3.576 -0.4521 -0.6820  0.1269
 7011SOL    HW132492   2.313   4.705   3.650  0.7771 -0.1148 -1.0046
 7011SOL    HW232493   2.174   4.664   3.619 -0.0761 -2.6546  0.2539
 7012SOL     OW32494   3.730   3.893   7.240  0.0097  0.0108 -0.0940
 7012SOL    HW132495   3.773   3.935   7.314  0.5452 -2.7829  1.2061
 7012SOL    HW232496   3.654   3.858   7.286 -0.7353 -0.6776 -1.8643
 7013SOL     OW32497   1.889   4.317   8.856  0.2191 -0.0621  0.0505
 7013SOL    HW132498   1.818   4.282   8.911  1.0862 -0.5754  0.8375
 7013SOL    HW232499   1.883   4.412   8.870  0.8489 -0.2950  1.9334
 7014SOL     OW32500   1.072   1.488  14.899  0.1899  0.5777  0.3601
 7014SOL    HW132501   1.051   1.400  14.870  3.8798 -0.0545 -0.4453
 7014SOL    HW232502   0.986   1.518  14.928  0.7212  1.8175  0.6871
 7015SOL     OW32503   1.695   1.135  12.703 -0.1341  0.1437 -0.3206
 7015SOL    HW132504   1.707   1.084  12.783  1.1748 -0.3237 -0.8019
 7015SOL    HW232505   1.687   1.060  12.643 -1.2393  0.4111 -0.5006
 7016SOL     OW32506   0.213   4.053  14.750 -0.0687 -0.4034 -0.0136
 7016SOL    HW132507   0.264   4.128  14.781  0.3757 -0.8830  0.4080
 7016SOL    HW232508   0.244   4.043  14.660 -1.2417 -1.3837 -0.3148
 7017SOL     OW32509   1.531   2.090   2.523  0.4767 -0.1233  0.0686
 7017SOL    HW132510   1.618   2.056   2.501 -0.4670 -3.0116  0.7830
 7017SOL    HW232511   1.485   2.011   2.551 -0.2935  1.1639  2.4365
 7018SOL     OW32512   1.031   2.769   2.482  0.1792 -0.2133 -0.0915
 7018SOL    HW132513   0.983   2.687   2.474  2.7477 -1.7681  0.2959
 7018SOL    HW232514   1.120   2.751   2.513 -0.0125 -0.8634  0.0661
 7019SOL     OW32515   2.173   3.017   5.330 -0.1464 -0.2936 -0.1397
 7019SOL    HW132516   2.159   3.102   5.371  0.0765 -1.0478  1.5171
 7019SOL    HW232517   2.261   2.997   5.361  0.3120 -0.1593 -1.3601
 7020SOL     OW32518   2.067   0.598   4.008  0.4668  0.2541  0.5516
 7020SOL    HW132519   2.132   0.633   3.947 -1.8016 -1.6071 -2.9601
 7020SOL    HW232520   2.123   0.551   4.070 -0.2127 -1.9647 -0.5159
 7021SOL     OW32521   3.837   3.384   2.836  0.5353  0.1747  0.1056
 7021SOL    HW132522   3.763   3.344   2.792  1.3015 -0.2021 -0.8482
 7021SOL    HW232523   3.901   3.385   2.765  0.5519  0.5402  0.1267
 7022SOL     OW32524   2.576   1.874   6.911 -0.1431  0.2321  0.6909
 7022SOL    HW132525   2.659   1.885   6.957  0.6334 -1.5218 -0.2551
 7022SOL    HW232526   2.604   1.912   6.828  0.9649 -0.7105  0.6388
 7023SOL     OW32527   4.399   3.822   8.762  0.0217  0.0271  0.6279
 7023SOL    HW132528   4.401   3.916   8.778  0.7770  0.0006  0.6671
 7023SOL    HW232529   4.465   3.793   8.825  0.9751  0.0186 -0.3972
 7024SOL     OW32530   2.148   0.242   2.926  0.2410  0.2674  0.0130
 7024SOL    HW132531   2.116   0.292   3.001  2.1398 -0.7842  1.4898
 7024SOL    HW232532   2.200   0.312   2.886 -0.4297  0.1664 -1.0605
 7025SOL     OW32533   4.546   1.114   4.159  0.4367 -0.8094 -0.3169
 7025SOL    HW132534   4.571   1.204   4.139  1.2043 -0.7181  1.0698
 7025SOL    HW232535   4.503   1.098   4.074 -2.6671  0.8566  0.9324
 7026SOL     OW32536   2.909   2.502   7.701 -0.4700 -0.1350 -0.0779
 7026SOL    HW132537   2.926   2.510   7.795  1.3095 -2.8197 -0.1700
 7026SOL    HW232538   2.884   2.410   7.690 -0.5478 -0.1579  0.3169
 7027SOL     OW32539   0.059   0.851   6.675  0.1132 -0.0760 -0.3136
 7027SOL    HW132540   0.102   0.766   6.667 -1.2143 -0.7705 -0.0680
 7027SOL    HW232541   0.053   0.850   6.770  3.4797 -0.1406 -0.1292
 7028SOL     OW32542   0.617   4.342   6.741 -0.2967  0.5023 -0.4195
 7028SOL    HW132543   0.585   4.399   6.672 -2.9257 -0.2205  0.2188
 7028SOL    HW232544   0.584   4.384   6.821 -1.5595  1.2879 -1.3655
 7029SOL     OW32545   3.706   0.674   6.502 -0.0638 -0.5474 -0.4553
 7029SOL    HW132546   3.615   0.661   6.530 -0.7343 -1.1306 -2.8302
 7029SOL    HW232547   3.681   0.672   6.409 -2.3143  0.7077  0.1354
 7030SOL     OW32548   3.407   4.410  15.720 -0.3003 -0.4099  0.4978
 7030SOL    HW132549   3.339   4.411  15.654 -0.3454  0.6107  0.5664
 7030SOL    HW232550   3.457   4.485  15.689 -1.0099  0.4067  1.3483
 7031SOL     OW32551   1.923   0.677  10.699  0.3476 -0.2240 -0.2071
 7031SOL    HW132552   1.912   0.730  10.778 -1.1194  2.2023 -2.0480
 7031SOL    HW232553   1.922   0.588  10.734  0.5058  0.4781  1.6055
 7032SOL     OW32554   3.799   3.512   0.934  0.2653 -0.3391 -0.4070
 7032SOL    HW132555   3.812   3.513   1.029  0.9574  0.6802 -0.5041
 7032SOL    HW232556   3.730   3.446   0.929  0.8190 -0.8680 -1.0453
 7033SOL     OW32557   3.553   4.597  10.322  0.2225  0.1950  0.2519
 7033SOL    HW132558   3.580   4.686  10.342  1.5133 -0.1974  0.2574
 7033SOL    HW232559   3.480   4.618  10.264 -0.2106 -0.3730  0.5907
 7034SOL     OW32560   4.157   3.909   8.466 -1.1578  0.0318 -0.9018
 7034SOL    HW132561   4.251   3.897   8.454 -0.9988  0.0200  0.3137
 7034SOL    HW232562   4.132   3.852   8.393 -1.0470  0.9287 -1.6382
 7035SOL     OW32563   2.579   2.202   5.862 -0.5044  0.0781 -0.5445
 7035SOL    HW132564   2.558   2.148   5.938 -0.5629  1.2301  0.2645
 7035SOL    HW232565   2.542   2.148   5.792 -1.7224 -0.5274  0.5659
 7036SOL     OW32566   2.590   4.588  15.865 -0.2285 -0.1699 -0.6287
 7036SOL    HW132567   2.575   4.520  15.931 -1.8885  0.8797  0.0784
 7036SOL    HW232568   2.604   4.668  15.915  1.3465  0.2301 -1.7199
 7037SOL     OW32569   3.643   0.419   8.402 -0.1880 -0.1038 -0.9899
 7037SOL    HW132570   3.720   0.371   8.371  1.8516  1.2913  1.9232
 7037SOL    HW232571   3.679   0.497   8.444  1.2149 -1.1583 -0.2246
 7038SOL     OW32572   2.220   1.678   5.257 -0.0208  0.3792  0.5493
 7038SOL    HW132573   2.299   1.721   5.288 -0.0310 -0.8033  2.2418
 7038SOL    HW232574   2.190   1.639   5.339  1.0703 -1.3024  0.1549
 7039SOL     OW32575   3.269   2.911   3.971 -0.3811  0.6314 -1.0517
 7039SOL    HW132576   3.301   2.933   3.884  0.9439  0.6782 -0.5591
 7039SOL    HW232577   3.332   2.842   3.994 -1.6171  0.3272  1.4431
 7040SOL     OW32578   4.058   4.291   4.399  0.1323 -0.1150 -0.2269
 7040SOL    HW132579   4.029   4.353   4.332 -1.8136  0.2717  0.9768
 7040SOL    HW232580   4.142   4.325   4.431  0.4869 -1.9135  0.7381
 7041SOL     OW32581   2.058   2.562   8.858 -0.1753  0.0531  0.0544
 7041SOL    HW132582   2.150   2.538   8.844  0.1052  1.3147 -0.2217
 7041SOL    HW232583   2.050   2.596   8.947  0.6593  1.1600 -0.3028
 7042SOL     OW32584   1.253   0.533  15.606 -0.3318  0.1274  0.4117
 7042SOL    HW132585   1.228   0.441  15.611  1.7642 -0.4159  0.7295
 7042SOL    HW232586   1.196   0.568  15.675 -1.0189  1.3898 -0.7968
 7043SOL     OW32587   3.594   4.615   6.447 -0.5060 -0.4324 -0.3657
 7043SOL    HW132588   3.623   4.641   6.535 -1.5941 -1.4292  0.2741
 7043SOL    HW232589   3.591   4.702   6.407  1.9179  0.9806  2.5066
 7044SOL     OW32590   2.067   2.574   9.687 -0.7072  0.4771 -0.7426
 7044SOL    HW132591   2.157   2.582   9.719 -0.4486  1.8407 -1.8402
 7044SOL    HW232592   2.025   2.636   9.746 -0.0673  2.2748 -2.1911
 7045SOL     OW32593   0.947   0.218   0.075 -0.6232 -0.3501 -0.3419
 7045SOL    HW132594   0.939   0.174   0.160  0.0392  1.3959  0.6417
 7045SOL    HW232595   0.869   0.274   0.079  1.5871  2.7486 -0.6213
 7046SOL     OW32596   2.256   0.608   3.801  0.2493 -0.1239 -0.3196
 7046SOL    HW132597   2.341   0.650   3.815 -1.1201  2.3364  0.5792
 7046SOL    HW232598   2.245   0.590   3.708 -1.6244 -0.1029 -0.0927
 7047SOL     OW32599   2.708   3.943   5.749  0.1888 -0.3696 -0.3506
 7047SOL    HW132600   2.797   3.940   5.783 -0.2811  1.6131  1.0771
 7047SOL    HW232601   2.720   3.993   5.669  1.8311  0.2360  0.2729
 7048SOL     OW32602   1.654   2.155   6.841 -0.6674 -0.0796 -0.4751
 7048SOL    HW132603   1.566   2.191   6.835 -1.6856 -2.5883 -0.5787
 7048SOL    HW232604   1.706   2.226   6.880 -0.0666 -2.6277  3.3106
 7049SOL     OW32605   3.720   0.909  13.670 -0.1592 -0.0875  0.0926
 7049SOL    HW132606   3.673   0.920  13.587 -2.2418 -2.5271  0.9639
 7049SOL    HW232607   3.652   0.859  13.715 -0.9250  0.2851 -0.6417
 7050SOL     OW32608   2.182   2.805   7.144  0.1606 -0.1182 -0.0208
 7050SOL    HW132609   2.147   2.765   7.064  1.5256 -0.2289 -0.5643
 7050SOL    HW232610   2.113   2.869   7.161 -0.9264 -0.8512 -1.6661
 7051SOL     OW32611   0.449   3.767  16.085  0.0909  0.3097 -0.4710
 7051SOL    HW132612   0.375   3.796  16.032  0.2951 -0.8114 -1.3911
 7051SOL    HW232613   0.468   3.853  16.122 -1.3465  0.5027 -0.1839
 7052SOL     OW32614   0.943   2.687   8.137 -0.4814  0.1530  0.0022
 7052SOL    HW132615   1.009   2.734   8.188 -0.5858  1.6558 -1.2464
 7052SOL    HW232616   1.006   2.644   8.079 -1.5780 -2.2912  0.6223
 7053SOL     OW32617   0.626   2.939   4.184 -0.4337  0.2393 -0.3494
 7053SOL    HW132618   0.663   2.901   4.263 -1.0872  0.4122  0.0446
 7053SOL    HW232619   0.626   2.863   4.126  1.6713 -1.4093  1.8595
 7054SOL     OW32620   0.623   1.629   6.863 -0.0091 -0.5305 -0.7170
 7054SOL    HW132621   0.654   1.538   6.859 -1.4801 -1.0225 -1.3140
 7054SOL    HW232622   0.530   1.604   6.860  0.0149 -0.9647  2.3396
 7055SOL     OW32623   0.013   4.075  12.435 -0.3101  0.0675  0.4443
 7055SOL    HW132624   0.062   4.148  12.396 -1.0172 -0.6150 -1.6918
 7055SOL    HW232625   4.653   4.120  12.452  0.5663  3.1063 -3.3880
 7056SOL     OW32626   0.922   3.263   9.439  0.2103 -0.3898 -0.0221
 7056SOL    HW132627   0.954   3.270   9.529 -0.5271 -0.2537  0.2318
 7056SOL    HW232628   1.000   3.277   9.384  0.7309 -1.7662  0.3783
 7057SOL     OW32629   2.815   0.569  16.570 -0.2031  0.0392 -0.4367
 7057SOL    HW132630   2.728   0.579  16.609  0.1411  3.3358 -0.4816
 7057SOL    HW232631   2.811   0.640  16.505 -3.1961  0.5296  0.2823
 7058SOL     OW32632   1.838   0.492   4.607  0.1360 -0.4433  0.2253
 7058SOL    HW132633   1.887   0.512   4.687 -0.1524 -1.5545  0.6787
 7058SOL    HW232634   1.892   0.418   4.578  1.5155  0.4721  0.4123
 7059SOL     OW32635   2.361   3.171   2.974  0.2357  0.0798  0.3737
 7059SOL    HW132636   2.347   3.173   2.880 -1.5324 -1.0259  0.6174
 7059SOL    HW232637   2.444   3.219   2.981  1.4910 -1.6370 -3.0694
 7060SOL     OW32638   4.203   0.473  14.979 -0.3381 -0.1290  0.6812
 7060SOL    HW132639   4.154   0.548  15.014 -0.3183 -0.7675  2.0758
 7060SOL    HW232640   4.177   0.485  14.888 -0.7969  0.6414  0.9086
 7061SOL     OW32641   0.325   1.116  11.294 -0.0819 -0.1120 -0.2631
 7061SOL    HW132642   0.241   1.156  11.274  1.0667  2.0531 -0.7428
 7061SOL    HW232643   0.343   1.079  11.208  3.5217 -0.7822  0.7502
 7062SOL     OW32644   0.905   3.616   5.135  0.1390 -0.2984  0.0128
 7062SOL    HW132645   0.879   3.572   5.216 -2.2609  0.8406 -0.1568
 7062SOL    HW232646   0.910   3.557   5.060  1.5199  0.4265 -0.4718
 7063SOL     OW32647   0.936   2.736   2.997 -0.4648 -0.0546  0.4834
 7063SOL    HW132648   0.962   2.819   3.037  0.1000  0.2166 -0.4432
 7063SOL    HW232649   0.841   2.728   3.007 -0.6770  0.8521 -0.7402
 7064SOL     OW32650   2.937   4.493  14.383  0.2230 -0.1123  0.1842
 7064SOL    HW132651   2.915   4.405  14.414 -2.0719  0.4779  0.1632
 7064SOL    HW232652   3.012   4.514  14.439  0.4718  1.9278 -0.9387
 7065SOL     OW32653   2.421   1.748  11.657  0.2426 -0.1222  0.7123
 7065SOL    HW132654   2.386   1.822  11.607 -0.2143 -0.5144  0.4561
 7065SOL    HW232655   2.348   1.688  11.646  0.9892 -0.9870  0.3980
 7066SOL     OW32656   1.852   1.065   7.392 -0.1836  0.5149 -0.6161
 7066SOL    HW132657   1.808   1.108   7.465 -1.4890 -1.4116 -0.2469
 7066SOL    HW232658   1.809   1.117   7.325 -0.3263 -0.0505 -0.9635
 7067SOL     OW32659   0.886   2.240   7.955 -0.0005 -0.7310 -0.0998
 7067SOL    HW132660   0.804   2.231   8.004 -0.3404  1.2329 -0.3038
 7067SOL    HW232661   0.942   2.266   8.028  0.6602 -1.2548 -0.4232
 7068SOL     OW32662   1.152   1.962  17.138  0.2118  0.0166 -0.3738
 7068SOL    HW132663   1.149   1.945  17.044 -0.3645 -1.8897 -0.0141
 7068SOL    HW232664   1.076   2.021  17.138  1.1746  1.2614 -2.3817
 7069SOL     OW32665   3.343   2.712   2.476 -0.1812  0.2951  0.3515
 7069SOL    HW132666   3.431   2.727   2.442  0.7769 -1.2521  2.1175
 7069SOL    HW232667   3.340   2.618   2.460 -1.6599  0.7238 -1.8580
 7070SOL     OW32668   1.419   3.122   6.539  0.2401  0.0408  0.9792
 7070SOL    HW132669   1.387   3.065   6.469 -1.8805  0.4155  1.6711
 7070SOL    HW232670   1.509   3.143   6.511  0.8884 -2.5498  1.0252
 7071SOL     OW32671   0.975   1.789  14.940 -0.2332  0.3783 -0.5396
 7071SOL    HW132672   1.052   1.735  14.926 -1.2421 -0.9168 -1.1219
 7071SOL    HW232673   0.998   1.865  14.887  2.2561  2.3563  3.3763
 7072SOL     OW32674   3.618   2.693   4.963  0.7492 -0.0205  0.1499
 7072SOL    HW132675   3.660   2.728   5.041 -2.2819  1.4244  1.1632
 7072SOL    HW232676   3.548   2.757   4.948  1.3592  0.2819 -1.3898
 7073SOL     OW32677   4.163   0.175   3.316 -0.0293  0.2958  0.5215
 7073SOL    HW132678   4.100   0.136   3.377  0.1379  0.1275  0.5869
 7073SOL    HW232679   4.243   0.134   3.349  0.7659  2.0872  0.7938
 7074SOL     OW32680   2.780   0.462   5.284 -0.2238  0.1141 -0.6927
 7074SOL    HW132681   2.755   0.371   5.301  1.6557  0.0022  1.4937
 7074SOL    HW232682   2.842   0.444   5.212 -1.4876 -0.2539 -1.6812
 7075SOL     OW32683   1.689   0.696  13.519  0.0514  0.4500  0.0263
 7075SOL    HW132684   1.693   0.782  13.559 -2.2555  0.8482 -0.5985
 7075SOL    HW232685   1.747   0.644  13.574  1.4864  1.0246 -0.9525
 7076SOL     OW32686   1.413   1.228   7.074  0.2305 -0.1867 -0.6477
 7076SOL    HW132687   1.347   1.240   7.142  0.2021 -2.6349 -0.2446
 7076SOL    HW232688   1.419   1.133   7.070 -0.1579 -0.3081  1.7565
 7077SOL     OW32689   2.176   3.507   2.942 -0.2716  0.1682  0.3037
 7077SOL    HW132690   2.204   3.553   2.862 -1.2991 -2.2592 -1.4611
 7077SOL    HW232691   2.150   3.421   2.908 -1.2339 -0.2651  2.1726
 7078SOL     OW32692   0.299   0.897   5.839  1.1383 -0.4080 -0.3146
 7078SOL    HW132693   0.322   0.899   5.746  0.2732  0.2399 -0.5196
 7078SOL    HW232694   0.299   0.804   5.859 -1.3194 -0.3710 -0.0876
 7079SOL     OW32695   4.034   0.323  13.164 -0.6095  0.0487 -0.3069
 7079SOL    HW132696   4.058   0.268  13.090 -0.4385 -1.1331  0.6154
 7079SOL    HW232697   4.031   0.257  13.233  0.4764  0.8435  0.5015
 7080SOL     OW32698   1.293   2.853   8.873  0.0751 -0.6554 -0.0041
 7080SOL    HW132699   1.202   2.839   8.901 -0.1998  2.6391  0.7232
 7080SOL    HW232700   1.295   2.817   8.785  0.5122  2.3857 -1.2173
 7081SOL     OW32701   1.323   2.165   2.991 -0.1176  0.2143 -0.5123
 7081SOL    HW132702   1.414   2.188   3.008 -0.0976  0.1101 -0.4827
 7081SOL    HW232703   1.285   2.249   2.963 -0.5784  0.0112 -0.5055
 7082SOL     OW32704   3.254   0.532  10.750  0.1851  0.4587 -0.5406
 7082SOL    HW132705   3.254   0.546  10.844 -0.4351  1.8429 -0.7489
 7082SOL    HW232706   3.303   0.607  10.717 -1.0184  1.9448  1.1089
 7083SOL     OW32707   4.309   1.532   2.415  0.1218  0.7363  0.1776
 7083SOL    HW132708   4.354   1.498   2.492 -1.0542 -2.3413 -0.5150
 7083SOL    HW232709   4.218   1.543   2.443  0.4904  1.5571  1.0600
 7084SOL     OW32710   4.003   3.600   5.773  0.5978 -0.1860  0.1095
 7084SOL    HW132711   3.920   3.645   5.754  1.0905  1.5650  2.0043
 7084SOL    HW232712   4.027   3.579   5.683  1.9059  1.1877  0.1371
 7085SOL     OW32713   0.254   3.702   5.083 -0.1940 -0.8511  0.2602
 7085SOL    HW132714   0.183   3.694   5.019 -0.6619  0.8479  0.5742
 7085SOL    HW232715   0.333   3.659   5.050 -1.5987 -3.0348 -0.2684
 7086SOL     OW32716   2.432   3.945   6.680 -0.5351  0.5941 -0.2670
 7086SOL    HW132717   2.524   3.934   6.656 -0.2020  1.1656  0.7321
 7086SOL    HW232718   2.410   4.033   6.649 -1.2949  0.5752  0.2121
 7087SOL     OW32719   1.890   2.805   5.022 -0.8897 -0.1997 -0.2999
 7087SOL    HW132720   1.887   2.813   5.117 -1.7788  0.5372 -0.3880
 7087SOL    HW232721   1.986   2.804   5.019 -0.9065 -1.7511 -0.2584
 7088SOL     OW32722   3.470   0.840  13.565  0.0512  0.0219 -0.7141
 7088SOL    HW132723   3.425   0.899  13.626 -1.8394 -1.4399 -0.7070
 7088SOL    HW232724   3.406   0.769  13.560 -0.9462  0.8544  0.4112
 7089SOL     OW32725   4.691   2.329   8.164  0.0504 -0.0467  0.0077
 7089SOL    HW132726   0.056   2.366   8.175  0.7344 -1.0850 -2.0247
 7089SOL    HW232727   4.663   2.328   8.255  1.0836  0.4699  0.3305
 7090SOL     OW32728   4.553   3.405   8.435  0.0611  0.6160  0.3237
 7090SOL    HW132729   4.535   3.499   8.441 -3.2811 -0.2385  3.3238
 7090SOL    HW232730   4.530   3.392   8.343 -1.1694  0.2491  0.6799
 7091SOL     OW32731   0.970   2.976  11.557  0.0402  0.5991  0.2280
 7091SOL    HW132732   0.896   2.929  11.595  1.2961 -0.8867  0.8329
 7091SOL    HW232733   1.033   3.001  11.625  0.4913  1.6306 -0.5520
 7092SOL     OW32734   1.188   4.431   4.948  0.5566  0.1890  0.3658
 7092SOL    HW132735   1.134   4.456   5.023 -0.3305 -0.0967 -0.1700
 7092SOL    HW232736   1.266   4.486   4.950 -1.4725  3.2058 -2.6307
 7093SOL     OW32737   0.138   2.224   9.900 -1.2016  0.1553  0.2336
 7093SOL    HW132738   0.099   2.137   9.888 -0.7743  0.1135 -0.9394
 7093SOL    HW232739   0.158   2.218   9.993  0.7231 -2.1570 -0.3035
 7094SOL     OW32740   3.433   3.511   7.975 -0.0919 -1.1766  0.4464
 7094SOL    HW132741   3.521   3.505   7.937 -0.3066  0.3228 -0.3038
 7094SOL    HW232742   3.372   3.503   7.902 -1.0948 -1.2706  1.3050
 7095SOL     OW32743   2.239   1.583   1.030 -0.6084 -0.2232 -0.0118
 7095SOL    HW132744   2.286   1.636   1.095 -0.9671  1.5053 -1.1707
 7095SOL    HW232745   2.272   1.495   1.045 -2.2232 -0.3781  2.7858
 7096SOL     OW32746   2.337   3.289  11.567 -0.1682 -0.0340 -0.6567
 7096SOL    HW132747   2.430   3.308  11.557  0.1195 -0.9322  0.2688
 7096SOL    HW232748   2.344   3.200  11.531 -1.4256 -0.8053  1.0128
 7097SOL     OW32749   1.616   0.878   5.209  0.1178  0.4599  0.6558
 7097SOL    HW132750   1.551   0.820   5.171 -0.6937  2.1804 -0.5603
 7097SOL    HW232751   1.550   0.934   5.251  2.0801  2.2381  1.4283
 7098SOL     OW32752   0.747   1.606  13.694  0.1385 -0.5175  0.4101
 7098SOL    HW132753   0.839   1.630  13.704 -0.1105  0.3036  0.7640
 7098SOL    HW232754   0.754   1.571  13.605 -0.3476  1.1372 -0.2856
 7099SOL     OW32755   3.693   3.319  16.686  0.1240  0.3000 -0.2640
 7099SOL    HW132756   3.657   3.231  16.696 -0.4631  0.4037 -1.4150
 7099SOL    HW232757   3.758   3.306  16.617  0.8755  0.1712  0.4747
 7100SOL     OW32758   0.850   2.017   1.964  0.1998 -0.3059 -0.0910
 7100SOL    HW132759   0.756   2.017   1.978  0.2985 -0.7149  0.5478
 7100SOL    HW232760   0.860   2.050   1.875  2.4033  0.2932  0.3636
 7101SOL     OW32761   0.537   2.183   5.810  0.9954  0.1544  0.4223
 7101SOL    HW132762   0.482   2.123   5.761  0.1268 -0.6476  2.3959
 7101SOL    HW232763   0.622   2.154   5.777  0.1255 -1.8379 -0.0565
 7102SOL     OW32764   1.158   0.697   2.088  0.5759 -0.0345 -0.1500
 7102SOL    HW132765   1.204   0.648   2.020  0.2953 -1.3584  0.5998
 7102SOL    HW232766   1.116   0.621   2.130  1.5255 -0.8400 -0.6673
 7103SOL     OW32767   2.837   0.832   2.622 -0.3661 -0.0750  0.3492
 7103SOL    HW132768   2.849   0.754   2.676 -2.0044 -0.2527  0.4471
 7103SOL    HW232769   2.773   0.885   2.669  0.1156 -0.9312  1.9818
 7104SOL     OW32770   1.887   4.261  17.430  0.0897 -0.2950 -0.1019
 7104SOL    HW132771   1.868   4.348  17.395 -1.6637 -0.0104  1.5627
 7104SOL    HW232772   1.955   4.227  17.371 -0.1398  0.4309 -0.7950
 7105SOL     OW32773   1.428   4.598   7.439  1.0782 -1.1132  0.2003
 7105SOL    HW132774   1.336   4.578   7.458  1.0632 -0.2054  1.1126
 7105SOL    HW232775   1.449   4.641   7.522  2.4790 -0.6544 -0.3942
 7106SOL     OW32776   2.843   0.815   3.380 -0.3053  0.2100 -0.3562
 7106SOL    HW132777   2.751   0.836   3.397  0.2844  3.6750 -1.5631
 7106SOL    HW232778   2.881   0.849   3.460  0.0470  2.6169 -1.5469
 7107SOL     OW32779   3.620   2.393  12.041  0.2638 -0.2051  0.0968
 7107SOL    HW132780   3.639   2.487  12.041 -0.6364 -0.0212 -0.3798
 7107SOL    HW232781   3.704   2.360  12.012  1.3636  0.1814  2.8168
 7108SOL     OW32782   4.086   3.346   6.994  0.4037 -0.0186  0.3506
 7108SOL    HW132783   4.008   3.292   6.985  0.2833  0.3049 -0.5444
 7108SOL    HW232784   4.147   3.289   6.948  0.0173 -0.0021 -0.1763
 7109SOL     OW32785   3.878   3.535   8.528  0.2868  0.6646  0.2634
 7109SOL    HW132786   3.967   3.542   8.563  0.4339  1.0969 -0.1882
 7109SOL    HW232787   3.840   3.482   8.598 -1.1306  1.3344  0.0006
 7110SOL     OW32788   1.534   0.451   5.960  0.0836  0.2186  0.0639
 7110SOL    HW132789   1.441   0.456   5.981  0.4595 -2.4013  2.3766
 7110SOL    HW232790   1.532   0.368   5.912 -1.1932  0.2011  0.1585
 7111SOL     OW32791   2.506   3.961   3.562  0.2328 -0.1801  0.0271
 7111SOL    HW132792   2.530   4.035   3.618 -3.3760  1.1162 -0.1190
 7111SOL    HW232793   2.552   3.886   3.600  0.1564 -0.9197 -1.3569
 7112SOL     OW32794   1.234   3.745   4.188  0.2117  0.3220  0.1601
 7112SOL    HW132795   1.162   3.769   4.247  0.3439  0.4979  0.2488
 7112SOL    HW232796   1.212   3.823   4.138  0.2856  0.0755 -0.2570
 7113SOL     OW32797   4.180   1.003   3.585 -0.6137 -0.6867  0.1026
 7113SOL    HW132798   4.243   1.037   3.521  0.5524  0.6756  1.9780
 7113SOL    HW232799   4.238   0.971   3.654  0.0833  2.0836  0.8065
 7114SOL     OW32800   0.890   3.831  16.318 -0.3112 -0.4653 -0.7111
 7114SOL    HW132801   0.855   3.870  16.238  0.4776  0.7153 -0.4828
 7114SOL    HW232802   0.847   3.893  16.377  0.2200 -1.3778  0.6569
 7115SOL     OW32803   0.457   2.852   8.669 -0.1942  0.0244  0.1505
 7115SOL    HW132804   0.426   2.829   8.757  2.0317 -2.3007  0.3296
 7115SOL    HW232805   0.547   2.878   8.686  0.3087 -1.4956 -0.1780
 7116SOL     OW32806   1.902   0.618   3.765 -0.3716  0.1560 -0.2378
 7116SOL    HW132807   1.953   0.597   3.844  0.6605  2.1858 -0.3754
 7116SOL    HW232808   1.842   0.684   3.800 -2.6202 -2.4954  0.9706
 7117SOL     OW32809   4.365   3.528   2.998 -0.0012 -0.1876 -0.2702
 7117SOL    HW132810   4.459   3.509   3.004 -0.2131 -0.6061  1.6357
 7117SOL    HW232811   4.358   3.558   2.907 -0.9459 -1.7176 -0.6930
 7118SOL     OW32812   0.206   2.260   4.028  0.1356  0.2604 -0.5020
 7118SOL    HW132813   0.130   2.314   4.051  0.7434  0.8111  0.2000
 7118SOL    HW232814   0.269   2.272   4.099  0.8291 -2.0066 -0.7384
 7119SOL     OW32815   1.144   1.361  12.431  0.4887 -0.2856  0.1992
 7119SOL    HW132816   1.236   1.336  12.436  0.2246 -0.9325  1.8043
 7119SOL    HW232817   1.104   1.296  12.373 -1.2801  1.0886 -0.1174
 7120SOL     OW32818   3.455   1.472   3.471 -0.5362  0.2313  0.0998
 7120SOL    HW132819   3.486   1.488   3.382  0.1389 -0.7919  0.1525
 7120SOL    HW232820   3.412   1.555   3.494 -0.3716 -0.3821  2.5913
 7121SOL     OW32821   1.355   2.845   3.469  0.8226 -0.0978  0.5287
 7121SOL    HW132822   1.298   2.771   3.490 -0.2471  0.2850 -1.0276
 7121SOL    HW232823   1.294   2.913   3.496 -0.3697 -0.5917 -0.9011
 7122SOL     OW32824   4.074   4.016  15.283 -0.0043 -0.1804 -0.3788
 7122SOL    HW132825   4.153   3.992  15.332  0.8334 -0.5593 -1.9277
 7122SOL    HW232826   4.022   4.054  15.355  0.6474 -0.6157  0.3225
 7123SOL     OW32827   2.985   0.450   5.484 -0.1917  0.1771 -0.0180
 7123SOL    HW132828   3.054   0.453   5.417 -0.4178 -2.9017 -0.3866
 7123SOL    HW232829   2.907   0.451   5.429 -0.6069  1.7843  0.6113
 7124SOL     OW32830   4.321   0.352   3.474 -0.3023 -0.0766  0.6602
 7124SOL    HW132831   4.369   0.359   3.392 -1.0784 -0.1702  0.1964
 7124SOL    HW232832   4.242   0.402   3.453 -0.8580 -1.2887 -0.1480
 7125SOL     OW32833   2.351   1.180   4.194  0.3531  0.2246  0.3651
 7125SOL    HW132834   2.313   1.253   4.242 -3.1024 -0.8655 -0.7086
 7125SOL    HW232835   2.359   1.106   4.254 -1.4415 -0.0417  0.2647
 7126SOL     OW32836   3.561   0.576   4.857  0.3368 -0.4371 -0.7726
 7126SOL    HW132837   3.624   0.504   4.857  0.0845 -0.6578 -0.9594
 7126SOL    HW232838   3.501   0.537   4.920  1.2216  0.0631  0.3746
 7127SOL     OW32839   2.223   4.413   4.785  0.1428 -0.1641 -0.0479
 7127SOL    HW132840   2.129   4.417   4.802 -0.2859 -2.8856 -1.8156
 7127SOL    HW232841   2.237   4.320   4.772 -1.0291 -0.3376 -0.1066
 7128SOL     OW32842   2.782   0.516   0.884  0.0740 -0.3681  0.1441
 7128SOL    HW132843   2.818   0.570   0.954  0.1501  0.1869 -0.3238
 7128SOL    HW232844   2.688   0.532   0.883  0.2739  0.8566  0.9476
 7129SOL     OW32845   4.596   1.950  12.916  0.0992 -0.1328 -0.3603
 7129SOL    HW132846   4.662   1.911  12.858  1.2856  2.8013 -0.9570
 7129SOL    HW232847   4.645   2.003  12.979  0.5420  2.0387 -2.5371
 7130SOL     OW32848   3.573   1.939   5.814  0.7467  0.2614  0.2466
 7130SOL    HW132849   3.567   2.028   5.848 -1.0262  0.4087 -0.4440
 7130SOL    HW232850   3.540   1.896   5.893 -2.5006  0.7100 -0.8367
 7131SOL     OW32851   1.677   3.517  16.144  0.5527 -0.0371  0.1067
 7131SOL    HW132852   1.758   3.567  16.153  0.3822  0.6667 -2.1058
 7131SOL    HW232853   1.704   3.425  16.141 -0.2852 -0.2819  0.1741
 7132SOL     OW32854   3.125   2.524  12.832 -0.3084 -0.1621  0.1429
 7132SOL    HW132855   3.058   2.544  12.767 -1.3542 -0.7235  1.0547
 7132SOL    HW232856   3.133   2.611  12.871 -0.0149 -0.7770  1.4736
 7133SOL     OW32857   2.951   4.472   7.742  0.0292  0.0780  0.2480
 7133SOL    HW132858   2.985   4.547   7.789  0.4105 -0.8283  1.4307
 7133SOL    HW232859   3.020   4.411   7.767 -0.4304 -0.7530 -0.5078
 7134SOL     OW32860   2.814   4.205   8.414  0.1221 -0.2723 -0.1767
 7134SOL    HW132861   2.910   4.204   8.414  0.1076 -1.7225  0.1133
 7134SOL    HW232862   2.802   4.133   8.476 -0.4725 -0.6539 -0.7350
 7135SOL     OW32863   2.235   1.009  14.567  0.1126 -0.0258  0.3368
 7135SOL    HW132864   2.319   1.041  14.602 -0.5589 -1.2015  2.9918
 7135SOL    HW232865   2.264   0.958  14.491 -2.0381 -3.9339  2.1973
 7136SOL     OW32866   1.871   1.380   5.335 -0.3834 -1.0909 -0.1491
 7136SOL    HW132867   1.849   1.291   5.360 -0.9401 -0.5903  1.1109
 7136SOL    HW232868   1.834   1.424   5.412  0.7748 -1.2608  0.5073
 7137SOL     OW32869   4.029   3.233  16.582  0.3322 -0.7357 -0.1840
 7137SOL    HW132870   4.073   3.149  16.570  1.1395 -0.4265  0.6531
 7137SOL    HW232871   4.101   3.295  16.577  0.9507 -1.4510 -0.0415
 7138SOL     OW32872   0.232   3.297   7.012 -0.3821  1.3045  0.4605
 7138SOL    HW132873   0.202   3.386   7.035  0.9522  2.1746 -1.2364
 7138SOL    HW232874   0.226   3.254   7.098 -0.0927  3.9315  1.8143
 7139SOL     OW32875   3.484   1.421  12.335  0.0597  0.6567 -0.3954
 7139SOL    HW132876   3.515   1.335  12.307  1.8595  0.9632  0.6171
 7139SOL    HW232877   3.484   1.402  12.429 -0.7935  0.9639 -0.3355
 7140SOL     OW32878   3.608   2.730   8.733  0.0115 -0.0078 -0.6470
 7140SOL    HW132879   3.660   2.809   8.751  3.0053 -2.1073  0.0375
 7140SOL    HW232880   3.672   2.661   8.712 -0.1707  0.5179 -2.9482
 7141SOL     OW32881   4.511   2.428   2.435 -0.9154  0.0797  0.3377
 7141SOL    HW132882   4.564   2.496   2.476  0.0221 -0.6030  0.2596
 7141SOL    HW232883   4.574   2.357   2.423 -0.5788  0.3801  0.3159
 7142SOL     OW32884   1.470   3.288   6.990 -0.3379 -0.4642  0.2054
 7142SOL    HW132885   1.513   3.359   6.943 -0.4441  0.3368  1.3116
 7142SOL    HW232886   1.531   3.281   7.063 -0.3967 -1.4442  0.1562
 7143SOL     OW32887   4.524   1.888   7.829  0.2252  0.3519 -0.6059
 7143SOL    HW132888   4.601   1.888   7.885  0.7420  0.3196 -1.3247
 7143SOL    HW232889   4.452   1.848   7.879 -0.1917  2.1475  0.2345
 7144SOL     OW32890   0.618   3.718   5.579  0.0385  0.2012 -0.2088
 7144SOL    HW132891   0.667   3.646   5.619 -2.3716 -0.2857  1.8791
 7144SOL    HW232892   0.677   3.786   5.614  1.9181 -1.3780 -0.2839
 7145SOL     OW32893   3.785   4.430   1.904 -0.0138  0.6330  0.0197
 7145SOL    HW132894   3.808   4.445   1.812 -1.4209 -1.0455 -0.5993
 7145SOL    HW232895   3.700   4.388   1.902  0.4295 -0.3321  2.4593
 7146SOL     OW32896   3.544   0.068   4.980  0.7101  0.6040 -0.3497
 7146SOL    HW132897   3.611   0.013   4.940  1.2499  2.0038 -1.3859
 7146SOL    HW232898   3.587   0.083   5.064 -0.1965 -2.6842  0.6928
 7147SOL     OW32899   3.971   2.627  14.804 -0.2424 -0.2683 -0.5172
 7147SOL    HW132900   3.936   2.589  14.884  3.1654 -0.5607  0.8181
 7147SOL    HW232901   3.971   2.547  14.751 -0.0488 -0.8647  0.3905
 7148SOL     OW32902   2.952   3.376  13.942  0.3900 -0.3845  0.3948
 7148SOL    HW132903   3.024   3.318  13.918  1.2359  1.2460 -1.0432
 7148SOL    HW232904   2.902   3.365  13.861 -0.5928  0.5984  0.8604
 7149SOL     OW32905   4.152   4.369   7.748  0.3747 -0.3726  0.1319
 7149SOL    HW132906   4.243   4.342   7.764  0.8222  0.6758 -0.6189
 7149SOL    HW232907   4.106   4.344   7.828  0.2795 -0.7876 -0.0531
 7150SOL     OW32908   1.866   1.779   4.148  0.3115 -0.4415  0.4377
 7150SOL    HW132909   1.815   1.860   4.146  0.4337 -0.3821 -0.7676
 7150SOL    HW232910   1.849   1.730   4.067 -5.4387  0.6999  1.0006
 7151SOL     OW32911   0.497   3.752  11.049 -0.2012  0.0712 -0.4643
 7151SOL    HW132912   0.575   3.697  11.052 -0.5013 -0.2955  0.5805
 7151SOL    HW232913   0.487   3.731  10.956 -1.4604 -4.6273  0.7345
 7152SOL     OW32914   3.806   0.477   8.023 -0.5655 -0.2297  0.3900
 7152SOL    HW132915   3.856   0.531   7.961 -1.4694  0.0184 -0.1318
 7152SOL    HW232916   3.875   0.456   8.086  1.6045  2.1845 -1.1493
 7153SOL     OW32917   3.977   2.848   6.467 -0.2617 -0.7152  0.4142
 7153SOL    HW132918   3.895   2.842   6.516 -0.9263 -0.9630 -0.7541
 7153SOL    HW232919   4.037   2.905   6.515  0.3108 -1.1741  0.2365
 7154SOL     OW32920   3.194   3.144   7.507 -0.2243 -0.1168 -0.3532
 7154SOL    HW132921   3.221   3.152   7.599  1.1905 -1.9685 -0.6050
 7154SOL    HW232922   3.181   3.237   7.490  0.2523 -0.2313 -1.3345
 7155SOL     OW32923   1.370   3.156   8.813  0.7995 -0.1959  0.0605
 7155SOL    HW132924   1.371   3.244   8.775 -2.1060 -0.2065 -0.0946
 7155SOL    HW232925   1.281   3.145   8.847  1.3348  1.3392  1.9213
 7156SOL     OW32926   4.040   3.655   1.659 -0.1300 -0.2922 -0.2743
 7156SOL    HW132927   4.031   3.592   1.587  1.1409 -2.3167  1.3365
 7156SOL    HW232928   3.947   3.669   1.676 -0.2360  0.3292 -1.3459
 7157SOL     OW32929   3.033   2.037  12.190 -0.6218  0.1177 -0.1369
 7157SOL    HW132930   3.054   2.018  12.099 -1.0893 -1.2039  0.0239
 7157SOL    HW232931   3.084   2.117  12.195  0.5145 -0.7098  1.5233
 7158SOL     OW32932   4.450   0.509   6.639  0.5785 -0.1684  0.2552
 7158SOL    HW132933   4.426   0.435   6.696  1.3780 -0.2024  0.5488
 7158SOL    HW232934   4.477   0.572   6.707 -1.6571  0.4473  0.5946
 7159SOL     OW32935   1.943   0.973   1.365  0.4776 -0.0374  0.0061
 7159SOL    HW132936   1.854   0.944   1.347  0.0970  1.7947 -0.9567
 7159SOL    HW232937   1.990   0.899   1.326 -0.1116 -0.4705  0.1197
 7160SOL     OW32938   3.217   0.045  17.179 -0.2644  0.9922 -0.1636
 7160SOL    HW132939   3.165   0.112  17.224  1.2173  1.9600  0.1199
 7160SOL    HW232940   3.289   0.045  17.243 -0.7647 -0.6379  0.3924
 7161SOL     OW32941   1.412   0.844  16.556 -0.0868 -0.1311  0.1114
 7161SOL    HW132942   1.424   0.858  16.649 -0.3567 -1.3749  0.3378
 7161SOL    HW232943   1.476   0.909  16.527  2.2389 -3.2245 -1.7239
 7162SOL     OW32944   1.495   3.155   9.826 -0.1905 -0.5169 -0.1505
 7162SOL    HW132945   1.457   3.225   9.773  0.3659  1.0888  1.5406
 7162SOL    HW232946   1.573   3.196   9.864  0.8090 -2.6700  0.1247
 7163SOL     OW32947   3.878   1.688   8.938 -0.0818 -0.1504 -0.2147
 7163SOL    HW132948   3.963   1.654   8.964 -0.6819 -0.3798  1.4791
 7163SOL    HW232949   3.830   1.606   8.955 -0.7500  0.2461 -0.1882
 7164SOL     OW32950   1.730   3.478  14.381  0.0434  0.0811  0.3858
 7164SOL    HW132951   1.760   3.439  14.299  2.2887  0.7176  0.9046
 7164SOL    HW232952   1.760   3.569  14.376 -2.3419  1.0115  3.2202
 7165SOL     OW32953   3.484   1.614   8.073 -0.0976  0.4524 -0.0316
 7165SOL    HW132954   3.390   1.627   8.058 -0.4130 -0.1316  1.4497
 7165SOL    HW232955   3.502   1.686   8.133 -0.9479  0.8546 -0.2545
 7166SOL     OW32956   2.407   4.514  10.123  0.4971  0.0939  0.2147
 7166SOL    HW132957   2.493   4.478  10.103  0.5046  0.2358 -0.0058
 7166SOL    HW232958   2.432   4.566  10.200 -0.1680  1.5870 -0.5859
 7167SOL     OW32959   3.824   1.630   1.905  0.4640 -0.2073  0.9241
 7167SOL    HW132960   3.872   1.580   1.840  1.7812  2.1792  0.0533
 7167SOL    HW232961   3.739   1.647   1.865  1.5249 -1.7408 -1.9270
 7168SOL     OW32962   1.376   3.663   8.230  0.1804  0.2737  0.6008
 7168SOL    HW132963   1.370   3.716   8.150  1.0100  1.5568  1.3775
 7168SOL    HW232964   1.470   3.648   8.241  0.3608  0.3699 -0.8327
 7169SOL     OW32965   0.562   2.568  17.594  0.5516  0.4840 -0.0774
 7169SOL    HW132966   0.602   2.526  17.670  1.1435  0.1782 -0.5641
 7169SOL    HW232967   0.467   2.559  17.606  0.4018  1.9625 -0.1515
 7170SOL     OW32968   3.060   3.593   1.301 -0.0243  0.1081 -0.0551
 7170SOL    HW132969   3.035   3.508   1.266  0.2323  0.6547 -1.5541
 7170SOL    HW232970   2.970   3.622   1.313 -0.3180 -0.1831 -1.6229
 7171SOL     OW32971   4.586   4.673   0.300  0.2759  0.6753  0.0845
 7171SOL    HW132972   4.681   4.666   0.307  0.1742 -0.3966  0.4487
 7171SOL    HW232973   4.565   4.615   0.226 -0.0655 -0.9249  1.4241
 7172SOL     OW32974   0.897   1.653  15.485  0.4549 -0.3146 -0.1769
 7172SOL    HW132975   0.972   1.708  15.463  0.9985 -0.3946  1.5084
 7172SOL    HW232976   0.874   1.695  15.567  1.0808  0.5734 -0.4601
 7173SOL     OW32977   4.249   3.235   6.632  0.5498 -0.2689 -0.2257
 7173SOL    HW132978   4.292   3.187   6.561  1.9698  0.7499 -0.0559
 7173SOL    HW232979   4.266   3.188   6.714 -1.1463 -0.0375  0.2582
 7174SOL     OW32980   1.780   3.718  16.404  0.3135  0.2312 -0.0355
 7174SOL    HW132981   1.694   3.682  16.383  0.5051  0.5107 -1.2639
 7174SOL    HW232982   1.826   3.708  16.321 -0.0050 -2.5768  0.1500
 7175SOL     OW32983   4.408   1.476   6.950 -0.6808 -0.0414 -0.0999
 7175SOL    HW132984   4.443   1.499   7.036  0.4433 -1.7530 -0.0849
 7175SOL    HW232985   4.440   1.550   6.899 -0.2467 -0.1511  0.0150
 7176SOL     OW32986   2.053   1.764   0.959  0.3883 -0.2641  0.2196
 7176SOL    HW132987   2.110   1.689   0.974  0.1561 -0.2468  1.2152
 7176SOL    HW232988   2.055   1.807   1.045 -1.0762  2.3702 -1.0617
 7177SOL     OW32989   4.093   0.687  15.882  0.2428 -0.1417  0.3719
 7177SOL    HW132990   4.176   0.715  15.921  0.1739  0.6337 -0.0375
 7177SOL    HW232991   4.070   0.772  15.845  0.3884 -0.8579 -1.3646
 7178SOL     OW32992   2.431   1.350  17.546 -0.4821 -0.2463  0.0318
 7178SOL    HW132993   2.443   1.414  17.476 -1.5714  1.0240  1.0101
 7178SOL    HW232994   2.431   1.273  17.489  1.8521  1.2314 -1.9470
 7179SOL     OW32995   2.339   4.651   7.167 -0.3445 -0.0860 -0.3504
 7179SOL    HW132996   2.340   0.001   7.228  0.7774 -1.2482  1.0065
 7179SOL    HW232997   2.409   4.600   7.208 -0.6160 -1.6452 -1.8557
 7180SOL     OW32998   2.962   3.572  15.939  0.7238  0.4090  0.0667
 7180SOL    HW132999   3.054   3.595  15.947  0.2973  1.2648  2.5216
 7180SOL    HW233000   2.946   3.583  15.845  0.6794  1.4070  0.1951
 7181SOL     OW33001   2.478   4.381   1.576 -0.1339  0.4921  0.6193
 7181SOL    HW133002   2.572   4.396   1.563 -0.3168  1.3870  0.3232
 7181SOL    HW233003   2.466   4.329   1.496  0.1080 -0.1048  0.9687
 7182SOL     OW33004   1.474   3.663  17.312 -0.3052  0.4254 -0.6537
 7182SOL    HW133005   1.470   3.582  17.364  0.1248  0.4249 -0.6230
 7182SOL    HW233006   1.568   3.679  17.324 -0.6253  0.3675  1.9135
 7183SOL     OW33007   3.891   1.213   3.784 -0.6820 -0.6140 -0.0060
 7183SOL    HW133008   3.921   1.178   3.868  0.7030 -0.2714 -0.3694
 7183SOL    HW233009   3.800   1.239   3.802 -0.2300  1.3579 -0.6148
 7184SOL     OW33010   4.086   2.353   8.675  0.2865  0.1968 -0.1006
 7184SOL    HW133011   4.151   2.424   8.681  0.8592 -0.1361 -2.3484
 7184SOL    HW233012   4.075   2.322   8.764  2.6361  1.1411  0.5270
 7185SOL     OW33013   4.268   1.642   8.133 -0.1643 -0.6563 -0.3165
 7185SOL    HW133014   4.273   1.737   8.124 -0.0424 -0.5968  0.4273
 7185SOL    HW233015   4.182   1.633   8.173 -0.5569  0.7609 -0.8562
 7186SOL     OW33016   1.645   0.120   6.120 -0.4777 -0.1909 -0.1358
 7186SOL    HW133017   1.694   0.169   6.187 -0.7320 -0.1796  0.0383
 7186SOL    HW233018   1.557   0.111   6.156  0.1347  0.7050  1.5879
 7187SOL     OW33019   2.435   2.026   1.156  0.4226  0.3092  0.5591
 7187SOL    HW133020   2.468   2.115   1.141  1.2304  0.0383  0.7675
 7187SOL    HW233021   2.400   2.003   1.069 -2.0192 -0.1927  1.6612
 7188SOL     OW33022   0.443   2.410   5.999 -0.0310  0.1310 -0.2301
 7188SOL    HW133023   0.504   2.342   6.029  0.9063 -0.0114 -2.4039
 7188SOL    HW233024   0.491   2.456   5.930 -3.4586 -0.5426 -3.0683
 7189SOL     OW33025   1.467   0.436  15.402 -0.2615  0.5075  0.2365
 7189SOL    HW133026   1.463   0.530  15.385 -0.6983  1.0543  3.4118
 7189SOL    HW233027   1.430   0.433  15.490 -0.1475  0.4089  0.2822
 7190SOL     OW33028   2.716   2.840   7.897  0.2398 -0.2379 -0.0487
 7190SOL    HW133029   2.695   2.928   7.867  1.5978 -0.3761 -1.3789
 7190SOL    HW233030   2.632   2.798   7.877 -0.0611  0.9058 -1.1434
 7191SOL     OW33031   0.622   2.646   6.145 -0.2643  0.4117 -0.0885
 7191SOL    HW133032   0.653   2.666   6.234  2.2889  0.3873 -0.9747
 7191SOL    HW233033   0.528   2.632   6.148 -0.1754  0.4660  2.9019
 7192SOL     OW33034   2.879   3.688   8.238  0.9287 -0.0947  0.3316
 7192SOL    HW133035   2.925   3.642   8.168  0.4469 -0.3709  0.1899
 7192SOL    HW233036   2.928   3.770   8.244 -1.2365  1.0329  2.3940
 7193SOL     OW33037   3.586   3.151   5.150 -0.0982 -0.3458 -0.4832
 7193SOL    HW133038   3.528   3.195   5.089 -0.7030 -1.0721 -0.4343
 7193SOL    HW233039   3.663   3.139   5.094  0.6729  0.9898  0.2784
 7194SOL     OW33040   4.177   2.226   6.152  0.0605  0.0400  0.2808
 7194SOL    HW133041   4.205   2.222   6.244 -1.6364 -1.6700  0.7434
 7194SOL    HW233042   4.146   2.316   6.147  0.6775  0.3023  1.1759
 7195SOL     OW33043   1.453   3.314  16.298  0.3317 -0.0711  1.0725
 7195SOL    HW133044   1.459   3.407  16.280  3.4692 -0.9029 -2.1273
 7195SOL    HW233045   1.495   3.281  16.219 -1.0239 -0.4082  0.4958
 7196SOL     OW33046   1.157   3.932  10.908  0.4478  0.3360 -0.3020
 7196SOL    HW133047   1.118   3.871  10.971  0.4899 -0.0760 -0.6761
 7196SOL    HW233048   1.080   3.969  10.865  1.3966  1.2455 -1.1937
 7197SOL     OW33049   2.986   4.345   6.707  0.4754  0.0716  0.4951
 7197SOL    HW133050   3.036   4.425   6.689  1.4718 -0.6731 -0.0279
 7197SOL    HW233051   2.947   4.389   6.782  0.3263 -1.5062  1.3380
 7198SOL     OW33052   3.657   1.534   4.515 -0.0240  0.5298  0.1952
 7198SOL    HW133053   3.567   1.513   4.540 -0.1013  1.1083  0.4137
 7198SOL    HW233054   3.639   1.615   4.468 -3.1358  0.3754  1.1323
 7199SOL     OW33055   1.431   4.417   8.949 -0.2696 -0.2704 -0.0403
 7199SOL    HW133056   1.490   4.488   8.977 -0.0294  0.4248 -2.3428
 7199SOL    HW233057   1.477   4.362   8.886  0.2491 -0.4160  0.4576
 7200SOL     OW33058   2.021   2.986  16.040  0.2433  0.2042  0.0181
 7200SOL    HW133059   1.992   3.049  15.974 -2.2228  0.3418  1.2286
 7200SOL    HW233060   2.018   3.027  16.127  0.0730 -2.2699  1.1765
 7201SOL     OW33061   4.045   0.677  15.017  0.3851 -0.0410  0.2771
 7201SOL    HW133062   3.991   0.682  15.096  0.4843  0.0057  0.3432
 7201SOL    HW233063   4.047   0.769  14.991 -1.5380  0.1151  0.7183
 7202SOL     OW33064   3.894   2.647   4.264 -0.5809 -0.6375  0.9834
 7202SOL    HW133065   3.885   2.642   4.359 -2.3987  1.1716  0.9199
 7202SOL    HW233066   3.935   2.563   4.245  0.7242  0.4690 -1.1570
 7203SOL     OW33067   2.867   3.744   3.628  0.5065 -0.2231 -0.0840
 7203SOL    HW133068   2.842   3.786   3.546  0.4802  0.7316  0.4099
 7203SOL    HW233069   2.798   3.682   3.650  0.4479 -0.9794 -2.4086
 7204SOL     OW33070   2.412   0.228   1.955  0.1646  0.0817  0.2958
 7204SOL    HW133071   2.321   0.205   1.977 -0.0282 -1.1433 -1.7412
 7204SOL    HW233072   2.437   0.293   2.020  0.9338 -2.0941  2.1893
 7205SOL     OW33073   1.605   0.424   2.736  0.2490 -0.2136 -0.5937
 7205SOL    HW133074   1.548   0.468   2.673 -1.7207  0.3511  1.5556
 7205SOL    HW233075   1.673   0.387   2.679 -0.1658  1.9697 -2.5066
 7206SOL     OW33076   1.178   4.357  17.450  0.3897 -0.0153  0.3708
 7206SOL    HW133077   1.206   4.266  17.436  0.2212  0.1862 -1.2092
 7206SOL    HW233078   1.259   4.408  17.440 -0.6481  0.9786 -2.8119
 7207SOL     OW33079   2.814   2.908   6.866  0.0751 -0.4075 -0.1465
 7207SOL    HW133080   2.745   2.847   6.840  1.4173 -1.1604 -1.9527
 7207SOL    HW233081   2.895   2.859   6.850  0.0191  0.1097 -2.0813
 7208SOL     OW33082   0.574   2.236   2.984  0.7392  0.0426  0.2076
 7208SOL    HW133083   0.497   2.217   3.037  1.7821  1.0242  2.0623
 7208SOL    HW233084   0.639   2.200   3.044 -0.3583  0.6878  1.7773
 7209SOL     OW33085   0.620   1.332  15.458  0.2968 -0.5336  0.3048
 7209SOL    HW133086   0.662   1.399  15.511 -1.3199  2.1321 -1.7782
 7209SOL    HW233087   0.539   1.382  15.450  1.2169  0.5817 -2.1392
 7210SOL     OW33088   3.030   4.127   5.633  0.1043  0.1265  0.6784
 7210SOL    HW133089   2.946   4.161   5.604  0.1433  0.5357  1.0537
 7210SOL    HW233090   3.013   4.035   5.609 -0.6274  0.2071  0.8892
 7211SOL     OW33091   3.666   1.381   3.185 -0.1307 -0.0120  0.0083
 7211SOL    HW133092   3.694   1.308   3.241 -1.5806  0.0247  0.7767
 7211SOL    HW233093   3.678   1.453   3.247  1.4627 -1.5408  1.5054
 7212SOL     OW33094   2.431   0.932  15.674 -0.1253  0.3165  0.0295
 7212SOL    HW133095   2.478   0.897  15.750  1.3961 -2.7742 -2.3407
 7212SOL    HW233096   2.346   0.945  15.716  0.6397  0.3005  1.6094
 7213SOL     OW33097   3.380   0.480  16.348 -0.2806 -0.1067  0.5297
 7213SOL    HW133098   3.334   0.441  16.272  1.8675  0.1033 -0.8698
 7213SOL    HW233099   3.420   0.552  16.299  2.4402 -1.5221  0.6765
 7214SOL     OW33100   3.600   1.463   1.590  0.2569  0.3400 -0.5083
 7214SOL    HW133101   3.605   1.393   1.655 -0.6772  0.0447 -0.7514
 7214SOL    HW233102   3.633   1.532   1.648 -2.0333  1.2061 -0.2143
 7215SOL     OW33103   1.797   1.254  13.149  0.2235  0.4129  0.3713
 7215SOL    HW133104   1.875   1.211  13.186 -0.9807 -0.9696  1.2976
 7215SOL    HW233105   1.844   1.320  13.098 -0.3646  0.2937 -0.3147
 7216SOL     OW33106   3.324   4.130   7.097 -0.1962 -0.3365  0.3399
 7216SOL    HW133107   3.334   4.224   7.083 -0.0482 -0.1294  1.8842
 7216SOL    HW233108   3.342   4.097   7.009 -2.9649 -2.1545  0.4709
 7217SOL     OW33109   0.643   1.900   5.321 -0.8584  0.1973  0.0306
 7217SOL    HW133110   0.651   1.825   5.262 -2.0769  1.5570 -1.8480
 7217SOL    HW233111   0.599   1.965   5.266  0.7081  0.8052 -0.5165
 7218SOL     OW33112   1.239   0.099  14.331  0.0978 -0.5354  0.3154
 7218SOL    HW133113   1.317   0.043  14.335  0.8728  0.5132 -0.0511
 7218SOL    HW233114   1.279   0.184  14.314 -1.3022  0.2367  0.8797
 7219SOL     OW33115   0.656   2.892   8.357  0.9706  0.2132  0.0213
 7219SOL    HW133116   0.693   2.804   8.352 -0.0248 -0.1547 -0.9887
 7219SOL    HW233117   0.601   2.882   8.435 -1.2194  0.5918 -1.4939
 7220SOL     OW33118   2.751   2.066   7.315 -0.2365  0.3462  0.3679
 7220SOL    HW133119   2.781   2.144   7.268 -0.7966 -0.4146 -1.2437
 7220SOL    HW233120   2.692   2.102   7.382 -0.7602  0.3647 -0.1036
 7221SOL     OW33121   2.463   2.896   3.923  0.1842  0.1496 -0.0507
 7221SOL    HW133122   2.520   2.923   3.850 -0.6689 -0.2929 -0.8799
 7221SOL    HW233123   2.410   2.824   3.889 -0.3626  1.0549 -1.1250
 7222SOL     OW33124   3.856   2.473   5.595  0.2109 -0.1027  0.2718
 7222SOL    HW133125   3.851   2.410   5.523  0.6980 -0.3703  0.4755
 7222SOL    HW233126   3.839   2.553   5.545  0.5998  0.4883  1.0849
 7223SOL     OW33127   2.064   3.118  13.870 -0.1819  0.0278  0.3365
 7223SOL    HW133128   2.004   3.129  13.944  1.8945  1.7776  1.7425
 7223SOL    HW233129   2.017   3.050  13.822 -0.9224 -0.8853  2.3880
 7224SOL     OW33130   3.111   1.960   6.050 -0.0015 -0.4752 -0.6956
 7224SOL    HW133131   3.140   2.038   6.002 -0.3737 -0.6738 -1.2362
 7224SOL    HW233132   3.171   1.956   6.125 -0.4302 -1.1121 -0.3860
 7225SOL     OW33133   0.544   4.238   4.649  0.1000  0.1604  0.5570
 7225SOL    HW133134   0.571   4.148   4.666  0.5159  0.2693  0.4611
 7225SOL    HW233135   0.580   4.283   4.725  2.5577 -2.2056  0.7919
 7226SOL     OW33136   4.420   2.543   8.436 -0.1856  0.2496  0.0450
 7226SOL    HW133137   4.361   2.544   8.511  0.7346 -2.3827  0.8060
 7226SOL    HW233138   4.384   2.613   8.381 -0.2227 -1.5128 -2.1711
 7227SOL     OW33139   0.009   0.616   4.901 -1.1541 -0.6912 -0.3923
 7227SOL    HW133140   0.072   0.677   4.939 -0.6274  0.5969 -3.3795
 7227SOL    HW233141   0.065   0.603   4.824 -2.3108 -1.5559 -1.0950
 7228SOL     OW33142   0.490   2.926   9.476 -0.0865  0.1035  0.2571
 7228SOL    HW133143   0.454   2.933   9.387  1.9661 -2.3078 -0.7635
 7228SOL    HW233144   0.408   2.919   9.524  0.3298  0.3207  0.9872
 7229SOL     OW33145   0.541   3.013   4.542 -0.2494  0.6296 -0.0921
 7229SOL    HW133146   0.488   3.040   4.468  0.1550  0.6631 -0.3709
 7229SOL    HW233147   0.481   3.026   4.615  1.7295 -0.3747  1.7328
 7230SOL     OW33148   2.394   3.630  14.141  0.0973 -0.0542  0.1693
 7230SOL    HW133149   2.347   3.580  14.208  0.8708 -1.2287 -0.1603
 7230SOL    HW233150   2.483   3.623  14.175 -1.1575  1.3890  3.7715
 7231SOL     OW33151   3.700   0.795   6.826 -0.3771  0.0431  0.3206
 7231SOL    HW133152   3.660   0.822   6.909 -0.6628 -1.7667  0.7654
 7231SOL    HW233153   3.744   0.872   6.790 -1.2257  2.7240  4.9290
 7232SOL     OW33154   2.377   0.720   2.443 -0.0761 -0.0285 -0.2799
 7232SOL    HW133155   2.473   0.719   2.448  0.0328 -0.5400 -2.3226
 7232SOL    HW233156   2.363   0.780   2.516 -0.2812  2.0761 -2.0525
 7233SOL     OW33157   2.136   1.780  10.301  0.3814 -0.0667 -0.3634
 7233SOL    HW133158   2.091   1.825  10.229 -0.2392  1.3487  0.9219
 7233SOL    HW233159   2.159   1.692  10.273  2.3178  0.6041 -0.8658
 7234SOL     OW33160   0.495   1.503   2.617  0.4353  0.1376 -0.1496
 7234SOL    HW133161   0.451   1.437   2.669  1.6584 -1.2206 -0.8224
 7234SOL    HW233162   0.422   1.556   2.585 -1.6943 -1.4175  2.1981
 7235SOL     OW33163   1.494   2.759   0.033 -0.3696 -0.2283  0.2111
 7235SOL    HW133164   1.527   2.673   0.055 -0.5306  0.0257  1.4513
 7235SOL    HW233165   1.406   2.764   0.069 -0.1814 -0.0127  0.6443
 7236SOL     OW33166   3.065   3.821   6.648 -0.4358 -0.1759  0.1907
 7236SOL    HW133167   3.031   3.889   6.590 -0.9709 -0.1687  0.5098
 7236SOL    HW233168   3.024   3.852   6.729 -0.6026 -1.2218  0.5032
 7237SOL     OW33169   2.840   1.128  13.452 -0.5424  0.6324 -0.1043
 7237SOL    HW133170   2.776   1.182  13.497 -1.7353 -1.9157  1.2192
 7237SOL    HW233171   2.875   1.181  13.380 -0.9146  0.9132 -0.0774
 7238SOL     OW33172   2.926   3.398   1.123  0.2273 -0.0654 -0.5254
 7238SOL    HW133173   2.839   3.425   1.095 -0.4922 -3.7439 -1.8102
 7238SOL    HW233174   2.914   3.310   1.157 -3.9402  0.8805  0.4774
 7239SOL     OW33175   1.897   0.108   8.490 -0.2999 -0.1696  0.7620
 7239SOL    HW133176   1.969   0.050   8.511 -0.5014 -0.6997 -0.0483
 7239SOL    HW233177   1.876   0.148   8.575  0.7675  1.8117  0.0949
 7240SOL     OW33178   3.722   3.121   5.634  0.3751  0.2513 -0.1765
 7240SOL    HW133179   3.699   3.213   5.645  1.5413  0.4434  0.5613
 7240SOL    HW233180   3.803   3.118   5.684 -0.6867 -2.8667  1.4015
 7241SOL     OW33181   4.362   0.847   6.861 -0.6802 -0.3561  0.7665
 7241SOL    HW133182   4.426   0.776   6.863  0.0813  0.3102  0.1072
 7241SOL    HW233183   4.329   0.818   6.946 -0.1539 -0.9335  0.7709
 7242SOL     OW33184   3.140   0.826   2.296  0.1045  0.0910 -0.0362
 7242SOL    HW133185   3.097   0.900   2.253 -0.9736  0.1463  1.1169
 7242SOL    HW233186   3.158   0.862   2.383  0.9604 -0.3251 -0.0450
 7243SOL     OW33187   1.348   2.062  11.788  0.0080  0.3935 -0.1847
 7243SOL    HW133188   1.372   2.143  11.833 -3.3045  0.9958  0.4597
 7243SOL    HW233189   1.439   2.032  11.797 -0.0063  0.1505 -0.8949
 7244SOL     OW33190   1.827   2.942   9.828  0.4494 -0.4648 -0.4968
 7244SOL    HW133191   1.741   2.917   9.861 -1.2651  2.9950 -2.2444
 7244SOL    HW233192   1.888   2.913   9.895 -0.5929  0.8844  1.0366
 7245SOL     OW33193   3.286   4.082   7.388  0.4333 -0.7322  0.4955
 7245SOL    HW133194   3.222   4.149   7.411  0.0101 -2.0198  3.1363
 7245SOL    HW233195   3.317   4.111   7.302 -0.6561 -0.1181  0.3060
 7246SOL     OW33196   0.095   1.344  12.695  0.1619 -0.2150 -0.0916
 7246SOL    HW133197   0.128   1.261  12.660  0.2831  0.3736 -1.3738
 7246SOL    HW233198   0.156   1.409  12.660 -2.1359  1.6140 -0.6145
 7247SOL     OW33199   0.452   2.776   3.860 -0.0625 -0.0342 -0.4048
 7247SOL    HW133200   0.385   2.830   3.817 -2.4683 -0.3592  3.0156
 7247SOL    HW233201   0.407   2.695   3.885 -0.7910  1.1368  2.0504
 7248SOL     OW33202   3.772   1.649   8.670  0.7031 -0.3445  0.3745
 7248SOL    HW133203   3.768   1.695   8.754  0.2683  1.3340 -0.5629
 7248SOL    HW233204   3.703   1.587   8.694 -0.1224 -0.2853 -1.8032
 7249SOL     OW33205   4.013   2.968   5.011  0.0762  0.5136 -0.1729
 7249SOL    HW133206   3.950   3.029   5.046 -1.3585  0.0505 -1.9489
 7249SOL    HW233207   3.980   2.893   5.061  0.6929 -0.4517 -1.1938
 7250SOL     OW33208   1.763   2.014   4.187 -0.3177  0.0318  0.0842
 7250SOL    HW133209   1.850   2.025   4.224  0.4668  1.1117 -2.0854
 7250SOL    HW233210   1.729   2.101   4.209 -0.1384 -0.1245  0.9457
 7251SOL     OW33211   3.333   4.338   4.938 -0.6607  0.4549  0.1257
 7251SOL    HW133212   3.269   4.382   4.995 -1.9476 -0.4774 -0.5901
 7251SOL    HW233213   3.321   4.395   4.863 -2.2291 -0.4943 -0.3445
 7252SOL     OW33214   1.242   1.828   4.487  0.1501 -0.4006  0.4045
 7252SOL    HW133215   1.290   1.820   4.570 -1.7930  0.9869  1.6834
 7252SOL    HW233216   1.261   1.747   4.441  3.6046 -0.5021  1.9496
 7253SOL     OW33217   4.155   1.632   8.942 -0.6645  0.4568  0.2851
 7253SOL    HW133218   4.141   1.599   8.854  1.5957 -2.0668  0.8689
 7253SOL    HW233219   4.147   1.554   8.997  0.3759  0.7602  0.8765
 7254SOL     OW33220   3.051   0.159   0.422 -0.0365 -0.2135 -0.4313
 7254SOL    HW133221   3.058   0.211   0.502 -0.8660 -0.1543 -0.3908
 7254SOL    HW233222   3.143   0.149   0.398  0.2678  1.8057 -0.1192
 7255SOL     OW33223   0.028   4.618   2.939 -0.6238 -0.5200  0.6798
 7255SOL    HW133224   4.658   4.603   2.952 -0.7477 -1.5642 -1.4800
 7255SOL    HW233225   0.033   4.597   2.846 -0.7464  1.5627  0.2096
 7256SOL     OW33226   0.288   0.391  14.234  0.0033  0.0141  0.0580
 7256SOL    HW133227   0.245   0.466  14.194  2.8703  2.3814  1.4927
 7256SOL    HW233228   0.233   0.377  14.311  0.2441  1.7385  0.5366
 7257SOL     OW33229   2.386   0.873   5.464 -0.0185 -0.2647 -0.2030
 7257SOL    HW133230   2.323   0.804   5.447  0.7559 -1.0168 -0.0165
 7257SOL    HW233231   2.365   0.924   5.543 -1.1450 -1.5817  0.3322
 7258SOL     OW33232   2.588   2.355   3.977  0.0428 -0.7436  0.5818
 7258SOL    HW133233   2.555   2.404   3.902 -1.8400  1.4076  2.8180
 7258SOL    HW233234   2.667   2.309   3.948  1.7917  1.6664  1.5521
 7259SOL     OW33235   1.352   3.023  17.020 -1.1359  0.0189 -0.0476
 7259SOL    HW133236   1.351   3.078  16.941  1.1948 -2.3734 -1.7050
 7259SOL    HW233237   1.335   3.092  17.085 -3.4255  0.8165 -1.4755
 7260SOL     OW33238   0.505   0.141   5.902  0.8371  0.3187  0.3966
 7260SOL    HW133239   0.468   0.080   5.965 -3.1767  1.3763 -0.9197
 7260SOL    HW233240   0.427   0.153   5.848  0.1862 -1.0215  1.0439
 7261SOL     OW33241   1.322   4.622  10.283  0.3212  0.2815 -0.6009
 7261SOL    HW133242   1.324   4.639  10.189 -1.2284 -0.4739 -0.7775
 7261SOL    HW233243   1.236   4.653  10.310  1.5902  1.8083  1.6744
 7262SOL     OW33244   3.893   3.863  17.017 -0.1266  0.1882 -0.1105
 7262SOL    HW133245   3.818   3.865  17.076 -0.5316  1.0039 -0.6529
 7262SOL    HW233246   3.898   3.770  16.994 -2.6527 -0.2519  1.1098
 7263SOL     OW33247   4.406   0.255   8.280 -0.0105  0.3796 -0.8969
 7263SOL    HW133248   4.317   0.241   8.249  0.3154 -0.9350 -1.2698
 7263SOL    HW233249   4.408   0.214   8.367  0.2865  1.4828 -0.3946
 7264SOL     OW33250   1.135   4.274   7.235 -0.3075  0.3417  0.3442
 7264SOL    HW133251   1.054   4.322   7.216  0.7798  1.7052 -0.7414
 7264SOL    HW233252   1.125   4.203   7.171  1.1887  0.1061  0.3712
 7265SOL     OW33253   4.382   0.445   3.191 -0.2880 -0.0642 -0.0800
 7265SOL    HW133254   4.313   0.474   3.132 -1.3788  1.8767  2.1467
 7265SOL    HW233255   4.455   0.498   3.159 -0.1686 -0.1878 -0.0110
 7266SOL     OW33256   4.703   2.470   4.272 -0.1697 -0.2185  0.1827
 7266SOL    HW133257   4.629   2.435   4.223 -0.0776 -0.8516  0.4853
 7266SOL    HW233258   4.720   2.553   4.228 -0.5232  0.5626  1.5171
 7267SOL     OW33259   0.978   1.983   3.470 -0.9135 -0.0492 -0.1284
 7267SOL    HW133260   1.058   1.935   3.447 -0.9922  1.0672 -2.6998
 7267SOL    HW233261   0.916   1.950   3.405 -3.5816 -0.0903  2.4114
 7268SOL     OW33262   3.142   4.659  17.488 -0.3532 -0.5488 -0.1003
 7268SOL    HW133263   3.214   4.718  17.466 -0.9926 -0.7744 -2.8200
 7268SOL    HW233264   3.200   4.582  17.489  0.3219 -0.0371  0.4694
 7269SOL     OW33265   0.848   3.324  11.092 -0.1916  0.0873  0.5440
 7269SOL    HW133266   0.763   3.351  11.056 -1.1789  0.6157  3.2324
 7269SOL    HW233267   0.828   3.231  11.103  1.4527 -0.2139  0.9834
 7270SOL     OW33268   0.660   1.383   9.374 -0.3594  0.7796 -0.0357
 7270SOL    HW133269   0.705   1.336   9.445 -1.7625  0.3290  0.5547
 7270SOL    HW233270   0.573   1.390   9.413 -1.4225 -1.5949 -1.9625
 7271SOL     OW33271   3.627   2.651   9.032 -0.2678 -0.4084  0.1060
 7271SOL    HW133272   3.551   2.652   8.974 -1.1997 -1.0917  1.3292
 7271SOL    HW233273   3.687   2.594   8.984  3.2985  0.6337  3.2770
 7272SOL     OW33274   2.833   3.579   5.089 -0.1781  0.0559  0.7009
 7272SOL    HW133275   2.790   3.558   5.172 -2.2251  0.0902 -0.3648
 7272SOL    HW233276   2.756   3.587   5.033  0.1672 -0.9267  0.0907
 7273SOL     OW33277   4.467   2.157   4.566  0.1146  0.1205 -0.8870
 7273SOL    HW133278   4.372   2.156   4.580  0.1683  1.2110 -0.3582
 7273SOL    HW233279   4.481   2.251   4.555 -1.5146  0.5830  0.9874
 7274SOL     OW33280   0.864   4.029   9.479  0.5010 -0.4002  0.3275
 7274SOL    HW133281   0.842   4.122   9.468  0.6271 -0.2210  1.5353
 7274SOL    HW233282   0.874   4.022   9.574  1.8277 -2.1357  0.0743
 7275SOL     OW33283   1.457   2.896   2.079 -0.4327 -0.1331  0.0636
 7275SOL    HW133284   1.466   2.894   2.174  2.4798 -0.5235 -0.2007
 7275SOL    HW233285   1.510   2.817   2.067  0.8882  0.8217 -0.3522
 7276SOL     OW33286   3.148   1.608   5.148  0.2215 -0.1844  0.3126
 7276SOL    HW133287   3.199   1.643   5.221  1.0099 -1.1937  0.2506
 7276SOL    HW233288   3.060   1.619   5.183 -0.8823 -2.5490 -1.7512
 7277SOL     OW33289   3.090   2.821   0.010  0.2397 -0.4229 -0.0601
 7277SOL    HW133290   3.019   2.876   0.043  2.1399  0.7673  2.0705
 7277SOL    HW233291   3.026   2.754  17.679 -0.6480  0.3993 -0.0057
 7278SOL     OW33292   1.988   2.427   8.615 -0.3283  0.5397 -0.1339
 7278SOL    HW133293   1.992   2.378   8.697 -0.0470 -1.8632 -1.5760
 7278SOL    HW233294   1.957   2.357   8.557 -1.3448  0.2984  0.6996
 7279SOL     OW33295   2.781   4.532  16.332  0.2470 -0.0836  0.8980
 7279SOL    HW133296   2.802   4.625  16.339 -3.5070  0.7502  1.3963
 7279SOL    HW233297   2.867   4.491  16.327 -0.6526 -1.6583 -1.8358
 7280SOL     OW33298   1.097   1.576   6.746 -0.5310  0.1613 -0.1159
 7280SOL    HW133299   1.037   1.553   6.817  0.7007  0.0013  0.8723
 7280SOL    HW233300   1.081   1.670   6.743 -2.2569 -0.0416  2.4625
 7281SOL     OW33301   2.891   1.900  12.404  0.2953  0.2409 -0.1094
 7281SOL    HW133302   2.945   1.909  12.325  0.3885 -0.8022 -0.1610
 7281SOL    HW233303   2.922   1.980  12.447  0.8005  0.1678 -0.3361
 7282SOL     OW33304   2.566   2.572  11.369 -0.1597 -0.4677  0.7434
 7282SOL    HW133305   2.576   2.562  11.464  2.8277  2.5042  0.7353
 7282SOL    HW233306   2.532   2.661  11.370  1.5558  0.1844  0.1585
 7283SOL     OW33307   1.724   1.972   8.418  0.2684  0.2239  0.0197
 7283SOL    HW133308   1.648   1.956   8.475 -0.0425 -0.3645 -0.5551
 7283SOL    HW233309   1.753   2.059   8.444 -0.5026  0.2027  0.9872
 7284SOL     OW33310   4.192   1.139  15.228  0.2755 -0.2671  0.3549
 7284SOL    HW133311   4.213   1.227  15.198  0.0691 -0.0081  0.9459
 7284SOL    HW233312   4.096   1.141  15.224  0.3833  0.7617 -1.5932
 7285SOL     OW33313   2.659   1.240   3.739  0.0579  0.1543  0.2603
 7285SOL    HW133314   2.622   1.248   3.651  3.4941 -0.5170 -1.2317
 7285SOL    HW233315   2.668   1.145   3.740  0.9341  0.2487  1.9388
 7286SOL     OW33316   0.809   4.420   3.315 -0.3875 -0.1130 -0.3091
 7286SOL    HW133317   0.756   4.490   3.277 -1.2043  0.3338  1.6470
 7286SOL    HW233318   0.746   4.369   3.366  0.4439 -1.1335 -0.3274
 7287SOL     OW33319   1.972   2.247  11.121  0.0134 -0.3962 -0.4650
 7287SOL    HW133320   2.049   2.302  11.138  0.3679 -0.2378 -2.6256
 7287SOL    HW233321   1.912   2.305  11.075  0.2261  0.7949  0.7441
 7288SOL     OW33322   1.531   2.719   8.197 -0.1215  0.3377 -0.4605
 7288SOL    HW133323   1.572   2.712   8.283 -1.9050 -0.1226  0.3430
 7288SOL    HW233324   1.438   2.736   8.207 -0.5509 -1.4582 -1.3685
 7289SOL     OW33325   2.104   0.076  14.827 -0.4214  0.1049 -0.2441
 7289SOL    HW133326   2.072   4.709  14.838  2.0906 -0.8766 -0.7849
 7289SOL    HW233327   2.198   0.061  14.840 -0.8048 -1.4854  0.7802
 7290SOL     OW33328   4.108   2.339   4.769  0.2212  0.0943  0.0832
 7290SOL    HW133329   4.046   2.303   4.832  2.6646 -1.3160  1.6549
 7290SOL    HW233330   4.071   2.425   4.749  0.4851  0.3309  0.6105
 7291SOL     OW33331   3.020   4.091   4.836 -0.3136  0.0642 -0.0151
 7291SOL    HW133332   3.000   4.013   4.784 -1.0573  0.1484  0.1507
 7291SOL    HW233333   3.066   4.050   4.909  0.8015 -0.9998 -1.2955
 7292SOL     OW33334   4.519   4.321   4.382 -0.8441 -0.3807  0.7774
 7292SOL    HW133335   4.561   4.277   4.308 -0.2242  1.0014  0.2962
 7292SOL    HW233336   4.536   4.414   4.367 -1.8231 -0.3194  0.0700
 7293SOL     OW33337   0.170   0.566   4.633  0.2232  0.0798  0.2599
 7293SOL    HW133338   0.151   0.622   4.557  0.3457 -1.2470 -0.7448
 7293SOL    HW233339   0.158   0.481   4.592  3.3351  0.3809 -1.2374
 7294SOL     OW33340   2.263   0.440   2.533  0.0682  0.2360  0.1431
 7294SOL    HW133341   2.201   0.499   2.490  1.8220  1.1593 -1.1088
 7294SOL    HW233342   2.348   0.484   2.525  0.5723 -0.8281 -0.4824
 7295SOL     OW33343   2.184   2.188   2.671  0.2939  0.4583  0.4028
 7295SOL    HW133344   2.133   2.262   2.703  0.4224  0.4163  0.6971
 7295SOL    HW233345   2.265   2.232   2.646 -0.7056  1.7555 -0.6073
 7296SOL     OW33346   1.315   3.808   3.231 -0.1258  0.0265 -0.3213
 7296SOL    HW133347   1.273   3.821   3.146  0.1354 -1.6047 -0.6851
 7296SOL    HW233348   1.379   3.879   3.229  1.3396 -1.2133  2.5279
 7297SOL     OW33349   0.871   2.450   3.885 -0.2031  0.0695 -0.3295
 7297SOL    HW133350   0.910   2.390   3.948 -2.0969  0.9464  1.7040
 7297SOL    HW233351   0.904   2.528   3.929 -2.7065 -0.2133  2.0402
 7298SOL     OW33352   1.646   3.175   1.046 -0.0127  0.2589 -0.0155
 7298SOL    HW133353   1.690   3.220   1.118  3.1046 -0.2543 -1.6165
 7298SOL    HW233354   1.715   3.168   0.980 -0.3102  1.6183 -0.4691
 7299SOL     OW33355   3.622   3.860  17.145 -0.4237  0.1625 -0.0614
 7299SOL    HW133356   3.575   3.786  17.183  1.0176 -1.0468 -0.6653
 7299SOL    HW233357   3.573   3.850  17.064  0.2278 -0.5062 -0.3695
 7300SOL     OW33358   4.672   2.450   3.949  0.0267  0.0300  0.0504
 7300SOL    HW133359   4.620   2.402   4.013 -1.0183 -1.4173 -1.9070
 7300SOL    HW233360   4.654   2.540   3.978  0.4997  0.1133  0.0935
 7301SOL     OW33361   2.596   0.126   7.005 -0.1850 -0.5557 -0.4126
 7301SOL    HW133362   2.509   0.166   7.005  0.2188  0.3331 -1.7241
 7301SOL    HW233363   2.612   0.146   7.097  0.1396  1.3440 -0.8862
 7302SOL     OW33364   1.530   2.731   1.484  0.4537  0.8854  0.1534
 7302SOL    HW133365   1.509   2.687   1.566  0.7213 -0.0735 -0.2843
 7302SOL    HW233366   1.442   2.737   1.447  0.3630  1.4620  0.4649
 7303SOL     OW33367   1.152   3.259  10.000 -0.5405  0.8386 -0.4327
 7303SOL    HW133368   1.199   3.178   9.977  0.9438  2.2575 -2.3197
 7303SOL    HW233369   1.225   3.317  10.023 -1.2713  1.9819 -1.0445
 7304SOL     OW33370   4.101   3.930   6.644  0.5842  0.0725 -0.3186
 7304SOL    HW133371   4.057   3.861   6.692  1.7310 -0.0884  0.4915
 7304SOL    HW233372   4.092   4.003   6.705  1.8861  0.7123 -0.8746
 7305SOL     OW33373   3.953   4.608  12.716  0.3788  0.1825  0.0760
 7305SOL    HW133374   4.043   4.639  12.700 -0.2345  0.9153 -1.9030
 7305SOL    HW233375   3.978   4.533  12.770 -1.0470  0.3362  0.9396
 7306SOL     OW33376   2.104   0.282  13.936 -0.0611  0.2354 -0.6209
 7306SOL    HW133377   2.065   0.209  13.983 -1.2494 -0.2777 -2.4067
 7306SOL    HW233378   2.047   0.304  13.863  0.2410  0.1761 -0.8767
 7307SOL     OW33379   0.971   3.154   6.600  0.2853  0.9564 -0.2571
 7307SOL    HW133380   1.057   3.114   6.591 -0.2335 -0.3652  0.6470
 7307SOL    HW233381   0.925   3.102   6.534 -1.8823  1.3149  0.9462
 7308SOL     OW33382   4.547   2.253   8.865 -1.0671 -0.1562  0.4232
 7308SOL    HW133383   4.536   2.346   8.888  1.5349  0.3767 -0.5033
 7308SOL    HW233384   4.504   2.257   8.779  0.6761  2.5107 -0.3375
 7309SOL     OW33385   1.079   3.292   7.910 -0.3600 -0.1712  0.4886
 7309SOL    HW133386   1.135   3.252   7.977 -0.2275  0.2665  0.6353
 7309SOL    HW233387   1.153   3.335   7.867 -0.5173 -0.8107 -0.4350
 7310SOL     OW33388   1.041   1.840   3.713  0.4167 -0.2478 -0.3152
 7310SOL    HW133389   1.026   1.906   3.645  3.4715 -0.7208 -1.4584
 7310SOL    HW233390   1.082   1.764   3.672 -0.9231 -0.2759 -1.6041
 7311SOL     OW33391   3.279   2.751   0.255 -0.3771  0.0844 -0.1264
 7311SOL    HW133392   3.224   2.679   0.285  0.6376 -0.6259 -0.0059
 7311SOL    HW233393   3.231   2.781   0.177  0.1797  1.5851  0.0953
 7312SOL     OW33394   0.480   1.878  13.204 -0.2241  0.4801 -0.2729
 7312SOL    HW133395   0.438   1.793  13.211 -0.3203  0.6776  1.4071
 7312SOL    HW233396   0.569   1.846  13.220 -0.1641  1.0364  0.5168
 7313SOL     OW33397   2.791   1.695   4.365  0.0779  0.0319 -0.4642
 7313SOL    HW133398   2.781   1.689   4.270  1.6000  0.4141 -0.6454
 7313SOL    HW233399   2.874   1.743   4.365 -0.5887  1.1730 -2.1106
 7314SOL     OW33400   2.015   4.668   5.508  0.4077 -0.3352  0.1608
 7314SOL    HW133401   2.055   4.582   5.493  1.0851 -0.2940  1.7478
 7314SOL    HW233402   1.990   4.692   5.418 -1.1254 -0.6098  0.5121
 7315SOL     OW33403   2.200   3.138  10.457  0.0483  0.0237  0.4265
 7315SOL    HW133404   2.125   3.197  10.470  1.1912  1.8861 -1.3913
 7315SOL    HW233405   2.260   3.200  10.414 -0.1906 -0.5695 -0.7623
 7316SOL     OW33406   1.937   3.392   5.387 -0.3828 -0.3826  0.1988
 7316SOL    HW133407   1.928   3.362   5.477 -0.7527  0.9146  0.5802
 7316SOL    HW233408   1.856   3.360   5.346 -0.3682 -0.5167  0.2729
 7317SOL     OW33409   1.369   2.689   6.003  0.2454 -0.4788  0.0689
 7317SOL    HW133410   1.350   2.766   5.951 -0.7231 -2.0821 -1.9578
 7317SOL    HW233411   1.430   2.639   5.949  1.1121 -0.4445  1.0020
 7318SOL     OW33412   0.598   4.080   6.669 -0.4920 -0.0918  0.1286
 7318SOL    HW133413   0.613   4.172   6.692  2.0333 -0.8063  1.4029
 7318SOL    HW233414   0.549   4.055   6.747  1.8972 -2.7684  0.7777
 7319SOL     OW33415   2.787   4.235   5.550 -0.5495  0.0645  0.4899
 7319SOL    HW133416   2.791   4.291   5.627  2.8541  0.9529 -0.3499
 7319SOL    HW233417   2.715   4.277   5.502  1.4096  1.3879 -1.2590
 7320SOL     OW33418   2.064   4.361   8.239 -0.1992 -0.0812 -0.2801
 7320SOL    HW133419   2.011   4.441   8.234  0.3465  0.3216  0.5337
 7320SOL    HW233420   2.128   4.385   8.172  0.7198 -1.5249  0.1050
 7321SOL     OW33421   2.664   0.361   3.252 -0.6971  0.1374  0.1038
 7321SOL    HW133422   2.692   0.424   3.318 -2.6577  0.4026  0.6954
 7321SOL    HW233423   2.619   0.297   3.307 -1.0554  0.2976  0.0009
 7322SOL     OW33424   2.047   4.000   8.113 -0.0309  0.4950  0.5560
 7322SOL    HW133425   1.964   4.044   8.096 -0.2760 -0.0499  0.3326
 7322SOL    HW233426   2.085   4.056   8.181  0.8506 -1.3076  1.5801
 7323SOL     OW33427   4.157   0.561   1.899 -0.4371 -0.6425  0.6460
 7323SOL    HW133428   4.198   0.627   1.843 -1.7239  1.0000  1.6127
 7323SOL    HW233429   4.179   0.474   1.866 -0.5557  0.0015 -1.1861
 7324SOL     OW33430   0.162   2.955   9.048  0.0266  0.7681 -0.5259
 7324SOL    HW133431   0.114   2.948   9.130  0.8609 -3.5907 -0.4178
 7324SOL    HW233432   0.168   3.050   9.043 -1.2750  0.7367 -2.7912
 7325SOL     OW33433   1.442   0.780   4.646  0.0847 -0.2790 -0.1849
 7325SOL    HW133434   1.489   0.774   4.562 -0.8475 -3.5075 -0.4770
 7325SOL    HW233435   1.356   0.744   4.627  0.0935  0.1552 -1.0654
 7326SOL     OW33436   3.361   1.056  10.802 -0.2576  0.6686  0.4017
 7326SOL    HW133437   3.300   0.987  10.775 -0.0616  0.0387  1.5640
 7326SOL    HW233438   3.367   1.045  10.897 -0.9502  1.7439  0.5776
 7327SOL     OW33439   0.253   4.294   9.308 -0.0705  0.2703 -0.4788
 7327SOL    HW133440   0.222   4.287   9.399  1.3268 -1.0444 -0.1213
 7327SOL    HW233441   0.232   4.386   9.290  2.0208  0.8152 -0.1533
 7328SOL     OW33442   0.322   1.015   4.488 -0.2721  0.1391  0.0067
 7328SOL    HW133443   0.406   0.981   4.517 -1.0002 -1.2458  0.4637
 7328SOL    HW233444   0.323   1.095   4.541  1.0067 -0.3369  0.6828
 7329SOL     OW33445   4.178   1.416   6.679  0.5763  0.3131 -0.0943
 7329SOL    HW133446   4.166   1.497   6.728  2.1642  0.4974  0.0027
 7329SOL    HW233447   4.176   1.358   6.754 -0.7296  1.5501  0.8268
 7330SOL     OW33448   0.192   0.665  10.865  0.4977 -0.3002 -0.0010
 7330SOL    HW133449   0.170   0.758  10.857  0.3157 -0.3588 -0.1790
 7330SOL    HW233450   0.143   0.647  10.945  0.1274  1.2894  0.1287
 7331SOL     OW33451   1.126   4.244  12.372 -0.2410  0.4177  0.1609
 7331SOL    HW133452   1.206   4.243  12.425 -0.4877  2.3832  0.5452
 7331SOL    HW233453   1.060   4.274  12.433 -1.4371 -0.9929 -0.4463
 7332SOL     OW33454   3.074   1.698  10.188 -0.2067  0.4973 -0.3705
 7332SOL    HW133455   3.155   1.682  10.238 -1.2325 -0.6237  0.9400
 7332SOL    HW233456   3.089   1.659  10.102 -1.7355 -0.6356 -0.1185
 7333SOL     OW33457   2.041   3.031  12.962 -0.4703  0.0346  0.1955
 7333SOL    HW133458   2.027   3.102  13.025 -0.0925 -1.1483  1.6232
 7333SOL    HW233459   2.121   3.069  12.926  1.6320 -3.9154  0.6775
 7334SOL     OW33460   2.523   3.981   2.760  0.0329 -0.3315 -0.1262
 7334SOL    HW133461   2.514   3.918   2.831  1.9078 -0.7154 -0.2336
 7334SOL    HW233462   2.516   4.060   2.815  0.1515 -0.9359  0.7610
 7335SOL     OW33463   2.935   2.487   8.179  0.6962 -0.1209  0.5678
 7335SOL    HW133464   2.956   2.394   8.176 -0.6691 -0.3538 -1.6136
 7335SOL    HW233465   3.000   2.525   8.120 -0.7329 -0.4095 -1.2064
 7336SOL     OW33466   1.976   2.307  17.666  0.1673 -0.1853  0.2198
 7336SOL    HW133467   2.006   2.260   0.050  1.6758 -0.1489 -0.3330
 7336SOL    HW233468   1.955   2.395   0.002  1.4410  1.5195 -3.8274
 7337SOL     OW33469   0.465   1.317   6.557  0.6942  0.1370 -0.0753
 7337SOL    HW133470   0.382   1.328   6.511  0.6481  0.2833  0.0459
 7337SOL    HW233471   0.435   1.241   6.607  1.1393 -0.0794 -0.1315
 7338SOL     OW33472   4.080   1.577   4.215 -0.0352 -0.2332 -0.0851
 7338SOL    HW133473   4.057   1.520   4.142  1.9791 -0.3156 -0.6776
 7338SOL    HW233474   3.997   1.623   4.202  0.3932  0.5825  0.0426
 7339SOL     OW33475   0.428   1.254   4.165  0.4403 -0.3108 -0.1338
 7339SOL    HW133476   0.368   1.185   4.194  1.2266 -1.1229 -0.4419
 7339SOL    HW233477   0.420   1.307   4.244  1.4591 -0.6827  0.2229
 7340SOL     OW33478   4.249   1.924   5.720 -0.4666  0.1195  0.7014
 7340SOL    HW133479   4.215   1.963   5.640  0.0075 -1.3315 -0.2047
 7340SOL    HW233480   4.239   1.993   5.785  1.4018  2.2050 -1.2398
 7341SOL     OW33481   4.547   0.979   4.838 -0.2545 -0.3336  0.3573
 7341SOL    HW133482   4.523   0.889   4.862  1.9053 -1.1420 -0.4633
 7341SOL    HW233483   4.624   0.962   4.784  1.0852  0.8778  1.8940
 7342SOL     OW33484   2.708   3.156   6.785  0.2227  0.4397 -0.1997
 7342SOL    HW133485   2.753   3.084   6.829  0.2821  0.2435 -0.5878
 7342SOL    HW233486   2.788   3.205   6.766  0.0647  1.0637  0.7440
 7343SOL     OW33487   4.451   4.124  16.762  0.3973 -0.0778 -0.0754
 7343SOL    HW133488   4.415   4.111  16.674  1.7671  0.7714 -0.7743
 7343SOL    HW233489   4.364   4.127  16.801  0.7761 -0.1879  0.7647
 7344SOL     OW33490   0.904   2.359  16.325  0.3840  0.2981 -0.5664
 7344SOL    HW133491   0.927   2.395  16.411  0.4859  0.6971 -0.7562
 7344SOL    HW233492   0.861   2.436  16.286  0.5531  1.0558  0.7297
 7345SOL     OW33493   0.038   3.797   9.032  0.3107  0.3402  0.1325
 7345SOL    HW133494   0.072   3.787   8.943  1.5399  2.0642  0.4110
 7345SOL    HW233495   4.669   3.818   9.016  0.3251  0.5415  0.3100
 7346SOL     OW33496   0.775   0.909   5.375 -0.8161 -0.2258  0.5674
 7346SOL    HW133497   0.701   0.899   5.315 -0.8081  0.2239  0.4847
 7346SOL    HW233498   0.814   0.823   5.392 -0.7613 -0.2105  0.5228
 7347SOL     OW33499   0.873   1.222   5.748 -0.6471  0.5359 -0.0322
 7347SOL    HW133500   0.876   1.317   5.755  2.3692  0.3212  1.7485
 7347SOL    HW233501   0.806   1.210   5.682 -2.4082 -0.6564  1.9560
 7348SOL     OW33502   2.108   0.146  10.800 -0.2687 -0.2451 -0.0593
 7348SOL    HW133503   2.112   0.112  10.889 -0.8686 -1.1272 -0.3661
 7348SOL    HW233504   2.177   0.092  10.761 -1.3360 -1.5985 -0.0558
 7349SOL     OW33505   3.225   1.748  11.740  0.5862 -0.7702  0.2794
 7349SOL    HW133506   3.130   1.763  11.732  0.4836 -0.9540  1.2034
 7349SOL    HW233507   3.239   1.752  11.834 -1.7902  1.1418  0.5691
 7350SOL     OW33508   0.116   3.864  12.191  0.1671  0.3339  0.3298
 7350SOL    HW133509   0.145   3.838  12.278  1.0111 -0.9015 -0.3258
 7350SOL    HW233510   0.165   3.945  12.179  1.3808 -0.4645 -0.0376
 7351SOL     OW33511   3.704   4.333   2.193  0.0766 -0.4914 -0.4874
 7351SOL    HW133512   3.657   4.336   2.110 -1.2287  0.0360  0.2794
 7351SOL    HW233513   3.779   4.393   2.185 -0.7709  0.2508 -2.8880
 7352SOL     OW33514   1.563   3.847   4.150 -0.2352  0.6113 -0.1005
 7352SOL    HW133515   1.511   3.885   4.221 -1.6330 -1.0008 -0.2757
 7352SOL    HW233516   1.606   3.783   4.206  0.5127  0.0225 -1.3375
 7353SOL     OW33517   3.860   0.752   8.261 -0.2032 -0.3902 -0.1001
 7353SOL    HW133518   3.948   0.715   8.266  0.0355  0.6221  3.2014
 7353SOL    HW233519   3.799   0.678   8.249 -0.7094 -0.3707  2.3711
 7354SOL     OW33520   3.020   1.526   4.053 -0.2664 -0.5220 -0.2828
 7354SOL    HW133521   3.027   1.440   4.094  1.9324  0.0285  0.5253
 7354SOL    HW233522   3.112   1.551   4.043  0.3928 -2.7757  0.1566
 7355SOL     OW33523   3.150   2.880   9.247  0.1847  0.5079 -0.0372
 7355SOL    HW133524   3.136   2.786   9.262  1.5194  0.3980  0.5568
 7355SOL    HW233525   3.209   2.880   9.171 -1.7525  0.2734 -1.5425
 7356SOL     OW33526   0.687   0.208   3.471 -0.0214 -0.0086 -0.4493
 7356SOL    HW133527   0.598   0.242   3.484  0.1687  0.9514 -1.6693
 7356SOL    HW233528   0.716   0.273   3.407 -0.4862 -0.0605 -0.7049
 7357SOL     OW33529   1.657   4.554   9.770 -0.0429 -0.0883 -0.7337
 7357SOL    HW133530   1.628   4.628   9.824  1.9967  0.0472  0.1693
 7357SOL    HW233531   1.599   4.555   9.694 -0.3625  1.4285 -0.4744
 7358SOL     OW33532   4.432   3.149   4.675 -0.5977 -0.0155 -0.2070
 7358SOL    HW133533   4.364   3.107   4.727 -0.4096 -0.9845 -0.7437
 7358SOL    HW233534   4.499   3.083   4.656 -0.2664  0.3596 -0.3287
 7359SOL     OW33535   3.596   1.415   8.694  0.0662 -0.2295 -0.1564
 7359SOL    HW133536   3.654   1.350   8.655 -1.0610 -0.9102 -0.6666
 7359SOL    HW233537   3.536   1.365   8.748 -0.9654 -0.1725 -1.2507
 7360SOL     OW33538   0.758   2.688   8.633 -0.2312  0.0622  0.2891
 7360SOL    HW133539   0.784   2.599   8.609  0.0410  0.1793  0.1438
 7360SOL    HW233540   0.696   2.669   8.703  0.0664 -0.9505  0.2883
 7361SOL     OW33541   2.082   1.153   1.518 -0.6320 -0.6745  0.0845
 7361SOL    HW133542   2.026   1.092   1.471  0.1964 -0.4757 -1.1507
 7361SOL    HW233543   2.020   1.178   1.586 -0.0963  1.1648 -0.1176
 7362SOL     OW33544   3.003   4.699   8.903 -0.5807 -0.3431 -0.2376
 7362SOL    HW133545   3.026   0.031   8.978 -0.6039  0.2616 -0.6824
 7362SOL    HW233546   2.921   4.672   8.944  0.4533 -2.2067  0.6438
 7363SOL     OW33547   1.388   1.170   4.184  0.2065  0.1765  0.4364
 7363SOL    HW133548   1.451   1.191   4.116 -2.7996  2.6653 -1.5604
 7363SOL    HW233549   1.311   1.133   4.141  1.1089 -2.5085  1.1046
 7364SOL     OW33550   1.466   1.773   1.745 -0.1165 -0.2852  0.0988
 7364SOL    HW133551   1.408   1.713   1.699  0.8097 -2.2465  1.4999
 7364SOL    HW233552   1.555   1.739   1.733 -0.2622 -0.3955 -0.6572
 7365SOL     OW33553   3.457   4.420   5.434 -0.1594 -0.1152 -0.2387
 7365SOL    HW133554   3.462   4.398   5.341 -0.7660  0.0613 -0.3136
 7365SOL    HW233555   3.384   4.366   5.467  0.5897 -1.5857 -0.9733
 7366SOL     OW33556   0.409   0.804  13.440  0.1394  0.0971  0.3531
 7366SOL    HW133557   0.361   0.826  13.360  0.2028  0.2263  0.3501
 7366SOL    HW233558   0.487   0.760  13.407  0.5842  0.8712  0.3633
 7367SOL     OW33559   4.399   2.438   6.205 -0.1522 -0.1664 -0.2123
 7367SOL    HW133560   4.311   2.471   6.186  0.3683  0.2975 -1.8342
 7367SOL    HW233561   4.431   2.431   6.115  0.6840 -0.6713  0.1232
 7368SOL     OW33562   4.587   0.963   5.109  0.0547 -0.2437 -0.4411
 7368SOL    HW133563   4.525   1.025   5.148  0.5901 -0.7084  1.1299
 7368SOL    HW233564   4.565   0.990   5.020 -1.6966 -0.3905 -0.0456
 7369SOL     OW33565   0.395   0.230  17.404 -0.1948 -0.5625 -0.4382
 7369SOL    HW133566   0.408   0.308  17.458 -0.5723  0.0954 -1.3063
 7369SOL    HW233567   0.438   0.159  17.451 -1.6544 -0.8544  0.4683
 7370SOL     OW33568   3.471   4.246   5.985  0.0496  0.6808  0.6781
 7370SOL    HW133569   3.466   4.281   5.896 -1.0376  2.4955  1.4433
 7370SOL    HW233570   3.413   4.306   6.033 -2.0445  0.8869 -2.1091
 7371SOL     OW33571   4.008   0.342  13.870 -0.0962 -0.3539  0.1894
 7371SOL    HW133572   3.953   0.309  13.942  0.2865  2.1837  1.6338
 7371SOL    HW233573   3.972   0.430  13.885 -2.1354 -1.1345 -0.1540
 7372SOL     OW33574   3.737   1.132   7.507 -0.3445  0.3839  0.5232
 7372SOL    HW133575   3.776   1.208   7.550  0.7207  0.9546 -1.4225
 7372SOL    HW233576   3.684   1.093   7.576  0.9017  0.3589  1.4453
 7373SOL     OW33577   0.486   1.301   4.982  0.2410  0.3933  0.2513
 7373SOL    HW133578   0.495   1.311   4.887 -1.4004  0.8347  0.1555
 7373SOL    HW233579   0.580   1.299   5.002  0.5407  3.2361 -0.8173
 7374SOL     OW33580   3.681   3.127   3.606 -0.6366  0.0086 -0.4187
 7374SOL    HW133581   3.743   3.084   3.546  0.1391  3.6969 -2.2337
 7374SOL    HW233582   3.600   3.084   3.578 -0.1111 -0.0185 -1.8827
 7375SOL     OW33583   2.380   4.425   0.989  0.0657 -0.2450  0.2011
 7375SOL    HW133584   2.363   4.519   0.987 -4.0337 -1.0650 -3.8258
 7375SOL    HW233585   2.392   4.419   0.894 -1.3738 -1.0477  0.0806
 7376SOL     OW33586   2.052   3.271   2.830 -0.1096 -0.8123  0.3028
 7376SOL    HW133587   2.124   3.217   2.795 -0.5282 -0.3589 -1.2886
 7376SOL    HW233588   1.990   3.215   2.876 -1.4553 -0.1965 -0.7420
 7377SOL     OW33589   4.070   3.921  17.513 -0.0242  0.0201  0.5501
 7377SOL    HW133590   3.986   3.883  17.538  0.2636 -0.1477  1.2555
 7377SOL    HW233591   4.104   3.948  17.597 -1.0906  0.3870  0.8659
 7378SOL     OW33592   0.706   0.510   8.739 -0.0878  0.3227 -0.2484
 7378SOL    HW133593   0.768   0.555   8.797  1.2416 -0.4617 -1.0535
 7378SOL    HW233594   0.627   0.528   8.790  0.1247  0.7290 -0.0646
 7379SOL     OW33595   4.272   1.050   8.346 -0.0106  0.8911  0.3436
 7379SOL    HW133596   4.277   0.975   8.405  2.4893  0.4275 -0.4776
 7379SOL    HW233597   4.225   1.113   8.400  0.4152 -0.3821  2.1815
 7380SOL     OW33598   4.385   2.610   7.268  0.2576  0.1730 -0.1108
 7380SOL    HW133599   4.469   2.569   7.249  1.1088  1.8975 -0.0574
 7380SOL    HW233600   4.402   2.699   7.300 -0.7604  1.0568 -2.0561
 7381SOL     OW33601   4.639   0.800   8.450 -0.1614  0.0062  0.5617
 7381SOL    HW133602   4.598   0.735   8.507  0.9370 -0.2427  1.0740
 7381SOL    HW233603   4.625   0.880   8.502  0.2674 -0.6118  1.6301
 7382SOL     OW33604   3.656   3.594   2.867  0.1774  0.2781 -0.5439
 7382SOL    HW133605   3.739   3.545   2.866 -1.5042 -2.5809  0.9129
 7382SOL    HW233606   3.597   3.552   2.929  0.8974  0.1143  0.0355
 7383SOL     OW33607   3.916   0.674  10.570  0.0946 -0.1819  0.6242
 7383SOL    HW133608   3.939   0.596  10.622  2.4214 -0.3917 -0.7108
 7383SOL    HW233609   3.925   0.635  10.483  3.4670 -2.6434  2.0745
 7384SOL     OW33610   1.245   4.033   5.810 -0.6466 -0.5726 -0.4514
 7384SOL    HW133611   1.152   4.012   5.797 -0.8430  0.2594 -0.3805
 7384SOL    HW233612   1.266   4.098   5.743 -1.7632 -1.5373 -1.7418
 7385SOL     OW33613   2.980   3.527   2.415  0.3210  0.4722  0.5003
 7385SOL    HW133614   3.068   3.492   2.404  0.3811  0.8936 -0.3661
 7385SOL    HW233615   2.965   3.508   2.508  0.2642 -2.2790 -0.0740
 7386SOL     OW33616   1.423   0.151   8.872 -0.3085 -0.5120  0.0595
 7386SOL    HW133617   1.467   0.070   8.845 -0.0231  0.3467 -2.0747
 7386SOL    HW233618   1.352   0.156   8.808  1.7155 -0.5899 -2.2266
 7387SOL     OW33619   2.315   2.357   7.426  0.2893  0.4078  0.5130
 7387SOL    HW133620   2.231   2.394   7.451 -0.7548 -1.0685 -0.8753
 7387SOL    HW233621   2.315   2.369   7.331 -0.1221 -0.8235  0.3605
 7388SOL     OW33622   1.099   1.284   3.258  0.4902 -0.2696 -0.0452
 7388SOL    HW133623   1.084   1.190   3.250  0.9158 -0.1853 -2.0026
 7388SOL    HW233624   1.014   1.316   3.226 -0.9948 -1.5355  2.6568
 7389SOL     OW33625   4.376   3.893   6.945  0.6376 -0.4240 -0.2476
 7389SOL    HW133626   4.445   3.868   7.007 -0.4075 -1.0154  0.6606
 7389SOL    HW233627   4.300   3.920   6.995  2.4966  4.1161  0.1391
 7390SOL     OW33628   0.793   0.812   2.881  0.2506 -0.4218  0.2766
 7390SOL    HW133629   0.873   0.847   2.843 -0.3254  1.4831  0.8158
 7390SOL    HW233630   0.741   0.808   2.801  0.3824 -1.5794  0.2490
 7391SOL     OW33631   0.296   2.811   1.218 -0.4670  0.4504 -0.0860
 7391SOL    HW133632   0.207   2.794   1.185 -0.4260  3.0727 -1.5058
 7391SOL    HW233633   0.273   2.826   1.310 -3.0113  0.5594 -0.7308
 7392SOL     OW33634   2.388   4.111   9.662 -0.3831  0.0341  0.6083
 7392SOL    HW133635   2.474   4.152   9.648 -0.9550  1.0617  0.1174
 7392SOL    HW233636   2.404   4.024   9.623  1.6365  1.2844 -1.3888
 7393SOL     OW33637   2.977   2.281   3.658  0.3228 -0.0717 -0.4217
 7393SOL    HW133638   2.892   2.318   3.684  0.5323 -1.8906  2.9001
 7393SOL    HW233639   3.035   2.317   3.725  0.3856  0.4632 -0.7624
 7394SOL     OW33640   3.921   3.912   8.629 -0.2755  1.0503  0.0186
 7394SOL    HW133641   3.872   3.982   8.585 -0.4278  0.5608 -0.5875
 7394SOL    HW233642   3.990   3.902   8.563 -0.0984 -2.2625  0.7427
 7395SOL     OW33643   3.062   3.669   0.534  0.1482 -0.4726 -0.7674
 7395SOL    HW133644   3.122   3.650   0.607 -2.3752 -0.2342  1.3567
 7395SOL    HW233645   3.105   3.618   0.466  1.9079  0.3767 -0.3151
 7396SOL     OW33646   1.480   1.519   6.133  0.1267 -0.1370 -0.0467
 7396SOL    HW133647   1.438   1.574   6.199  3.6047  2.7384 -0.2462
 7396SOL    HW233648   1.412   1.452   6.126 -0.6752  0.9909 -2.7915
 7397SOL     OW33649   0.148   0.854   0.868  0.3720 -0.1523  0.1373
 7397SOL    HW133650   0.116   0.942   0.892 -1.0594 -0.0966 -1.9756
 7397SOL    HW233651   0.151   0.813   0.955  1.4825  1.0367  0.6638
 7398SOL     OW33652   4.713   2.064   8.209 -0.5971  0.6412  0.2252
 7398SOL    HW133653   0.013   2.028   8.123 -1.1102  0.2324  0.2536
 7398SOL    HW233654   4.719   2.158   8.194  0.5850  0.5958  0.4593
 7399SOL     OW33655   1.603   2.454   4.570 -0.1574 -0.6233  0.5529
 7399SOL    HW133656   1.692   2.486   4.550 -0.2087 -1.9031 -1.7433
 7399SOL    HW233657   1.631   2.429   4.658 -1.1467 -1.5055  0.6178
 7400SOL     OW33658   3.516   0.480   7.961  0.3711 -0.3994  0.3168
 7400SOL    HW133659   3.604   0.482   7.999  0.7345  0.8358 -0.5690
 7400SOL    HW233660   3.520   0.543   7.889  1.5239  0.5219  1.1766
 7401SOL     OW33661   2.717   1.102   7.926  0.7816  0.5925  0.3808
 7401SOL    HW133662   2.629   1.128   7.897  0.0881 -0.7891  1.2397
 7401SOL    HW233663   2.769   1.177   7.951  1.4877  0.1065  0.3721
 7402SOL     OW33664   4.410   3.510   1.935  0.1078  0.0526  0.7542
 7402SOL    HW133665   4.418   3.602   1.909  4.5284 -0.1271  1.5344
 7402SOL    HW233666   4.499   3.476   1.923 -0.0621 -0.2890  0.4617
 7403SOL     OW33667   2.026   2.526   6.246 -0.5556 -0.2231 -0.4940
 7403SOL    HW133668   1.992   2.578   6.319  1.0237 -0.4890  0.4333
 7403SOL    HW233669   1.980   2.443   6.261  0.4706 -0.5236  0.9510
 7404SOL     OW33670   1.127   0.705   5.530 -0.1307 -0.1677  0.0457
 7404SOL    HW133671   1.120   0.620   5.573  3.1682 -0.1329  0.6323
 7404SOL    HW233672   1.032   0.715   5.526 -0.3145 -2.4451 -1.1406
 7405SOL     OW33673   4.348   1.896   5.271  0.3547 -0.8272 -0.2247
 7405SOL    HW133674   4.258   1.897   5.305  0.1147 -0.2731 -0.8763
 7405SOL    HW233675   4.391   1.859   5.348  2.5427  0.7244 -0.6989
 7406SOL     OW33676   0.529   1.602  10.346  0.0702 -0.0343 -0.1181
 7406SOL    HW133677   0.601   1.648  10.389  0.4624  0.6312 -1.4685
 7406SOL    HW233678   0.562   1.512  10.354  2.5371  0.8212 -0.7017
 7407SOL     OW33679   3.469   2.814   1.082  0.4319  0.2139  0.2298
 7407SOL    HW133680   3.545   2.871   1.068  0.0540  0.2654 -1.6071
 7407SOL    HW233681   3.515   2.737   1.114 -1.6827 -0.5363  1.4449
 7408SOL     OW33682   3.342   4.549  12.610 -0.2270 -0.1901 -0.4478
 7408SOL    HW133683   3.247   4.533  12.614 -0.3222  0.6973  0.7897
 7408SOL    HW233684   3.355   4.637  12.645 -0.4092 -0.3859  0.1136
 7409SOL     OW33685   0.609   2.492   5.760 -0.0989  0.5793  0.0679
 7409SOL    HW133686   0.631   2.506   5.668  1.4652 -1.3901  0.1320
 7409SOL    HW233687   0.592   2.398   5.761 -0.7221  0.7248  1.7577
 7410SOL     OW33688   1.860   4.208   8.099  0.2138  0.1456 -0.3418
 7410SOL    HW133689   1.922   4.277   8.121  0.9566 -0.9074  0.8661
 7410SOL    HW233690   1.793   4.249   8.043 -1.7249 -1.2774  0.9585
 7411SOL     OW33691   0.466   0.360   2.410 -0.1615 -0.2485 -0.3154
 7411SOL    HW133692   0.507   0.296   2.352  1.1625 -0.0314  0.3640
 7411SOL    HW233693   0.456   0.302   2.486 -2.6622  1.2577  0.5014
 7412SOL     OW33694   1.485   1.590   2.805 -0.4775 -0.1306 -0.2991
 7412SOL    HW133695   1.520   1.638   2.730 -1.5196  1.5784  0.2994
 7412SOL    HW233696   1.393   1.598   2.780 -0.7280 -2.6531 -0.1694
 7413SOL     OW33697   2.857   1.927   4.038 -0.0996  0.2223  0.7916
 7413SOL    HW133698   2.863   1.927   3.942  1.4001  1.6179  0.9002
 7413SOL    HW233699   2.857   1.835   4.063 -1.7886 -0.0825 -0.3140
 7414SOL     OW33700   1.147   1.383  16.324 -0.7202 -0.0693  0.4058
 7414SOL    HW133701   1.161   1.456  16.264  1.2822  0.4664  1.5271
 7414SOL    HW233702   1.228   1.332  16.315 -1.7658 -1.4277 -1.4483
 7415SOL     OW33703   0.635   1.485  12.994  0.0714 -0.0589 -0.4096
 7415SOL    HW133704   0.547   1.465  12.962  0.1227 -0.0600 -0.5529
 7415SOL    HW233705   0.616   1.475  13.087  1.3236 -2.9096 -0.4687
 7416SOL     OW33706   2.589   4.217   2.927  0.0761  0.0444  0.7230
 7416SOL    HW133707   2.571   4.211   3.021  0.6091 -2.3172  0.6630
 7416SOL    HW233708   2.599   4.311   2.912  0.1848  0.0386  0.7536
 7417SOL     OW33709   3.860   3.412  16.438 -0.6362  0.0020  0.3495
 7417SOL    HW133710   3.938   3.440  16.390 -0.5592  2.4971  1.9334
 7417SOL    HW233711   3.897   3.330  16.472  2.2327  1.3880  0.6188
 7418SOL     OW33712   3.752   0.796   4.856 -0.2580  0.1725  0.5820
 7418SOL    HW133713   3.679   0.735   4.858 -0.7850  0.7235 -1.5613
 7418SOL    HW233714   3.804   0.753   4.788  1.3906  1.7320  0.8452
 7419SOL     OW33715   0.466   3.408   5.451  0.3586 -0.3000  0.2259
 7419SOL    HW133716   0.476   3.379   5.541  4.0427 -0.5143 -0.2531
 7419SOL    HW233717   0.511   3.336   5.407  0.5346  0.2826 -0.5455
 7420SOL     OW33718   1.883   4.639   0.142 -0.9050 -0.3430  0.0326
 7420SOL    HW133719   1.867   4.657   0.049 -1.7924  0.3233  0.3253
 7420SOL    HW233720   1.979   4.637   0.147 -0.9002  0.9336  0.3134
 7421SOL     OW33721   0.095   4.513   4.458  0.3255  0.2179  0.0854
 7421SOL    HW133722   0.185   4.484   4.473 -0.0412 -0.2740  1.3120
 7421SOL    HW233723   0.059   4.494   4.544  0.7592  0.0207  0.2238
 7422SOL     OW33724   3.959   1.993  15.843 -0.3181 -0.1285  1.0421
 7422SOL    HW133725   4.028   1.932  15.869 -0.2798 -0.0582  1.1039
 7422SOL    HW233726   3.971   2.063  15.906  2.3871  0.8484 -0.5695
 7423SOL     OW33727   3.825   1.704   2.607  0.5243  0.3638  0.4756
 7423SOL    HW133728   3.868   1.789   2.607  0.5474  0.3532  0.3148
 7423SOL    HW233729   3.740   1.736   2.579 -0.3764 -0.5385  2.1742
 7424SOL     OW33730   2.641   2.377   2.189 -0.2187 -0.5019  0.0569
 7424SOL    HW133731   2.623   2.470   2.178 -0.6067 -0.7315 -1.2340
 7424SOL    HW233732   2.737   2.368   2.194 -0.4614 -2.4554  1.2646
 7425SOL     OW33733   2.938   3.584  15.667 -0.8025 -0.9339 -0.2987
 7425SOL    HW133734   2.955   3.678  15.655 -0.7151 -0.6990  1.8053
 7425SOL    HW233735   2.853   3.584  15.622 -0.5469 -1.0140 -0.7796
 7426SOL     OW33736   3.533   3.168   5.986 -0.4600  0.0981 -0.0001
 7426SOL    HW133737   3.592   3.242   5.970 -1.0140  0.4408 -0.4966
 7426SOL    HW233738   3.570   3.146   6.071  1.8612  1.1875 -0.7417
 7427SOL     OW33739   0.846   1.795   6.803  0.7792  0.3396  0.0414
 7427SOL    HW133740   0.821   1.831   6.888 -0.6138 -1.1605  0.2712
 7427SOL    HW233741   0.781   1.725   6.793 -0.4023  1.3312  0.8996
 7428SOL     OW33742   3.451   4.359  10.646 -0.2754 -0.0310 -0.8346
 7428SOL    HW133743   3.503   4.438  10.665 -0.8322  0.1586 -0.1015
 7428SOL    HW233744   3.528   4.303  10.651  0.5819  1.3922  2.2205
 7429SOL     OW33745   2.066   2.467   3.417 -1.4269 -0.4339 -0.4829
 7429SOL    HW133746   2.091   2.375   3.410  0.5638 -0.0040  1.0485
 7429SOL    HW233747   1.976   2.462   3.451 -0.2701 -3.9734  2.1022
 7430SOL     OW33748   3.082   3.727   7.990 -0.0284  0.6492 -0.1283
 7430SOL    HW133749   3.088   3.694   7.901  1.8801 -0.5390  0.4312
 7430SOL    HW233750   3.131   3.665   8.045  0.6165  0.0347 -1.4009
 7431SOL     OW33751   0.005   1.943   8.713 -0.0087 -0.3954  0.4225
 7431SOL    HW133752   4.662   1.970   8.776  0.4009 -0.0073  0.6909
 7431SOL    HW233753   0.089   1.957   8.758 -0.2669 -0.6813  0.9771
 7432SOL     OW33754   1.381   4.427  10.631 -0.4836 -0.7797  0.0872
 7432SOL    HW133755   1.342   4.368  10.695 -0.0582 -2.2026 -0.9659
 7432SOL    HW233756   1.309   4.488  10.612 -1.8659 -2.8012 -1.1260
 7433SOL     OW33757   3.135   0.980   7.740  0.0127  0.0757 -0.0692
 7433SOL    HW133758   3.211   0.951   7.688 -0.2206 -0.5713 -0.0550
 7433SOL    HW233759   3.157   0.931   7.820 -1.0403 -1.1204 -0.5075
 7434SOL     OW33760   2.010   1.167  13.310  0.5959 -0.4660 -0.1015
 7434SOL    HW133761   2.074   1.234  13.334 -1.1903  1.0212  0.4848
 7434SOL    HW233762   2.065   1.112  13.254 -1.9916 -2.0220 -1.0920
 7435SOL     OW33763   1.787   0.529   5.424 -0.0562  0.3770  0.2718
 7435SOL    HW133764   1.801   0.443   5.464  1.3620  0.3002 -0.3832
 7435SOL    HW233765   1.805   0.582   5.502  1.0251 -0.4630  0.6015
 7436SOL     OW33766   3.290   0.652   6.886  0.4318  0.1545  0.5059
 7436SOL    HW133767   3.201   0.631   6.858  1.0688 -1.6958 -0.1222
 7436SOL    HW233768   3.274   0.702   6.965 -3.3880  2.9888 -2.0330
 7437SOL     OW33769   1.576   2.827  13.747  0.0000 -0.1135  0.1224
 7437SOL    HW133770   1.526   2.865  13.819 -0.0052  2.2640 -1.1210
 7437SOL    HW233771   1.580   2.900  13.686 -1.7061 -3.0535 -3.5503
 7438SOL     OW33772   0.593   4.173   9.093 -0.1050 -0.1242  0.0595
 7438SOL    HW133773   0.543   4.153   9.015  1.2668  2.2920 -1.4336
 7438SOL    HW233774   0.677   4.133   9.070  0.7971  2.4379 -1.1945
 7439SOL     OW33775   3.777   4.578   4.610  0.2702  0.7018 -0.2346
 7439SOL    HW133776   3.865   4.612   4.594  1.1868 -1.8674 -0.6450
 7439SOL    HW233777   3.798   4.488   4.585  0.1850 -0.0028  2.2019
 7440SOL     OW33778   4.179   3.766  12.304 -0.4374  0.1144  0.1561
 7440SOL    HW133779   4.206   3.847  12.261  0.6495  0.3629  1.3154
 7440SOL    HW233780   4.144   3.777  12.392 -0.7244  0.3052  0.0196
 7441SOL     OW33781   0.998   3.382   4.833 -0.7662  0.2091 -0.1425
 7441SOL    HW133782   0.972   3.338   4.914  0.5342  1.5297  0.9929
 7441SOL    HW233783   0.931   3.385   4.764 -0.4872  0.4933 -0.4022
 7442SOL     OW33784   3.039   0.376   7.880 -0.1344 -0.7883  0.7794
 7442SOL    HW133785   3.004   0.394   7.967  0.2436  0.3196  0.7067
 7442SOL    HW233786   3.015   0.284   7.887  0.8869 -1.0944  0.1890
 7443SOL     OW33787   1.729   1.149   0.267  0.1850 -0.6202  0.3165
 7443SOL    HW133788   1.658   1.156   0.332 -0.3066 -1.7154 -0.1122
 7443SOL    HW233789   1.771   1.066   0.286  0.8453 -0.2098  0.6747
 7444SOL     OW33790   3.090   0.015  13.719 -0.0452  0.0581 -0.2765
 7444SOL    HW133791   3.140   4.716  13.798 -1.3378  1.3756  0.8968
 7444SOL    HW233792   3.002   0.003  13.756  1.2016  0.8773  2.9076
 7445SOL     OW33793   3.006   0.369   7.414  0.4876 -0.4672 -0.0878
 7445SOL    HW133794   3.045   0.392   7.499  2.3589 -1.1542 -0.7605
 7445SOL    HW233795   2.986   0.275   7.423  0.2564 -0.4416 -0.3301
 7446SOL     OW33796   3.493   0.304   9.562  0.1715 -0.0978 -1.0343
 7446SOL    HW133797   3.555   0.280   9.630 -1.3027  0.6819  0.5802
 7446SOL    HW233798   3.418   0.248   9.583 -0.7532  0.9234 -1.5800
 7447SOL     OW33799   3.928   1.963   9.562  0.0532 -0.3530 -0.1330
 7447SOL    HW133800   3.959   2.025   9.629  3.5425 -1.0806 -1.0976
 7447SOL    HW233801   3.836   1.944   9.584 -0.1722 -0.1266 -0.8673
 7448SOL     OW33802   1.096   4.485  16.415 -0.4814 -0.1258  0.1408
 7448SOL    HW133803   1.002   4.465  16.410 -0.0700 -1.8656 -0.3536
 7448SOL    HW233804   1.127   4.441  16.337 -0.5719  0.8470 -0.4493
 7449SOL     OW33805   1.369   3.962   7.019  0.3957 -1.2189 -0.3245
 7449SOL    HW133806   1.375   3.866   7.024  0.7624 -1.2872 -1.9923
 7449SOL    HW233807   1.318   3.977   6.940 -0.6045 -0.2422  0.5113
 7450SOL     OW33808   3.879   2.049   8.647 -0.1260 -0.0446 -0.1618
 7450SOL    HW133809   3.880   1.998   8.727  1.1060  0.9179  0.4408
 7450SOL    HW233810   3.816   2.116   8.670  1.6813  1.8532 -0.7279
 7451SOL     OW33811   2.462   3.068  12.769  0.1624 -0.3016  0.3551
 7451SOL    HW133812   2.469   3.031  12.857  1.8303  0.4331  0.5369
 7451SOL    HW233813   2.464   3.163  12.782 -0.1150  0.1064 -2.5929
 7452SOL     OW33814   2.604   3.845  14.894  0.5754 -0.2396 -0.5325
 7452SOL    HW133815   2.511   3.861  14.880  0.5253 -0.4742 -0.4575
 7452SOL    HW233816   2.603   3.774  14.958  0.8750  1.8211  1.7787
 7453SOL     OW33817   1.867   2.819   3.336  0.7277 -0.3785 -0.0447
 7453SOL    HW133818   1.772   2.826   3.326  0.8787  0.0708 -1.1969
 7453SOL    HW233819   1.894   2.909   3.354 -1.0251  0.7830 -3.2018
 7454SOL     OW33820   4.666   2.647  13.255 -0.2824 -0.4068  0.7827
 7454SOL    HW133821   4.672   2.737  13.225  1.6188 -1.1106 -1.0474
 7454SOL    HW233822   4.648   2.661  13.348  1.5345 -0.8792  1.2096
 7455SOL     OW33823   0.100   3.268   0.021 -0.3534 -0.6042 -0.0250
 7455SOL    HW133824   0.166   3.304   0.080 -1.0110  1.1861 -0.3690
 7455SOL    HW233825   0.105   3.177   0.050  1.6898 -0.6877 -0.6838
 7456SOL     OW33826   2.881   3.475  12.554 -1.0391  0.0926  0.2086
 7456SOL    HW133827   2.952   3.410  12.554  0.4222  1.6774  0.1671
 7456SOL    HW233828   2.876   3.511  12.642  1.8609  0.7693  0.0970
 7457SOL     OW33829   0.124   2.732  14.952  0.1673  0.2083  0.2037
 7457SOL    HW133830   0.135   2.740  14.857 -4.1679 -2.9312 -0.5511
 7457SOL    HW233831   0.136   2.820  14.987  0.8071 -0.5695  1.9491
 7458SOL     OW33832   1.731   3.625  17.301  0.3712 -0.1129 -0.0658
 7458SOL    HW133833   1.780   3.575  17.236  1.7048  0.4557  0.5081
 7458SOL    HW233834   1.763   3.712  17.276  0.1149  0.1159  0.3786
 7459SOL     OW33835   2.512   1.813   3.843  0.3593 -0.0573 -0.1459
 7459SOL    HW133836   2.474   1.870   3.776  1.4505  2.7068  1.5807
 7459SOL    HW233837   2.551   1.742   3.792 -1.3895 -0.2200 -1.2393
 7460SOL     OW33838   1.980   1.027   3.946 -0.1075  0.1077  0.0231
 7460SOL    HW133839   2.028   1.002   3.866  1.4426 -0.1006  1.0218
 7460SOL    HW233840   1.892   0.996   3.923  0.3934 -2.2423  1.2515
 7461SOL     OW33841   0.505   2.412  10.819 -0.6200 -0.3161  0.4482
 7461SOL    HW133842   0.524   2.318  10.816 -1.7687 -0.5495  0.3547
 7461SOL    HW233843   0.544   2.439  10.736  0.2948 -0.1367  0.9433
 7462SOL     OW33844   1.614   3.754   5.067  0.3250  0.7085  0.0768
 7462SOL    HW133845   1.605   3.734   4.974 -0.5612 -1.1937  0.5652
 7462SOL    HW233846   1.709   3.757   5.080  0.4107  1.6030 -0.8137
 7463SOL     OW33847   2.756   4.625  14.557 -0.1937 -0.0675  0.1876
 7463SOL    HW133848   2.683   4.684  14.541 -2.7032 -3.1551  0.2574
 7463SOL    HW233849   2.809   4.622  14.477 -2.6113  1.6755 -1.4623
 7464SOL     OW33850   3.625   1.624  13.975  0.7106 -0.2632 -0.1451
 7464SOL    HW133851   3.719   1.612  13.988  0.5835  0.0181  0.9888
 7464SOL    HW233852   3.616   1.604  13.881  0.9517  1.1610 -0.4706
 7465SOL     OW33853   0.807   1.734   1.986  0.5052  0.0032 -0.1927
 7465SOL    HW133854   0.894   1.697   1.968 -0.4363 -2.0848 -0.5189
 7465SOL    HW233855   0.828   1.822   1.956 -0.6252  1.0036  2.0219
 7466SOL     OW33856   1.893   2.574   8.263 -0.2965  0.2660  0.0489
 7466SOL    HW133857   1.863   2.572   8.354  0.6113 -1.3033  0.3117
 7466SOL    HW233858   1.839   2.504   8.226  0.2612 -0.2347  0.1870
 7467SOL     OW33859   4.572   3.004   2.081  0.1261  0.3694  0.1812
 7467SOL    HW133860   4.622   3.079   2.049  1.0642  0.9628  3.0424
 7467SOL    HW233861   4.641   2.951   2.119 -0.0400  1.4342  2.0057
 7468SOL     OW33862   1.025   0.522   5.145 -0.3553 -0.1312  0.2571
 7468SOL    HW133863   1.057   0.467   5.073 -2.5791 -1.5391  0.3559
 7468SOL    HW233864   0.931   0.505   5.139 -0.3701  0.1838 -0.4268
 7469SOL     OW33865   3.730   4.499   3.705  0.1977  0.5908  1.1192
 7469SOL    HW133866   3.746   4.549   3.625  0.0881 -0.5733  0.3673
 7469SOL    HW233867   3.636   4.485   3.706  0.4816 -1.7255 -1.7811
 7470SOL     OW33868   1.690   3.693   6.721  0.3470  0.0169 -0.3669
 7470SOL    HW133869   1.681   3.772   6.774 -2.9820 -1.7321  1.6030
 7470SOL    HW233870   1.749   3.729   6.654 -0.2603  0.9406 -0.4133
 7471SOL     OW33871   2.893   3.487  14.737  0.7583 -0.6581  0.3615
 7471SOL    HW133872   2.879   3.502  14.831 -2.2421 -1.0784 -0.0249
 7471SOL    HW233873   2.953   3.560  14.724 -0.4153  0.3566  0.6647
 7472SOL     OW33874   0.664   0.260   4.701 -0.0299 -0.1765  0.2259
 7472SOL    HW133875   0.668   0.341   4.751  2.8924  0.0522 -0.3826
 7472SOL    HW233876   0.580   0.220   4.725 -0.0869 -0.1921  0.0010
 7473SOL     OW33877   4.708   2.037   4.900 -0.5899 -0.4285 -0.3793
 7473SOL    HW133878   4.625   2.005   4.935 -0.4197 -0.2502  0.1873
 7473SOL    HW233879   4.720   1.988   4.819  0.1839 -0.0533 -0.4985
 7474SOL     OW33880   2.520   1.054  14.555 -0.1576  0.1270  0.3620
 7474SOL    HW133881   2.479   0.983  14.505  1.1492  0.1053 -0.6710
 7474SOL    HW233882   2.613   1.033  14.544 -0.1533 -0.3591  1.3376
 7475SOL     OW33883   2.142   2.044  16.243 -0.3618 -0.0792 -0.3759
 7475SOL    HW133884   2.164   1.977  16.308 -1.4747 -1.5222 -1.5003
 7475SOL    HW233885   2.150   2.121  16.299 -2.1121 -0.1168 -0.0796
 7476SOL     OW33886   2.032   0.296   3.561 -0.0374  0.3369  0.8706
 7476SOL    HW133887   2.080   0.354   3.502  1.3853 -1.2466  0.4819
 7476SOL    HW233888   2.082   0.311   3.641  0.2688  0.2337  0.6991
 7477SOL     OW33889   3.795   2.356  11.827  0.6327 -0.0131  0.1815
 7477SOL    HW133890   3.714   2.312  11.801 -0.6087  0.9841  2.3140
 7477SOL    HW233891   3.863   2.289  11.815 -0.3200 -1.1600  1.1499
 7478SOL     OW33892   0.987   0.882   2.712  0.2302 -0.1005  0.2223
 7478SOL    HW133893   1.055   0.884   2.779 -1.6341 -0.9866  2.1487
 7478SOL    HW233894   1.030   0.846   2.635 -0.0068 -1.5956  0.7985
 7479SOL     OW33895   1.273   3.857   6.748 -0.3615 -0.1826  0.0194
 7479SOL    HW133896   1.241   3.802   6.676 -1.1205 -1.3355  1.2257
 7479SOL    HW233897   1.202   3.922   6.746 -0.0554  0.1618  0.3159
 7480SOL     OW33898   4.110   2.046   2.325  0.5406 -0.2307 -0.1385
 7480SOL    HW133899   4.135   2.008   2.410  0.4678  1.8566  0.8288
 7480SOL    HW233900   4.183   2.106   2.311  1.5223 -1.1949  0.8601
 7481SOL     OW33901   2.853   4.177  12.174 -0.1919 -0.4254 -0.0911
 7481SOL    HW133902   2.819   4.145  12.257  0.2460 -0.6376  0.0067
 7481SOL    HW233903   2.925   4.234  12.201 -0.1373 -0.9576  0.8719
 7482SOL     OW33904   2.787   4.530  14.156  0.3422 -0.6779 -0.0035
 7482SOL    HW133905   2.714   4.519  14.217  1.1684 -1.2043  0.8900
 7482SOL    HW233906   2.857   4.479  14.197 -1.0470 -1.0017  2.0004
 7483SOL     OW33907   4.722   1.087   4.376 -0.1842 -0.0009 -0.0449
 7483SOL    HW133908   4.676   1.053   4.299  2.1761  1.4066 -2.1049
 7483SOL    HW233909   4.706   1.181   4.383  1.3267  0.2577 -0.0818
 7484SOL     OW33910   2.469   1.846  15.520  0.8475 -0.3209 -0.3947
 7484SOL    HW133911   2.542   1.904  15.540 -0.7436  1.8690 -1.0039
 7484SOL    HW233912   2.430   1.849  15.607  0.9129 -3.8022 -0.2298
 7485SOL     OW33913   3.766   3.850   5.827 -0.0448 -0.1128 -0.4169
 7485SOL    HW133914   3.750   3.893   5.912 -1.4866  0.8889 -1.1776
 7485SOL    HW233915   3.731   3.917   5.768 -0.3128  0.8729  0.8279
 7486SOL     OW33916   3.426   0.822   3.565  0.0297 -0.5076  0.0036
 7486SOL    HW133917   3.463   0.849   3.650  0.1950  0.8070 -0.4836
 7486SOL    HW233918   3.440   0.894   3.503  0.5287  0.9616  1.8123
 7487SOL     OW33919   2.729   0.906   6.435 -0.4355  0.1556 -0.5938
 7487SOL    HW133920   2.735   0.823   6.387  0.5249 -0.9740  1.4865
 7487SOL    HW233921   2.765   0.964   6.368  0.2998  0.0859 -0.2650
 7488SOL     OW33922   3.275   0.110  16.909 -0.0909 -0.2229  0.4160
 7488SOL    HW133923   3.240   0.068  16.988 -0.5455  0.1084  0.3939
 7488SOL    HW233924   3.366   0.083  16.915  0.5734  1.5270 -1.8286
 7489SOL     OW33925   4.169   1.975   1.738  0.0768 -0.5745  0.2112
 7489SOL    HW133926   4.247   1.997   1.790 -0.0281  1.1277 -0.3406
 7489SOL    HW233927   4.204   2.024   1.663  1.7148 -1.6796  0.2644
 7490SOL     OW33928   0.219   0.857  13.227  0.0178  0.5145  0.1296
 7490SOL    HW133929   0.195   0.765  13.216  0.5600  0.4290 -0.2800
 7490SOL    HW233930   0.138   0.899  13.197  0.2803  1.1841  0.3441
 7491SOL     OW33931   1.815   1.871   5.397 -0.1469  0.4059 -0.3602
 7491SOL    HW133932   1.769   1.831   5.471  1.3130  0.9443  0.8235
 7491SOL    HW233933   1.853   1.800   5.345  1.3932 -0.4280  1.8771
 7492SOL     OW33934   0.976   2.701   4.374  0.2978  0.2860 -0.2214
 7492SOL    HW133935   0.977   2.762   4.448 -0.2133 -0.6157  0.5286
 7492SOL    HW233936   0.932   2.623   4.407 -0.0093  1.2031  1.5684
 7493SOL     OW33937   0.787   3.627   1.122 -0.4590 -0.1099  0.1482
 7493SOL    HW133938   0.841   3.704   1.143 -1.1756  0.4233  0.0194
 7493SOL    HW233939   0.709   3.666   1.083  0.0428  0.1628 -0.6036
 7494SOL     OW33940   1.414   4.255   4.796 -0.0504  0.3132 -0.2614
 7494SOL    HW133941   1.458   4.172   4.814 -0.7623  0.1441  0.7144
 7494SOL    HW233942   1.480   4.309   4.839  0.4605 -0.8966  0.4562
 7495SOL     OW33943   0.653   3.226   6.362  0.3823 -0.2923  0.3328
 7495SOL    HW133944   0.608   3.172   6.426  0.1559 -0.3549  0.1212
 7495SOL    HW233945   0.579   3.283   6.341 -1.6260 -2.5116  1.3876
 7496SOL     OW33946   2.427   2.779   8.421 -0.3580  0.4334 -0.2674
 7496SOL    HW133947   2.459   2.739   8.340  1.9668 -0.2219  0.9823
 7496SOL    HW233948   2.406   2.869   8.395  0.1935  0.4852 -0.5393
 7497SOL     OW33949   2.930   1.331   7.272 -0.3922 -0.1709  0.1612
 7497SOL    HW133950   2.934   1.330   7.177  0.7639 -3.1500  0.2225
 7497SOL    HW233951   2.962   1.241   7.276  3.9395  1.3658 -0.7230
 7498SOL     OW33952   1.513   3.835   0.430  0.1606  0.5101  0.2311
 7498SOL    HW133953   1.508   3.900   0.359  0.1880  0.4779  0.1994
 7498SOL    HW233954   1.419   3.814   0.431 -0.1530  1.7413 -2.5196
 7499SOL     OW33955   2.722   4.134   8.121 -0.2571 -0.1629  0.3224
 7499SOL    HW133956   2.756   4.060   8.071 -0.9380 -0.2033 -0.0776
 7499SOL    HW233957   2.773   4.142   8.201 -0.2724 -0.3224  0.3483
 7500SOL     OW33958   2.976   3.278   3.190  0.5773 -0.2347 -0.1941
 7500SOL    HW133959   3.038   3.316   3.127  0.6901 -0.1624 -0.0400
 7500SOL    HW233960   3.018   3.194   3.204  0.6348 -0.3457 -1.0291
 7501SOL     OW33961   1.122   3.575   7.225 -0.0768 -0.4023  0.1616
 7501SOL    HW133962   1.191   3.553   7.288  0.2139 -1.1692 -0.4299
 7501SOL    HW233963   1.115   3.491   7.180  2.0535 -0.6222  0.2325
 7502SOL     OW33964   2.074   1.276   8.567  0.3554 -0.3282 -0.0178
 7502SOL    HW133965   2.110   1.309   8.649  1.0989 -0.3012 -0.3560
 7502SOL    HW233966   2.147   1.257   8.508 -0.1648 -2.0742 -0.0950
 7503SOL     OW33967   2.200   3.685   7.917  0.0805 -0.7724 -0.7557
 7503SOL    HW133968   2.281   3.644   7.949 -0.7843 -1.3428  0.6869
 7503SOL    HW233969   2.233   3.713   7.831  0.2383 -0.7188 -0.6784
 7504SOL     OW33970   1.770   3.584  10.682 -0.5584  0.2602  0.7585
 7504SOL    HW133971   1.800   3.590  10.772  0.5001 -2.1563  0.5658
 7504SOL    HW233972   1.848   3.605  10.630 -0.4768  0.0166  0.7807
 7505SOL     OW33973   2.800   1.978   1.809 -0.0906 -0.5326  0.1178
 7505SOL    HW133974   2.861   1.955   1.740 -0.7637  1.7109 -1.2046
 7505SOL    HW233975   2.721   2.002   1.760  1.0757  0.2357 -1.3558
 7506SOL     OW33976   3.347   3.807   2.148  0.2481  0.1070 -0.0051
 7506SOL    HW133977   3.406   3.733   2.136 -0.8509 -0.6613 -0.6350
 7506SOL    HW233978   3.379   3.849   2.228  1.2949 -1.9429  0.6616
 7507SOL     OW33979   4.235   0.466   8.455 -0.0141 -0.0157 -0.1812
 7507SOL    HW133980   4.170   0.478   8.386 -0.5855  0.8852  0.5229
 7507SOL    HW233981   4.278   0.383   8.433  0.1862  0.3669 -1.2133
 7508SOL     OW33982   0.964   1.062   3.064 -0.5442 -0.3595  0.2666
 7508SOL    HW133983   0.968   1.081   2.970 -0.6263  0.5535  0.4431
 7508SOL    HW233984   0.880   1.105   3.081  1.6022  3.8232  0.4352
 7509SOL     OW33985   1.282   4.507   3.240 -0.2854  0.0804  0.4450
 7509SOL    HW133986   1.216   4.551   3.293  0.3607 -0.6866  1.8904
 7509SOL    HW233987   1.361   4.545   3.280  0.3790  0.4886 -1.2701
 7510SOL     OW33988   4.059   2.414   3.099  0.7174  0.5229 -0.8702
 7510SOL    HW133989   4.013   2.330   3.106 -1.5987  1.8400 -0.3835
 7510SOL    HW233990   4.149   2.382   3.088  0.7000  1.1735 -2.9590
 7511SOL     OW33991   3.796   0.923   5.434 -0.0503 -0.2847 -0.1767
 7511SOL    HW133992   3.819   0.840   5.476  1.2136 -1.0862 -2.4565
 7511SOL    HW233993   3.842   0.912   5.351 -1.5037 -2.4394 -0.6891
 7512SOL     OW33994   0.934   0.943   4.922 -0.6147 -0.6229  0.3356
 7512SOL    HW133995   0.849   0.941   4.966  0.2648 -1.1840  1.9998
 7512SOL    HW233996   0.969   0.864   4.963  0.6281  0.9102  2.2466
 7513SOL     OW33997   1.728   2.647   6.440  0.1747  0.1741 -0.4300
 7513SOL    HW133998   1.795   2.642   6.508 -0.4593 -0.8413  0.1229
 7513SOL    HW233999   1.704   2.740   6.436 -0.4319  0.0514  0.2299
 7514SOL     OW34000   0.491   4.543  11.019 -0.4525  0.2407  0.4372
 7514SOL    HW134001   0.573   4.508  11.053  1.4638  4.4778  0.2152
 7514SOL    HW234002   0.502   4.635  11.044  0.8466 -0.0150  0.7849
 7515SOL     OW34003   2.290   2.426   7.157 -0.5006 -0.1850  0.2037
 7515SOL    HW134004   2.248   2.361   7.100 -0.8671 -1.3565  1.8106
 7515SOL    HW234005   2.234   2.503   7.149  1.2840  1.1910  1.0747
 7516SOL     OW34006   4.689   3.484  12.037  0.5800  0.6694 -0.0765
 7516SOL    HW134007   4.612   3.445  12.078  1.0337 -1.6005 -1.4124
 7516SOL    HW234008   0.036   3.468  12.101  0.4916 -0.2758 -0.2087
 7517SOL     OW34009   3.427   3.421   4.692 -0.0602 -0.1129 -0.3805
 7517SOL    HW134010   3.413   3.495   4.634 -1.1891  0.0506  0.1029
 7517SOL    HW234011   3.404   3.343   4.641 -0.8069  0.5672 -1.0737
 7518SOL     OW34012   3.297   2.821   2.169 -0.2705 -0.3538  0.3779
 7518SOL    HW134013   3.292   2.737   2.215 -0.7360 -1.5452 -1.8368
 7518SOL    HW234014   3.370   2.803   2.110 -0.0823  0.2871  0.4137
 7519SOL     OW34015   2.704   3.889   1.780 -0.3765  0.2443 -0.4118
 7519SOL    HW134016   2.685   3.866   1.871 -0.6153 -0.0063 -0.5265
 7519SOL    HW234017   2.785   3.840   1.764  0.0078  1.0807 -0.9986
 7520SOL     OW34018   3.989   0.577   7.083 -0.2260 -0.1519  0.0046
 7520SOL    HW134019   4.022   0.662   7.113  0.2820  0.1903 -1.5149
 7520SOL    HW234020   3.978   0.591   6.989  0.4774  1.5532  0.1804
 7521SOL     OW34021   3.859   2.506   6.232  0.5241  0.4618 -0.2705
 7521SOL    HW134022   3.828   2.556   6.157 -0.3390  1.0073  0.4468
 7521SOL    HW234023   3.775   2.485   6.272  1.5428 -0.5748  1.3243
 7522SOL     OW34024   3.446   3.583   4.274 -0.1819  0.3355 -0.1657
 7522SOL    HW134025   3.358   3.620   4.266  1.4274  3.8479 -1.5155
 7522SOL    HW234026   3.448   3.572   4.370 -0.2102 -0.7076 -0.2871
 7523SOL     OW34027   4.423   1.530  10.454 -0.2262  0.1272 -0.5384
 7523SOL    HW134028   4.443   1.617  10.486 -2.5804  0.2643  0.5910
 7523SOL    HW234029   4.455   1.543  10.365 -0.2089 -1.0647 -0.7042
 7524SOL     OW34030   3.282   4.390   8.441  0.2955 -0.3256  0.7164
 7524SOL    HW134031   3.253   4.471   8.400 -0.9279 -0.7686  0.7050
 7524SOL    HW234032   3.247   4.404   8.529 -0.2327 -0.6367  0.5581
 7525SOL     OW34033   1.224   1.689   2.747 -0.6124  0.5872  0.1787
 7525SOL    HW134034   1.132   1.707   2.727 -0.9247 -0.3137  0.8060
 7525SOL    HW234035   1.252   1.774   2.781  0.9954 -0.1512  0.6961
 7526SOL     OW34036   1.831   4.024  17.565  0.2526 -0.5392 -0.0554
 7526SOL    HW134037   1.782   4.043  17.645 -2.1660 -1.5196 -1.3036
 7526SOL    HW234038   1.853   4.114  17.543  2.0982 -0.9789  0.0263
 7527SOL     OW34039   4.216   0.567   6.874 -0.6139 -0.3305  0.5557
 7527SOL    HW134040   4.208   0.472   6.879  0.0823 -0.4299 -0.2450
 7527SOL    HW234041   4.263   0.592   6.953 -0.4394 -0.1033  0.3800
 7528SOL     OW34042   3.567   3.447   5.379  0.3099 -0.7449 -0.5741
 7528SOL    HW134043   3.645   3.400   5.350  1.1842 -0.4753  1.4051
 7528SOL    HW234044   3.494   3.419   5.323  0.0524 -1.0061 -0.1074
 7529SOL     OW34045   0.248   1.689   0.631  0.2720  0.8303  0.0057
 7529SOL    HW134046   0.221   1.753   0.564 -0.7082 -0.3781 -0.7499
 7529SOL    HW234047   0.306   1.628   0.586  0.8245  0.0137  1.8159
 7530SOL     OW34048   1.709   1.454   7.909  0.2458  0.2737  0.0985
 7530SOL    HW134049   1.648   1.473   7.980 -0.2032  0.2301 -0.2806
 7530SOL    HW234050   1.754   1.375   7.941 -0.6663 -0.6479 -0.8996
 7531SOL     OW34051   3.202   2.641  15.744 -1.1735  0.3325  0.9243
 7531SOL    HW134052   3.190   2.572  15.809  1.2422  0.5151  1.5794
 7531SOL    HW234053   3.237   2.705  15.806  1.1985  0.0258 -0.0767
 7532SOL     OW34054   0.689   3.125  12.098  0.4088  0.9192 -0.0791
 7532SOL    HW134055   0.604   3.169  12.095 -0.1473 -0.1068  0.3628
 7532SOL    HW234056   0.715   3.138  12.007 -0.7895 -0.1556 -0.5796
 7533SOL     OW34057   0.498   0.655   6.834 -0.1416 -0.0720 -0.0190
 7533SOL    HW134058   0.582   0.694   6.857 -0.7070  0.8869  0.3803
 7533SOL    HW234059   0.515   0.560   6.833  0.8897  0.1591 -2.9851
 7534SOL     OW34060   4.672   2.254   7.387  0.3727 -0.4802  0.0425
 7534SOL    HW134061   4.698   2.165   7.361 -1.9413 -0.4046 -2.5916
 7534SOL    HW234062   4.687   2.258   7.481 -1.0383  0.0215  0.2407
 7535SOL     OW34063   2.136   3.464   8.173  0.0037 -0.2198 -0.2604
 7535SOL    HW134064   2.119   3.558   8.173  0.9465 -0.0481  0.7933
 7535SOL    HW234065   2.232   3.465   8.181 -0.0633 -0.5660  0.5829
 7536SOL     OW34066   2.530   2.622   4.881  0.1852 -0.4134  0.1101
 7536SOL    HW134067   2.469   2.593   4.948 -0.6045  2.5144  0.6525
 7536SOL    HW234068   2.468   2.638   4.809  0.1991 -1.2103 -0.0766
 7537SOL     OW34069   4.100   1.370   4.997 -0.7964  0.0710  0.1279
 7537SOL    HW134070   4.108   1.303   4.929 -0.6920  0.4701 -0.2493
 7537SOL    HW234071   4.082   1.450   4.948  1.1146  0.9927  0.9070
 7538SOL     OW34072   0.474   0.934  11.766 -0.1702 -0.0940  0.0538
 7538SOL    HW134073   0.448   0.990  11.693  0.1418 -2.0671 -1.5671
 7538SOL    HW234074   0.516   0.988  11.834 -3.3277  0.6688  1.3982
 7539SOL     OW34075   0.364   4.700   0.938 -0.0120  0.8220 -0.3100
 7539SOL    HW134076   0.391   0.032   0.864 -0.2533  2.5955  0.9037
 7539SOL    HW234077   0.441   4.715   0.995 -0.6453  0.7874  0.5559
 7540SOL     OW34078   1.969   0.072   2.286 -0.4085  0.2485 -0.0346
 7540SOL    HW134079   2.055   0.030   2.278 -0.1260  0.6307  0.9927
 7540SOL    HW234080   1.940   0.025   2.365  1.2583  0.4371  0.6914
 7541SOL     OW34081   0.444   4.147   8.627 -0.1242  0.2184 -0.1387
 7541SOL    HW134082   0.538   4.129   8.618 -0.8019 -3.1504 -0.3687
 7541SOL    HW234083   0.430   4.232   8.587 -0.4683  0.2916  0.1324
 7542SOL     OW34084   0.680   4.510   4.672  0.9104  0.4586  0.4764
 7542SOL    HW134085   0.666   4.450   4.745  2.0750 -2.1570 -1.4352
 7542SOL    HW234086   0.755   4.471   4.627  1.1899 -1.0565  2.2245
 7543SOL     OW34087   3.621   2.702   7.438  0.0282 -0.0652 -0.4764
 7543SOL    HW134088   3.708   2.723   7.469 -0.2847  1.0350 -0.3558
 7543SOL    HW234089   3.575   2.733   7.516 -0.3299 -1.2716 -0.1982
 7544SOL     OW34090   3.998   4.075  10.453  0.0344 -0.3502  0.2746
 7544SOL    HW134091   3.975   4.166  10.434 -1.1928 -0.1846  2.6673
 7544SOL    HW234092   4.058   4.055  10.380  1.5828  1.9343  0.9271
 7545SOL     OW34093   3.046   2.074  10.783 -0.0317  0.1139  0.5303
 7545SOL    HW134094   3.108   2.038  10.846 -0.0333  1.6486  1.4005
 7545SOL    HW234095   3.059   2.012  10.711 -0.8848 -2.0978  2.2696
 7546SOL     OW34096   0.719   0.870   8.987  0.0787  0.2629 -0.1202
 7546SOL    HW134097   0.666   0.941   8.951  0.0049  0.0954 -0.3416
 7546SOL    HW234098   0.652   0.828   9.041 -0.7081  1.7105  0.0382
 7547SOL     OW34099   2.233   2.386   8.193  0.2276 -0.2914 -0.3443
 7547SOL    HW134100   2.169   2.414   8.128  1.8971 -0.4080 -2.0285
 7547SOL    HW234101   2.290   2.333   8.138  0.4599  0.4610 -0.8261
 7548SOL     OW34102   4.216   3.460   7.248  0.3746 -0.5838  0.0368
 7548SOL    HW134103   4.149   3.417   7.195  0.1710  1.4361 -1.3466
 7548SOL    HW234104   4.272   3.478   7.172 -1.5371 -0.6984 -1.4120
 7549SOL     OW34105   2.789   0.728   3.871 -0.7175 -0.2900  0.3235
 7549SOL    HW134106   2.866   0.785   3.875  0.4167 -1.7135 -0.9833
 7549SOL    HW234107   2.801   0.648   3.819 -1.8801  0.3885 -1.0146
 7550SOL     OW34108   1.745   1.391   4.071 -0.1824 -0.2556 -0.0218
 7550SOL    HW134109   1.664   1.353   4.038 -1.9402  2.3209  1.3477
 7550SOL    HW234110   1.725   1.399   4.164 -1.0420 -0.7742 -0.1630
 7551SOL     OW34111   0.921   0.343   7.512  0.0917 -0.4138  0.2083
 7551SOL    HW134112   0.933   0.287   7.588  0.4773  1.3863  1.4884
 7551SOL    HW234113   0.825   0.345   7.507  0.0979  2.4102  0.7385
 7552SOL     OW34114   1.041   2.665   6.000  0.7712 -0.3580  1.0020
 7552SOL    HW134115   0.965   2.659   5.942 -0.2113  0.1830  2.2504
 7552SOL    HW234116   1.108   2.642   5.936 -1.0557  0.0861 -1.0759
 7553SOL     OW34117   4.598   4.582   4.302  0.1286  0.6065  0.2513
 7553SOL    HW134118   4.688   4.563   4.327 -0.0416 -0.1107  0.3258
 7553SOL    HW234119   4.558   4.607   4.385  0.5030 -1.8501  1.1502
 7554SOL     OW34120   2.375   2.712   2.316 -0.3825  0.5769 -0.1738
 7554SOL    HW134121   2.366   2.803   2.287 -0.6901  0.2550 -1.0999
 7554SOL    HW234122   2.379   2.667   2.231  2.0620  1.9997 -0.8321
 7555SOL     OW34123   3.061   3.096   4.012 -0.1297 -0.4035 -0.1286
 7555SOL    HW134124   3.032   3.071   4.099 -0.4549  0.1753 -0.0693
 7555SOL    HW234125   3.143   3.047   4.015  0.6069  0.7259 -2.3357
 7556SOL     OW34126   3.345   1.995   6.574  0.1874  0.2358 -0.4496
 7556SOL    HW134127   3.368   1.904   6.557  2.2174  0.7949 -0.7162
 7556SOL    HW234128   3.410   2.035   6.516  0.3933 -1.1241 -1.1522
 7557SOL     OW34129   0.821   0.854   3.812 -0.2292  0.4073 -0.1866
 7557SOL    HW134130   0.898   0.854   3.755  0.9179  0.3470  1.3538
 7557SOL    HW234131   0.799   0.763   3.832 -0.4547  0.1203 -1.7282
 7558SOL     OW34132   3.060   3.383   5.048 -0.2024  0.5783 -0.2274
 7558SOL    HW134133   3.096   3.385   4.960  2.0204  0.1509  0.6819
 7558SOL    HW234134   2.972   3.420   5.040 -1.1766 -1.3825  1.3111
 7559SOL     OW34135   3.472   3.607   6.811  0.2514  0.0547 -0.1800
 7559SOL    HW134136   3.501   3.650   6.891 -0.3186  0.5706 -0.2495
 7559SOL    HW234137   3.453   3.684   6.758  1.8901  0.6616  0.0954
 7560SOL     OW34138   0.503   3.265  14.777  0.2573  0.4648  0.0960
 7560SOL    HW134139   0.484   3.282  14.869 -3.5670  0.9968 -0.7719
 7560SOL    HW234140   0.598   3.253  14.769  0.3871  1.3351  0.3230
 7561SOL     OW34141   0.423   4.604  15.893  0.3707 -0.5236  0.6132
 7561SOL    HW134142   0.337   4.565  15.912 -0.2250  0.2845 -0.4241
 7561SOL    HW234143   0.421   4.678  15.955 -0.1451  0.1546 -0.2207
 7562SOL     OW34144   2.093   3.938  17.118  0.3663  0.1557  0.0359
 7562SOL    HW134145   2.092   4.004  17.187  0.5959  2.0185 -1.7387
 7562SOL    HW234146   2.029   3.969  17.054  1.8316 -1.1333 -2.0537
 7563SOL     OW34147   1.321   3.463   5.325 -0.2511  0.2986  0.2284
 7563SOL    HW134148   1.308   3.374   5.356  0.2872 -0.1406 -0.8160
 7563SOL    HW234149   1.282   3.455   5.238 -1.3811  1.1232  0.6565
 7564SOL     OW34150   3.275   2.189   6.234 -0.0746 -0.4092  0.6789
 7564SOL    HW134151   3.271   2.101   6.272 -3.8439 -0.7667 -0.6168
 7564SOL    HW234152   3.189   2.224   6.255  0.3526  1.6461 -0.9419
 7565SOL     OW34153   4.055   2.692   5.066  0.1110 -0.0792 -0.0976
 7565SOL    HW134154   3.971   2.649   5.051  0.4920 -0.3767 -1.3910
 7565SOL    HW234155   4.082   2.714   4.977  0.3895 -1.4024 -0.3463
 7566SOL     OW34156   3.947   1.045   3.981 -0.5069 -0.6502  0.3355
 7566SOL    HW134157   3.968   0.957   3.948 -1.4384 -0.9411  0.5411
 7566SOL    HW234158   3.900   1.017   4.059  1.7880 -0.4014  1.8119
 7567SOL     OW34159   1.507   4.412  17.482  0.2809 -0.0949 -0.2978
 7567SOL    HW134160   1.547   4.461  17.554 -0.5866 -0.7697  0.6366
 7567SOL    HW234161   1.458   4.482  17.439 -3.0084 -1.4551  1.1940
 7568SOL     OW34162   3.182   3.034   6.486 -0.1301 -0.3820 -0.0606
 7568SOL    HW134163   3.096   3.065   6.456 -0.4146 -1.2479 -0.1618
 7568SOL    HW234164   3.229   3.080   6.416 -1.2949 -1.3949 -1.5173
 7569SOL     OW34165   4.426   2.095   7.700  0.3544  0.3409  0.0187
 7569SOL    HW134166   4.444   2.021   7.757  0.2810 -0.0120 -0.4146
 7569SOL    HW234167   4.447   2.056   7.615  0.1808 -1.2795  0.7235
 7570SOL     OW34168   2.681   0.709  17.485  0.1612 -0.4040  0.7131
 7570SOL    HW134169   2.764   0.699  17.439 -2.1588 -0.6290 -3.3663
 7570SOL    HW234170   2.657   0.797  17.458 -2.4417 -1.7039 -1.2353
 7571SOL     OW34171   2.006   1.965   4.330 -0.7339  0.0542 -0.4681
 7571SOL    HW134172   2.065   1.890   4.332  0.6870  1.2377  1.6512
 7571SOL    HW234173   1.981   1.964   4.422  0.2436  0.6974 -0.2033
 7572SOL     OW34174   4.318   0.980   6.457 -0.2472  0.1951  0.3441
 7572SOL    HW134175   4.298   1.071   6.479 -0.2950  0.2824 -0.0491
 7572SOL    HW234176   4.404   0.979   6.499 -1.2005  2.2824  2.2930
 7573SOL     OW34177   2.514   2.809   3.209 -0.1116  0.5379  0.5651
 7573SOL    HW134178   2.522   2.869   3.134  1.8278 -0.6252 -0.1397
 7573SOL    HW234179   2.582   2.744   3.193 -1.8099 -1.3579  1.0000
 7574SOL     OW34180   0.442   0.829   2.304 -0.1873  0.2912  0.5005
 7574SOL    HW134181   0.473   0.763   2.241  1.5271  2.2323 -0.7119
 7574SOL    HW234182   0.377   0.868   2.246 -0.3464 -1.3487 -0.4441
 7575SOL     OW34183   3.329   4.597  12.920 -0.1091 -0.0478 -0.2756
 7575SOL    HW134184   3.421   4.600  12.947 -0.3408  1.5152  0.3628
 7575SOL    HW234185   3.342   4.620  12.828  2.0810  3.5510  0.9226
 7576SOL     OW34186   2.033   1.089   2.987 -0.3112 -0.2070 -0.2030
 7576SOL    HW134187   1.991   1.024   3.043 -0.6688  0.9359  0.8715
 7576SOL    HW234188   1.961   1.119   2.931 -0.1962  0.9548  0.2713
 7577SOL     OW34189   3.716   0.374   4.970 -0.3048  0.1820 -0.4482
 7577SOL    HW134190   3.711   0.383   5.066  1.1418  2.9504 -0.6178
 7577SOL    HW234191   3.686   0.285   4.956  0.9606 -0.4327  0.6897
 7578SOL     OW34192   1.343   1.784   5.596  0.2400  0.0974  0.0339
 7578SOL    HW134193   1.285   1.760   5.668  1.1089 -0.4589  0.5483
 7578SOL    HW234194   1.379   1.872   5.608 -0.1169  0.3170 -0.5030
 7579SOL     OW34195   1.355   3.173   1.030  0.0516  0.1675 -0.2449
 7579SOL    HW134196   1.401   3.130   0.958  2.7190  1.8779  0.4368
 7579SOL    HW234197   1.434   3.197   1.078 -0.6473  3.0378 -0.5064
 7580SOL     OW34198   4.363   0.254   2.437  0.3587  0.0524  0.0412
 7580SOL    HW134199   4.303   0.248   2.511 -0.9790  0.8376 -0.9715
 7580SOL    HW234200   4.306   0.228   2.364  1.3982  3.1977 -1.8774
 7581SOL     OW34201   0.482   3.654   7.167 -0.1503 -0.2759 -0.4126
 7581SOL    HW134202   0.394   3.627   7.195  0.6290 -1.7345  0.6913
 7581SOL    HW234203   0.504   3.567   7.133 -0.6571 -2.4347  4.7033
 7582SOL     OW34204   1.965   3.890  16.505 -1.0032 -0.4991  0.5372
 7582SOL    HW134205   1.905   3.834  16.456 -0.7882  0.0022 -0.2991
 7582SOL    HW234206   2.026   3.828  16.545 -2.7823 -0.7384  2.8807
 7583SOL     OW34207   2.621   3.354  10.636 -0.0671 -0.1634  0.0846
 7583SOL    HW134208   2.663   3.273  10.609  1.6071 -0.3897  3.3484
 7583SOL    HW234209   2.634   3.337  10.729 -1.6563  0.9802  0.5114
 7584SOL     OW34210   1.956   0.184   8.060 -0.0047 -0.6994  0.0877
 7584SOL    HW134211   1.871   0.144   8.077 -1.0741  1.2303 -0.7436
 7584SOL    HW234212   1.951   0.244   8.134  0.7359 -1.4251  0.7371
 7585SOL     OW34213   1.458   1.347   4.408  0.5785 -0.4301  1.2616
 7585SOL    HW134214   1.554   1.350   4.408  0.5650 -0.0309  2.7753
 7585SOL    HW234215   1.438   1.262   4.368  0.2618 -0.5371  1.6570
 7586SOL     OW34216   4.072   0.023   6.465  0.3169  0.3172  0.4771
 7586SOL    HW134217   4.042   0.037   6.375 -0.5833 -1.1295  0.5604
 7586SOL    HW234218   4.121   0.102   6.488  2.4818  0.0954 -3.2865
 7587SOL     OW34219   4.281   0.337  13.935  0.1065  0.8577  0.3056
 7587SOL    HW134220   4.276   0.364  13.843 -0.7113 -2.7329 -0.6958
 7587SOL    HW234221   4.189   0.322  13.957  0.5820 -0.5896  1.2696
 7588SOL     OW34222   3.724   0.230   7.859 -0.2212 -0.8261  0.0739
 7588SOL    HW134223   3.639   0.188   7.872  0.7177 -1.5030  3.9191
 7588SOL    HW234224   3.756   0.270   7.940  1.1065  0.2309 -0.9683
 7589SOL     OW34225   0.617   0.071   7.033 -0.0061  0.0517  0.3811
 7589SOL    HW134226   0.599   0.059   7.127  2.1564  1.8823  1.0333
 7589SOL    HW234227   0.712   0.070   7.042  0.0487 -1.2220 -0.2997
 7590SOL     OW34228   1.612   3.098   7.611  0.4637  0.0536 -0.1472
 7590SOL    HW134229   1.567   3.111   7.695  0.2917  1.3398 -0.4410
 7590SOL    HW234230   1.702   3.102   7.641  0.1093 -1.7159  1.2042
 7591SOL     OW34231   3.618   0.135   1.406 -0.5180  0.1288  0.1691
 7591SOL    HW134232   3.681   0.154   1.475  0.5469 -0.7372 -0.5730
 7591SOL    HW234233   3.664   0.125   1.323 -0.2164 -2.1152  0.6076
 7592SOL     OW34234   1.168   2.563   2.226  0.4151 -0.0477 -0.3866
 7592SOL    HW134235   1.138   2.578   2.136  1.3155 -0.5525 -0.7682
 7592SOL    HW234236   1.257   2.531   2.213 -1.2937 -4.8933 -0.3374
 7593SOL     OW34237   3.081   4.630   4.033 -0.0783 -0.8018  0.0654
 7593SOL    HW134238   3.111   4.540   4.045  3.3070  0.7357  2.9465
 7593SOL    HW234239   3.033   4.647   4.114  0.2805 -0.5210  0.2217
 7594SOL     OW34240   0.471   0.715   4.386 -0.7789  0.1959  0.2472
 7594SOL    HW134241   0.497   0.646   4.447  0.4553  1.6030  1.3141
 7594SOL    HW234242   0.515   0.789   4.427  3.8080 -2.7190  0.6612
 7595SOL     OW34243   0.218   2.630   6.881  0.1193  0.3032 -0.0649
 7595SOL    HW134244   0.304   2.666   6.858  0.0949  2.5236  3.3328
 7595SOL    HW234245   0.222   2.549   6.831 -1.3065  0.8904 -1.1390
 7596SOL     OW34246   0.013   0.953   4.654  0.1867 -0.2969 -0.0747
 7596SOL    HW134247   0.086   0.912   4.608  0.6318 -0.2558  0.6029
 7596SOL    HW234248   4.700   1.001   4.579  4.4450  1.5357 -0.9470
 7597SOL     OW34249   0.339   0.783   2.850 -0.4449 -0.0458 -0.3732
 7597SOL    HW134250   0.301   0.839   2.918 -1.5231 -0.6378 -0.5002
 7597SOL    HW234251   0.364   0.703   2.898  0.6216 -0.2851 -1.3130
 7598SOL     OW34252   1.824   1.765   8.244 -0.0879 -0.7541 -0.3971
 7598SOL    HW134253   1.895   1.824   8.218  0.0886 -1.8434 -2.3757
 7598SOL    HW234254   1.768   1.822   8.296  2.8243  1.8628 -0.1092
 7599SOL     OW34255   4.108   2.147   7.101  0.0060  0.4161 -0.3447
 7599SOL    HW134256   4.111   2.145   7.197 -1.2257 -2.6075 -0.3564
 7599SOL    HW234257   4.016   2.124   7.086 -0.2853  1.0630  0.4690
 7600SOL     OW34258   0.336   4.179   0.358  0.2807 -0.2338 -0.2650
 7600SOL    HW134259   0.404   4.200   0.294 -0.9639  2.3660 -0.7744
 7600SOL    HW234260   0.349   4.257   0.411 -0.1996 -0.6957  0.5277
 7601SOL     OW34261   1.872   3.337   3.947 -0.1885 -0.6484 -0.2813
 7601SOL    HW134262   1.814   3.400   3.989  0.8738 -0.2773  0.6476
 7601SOL    HW234263   1.810   3.291   3.890  2.6837 -2.2896 -2.1017
 7602SOL     OW34264   3.034   0.159   5.406  0.1922  0.4176 -0.4363
 7602SOL    HW134265   3.070   0.248   5.404  1.8982 -0.2746 -0.4600
 7602SOL    HW234266   2.954   0.177   5.356  0.1695  2.0442  0.1761
 7603SOL     OW34267   2.437   2.839   7.562  0.3250 -0.1760  0.2042
 7603SOL    HW134268   2.389   2.758   7.544 -1.4517  0.9295  0.0315
 7603SOL    HW234269   2.530   2.815   7.560  0.4842  0.4721 -0.0718
 7604SOL     OW34270   1.161   2.306  16.979 -0.0669 -0.0407 -0.5569
 7604SOL    HW134271   1.220   2.375  16.948 -1.4971  0.7834 -1.4071
 7604SOL    HW234272   1.122   2.268  16.901 -0.2460 -1.0064 -0.0061
 7605SOL     OW34273   0.061   0.657   0.660  0.2161  0.3020  0.0160
 7605SOL    HW134274   0.089   0.720   0.726  1.6417 -3.7825  3.3304
 7605SOL    HW234275   0.104   0.580   0.697  3.1169  0.5530 -2.8265
 7606SOL     OW34276   0.818   2.679  13.355 -0.0569  0.0037 -0.1853
 7606SOL    HW134277   0.867   2.600  13.376 -1.6614 -1.1694 -0.9574
 7606SOL    HW234278   0.854   2.708  13.270 -0.6552  0.5837 -0.2382
 7607SOL     OW34279   2.666   3.061  14.913 -0.5926 -0.1957 -0.1553
 7607SOL    HW134280   2.626   3.136  14.869 -0.4249 -0.8480 -1.4104
 7607SOL    HW234281   2.615   3.051  14.994 -1.0634  0.5624 -0.3569
 7608SOL     OW34282   4.168   2.101  11.954  0.0193  0.3187  0.2546
 7608SOL    HW134283   4.210   2.139  12.032  3.3061 -1.7520 -0.5171
 7608SOL    HW234284   4.230   2.029  11.943  1.2657  1.6784 -1.5606
 7609SOL     OW34285   2.276   2.785   5.753  0.1554  0.6010 -0.5875
 7609SOL    HW134286   2.293   2.768   5.660  3.3329  0.5928 -0.0331
 7609SOL    HW234287   2.288   2.695   5.785 -1.0471  0.3249 -0.9367
 7610SOL     OW34288   1.666   2.915   6.413 -0.2911  0.3615  0.1728
 7610SOL    HW134289   1.617   2.897   6.332  1.3628  1.0381 -0.9681
 7610SOL    HW234290   1.723   2.985   6.381 -1.0514  2.0300  2.4440
 7611SOL     OW34291   1.455   3.556   0.226 -0.1019 -0.3913 -0.5830
 7611SOL    HW134292   1.403   3.577   0.148 -0.1551  0.1378 -0.4050
 7611SOL    HW234293   1.407   3.608   0.291 -0.5197 -1.5573  0.0490
 7612SOL     OW34294   3.199   4.523  14.480  0.2524  0.0118 -0.0148
 7612SOL    HW134295   3.199   4.437  14.524 -0.3643 -0.3362 -0.7032
 7612SOL    HW234296   3.198   4.575  14.561 -0.1958 -1.1899  0.7633
 7613SOL     OW34297   1.612   3.695   1.769  0.2668 -0.6945 -0.1814
 7613SOL    HW134298   1.551   3.753   1.725 -0.8571 -1.3420  0.5370
 7613SOL    HW234299   1.664   3.751   1.828  1.0340  0.7566 -2.2394
 7614SOL     OW34300   1.670   3.245   6.476 -0.5727  0.5378 -0.2865
 7614SOL    HW134301   1.756   3.247   6.434 -1.0753  0.2079 -1.3163
 7614SOL    HW234302   1.641   3.336   6.471  0.8949  1.1809  2.6141
 7615SOL     OW34303   3.473   2.304  11.682  0.0026 -0.3939  0.1680
 7615SOL    HW134304   3.491   2.330  11.592  1.9754 -2.6944 -0.0755
 7615SOL    HW234305   3.504   2.383  11.728  2.1447 -1.5510  0.7105
 7616SOL     OW34306   1.990   1.695   4.702 -0.6137  0.2403  0.1644
 7616SOL    HW134307   2.068   1.698   4.757  0.1138 -2.4202 -0.7325
 7616SOL    HW234308   2.013   1.635   4.631  1.9186  2.0951 -0.5508
 7617SOL     OW34309   1.958   3.672   5.402  0.7139  0.6118 -0.0840
 7617SOL    HW134310   1.943   3.578   5.387  2.6950  0.4319 -0.8139
 7617SOL    HW234311   1.902   3.684   5.479  1.7731  0.7817  0.6429
 7618SOL     OW34312   0.750   1.785  10.361  0.1790  0.1458 -0.1044
 7618SOL    HW134313   0.704   1.842  10.300 -1.3126 -2.5262 -1.4741
 7618SOL    HW234314   0.818   1.747  10.305  0.9094  2.7090 -0.9716
 7619SOL     OW34315   3.418   1.186   1.400  0.1971 -0.0612  0.1534
 7619SOL    HW134316   3.459   1.102   1.380  1.0722  0.7073 -1.3184
 7619SOL    HW234317   3.333   1.153   1.427  1.4434 -0.8219  3.1364
 7620SOL     OW34318   2.913   2.039   3.502  0.1212 -0.5429  0.3192
 7620SOL    HW134319   2.901   2.121   3.549 -2.0952 -2.2580  2.7228
 7620SOL    HW234320   2.994   2.063   3.458 -1.0339 -0.7912 -1.9366
 7621SOL     OW34321   3.641   3.618   5.949 -0.5538 -0.0893  0.0697
 7621SOL    HW134322   3.652   3.532   5.909 -0.4243 -0.3373  0.6426
 7621SOL    HW234323   3.709   3.669   5.904  0.6556 -0.5895  1.3020
 7622SOL     OW34324   3.891   2.465   4.479 -0.4711  0.1855  0.3417
 7622SOL    HW134325   3.796   2.450   4.475 -0.0395 -2.4699  0.1448
 7622SOL    HW234326   3.894   2.499   4.569  1.4538  0.6843  0.0865
 7623SOL     OW34327   1.198   2.435   2.922  0.0484 -0.0711  0.3476
 7623SOL    HW134328   1.116   2.396   2.892  0.0691 -1.1267  1.6842
 7623SOL    HW234329   1.221   2.497   2.852 -3.4876  0.6062 -0.2339
 7624SOL     OW34330   0.713   2.709   2.114  0.4382 -0.1454  0.4444
 7624SOL    HW134331   0.658   2.648   2.065  2.8468 -0.6264 -1.6314
 7624SOL    HW234332   0.724   2.782   2.053 -1.0395 -0.1416  0.1758
 7625SOL     OW34333   0.369   1.864   5.137 -0.4844 -0.0541 -0.4791
 7625SOL    HW134334   0.397   1.954   5.121  1.7687 -1.2312 -3.1547
 7625SOL    HW234335   0.323   1.873   5.220  0.1146  1.5113 -0.3069
 7626SOL     OW34336   1.940   4.273   5.892 -0.0743 -0.4152 -0.5584
 7626SOL    HW134337   2.032   4.276   5.868  0.4252 -0.4653  1.3594
 7626SOL    HW234338   1.915   4.181   5.884  1.8075 -0.8249 -1.6183
 7627SOL     OW34339   2.857   0.464  17.654 -0.3067 -0.1863  0.3300
 7627SOL    HW134340   2.914   0.481  17.580 -0.2381  1.6937  0.8206
 7627SOL    HW234341   2.879   0.371  17.658 -0.5979 -0.1917  1.7792
 7628SOL     OW34342   3.092   0.030   1.109 -0.0589  0.0234 -0.2414
 7628SOL    HW134343   3.185   0.008   1.114 -0.0388  0.2279  0.2187
 7628SOL    HW234344   3.091   0.083   1.030 -0.5728  0.8694  0.3400
 7629SOL     OW34345   0.647   2.736   5.120 -0.3261  0.2433 -0.1698
 7629SOL    HW134346   0.597   2.668   5.165  0.3177 -0.6846 -0.8431
 7629SOL    HW234347   0.639   2.732   5.024 -0.3068 -1.1602 -0.1095
 7630SOL     OW34348   2.352   2.450   1.241  0.6812 -0.1234  0.2807
 7630SOL    HW134349   2.421   2.399   1.284  1.5868 -0.2536 -1.2933
 7630SOL    HW234350   2.405   2.530   1.243  0.5060 -0.0431  1.3535
 7631SOL     OW34351   1.998   1.294   4.020 -0.2604 -0.2252 -0.5786
 7631SOL    HW134352   1.992   1.199   4.023  0.0381 -0.2653 -1.2097
 7631SOL    HW234353   1.909   1.321   4.042  0.0681 -0.5591  1.1366
 7632SOL     OW34354   0.027   2.920   8.187 -0.2053  0.2648  0.4918
 7632SOL    HW134355   0.027   2.856   8.115  1.2314 -3.2115  3.5765
 7632SOL    HW234356   4.665   2.898   8.223 -1.1251 -0.6084 -2.1766
 7633SOL     OW34357   4.406   4.668   3.625 -0.0743 -0.1413  0.1281
 7633SOL    HW134358   4.340   4.634   3.685 -2.3342 -0.3259 -2.4437
 7633SOL    HW234359   4.475   4.602   3.631 -2.5810 -2.8036  0.4223
 7634SOL     OW34360   1.056   3.853  11.982 -0.4852 -0.2561  0.3379
 7634SOL    HW134361   0.966   3.884  11.981  0.6170  2.9694  1.0904
 7634SOL    HW234362   1.103   3.925  11.939 -0.2465 -1.3993 -1.3276
 7635SOL     OW34363   2.961   0.052   3.791 -0.2354  0.3890 -0.3280
 7635SOL    HW134364   3.000   4.706   3.845  1.5956  2.6588  1.2886
 7635SOL    HW234365   2.982   0.127   3.847  0.7013  1.2107 -1.7728
 7636SOL     OW34366   3.797   3.871  10.474  0.4846  0.1657  0.2306
 7636SOL    HW134367   3.871   3.931  10.476  0.1536  0.5259  2.4967
 7636SOL    HW234368   3.735   3.931  10.433  1.7159  0.7165 -0.7764
 7637SOL     OW34369   2.560   1.747   2.612 -0.8717  0.8130  0.2983
 7637SOL    HW134370   2.533   1.789   2.693  0.6997 -0.4310  1.4483
 7637SOL    HW234371   2.649   1.777   2.595 -0.6681  0.1323  0.1605
 7638SOL     OW34372   2.942   4.027   7.707  0.2633 -0.5986  0.2507
 7638SOL    HW134373   2.884   3.975   7.652  0.7145 -0.4366 -0.3830
 7638SOL    HW234374   2.881   4.033   7.780 -1.0000  1.2458 -0.9770
 7639SOL     OW34375   0.855   2.290   1.843  0.5855 -0.4335  0.5214
 7639SOL    HW134376   0.785   2.355   1.846 -0.9421 -2.0646  0.2166
 7639SOL    HW234377   0.803   2.224   1.795  4.2091 -0.7070 -3.0152
 7640SOL     OW34378   4.449   1.367  16.843  0.4480 -0.2452  0.3765
 7640SOL    HW134379   4.416   1.431  16.905 -2.2905 -0.0214 -1.3034
 7640SOL    HW234380   4.523   1.342  16.897  1.2115  0.4370 -0.3498
 7641SOL     OW34381   0.404   0.494   6.007 -0.0707  0.0754 -0.1548
 7641SOL    HW134382   0.385   0.578   5.966 -4.4678 -1.0693 -0.5603
 7641SOL    HW234383   0.477   0.460   5.955  0.6282 -0.4465  1.1780
 7642SOL     OW34384   1.366   2.785   2.484 -0.3095  0.6424 -0.4199
 7642SOL    HW134385   1.334   2.863   2.439  0.0755  1.2423  0.3269
 7642SOL    HW234386   1.454   2.789   2.447 -1.1380  0.4421 -2.3722
 7643SOL     OW34387   3.054   1.254   4.804 -0.1499  0.2427 -0.1127
 7643SOL    HW134388   3.028   1.269   4.714  0.1049  0.8662 -0.0863
 7643SOL    HW234389   3.139   1.215   4.783 -0.9531 -1.6571  0.1979
 7644SOL     OW34390   4.457   4.386  11.941 -0.5797 -0.1824  0.1483
 7644SOL    HW134391   4.472   4.317  12.006  0.6657  0.7432  0.8544
 7644SOL    HW234392   4.466   4.336  11.859 -3.4163  2.1144 -1.5311
 7645SOL     OW34393   4.166   2.104   3.545 -0.3005 -0.1930  0.2613
 7645SOL    HW134394   4.116   2.165   3.597  0.2201 -0.2603  0.8348
 7645SOL    HW234395   4.255   2.128   3.571 -0.2540 -0.2682  0.1772
 7646SOL     OW34396   2.972   3.702   6.141 -0.7471 -0.3061 -0.8687
 7646SOL    HW134397   2.986   3.710   6.236 -0.6869 -0.0649 -0.8980
 7646SOL    HW234398   3.043   3.639   6.128 -0.6317  0.0679 -2.0006
 7647SOL     OW34399   4.220   4.058   5.573  0.1248 -0.1366  0.4547
 7647SOL    HW134400   4.147   4.085   5.517  0.7733 -2.6488 -1.5790
 7647SOL    HW234401   4.229   3.964   5.557 -1.7920 -0.0178 -1.3701
 7648SOL     OW34402   0.812   2.828  12.809  0.6226 -0.4539 -0.0955
 7648SOL    HW134403   0.850   2.912  12.838  0.7417 -0.6950  0.4578
 7648SOL    HW234404   0.721   2.830  12.838  0.4695 -1.4528 -0.5084
 7649SOL     OW34405   4.022   0.834   2.551 -0.3401 -0.1998  0.0017
 7649SOL    HW134406   4.109   0.848   2.590  0.2745  0.5548 -1.6492
 7649SOL    HW234407   4.027   0.754   2.500 -2.3189  0.5677 -1.3916
 7650SOL     OW34408   2.057   1.906   6.932  0.8557 -0.7408  0.2630
 7650SOL    HW134409   2.023   1.879   7.017 -0.1374 -1.3309 -0.3306
 7650SOL    HW234410   2.005   1.986   6.924  2.2164  0.1663  0.2653
 7651SOL     OW34411   1.936   1.792  10.696 -0.6154 -0.2683  0.2865
 7651SOL    HW134412   1.988   1.868  10.725  2.5716 -2.1926 -0.4269
 7651SOL    HW234413   1.897   1.767  10.779 -1.1023 -2.0757 -0.4958
 7652SOL     OW34414   2.023   2.259   5.366 -0.4142  0.1687  0.5630
 7652SOL    HW134415   2.040   2.175   5.409 -0.7029 -0.1266  0.0997
 7652SOL    HW234416   2.099   2.306   5.399 -1.7852  2.4513  0.4435
 7653SOL     OW34417   0.638   3.483  11.579  0.0091  0.2028  0.5486
 7653SOL    HW134418   0.637   3.555  11.642  1.6027  0.6016  0.1274
 7653SOL    HW234419   0.638   3.522  11.492 -0.6042 -1.0682 -0.0256
 7654SOL     OW34420   4.254   0.673   3.824 -0.1452  0.6762 -0.3898
 7654SOL    HW134421   4.198   0.675   3.747 -0.8894 -0.0920  0.1316
 7654SOL    HW234422   4.338   0.659   3.781 -0.0147  2.3916 -0.6873
 7655SOL     OW34423   0.937   0.051  17.266 -0.3346  0.3422  0.0213
 7655SOL    HW134424   1.003   0.049  17.336 -1.1419  1.8071  0.8384
 7655SOL    HW234425   0.910   0.141  17.287 -0.3493  0.0375  1.3098
 7656SOL     OW34426   3.028   3.537   6.664  0.1178  0.2476 -0.2653
 7656SOL    HW134427   3.030   3.497   6.751 -0.4118 -2.3574 -1.4637
 7656SOL    HW234428   3.010   3.626   6.694  2.6620  1.1083 -1.3566
 7657SOL     OW34429   1.981   3.811   1.202  0.2221  0.3827 -0.0660
 7657SOL    HW134430   1.900   3.813   1.151 -0.5935  1.6446  1.2875
 7657SOL    HW234431   2.018   3.899   1.190 -0.0451  0.4441 -0.4458
 7658SOL     OW34432   1.338   0.961   2.653 -0.8325  0.4237  0.1116
 7658SOL    HW134433   1.430   0.943   2.634 -1.3043  0.2911 -2.0591
 7658SOL    HW234434   1.334   1.052   2.682 -1.8650 -0.1185  1.6995
 7659SOL     OW34435   3.517   3.054   9.748 -0.0967  0.5668 -0.0173
 7659SOL    HW134436   3.553   3.076   9.834 -0.7929 -1.0368  0.6844
 7659SOL    HW234437   3.426   3.079   9.763 -0.3715 -1.8379  2.3545
 7660SOL     OW34438   3.112   4.445  12.858  0.5245 -0.5953  0.0760
 7660SOL    HW134439   3.077   4.472  12.773  0.9685 -0.0468  0.0697
 7660SOL    HW234440   3.161   4.521  12.890  0.4303 -0.4362 -0.1551
 7661SOL     OW34441   3.061   3.359   4.766  0.3271  0.8048  0.4046
 7661SOL    HW134442   2.971   3.325   4.763  0.1204  1.6859 -2.7718
 7661SOL    HW234443   3.108   3.296   4.711 -0.2221  1.6494 -1.0368
 7662SOL     OW34444   4.425   2.444   0.252 -0.0441 -0.5047 -0.5769
 7662SOL    HW134445   4.478   2.470   0.327  1.2889 -1.2277 -1.2687
 7662SOL    HW234446   4.426   2.525   0.201 -0.6365  0.5023  1.0264
 7663SOL     OW34447   2.362   0.065   1.719 -0.4998 -0.4009 -0.4926
 7663SOL    HW134448   2.411   0.140   1.753 -0.7204 -0.6723  0.3984
 7663SOL    HW234449   2.375   0.002   1.789  2.8371 -2.4900 -3.0007
 7664SOL     OW34450   2.224   2.992   0.304  0.5098 -1.1948 -0.5860
 7664SOL    HW134451   2.279   2.985   0.382 -0.3068 -0.0495  0.0903
 7664SOL    HW234452   2.178   2.908   0.306 -1.2526 -0.1976  1.0891
 7665SOL     OW34453   2.523   3.118   3.362 -0.0290  0.4614 -0.1024
 7665SOL    HW134454   2.565   3.050   3.415 -0.3185  0.7738  0.5269
 7665SOL    HW234455   2.589   3.185   3.343 -0.9578  0.6012 -2.8818
 7666SOL     OW34456   0.756   2.665   2.670  0.1480 -0.3421 -0.5151
 7666SOL    HW134457   0.831   2.606   2.677 -0.1016 -0.6455 -0.3968
 7666SOL    HW234458   0.716   2.650   2.756 -0.0377  2.2778 -0.1379
 7667SOL     OW34459   0.642   1.603   3.406  0.3289 -0.1182 -0.0479
 7667SOL    HW134460   0.717   1.595   3.464 -0.1769  1.1576  0.7776
 7667SOL    HW234461   0.644   1.696   3.383 -1.5726 -0.6285 -2.2891
 7668SOL     OW34462   0.232   2.200   7.703 -0.1192 -0.5868 -0.1306
 7668SOL    HW134463   0.230   2.288   7.741 -0.1197 -0.6159 -0.0639
 7668SOL    HW234464   0.146   2.199   7.660 -1.6260 -0.0590  2.8875
 7669SOL     OW34465   0.818   1.276  12.348 -0.0059  0.4013  0.7432
 7669SOL    HW134466   0.824   1.363  12.310 -1.2090  0.6125  1.0594
 7669SOL    HW234467   0.740   1.295  12.399 -1.9270  0.8561 -2.3597
 7670SOL     OW34468   1.779   3.281  16.202 -0.0503  0.3870 -0.3097
 7670SOL    HW134469   1.725   3.204  16.183  1.1216 -1.1438  2.3834
 7670SOL    HW234470   1.862   3.240  16.227 -0.3666  1.2612  2.2036
 7671SOL     OW34471   3.895   2.173   3.075 -0.3445 -0.5224  0.3097
 7671SOL    HW134472   3.956   2.103   3.053 -0.4175 -0.1561 -1.1187
 7671SOL    HW234473   3.884   2.216   2.990 -2.3361  0.7324  1.2013
 7672SOL     OW34474   2.805   2.304  10.040  0.1062  0.1074  0.2082
 7672SOL    HW134475   2.765   2.240  10.099 -1.4649  0.8256 -0.0762
 7672SOL    HW234476   2.777   2.264   9.958 -1.4484  0.5951  0.5092
 7673SOL     OW34477   4.136   1.762   9.525  0.1691 -0.0362  0.2569
 7673SOL    HW134478   4.200   1.818   9.569 -0.0287 -0.2612  0.8374
 7673SOL    HW234479   4.067   1.828   9.517  2.0059  1.8727  0.2291
 7674SOL     OW34480   0.952   4.055   6.031 -0.2910  0.2669 -0.0090
 7674SOL    HW134481   0.864   4.092   6.027  0.5860  2.2237 -1.1864
 7674SOL    HW234482   0.944   4.011   6.116  2.7633  0.1354  0.2146
 7675SOL     OW34483   1.278   0.801   3.988 -0.3546 -0.1391 -0.4799
 7675SOL    HW134484   1.352   0.813   4.048 -1.8735 -1.3472  1.6251
 7675SOL    HW234485   1.248   0.722   4.033  1.2258 -0.0179  0.7878
 7676SOL     OW34486   3.273   0.253  12.500 -0.0891 -0.3867  0.1241
 7676SOL    HW134487   3.211   0.180  12.497 -0.7541  0.2212 -0.7017
 7676SOL    HW234488   3.301   0.251  12.409 -1.1404  1.2821 -0.2391
 7677SOL     OW34489   0.693   3.303   4.762  0.0326 -0.1118 -0.3862
 7677SOL    HW134490   0.643   3.370   4.717 -1.7457 -1.3556 -0.2593
 7677SOL    HW234491   0.750   3.276   4.690  1.7994  1.7662  0.3079
 7678SOL     OW34492   2.562   3.304   1.300 -0.6316 -0.4270  0.5573
 7678SOL    HW134493   2.562   3.341   1.212  2.3487 -1.4539  0.1414
 7678SOL    HW234494   2.613   3.368   1.350 -0.1680  0.7124 -1.3662
 7679SOL     OW34495   0.312   2.562   3.949  0.2426 -0.3924 -0.2642
 7679SOL    HW134496   0.261   2.509   3.887  0.1003 -0.3993 -0.1416
 7679SOL    HW234497   0.371   2.498   3.989 -2.6599 -1.8252  1.6959
 7680SOL     OW34498   0.097   3.886   6.422 -0.2393 -0.0283 -0.3859
 7680SOL    HW134499   0.028   3.825   6.448  0.0698  0.6092  1.8861
 7680SOL    HW234500   0.052   3.970   6.411 -2.5633 -1.1777  0.2319
 7681SOL     OW34501   3.258   2.642   0.820 -0.1280 -0.1758  0.0894
 7681SOL    HW134502   3.286   2.558   0.857 -1.1080 -1.0750 -1.2114
 7681SOL    HW234503   3.343   2.678   0.797  0.4153 -1.1374  0.5703
 7682SOL     OW34504   2.329   3.024   7.733 -0.0929 -0.0362  0.1437
 7682SOL    HW134505   2.329   2.960   7.661 -0.2379  2.1071 -1.7596
 7682SOL    HW234506   2.330   2.957   7.801 -1.5267  2.0546  2.2268
 7683SOL     OW34507   0.455   1.757   8.306  0.0357 -0.1750  0.6308
 7683SOL    HW134508   0.419   1.678   8.348 -0.1984 -0.5222 -0.2230
 7683SOL    HW234509   0.465   1.821   8.377  1.0356  1.1680 -0.7388
 7684SOL     OW34510   0.543   4.398  13.594 -0.3111  0.4870  0.0413
 7684SOL    HW134511   0.635   4.398  13.567 -0.3498 -0.2477 -0.0789
 7684SOL    HW234512   0.504   4.409  13.508 -1.6043  0.9097  0.6775
 7685SOL     OW34513   3.746   3.176  11.225 -0.0018  0.1313  0.0695
 7685SOL    HW134514   3.836   3.192  11.196 -0.2339 -0.3084 -0.8793
 7685SOL    HW234515   3.753   3.145  11.315 -1.2679  2.5535  1.0168
 7686SOL     OW34516   0.043   1.747  12.818 -0.3673  0.0676 -0.5097
 7686SOL    HW134517   4.687   1.702  12.847  1.2147 -1.0019  2.1938
 7686SOL    HW234518   0.084   1.686  12.757  1.7272  0.3577  0.6269
 7687SOL     OW34519   3.230   1.553   3.108  0.0291  0.0070  0.5638
 7687SOL    HW134520   3.297   1.487   3.093 -0.4146  0.1818 -2.0705
 7687SOL    HW234521   3.229   1.594   3.022 -0.7454  0.5416  0.8216
 7688SOL     OW34522   2.879   0.911  17.317  0.7045  0.2423  0.2414
 7688SOL    HW134523   2.931   0.931  17.239  0.5271 -1.3130 -0.2925
 7688SOL    HW234524   2.861   0.817  17.313 -2.1789  0.7833  0.3786
 7689SOL     OW34525   4.616   4.536   1.386 -0.2155 -0.5108  0.3265
 7689SOL    HW134526   4.617   4.631   1.371  1.4225 -0.3701  1.2822
 7689SOL    HW234527   4.665   4.523   1.467 -0.9052 -1.8980  0.5206
 7690SOL     OW34528   2.052   2.424   7.549  0.3773 -0.0221 -0.0699
 7690SOL    HW134529   2.087   2.509   7.522  0.3901 -0.0461 -0.1284
 7690SOL    HW234530   2.033   2.384   7.465 -1.1140 -0.5805  0.5294
 7691SOL     OW34531   0.653   3.470   6.912 -0.0948 -0.5304 -0.0212
 7691SOL    HW134532   0.683   3.551   6.870 -0.5589 -0.5615 -0.4154
 7691SOL    HW234533   0.592   3.450   6.841 -0.3498  0.7418 -0.1732
 7692SOL     OW34534   2.229   0.733  15.569  0.1256 -0.5162  0.3498
 7692SOL    HW134535   2.198   0.798  15.632  0.5586  0.2495 -0.2166
 7692SOL    HW234536   2.175   0.758  15.494 -0.8240  2.5260  2.0335
 7693SOL     OW34537   1.611   2.453   0.523  0.4001 -0.5640  0.0961
 7693SOL    HW134538   1.610   2.402   0.604 -1.5861 -1.1311 -0.2911
 7693SOL    HW234539   1.665   2.398   0.465  0.0074  1.9917 -2.7007
 7694SOL     OW34540   4.286   2.727   4.237 -0.8301  0.1197 -0.0707
 7694SOL    HW134541   4.282   2.753   4.145 -2.2777 -0.2346 -0.1151
 7694SOL    HW234542   4.292   2.632   4.225 -2.2389  0.1610 -1.1749
 7695SOL     OW34543   4.438   1.178   0.900  0.2446 -0.3631 -0.8222
 7695SOL    HW134544   4.415   1.088   0.879 -0.1139 -0.6571  0.8781
 7695SOL    HW234545   4.444   1.208   0.809 -1.1504 -0.4316 -0.9393
 7696SOL     OW34546   3.786   1.896   0.342 -0.7059 -0.7531  0.2404
 7696SOL    HW134547   3.844   1.929   0.273  0.3403 -0.6094  1.1937
 7696SOL    HW234548   3.699   1.916   0.308  0.0773 -1.9739 -2.5396
 7697SOL     OW34549   1.126   2.048   1.614 -0.3750  0.2362 -0.2678
 7697SOL    HW134550   1.121   2.140   1.591 -1.8525  0.4289  0.8107
 7697SOL    HW234551   1.213   2.018   1.588 -0.8073 -1.8443  0.6709
 7698SOL     OW34552   3.848   0.952  14.837 -0.2539  0.5505  0.4554
 7698SOL    HW134553   3.939   0.923  14.834 -0.7162 -0.8022 -0.4321
 7698SOL    HW234554   3.842   0.997  14.753  0.1377 -1.2007 -0.4991
 7699SOL     OW34555   0.207   0.110   8.989 -0.0319 -0.5133  0.0536
 7699SOL    HW134556   0.124   0.157   8.986  0.4452  0.2938 -0.4768
 7699SOL    HW234557   0.260   0.173   8.940 -2.1990  0.6246 -0.8102
 7700SOL     OW34558   1.446   1.085   5.236  0.1512  0.5597  0.9072
 7700SOL    HW134559   1.482   1.116   5.320  0.8678  1.4152  0.2851
 7700SOL    HW234560   1.391   1.160   5.214  0.6432  0.7880  0.4674
 7701SOL     OW34561   4.090   3.351  12.681 -0.0840 -0.0372  0.0586
 7701SOL    HW134562   4.143   3.278  12.648  0.6490 -0.2109  1.6622
 7701SOL    HW234563   4.159   3.392  12.732 -0.1090 -0.6252  0.5670
 7702SOL     OW34564   3.819   0.251   1.580 -0.0029 -0.1058  0.1294
 7702SOL    HW134565   3.834   0.345   1.573 -0.0797 -0.1013  0.0153
 7702SOL    HW234566   3.900   0.214   1.545 -0.3912 -0.5891 -0.2681
 7703SOL     OW34567   2.441   1.800   2.853  0.1775  0.5994  0.1867
 7703SOL    HW134568   2.465   1.769   2.940 -2.4566 -1.5951  0.1273
 7703SOL    HW234569   2.354   1.837   2.870  0.2480  0.5470  0.6739
 7704SOL     OW34570   0.262   3.179   4.610  0.5069  0.2588 -0.0565
 7704SOL    HW134571   0.195   3.188   4.542 -0.0550  0.7781  0.5715
 7704SOL    HW234572   0.299   3.264   4.586  0.3591  0.5150  0.6104
 7705SOL     OW34573   4.023   2.289   2.224  0.7082 -0.8708 -0.2053
 7705SOL    HW134574   4.058   2.296   2.313 -0.7181 -1.0581  0.3746
 7705SOL    HW234575   4.102   2.321   2.181  0.7104 -1.8556 -0.9223
 7706SOL     OW34576   0.792   0.849  11.938 -0.0184 -0.3984  0.3342
 7706SOL    HW134577   0.811   0.800  11.858  1.7296  0.4674  0.2365
 7706SOL    HW234578   0.810   0.773  11.993  0.0241 -0.6827 -0.0671
 7707SOL     OW34579   4.316   4.334   9.615 -0.2505  0.4560  0.0510
 7707SOL    HW134580   4.237   4.288   9.644  0.3409 -1.1099 -0.7883
 7707SOL    HW234581   4.360   4.265   9.564  0.4949  0.1175  1.1439
 7708SOL     OW34582   1.943   1.000   3.624  0.2132  0.3253  0.3091
 7708SOL    HW134583   1.850   1.024   3.620 -0.2150 -1.2557  0.4914
 7708SOL    HW234584   1.973   1.005   3.533  2.1522  0.8773  0.9929
 7709SOL     OW34585   4.131   1.673   3.708  0.1858  0.2046  0.2939
 7709SOL    HW134586   4.144   1.661   3.802 -0.7776  0.6938  0.4910
 7709SOL    HW234587   4.164   1.587   3.683 -0.2530  0.4066 -0.9728
 7710SOL     OW34588   3.077   0.435   1.614 -0.2377 -0.2637 -0.7202
 7710SOL    HW134589   3.105   0.343   1.621 -0.5978 -0.2486  0.9652
 7710SOL    HW234590   3.159   0.480   1.636  0.4032 -1.6404 -0.2249
 7711SOL     OW34591   1.437   3.681   7.043 -0.3123 -0.3765 -0.2391
 7711SOL    HW134592   1.423   3.670   7.137  1.2862 -0.4019  0.0013
 7711SOL    HW234593   1.511   3.621   7.030 -1.3610 -2.1952  2.3854
 7712SOL     OW34594   1.423   0.536   2.541 -0.4654 -0.4008  1.3083
 7712SOL    HW134595   1.457   0.467   2.484  0.5970 -0.4683  2.0125
 7712SOL    HW234596   1.328   0.532   2.534 -0.2976 -2.4313  0.1783
 7713SOL     OW34597   3.528   4.327   3.139 -0.3491  0.0671 -0.3759
 7713SOL    HW134598   3.566   4.275   3.209 -0.7200 -2.5804 -2.1658
 7713SOL    HW234599   3.519   4.410   3.187 -2.0502  0.0802 -0.7160
 7714SOL     OW34600   1.888   2.798   0.231 -0.3243  0.3117  0.4761
 7714SOL    HW134601   1.980   2.802   0.257  0.2303  0.4574 -1.4972
 7714SOL    HW234602   1.840   2.818   0.311 -2.6581  0.5221 -0.9639
 7715SOL     OW34603   4.289   2.841   1.963 -0.8490  0.1705 -0.2778
 7715SOL    HW134604   4.376   2.806   1.942 -0.4020  1.4135 -0.4940
 7715SOL    HW234605   4.236   2.770   1.998 -0.9022  0.2562 -0.1853
 7716SOL     OW34606   0.528   1.015  10.020 -0.1015 -0.5864  0.0947
 7716SOL    HW134607   0.536   1.093  10.076  0.3268 -0.7127  0.2108
 7716SOL    HW234608   0.616   0.983  10.040  0.1333 -0.1400 -0.2307
 7717SOL     OW34609   0.268   1.519   5.326  0.0736 -0.1523 -0.3219
 7717SOL    HW134610   0.296   1.599   5.283 -0.1477 -0.2832 -0.7184
 7717SOL    HW234611   0.175   1.516   5.303  0.2060  1.2785 -1.0428
 7718SOL     OW34612   0.417   0.466   2.720 -0.5301  0.0189  0.3272
 7718SOL    HW134613   0.399   0.390   2.664 -1.2119  0.6847 -0.3613
 7718SOL    HW234614   0.511   0.448   2.721 -0.6907 -0.7739  1.7592
 7719SOL     OW34615   1.364   3.439  10.067 -0.7818 -0.0856 -0.6299
 7719SOL    HW134616   1.449   3.429  10.111 -0.0285  0.7069 -1.9219
 7719SOL    HW234617   1.401   3.482   9.990  1.4904  0.6846  0.9008
 7720SOL     OW34618   4.285   3.330   3.766 -0.2308 -0.8742 -0.1282
 7720SOL    HW134619   4.246   3.278   3.836 -0.3609  1.1423  1.3132
 7720SOL    HW234620   4.205   3.378   3.740  0.5122  1.0389  1.1205
 7721SOL     OW34621   2.554   0.724   9.529 -0.3343 -0.3532  0.6534
 7721SOL    HW134622   2.481   0.668   9.554 -0.8997 -0.0116 -0.2156
 7721SOL    HW234623   2.630   0.674   9.557 -0.2337 -0.4402  0.2279
 7722SOL     OW34624   3.552   2.333  13.879 -0.7904  0.2943 -0.3406
 7722SOL    HW134625   3.592   2.416  13.852 -0.3624  0.4312  0.7214
 7722SOL    HW234626   3.620   2.271  13.853  0.2331  0.2796  2.3573
 7723SOL     OW34627   3.719   2.613   0.673  0.2488 -0.2061  0.2642
 7723SOL    HW134628   3.712   2.518   0.668  1.4346 -0.3889  1.9802
 7723SOL    HW234629   3.643   2.645   0.721 -0.7566 -3.3923  0.7794
 7724SOL     OW34630   4.587   0.451   7.051  0.5304  0.1283 -0.4852
 7724SOL    HW134631   4.576   0.357   7.032 -0.6374  0.3085 -0.6643
 7724SOL    HW234632   4.653   0.453   7.120  0.4272 -0.2775 -0.3704
 7725SOL     OW34633   0.191   3.423  11.232  0.4468  0.4773 -0.2316
 7725SOL    HW134634   0.134   3.352  11.262  0.6660  0.5271  0.3029
 7725SOL    HW234635   0.132   3.497  11.245 -0.3045 -0.0702 -0.5068
 7726SOL     OW34636   1.932   4.426   0.349  0.0430 -0.2191  0.2691
 7726SOL    HW134637   1.942   4.478   0.269  1.8064 -0.2578  0.4544
 7726SOL    HW234638   1.837   4.419   0.359  0.0598  1.9096  2.1469
 7727SOL     OW34639   2.012   4.547   1.047  0.0833  0.5363  0.0543
 7727SOL    HW134640   2.053   4.625   1.084  0.8757 -0.0132  0.3244
 7727SOL    HW234641   1.919   4.554   1.068 -0.4763  2.6113 -3.0032
 7728SOL     OW34642   1.472   3.277   8.067 -0.1660 -0.0397  0.6197
 7728SOL    HW134643   1.548   3.325   8.102 -0.9440  0.0352  2.2097
 7728SOL    HW234644   1.457   3.352   8.009  3.2814  0.8558  0.8658
 7729SOL     OW34645   2.314   1.304  12.280  0.4351 -0.4182  0.2446
 7729SOL    HW134646   2.251   1.272  12.345 -1.0021 -0.5083 -1.1970
 7729SOL    HW234647   2.257   1.376  12.252 -1.2316 -1.9406 -0.2210
 7730SOL     OW34648   1.105   4.066   4.344  0.2150 -0.4110 -0.0513
 7730SOL    HW134649   1.075   3.975   4.348  0.5944 -0.5329  0.0327
 7730SOL    HW234650   1.200   4.062   4.330 -0.0291 -0.3275 -1.7639
 7731SOL     OW34651   3.347   2.335   4.223  0.9368 -0.2697 -0.2200
 7731SOL    HW134652   3.276   2.354   4.161 -1.5193  0.5651  2.8396
 7731SOL    HW234653   3.322   2.385   4.300  0.2407 -0.5012 -0.2951
 7732SOL     OW34654   2.021   4.311  11.207  0.5026 -0.4285 -0.1879
 7732SOL    HW134655   2.003   4.405  11.201 -0.0716 -0.4821  0.9382
 7732SOL    HW234656   1.977   4.276  11.129  1.1205 -0.5778 -0.4741
 7733SOL     OW34657   0.326   0.969  13.877  0.1579  0.8885  0.0581
 7733SOL    HW134658   0.324   0.962  13.782  0.7968 -3.3328  0.3427
 7733SOL    HW234659   0.419   0.980  13.897 -0.3518 -1.2635  3.7215
 7734SOL     OW34660   2.485   1.513  13.026 -0.5885 -0.1090 -0.4096
 7734SOL    HW134661   2.440   1.436  13.058  1.3976 -1.3540 -0.6093
 7734SOL    HW234662   2.564   1.481  12.982 -0.4366  0.2211 -0.3847
 7735SOL     OW34663   2.219   1.237   3.380 -0.4193  0.3069 -0.1024
 7735SOL    HW134664   2.165   1.309   3.413 -0.0009  1.0428 -1.0144
 7735SOL    HW234665   2.257   1.203   3.461 -4.1063 -0.3151  1.3506
 7736SOL     OW34666   3.221   1.118   6.818  0.0094 -0.0886  0.3857
 7736SOL    HW134667   3.239   1.184   6.886 -0.5315 -0.8277  1.2505
 7736SOL    HW234668   3.234   1.177   6.744 -0.7978  0.0538  0.3600
 7737SOL     OW34669   1.307   2.041  14.817  0.3025 -0.1911  0.1746
 7737SOL    HW134670   1.264   2.120  14.851  0.7114 -0.0235  0.2959
 7737SOL    HW234671   1.378   2.076  14.763 -0.9993 -0.8031 -1.9752
 7738SOL     OW34672   0.240   1.974  13.618  0.0337 -0.5380  0.6121
 7738SOL    HW134673   0.280   2.035  13.555  0.3735 -2.1414 -0.7206
 7738SOL    HW234674   0.174   2.029  13.659 -0.5350 -0.4733 -0.3977
 7739SOL     OW34675   4.218   2.263   7.345 -0.2070  0.2118  0.9064
 7739SOL    HW134676   4.250   2.296   7.429 -2.1387  0.6438  1.4806
 7739SOL    HW234677   4.131   2.233   7.373 -0.5575 -0.1278 -0.5372
 7740SOL     OW34678   1.688   3.123  10.172  0.0914  0.3869  0.3180
 7740SOL    HW134679   1.760   3.078  10.129 -0.1898 -0.9301  1.2128
 7740SOL    HW234680   1.662   3.058  10.238  0.9766  0.4190  0.6876
 7741SOL     OW34681   0.060   1.097   0.912 -0.1371 -0.4166  0.1465
 7741SOL    HW134682   0.135   1.157   0.917  0.9913 -1.7522 -0.9825
 7741SOL    HW234683   0.022   1.125   0.995 -0.0866  0.2445 -0.0526
 7742SOL     OW34684   4.484   2.761   4.788 -0.0762 -0.0281 -0.2356
 7742SOL    HW134685   4.549   2.698   4.818 -0.7408  0.3032  1.9304
 7742SOL    HW234686   4.532   2.808   4.720 -0.5608 -1.3912 -1.5236
 7743SOL     OW34687   3.828   4.173   8.562 -0.0895 -0.0214  0.0663
 7743SOL    HW134688   3.821   4.267   8.577  2.4360  0.0656  0.5756
 7743SOL    HW234689   3.764   4.128   8.618 -1.8204  0.3771 -1.6076
 7744SOL     OW34690   2.429   4.401   2.624  0.4370 -0.0113 -0.3047
 7744SOL    HW134691   2.405   4.466   2.690  0.5708 -2.5772  2.2816
 7744SOL    HW234692   2.522   4.381   2.631  0.3353 -0.2731  0.3467
 7745SOL     OW34693   1.053   3.741   8.889 -0.5528  0.1290 -0.0305
 7745SOL    HW134694   1.063   3.660   8.939 -2.4208 -0.1811 -0.1745
 7745SOL    HW234695   1.133   3.742   8.836  0.1613  0.3704  1.0472
 7746SOL     OW34696   4.623   3.071   4.888 -0.2633  0.2503  0.0916
 7746SOL    HW134697   4.612   3.037   4.977 -2.3561 -0.9166 -0.6107
 7746SOL    HW234698   4.571   3.151   4.887 -0.9352 -0.1859 -0.6316
 7747SOL     OW34699   4.138   3.595   9.480  0.6941 -0.7489 -0.3327
 7747SOL    HW134700   4.101   3.674   9.520 -1.3614 -1.4987 -0.7452
 7747SOL    HW234701   4.224   3.634   9.464  1.6591 -3.2722 -1.3382
 7748SOL     OW34702   4.292   3.988   9.174 -0.0084  0.0514  0.2269
 7748SOL    HW134703   4.228   4.058   9.182  0.2410  0.3583 -0.4011
 7748SOL    HW234704   4.235   3.912   9.184  2.7236 -1.9901  0.5544
 7749SOL     OW34705   0.052   0.353   8.394  0.2325 -0.4709 -0.0072
 7749SOL    HW134706   0.029   0.286   8.458 -2.4476  2.5981  2.2477
 7749SOL    HW234707   0.098   0.418   8.446 -1.6659  0.6965  0.1989
 7750SOL     OW34708   2.680   1.886   3.246  0.1419 -0.5378 -0.1225
 7750SOL    HW134709   2.605   1.912   3.300  0.1219 -0.0918 -0.3622
 7750SOL    HW234710   2.636   1.826   3.186  0.3258 -0.0134 -0.7770
 7751SOL     OW34711   3.327   0.320   0.440 -0.3002  0.5305 -0.2728
 7751SOL    HW134712   3.391   0.292   0.507 -1.4094 -1.3655 -0.0103
 7751SOL    HW234713   3.372   0.278   0.366  0.9067  2.2756 -0.5241
 7752SOL     OW34714   2.051   1.787   5.056  0.1189  0.4174 -0.0568
 7752SOL    HW134715   2.017   1.876   5.044  1.0074  0.5754 -1.4465
 7752SOL    HW234716   2.119   1.794   5.124 -1.2434 -0.1233  1.3437
 7753SOL     OW34717   1.192   3.367   2.400  0.0063 -0.2699  0.5734
 7753SOL    HW134718   1.246   3.422   2.457 -1.3395  1.0591  0.5862
 7753SOL    HW234719   1.131   3.435   2.371  0.3780  0.0095  0.4502
 7754SOL     OW34720   0.484   3.994   1.658  0.4185  0.7778 -0.2119
 7754SOL    HW134721   0.533   4.075   1.666  0.6814  0.5006  1.0147
 7754SOL    HW234722   0.412   4.029   1.606  1.3221  0.7913 -1.4467
 7755SOL     OW34723   1.399   1.317  12.429 -0.1540  0.3141  0.1476
 7755SOL    HW134724   1.458   1.336  12.502  0.8268 -3.9066  0.4528
 7755SOL    HW234725   1.446   1.254  12.375 -0.0513 -1.0185  1.7618
 7756SOL     OW34726   3.221   0.721   7.946 -0.1844  0.0757  0.5826
 7756SOL    HW134727   3.247   0.719   7.854  1.0494  1.2237  0.9034
 7756SOL    HW234728   3.200   0.631   7.973 -2.3513  0.1015 -1.1034
 7757SOL     OW34729   2.359   0.199   2.357 -0.2074  0.1423  0.1773
 7757SOL    HW134730   2.453   0.210   2.342 -0.5937  1.1659 -1.5670
 7757SOL    HW234731   2.326   0.248   2.282 -2.5776 -1.7996 -0.0450
 7758SOL     OW34732   1.686   2.321   9.094 -0.2361 -0.2729  0.5441
 7758SOL    HW134733   1.707   2.240   9.141 -3.1818 -2.6700 -2.2817
 7758SOL    HW234734   1.729   2.374   9.161  0.8766 -0.8388  0.2830
 7759SOL     OW34735   4.489   1.641   5.007 -0.0827 -0.2389 -0.5677
 7759SOL    HW134736   4.487   1.720   5.061  1.2500 -0.1062 -0.7287
 7759SOL    HW234737   4.446   1.671   4.927  1.7808  0.1880 -1.4174
 7760SOL     OW34738   2.282   0.523  13.951  0.4138 -0.6215 -0.6242
 7760SOL    HW134739   2.313   0.526  14.041  0.0060  1.2097 -0.5321
 7760SOL    HW234740   2.211   0.460  13.960  0.5865 -0.4424  1.8263
 7761SOL     OW34741   0.518   4.606   2.754 -0.2558  0.1058 -0.1549
 7761SOL    HW134742   0.439   4.639   2.710 -0.1443  2.3469  1.3246
 7761SOL    HW234743   0.482   4.518   2.768  1.4406 -0.6968 -0.7486
 7762SOL     OW34744   3.330   0.965   8.902 -0.2200  0.5177  0.4730
 7762SOL    HW134745   3.239   0.981   8.926 -0.0137 -0.3520  1.8490
 7762SOL    HW234746   3.350   0.893   8.962  3.7035 -0.5913 -2.1403
 7763SOL     OW34747   1.802   4.181   6.303 -0.1890  0.0282  0.2744
 7763SOL    HW134748   1.853   4.137   6.370 -2.2653  0.7611  2.3321
 7763SOL    HW234749   1.780   4.110   6.242 -0.3628  0.0490  0.3131
 7764SOL     OW34750   0.542   0.559  11.143  0.3345 -0.3659  0.4028
 7764SOL    HW134751   0.527   0.608  11.063 -0.6260  0.2587  0.9606
 7764SOL    HW234752   0.456   0.532  11.176  0.7029  0.0547  1.7156
 7765SOL     OW34753   3.057   2.398   3.398 -0.1869 -0.6049 -0.0909
 7765SOL    HW134754   3.143   2.421   3.435 -0.2815 -1.8194  0.8761
 7765SOL    HW234755   3.020   2.352   3.473 -0.9679  0.0399 -0.0806
 7766SOL     OW34756   2.024   2.240   9.059  0.0576 -0.0696  0.3419
 7766SOL    HW134757   2.091   2.282   9.113  1.7855 -2.2227 -0.1128
 7766SOL    HW234758   1.947   2.291   9.082 -0.4839  0.4323 -2.5059
 7767SOL     OW34759   0.163   3.388  14.463 -0.3683  0.3231 -0.7782
 7767SOL    HW134760   0.251   3.386  14.499 -0.3025 -1.7991 -1.1000
 7767SOL    HW234761   0.116   3.421  14.540 -0.4887 -2.0056  0.1392
 7768SOL     OW34762   1.225   1.731   3.200  0.2963  0.2274 -0.4070
 7768SOL    HW134763   1.207   1.637   3.212  0.5004  0.0697 -1.2957
 7768SOL    HW234764   1.140   1.774   3.204  0.1577 -0.2047  1.5809
 7769SOL     OW34765   2.658   2.870   5.077  0.5991 -0.2469  0.3413
 7769SOL    HW134766   2.640   2.951   5.029  1.7038 -0.7057 -0.8508
 7769SOL    HW234767   2.696   2.896   5.161  1.0580  1.2492 -0.3213
 7770SOL     OW34768   2.598   2.097   8.166 -0.0820  0.9161  0.2150
 7770SOL    HW134769   2.548   2.058   8.238  1.9867 -5.5286 -1.8489
 7770SOL    HW234770   2.647   2.164   8.214 -1.1245  1.5610  0.3639
 7771SOL     OW34771   0.496   2.106   5.174 -0.3064  0.5022  0.0855
 7771SOL    HW134772   0.442   2.180   5.202  1.3313  2.2460 -1.3970
 7771SOL    HW234773   0.576   2.149   5.146  0.1067 -0.0878  0.3647
 7772SOL     OW34774   4.534   0.127   3.457  0.3709  0.5028  0.0695
 7772SOL    HW134775   4.462   0.091   3.508  0.7025 -0.3312 -0.0492
 7772SOL    HW234776   4.608   0.082   3.498  0.7875  1.0899 -0.0303
 7773SOL     OW34777   1.158   4.578   7.486  0.0821 -0.0786 -0.3143
 7773SOL    HW134778   1.070   4.599   7.518 -0.2318 -3.5680  1.1599
 7773SOL    HW234779   1.155   4.625   7.403 -1.0255  1.5159  0.6351
 7774SOL     OW34780   2.018   3.735   2.162 -0.1070  0.3778  0.1937
 7774SOL    HW134781   1.988   3.728   2.252  0.4186 -0.7686  0.2771
 7774SOL    HW234782   2.085   3.666   2.161  0.6876  1.1410  0.9256
 7775SOL     OW34783   1.563   3.458   9.151 -0.0528  0.7210  0.0282
 7775SOL    HW134784   1.558   3.553   9.144 -1.5153  0.5774 -0.8303
 7775SOL    HW234785   1.471   3.433   9.153  0.1399  0.0147  0.0748
 7776SOL     OW34786   2.755   1.201   8.536  0.0564 -0.4202  0.2645
 7776SOL    HW134787   2.783   1.253   8.461  0.0776 -1.3957 -0.4159
 7776SOL    HW234788   2.782   1.110   8.524  1.0635 -0.3107  1.6544
 7777SOL     OW34789   3.352   3.653   4.555  0.0248 -0.1175 -0.1908
 7777SOL    HW134790   3.327   3.726   4.498 -4.3129 -2.1899 -0.9196
 7777SOL    HW234791   3.423   3.694   4.604 -0.6397  2.8904 -1.6980
 7778SOL     OW34792   3.591   2.827   3.640  0.0332 -0.3053 -0.3104
 7778SOL    HW134793   3.617   2.883   3.713 -0.0661 -1.0761  0.3166
 7778SOL    HW234794   3.632   2.863   3.561 -0.1794 -1.5987 -1.0154
 7779SOL     OW34795   1.358   2.561   8.510 -0.2164  0.2820  0.2438
 7779SOL    HW134796   1.319   2.474   8.500  2.6399 -1.1175  1.4834
 7779SOL    HW234797   1.437   2.549   8.561  0.9323 -1.8376 -2.0798
 7780SOL     OW34798   2.638   1.985   2.324 -0.3647 -0.3480  0.0850
 7780SOL    HW134799   2.616   1.918   2.259 -1.3401 -0.3644  0.4314
 7780SOL    HW234800   2.705   1.939   2.373  1.4888  1.2037 -0.9869
 7781SOL     OW34801   0.678   4.241   2.666  0.3805 -0.0667  0.2462
 7781SOL    HW134802   0.764   4.256   2.626  0.7558  0.4688  1.2676
 7781SOL    HW234803   0.683   4.308   2.733  0.4681  0.9234 -0.7445
 7782SOL     OW34804   0.463   2.223   2.712  0.2489  0.5909 -0.3180
 7782SOL    HW134805   0.502   2.234   2.798 -0.2174 -2.3425  0.2547
 7782SOL    HW234806   0.466   2.128   2.714 -2.9834  0.4277 -3.1671
 7783SOL     OW34807   3.092   3.265   6.132 -0.1037 -0.5445 -0.2171
 7783SOL    HW134808   3.159   3.251   6.200 -0.3106  0.1849  0.1352
 7783SOL    HW234809   3.114   3.212   6.055  1.9907  1.5687 -1.0833
 7784SOL     OW34810   0.150   3.920   2.463 -0.5302  0.1340 -0.1826
 7784SOL    HW134811   0.138   3.826   2.448  2.0106 -0.6082  2.3053
 7784SOL    HW234812   0.229   3.941   2.411 -0.0530 -0.5181  0.2824
 7785SOL     OW34813   2.469   2.464  15.859 -0.2436  0.0932  0.3656
 7785SOL    HW134814   2.526   2.480  15.784 -2.0984 -0.5231 -1.1546
 7785SOL    HW234815   2.382   2.470  15.820 -0.1375 -0.3589  0.0670
 7786SOL     OW34816   2.347   2.011   4.194 -0.0660  0.6237 -0.2023
 7786SOL    HW134817   2.299   1.935   4.228 -0.1377  1.7461  2.2662
 7786SOL    HW234818   2.428   1.978   4.155  1.3541  1.9100  1.6382
 7787SOL     OW34819   0.216   2.235   8.544  0.3783 -0.0879 -0.0540
 7787SOL    HW134820   0.242   2.216   8.634  0.0914 -1.7522 -0.3136
 7787SOL    HW234821   0.296   2.278   8.515 -0.5578  0.5251 -1.7747
 7788SOL     OW34822   1.564   2.579   5.870 -0.0142  0.3323  1.2689
 7788SOL    HW134823   1.657   2.600   5.870 -0.0840  0.5919 -0.5338
 7788SOL    HW234824   1.570   2.484   5.859 -0.8651  0.4729 -0.4369
 7789SOL     OW34825   0.706   0.655   0.364 -0.4102 -0.2077 -0.8088
 7789SOL    HW134826   0.785   0.623   0.321 -0.6753  1.6199 -2.6688
 7789SOL    HW234827   0.747   0.701   0.437  1.1168 -0.4329 -1.5229
 7790SOL     OW34828   3.335   3.900   9.213 -0.0745 -0.2568  0.2466
 7790SOL    HW134829   3.263   3.849   9.250  0.3919 -0.5092  0.8038
 7790SOL    HW234830   3.282   3.941   9.144 -1.3675  0.4655  1.6614
 7791SOL     OW34831   0.889   3.147   5.697  0.7632  0.0823  0.4706
 7791SOL    HW134832   0.855   3.235   5.684 -2.1432 -1.2757 -1.3403
 7791SOL    HW234833   0.942   3.130   5.619 -0.1867 -0.3256 -0.0966
 7792SOL     OW34834   4.013   4.171  10.703  0.3830 -0.1220 -0.1203
 7792SOL    HW134835   3.998   4.144  10.613  0.3351  0.9488 -0.4394
 7792SOL    HW234836   4.047   4.093  10.746 -0.2444 -0.6140 -0.5061
 7793SOL     OW34837   4.048   3.160   5.378 -0.1848 -0.1160  0.1443
 7793SOL    HW134838   4.117   3.226   5.386  0.0328 -0.2938 -0.3281
 7793SOL    HW234839   4.097   3.079   5.388  1.8823  1.0636 -0.5499
 7794SOL     OW34840   2.043   1.257  10.992  0.4658 -0.5595 -0.8067
 7794SOL    HW134841   2.008   1.313  10.924 -0.9171  0.5585  0.8107
 7794SOL    HW234842   2.137   1.268  10.982  0.4431  2.3416  1.9082
 7795SOL     OW34843   1.888   2.964   1.272 -0.6121  0.4839 -0.2568
 7795SOL    HW134844   1.803   2.994   1.241 -0.1631  3.2704  1.2132
 7795SOL    HW234845   1.927   3.036   1.322  1.3396 -0.6260 -0.1840
 7796SOL     OW34846   0.844   3.037   6.375  0.3665  0.3482  0.5074
 7796SOL    HW134847   0.929   3.030   6.331  1.3771 -0.9504  2.6696
 7796SOL    HW234848   0.805   3.110   6.326  1.8382  0.9405  0.2113
 7797SOL     OW34849   2.605   2.246   1.028  0.5441 -0.5490 -0.0911
 7797SOL    HW134850   2.671   2.312   1.008 -0.6430  0.6902  0.1089
 7797SOL    HW234851   2.550   2.247   0.951  1.4757 -0.5452 -0.7603
 7798SOL     OW34852   0.722   1.325   6.442 -0.1857 -0.3342  0.8790
 7798SOL    HW134853   0.639   1.325   6.489 -0.3234  1.2729  0.6564
 7798SOL    HW234854   0.718   1.246   6.389  0.9653  0.2023 -0.0017
 7799SOL     OW34855   3.995   4.633  11.944 -0.0623 -0.2430 -0.0670
 7799SOL    HW134856   3.938   4.609  11.872  1.6575  1.0289 -1.8590
 7799SOL    HW234857   3.926   4.639  12.010 -1.7739 -2.5628 -1.6695
 7800SOL     OW34858   3.214   4.084   8.169 -0.5150 -0.2799  0.1075
 7800SOL    HW134859   3.310   4.076   8.163 -0.6121 -1.0044 -0.4810
 7800SOL    HW234860   3.178   4.055   8.085  1.0124 -1.6764 -0.0635
 7801SOL     OW34861   0.170   4.190   4.227  0.5621  0.5015  0.1048
 7801SOL    HW134862   0.262   4.214   4.238  0.0279  1.8148  1.7423
 7801SOL    HW234863   0.166   4.104   4.270  1.5850 -0.2137 -1.2155
 7802SOL     OW34864   0.423   2.411  11.079 -0.4036 -0.7261  0.0742
 7802SOL    HW134865   0.444   2.360  11.001  0.8161 -1.4152  0.8509
 7802SOL    HW234866   0.374   2.482  11.038 -0.4071 -0.2793  0.8424
 7803SOL     OW34867   1.491   3.453  17.510  0.9839  0.1938  0.2570
 7803SOL    HW134868   1.473   3.376  17.457 -2.0299  1.9149 -1.2143
 7803SOL    HW234869   1.511   3.408  17.592 -2.3075 -0.3295  0.7610
 7804SOL     OW34870   3.178   3.763   5.050  0.5837 -0.1982  0.1556
 7804SOL    HW134871   3.229   3.843   5.043  2.6317 -1.4907  0.2523
 7804SOL    HW234872   3.179   3.731   4.960 -2.0192  0.2753 -0.0394
 7805SOL     OW34873   3.491   4.099   2.817  0.0618 -0.4302  0.0603
 7805SOL    HW134874   3.542   4.030   2.860  0.9198  0.2204  0.0917
 7805SOL    HW234875   3.458   4.042   2.748 -1.1675  1.2193 -0.7101
 7806SOL     OW34876   2.409   0.640   3.018  0.1825  0.3291  0.7564
 7806SOL    HW134877   2.495   0.599   3.024  1.0624  2.2230  0.9749
 7806SOL    HW234878   2.418   0.718   3.073 -0.9743  3.0939 -2.9458
 7807SOL     OW34879   3.772   4.221   3.700  0.2371  0.2265 -0.0624
 7807SOL    HW134880   3.696   4.194   3.752 -1.3093  1.9054 -1.4386
 7807SOL    HW234881   3.790   4.313   3.722  1.4227 -0.6253  2.4101
 7808SOL     OW34882   2.402   4.037  14.643  0.1300  0.1400 -0.0942
 7808SOL    HW134883   2.419   3.962  14.700 -0.9196  0.0574  0.1194
 7808SOL    HW234884   2.306   4.036  14.642  0.1274 -1.1034  1.3650
 7809SOL     OW34885   2.216   2.437   1.938 -0.3674 -0.7426  0.0169
 7809SOL    HW134886   2.131   2.479   1.931  0.1151  0.2039 -0.0909
 7809SOL    HW234887   2.183   2.361   1.986  0.1183 -0.2065  1.1922
 7810SOL     OW34888   3.925   2.187   2.743  0.0036  0.3405 -0.0765
 7810SOL    HW134889   3.904   2.250   2.674 -0.8636  0.1647  0.0280
 7810SOL    HW234890   3.837   2.154   2.760 -0.3529  0.9602 -0.6852
 7811SOL     OW34891   3.610   1.615   3.297 -0.1687 -0.2693  0.6559
 7811SOL    HW134892   3.684   1.676   3.297 -1.1576  0.9224  1.7632
 7811SOL    HW234893   3.538   1.670   3.267 -0.8246 -1.1521  0.6344
 7812SOL     OW34894   1.598   3.295   7.424  0.1460 -0.2443 -0.4318
 7812SOL    HW134895   1.617   3.245   7.504  3.2139 -1.1692 -1.7513
 7812SOL    HW234896   1.573   3.373   7.474  0.2905 -0.3249 -0.2348
 7813SOL     OW34897   2.621   0.204   2.266 -0.4246  0.5511  0.0124
 7813SOL    HW134898   2.661   0.286   2.237  0.1209 -0.0002 -0.8069
 7813SOL    HW234899   2.699   0.149   2.263 -1.7995 -1.4607  1.5445
 7814SOL     OW34900   1.397   3.459   5.862  0.2123  0.2060 -0.6532
 7814SOL    HW134901   1.397   3.368   5.890 -1.5659  0.0178 -1.2600
 7814SOL    HW234902   1.341   3.491   5.933 -1.4858  2.1744 -2.8750
 7815SOL     OW34903   1.288   3.265   1.438 -0.2459  0.3843  0.1333
 7815SOL    HW134904   1.259   3.182   1.401  1.2435 -0.3205  0.5242
 7815SOL    HW234905   1.280   3.251   1.532  1.7750  1.5196  0.4901
 7816SOL     OW34906   1.656   4.504   2.074 -0.1244  0.0421 -0.2359
 7816SOL    HW134907   1.687   4.444   2.006 -1.2542  0.4167 -1.0958
 7816SOL    HW234908   1.684   4.453   2.149  0.7418  0.1526 -0.4838
 7817SOL     OW34909   0.311   2.653   5.304 -0.6104  0.5636  0.2103
 7817SOL    HW134910   0.379   2.595   5.272 -1.5592 -0.5882  0.3042
 7817SOL    HW234911   0.284   2.697   5.223 -0.2821  0.2970 -0.0422
 7818SOL     OW34912   2.418   2.016   8.331  0.5979  0.0630 -0.2361
 7818SOL    HW134913   2.414   1.938   8.275 -1.8981 -0.2241  0.3525
 7818SOL    HW234914   2.397   1.980   8.417 -1.6532 -0.1474 -0.8759
 7819SOL     OW34915   0.733   0.038   2.530  0.3632  0.0964  0.1431
 7819SOL    HW134916   0.753   4.679   2.576  0.7696 -0.7586 -1.5552
 7819SOL    HW234917   0.750   0.102   2.598  1.4717 -1.6393  1.4889
 7820SOL     OW34918   4.307   4.506  12.642  0.1789 -0.0722 -0.4073
 7820SOL    HW134919   4.231   4.455  12.615 -0.7324  0.0096  1.9497
 7820SOL    HW234920   4.349   4.438  12.694  1.0197  1.0150  0.3581
 7821SOL     OW34921   1.126   1.849  13.505  0.7409 -0.3058  0.2337
 7821SOL    HW134922   1.209   1.825  13.465  0.3274 -0.7483 -0.3586
 7821SOL    HW234923   1.157   1.908  13.574 -2.0583  0.6939  0.6519
 7822SOL     OW34924   3.005   2.706   5.189 -0.1313 -0.1603  0.1740
 7822SOL    HW134925   3.030   2.643   5.256  2.5801 -0.2292 -0.8973
 7822SOL    HW234926   2.985   2.783   5.243 -2.1315  0.5679 -1.6193
 7823SOL     OW34927   1.932   0.318   5.602  0.1147 -0.1480  0.4377
 7823SOL    HW134928   2.006   0.352   5.551 -2.2566  0.5673 -2.4872
 7823SOL    HW234929   1.957   0.344   5.691 -0.7654  1.1306  0.3139
 7824SOL     OW34930   4.209   2.903   9.586 -0.7953  1.1733 -0.0851
 7824SOL    HW134931   4.235   2.974   9.644 -0.5099  1.7348 -0.9099
 7824SOL    HW234932   4.209   2.936   9.497 -0.7075  1.7752  0.1375
 7825SOL     OW34933   3.427   0.059   1.621  0.2647  0.2042 -0.1348
 7825SOL    HW134934   3.486   0.055   1.547  0.1766  2.3888 -0.3358
 7825SOL    HW234935   3.361   0.122   1.591 -0.8243 -1.4642 -1.1781
 7826SOL     OW34936   2.291   2.480   3.162  0.0217 -0.1861 -0.3773
 7826SOL    HW134937   2.381   2.448   3.161 -0.3394 -1.1807 -1.1734
 7826SOL    HW234938   2.297   2.560   3.214 -0.1870 -0.0923 -0.4964
 7827SOL     OW34939   1.409   4.028  15.847 -0.7952 -0.5944 -0.1381
 7827SOL    HW134940   1.340   4.083  15.883 -0.0251 -0.7976  1.6621
 7827SOL    HW234941   1.436   3.983  15.927  1.6285 -1.4717 -1.4506
 7828SOL     OW34942   0.817   2.897  12.147 -0.4614 -0.2045 -0.0751
 7828SOL    HW134943   0.759   2.972  12.137 -0.4971  0.0728  2.2448
 7828SOL    HW234944   0.890   2.951  12.118  0.2584 -0.6955  0.8079
 7829SOL     OW34945   4.123   4.032   5.897  0.0792 -0.0751  0.2144
 7829SOL    HW134946   4.164   3.955   5.857 -1.5504 -0.1644 -1.2426
 7829SOL    HW234947   4.089   3.998   5.981 -0.5229  0.6403  0.2547
 7830SOL     OW34948   2.107   0.743   2.008  0.3507 -0.6647  0.1812
 7830SOL    HW134949   2.119   0.672   1.945 -0.2726  1.3717 -2.2431
 7830SOL    HW234950   2.148   0.713   2.089 -3.8181  0.5321  2.7546
 7831SOL     OW34951   4.690   4.174   3.230  0.4079 -0.2470 -0.4024
 7831SOL    HW134952   0.010   4.108   3.284 -1.2697 -0.6990  0.4027
 7831SOL    HW234953   4.707   4.142   3.142 -0.2376  1.1102 -1.0277
 7832SOL     OW34954   2.912   3.217  17.146 -0.2848 -0.4739 -0.1396
 7832SOL    HW134955   2.954   3.133  17.124 -0.7279 -0.4936 -0.8965
 7832SOL    HW234956   2.944   3.272  17.075  2.5356 -0.7991  0.8661
 7833SOL     OW34957   4.004   3.223   2.394  0.4854 -0.0876  0.1973
 7833SOL    HW134958   3.968   3.169   2.324  0.8511 -0.0758 -0.0025
 7833SOL    HW234959   4.078   3.164   2.409 -0.6476 -1.7446 -0.7488
 7834SOL     OW34960   4.630   1.009   3.168 -0.0297 -0.0339  0.2770
 7834SOL    HW134961   4.677   0.936   3.208  0.3501 -0.6446 -1.2894
 7834SOL    HW234962   4.550   0.958   3.155 -1.7125  2.4177  0.9226
 7835SOL     OW34963   3.698   3.108   2.976 -1.0125 -0.3503 -0.0775
 7835SOL    HW134964   3.712   3.192   3.020  0.8111 -1.0861  0.7545
 7835SOL    HW234965   3.778   3.096   2.924 -0.7774 -0.6582  0.3620
 7836SOL     OW34966   2.489   0.867  15.953  0.2647 -0.4027 -0.1313
 7836SOL    HW134967   2.549   0.851  16.026  0.2647  2.1116  0.4258
 7836SOL    HW234968   2.408   0.892  15.999  0.7284 -0.0705  0.5022
 7837SOL     OW34969   0.761   2.770   9.379 -0.0453  0.3100  0.9447
 7837SOL    HW134970   0.842   2.757   9.428  0.2663  0.0546  0.3452
 7837SOL    HW234971   0.731   2.848   9.426  1.0388 -0.1612  2.4235
 7838SOL     OW34972   0.167   2.389   9.134  0.1096 -0.2179 -0.3524
 7838SOL    HW134973   0.221   2.406   9.211 -0.4733  0.6433 -0.1219
 7838SOL    HW234974   0.107   2.463   9.148 -0.0085  0.3286 -3.8100
 7839SOL     OW34975   1.278   4.069   5.332  0.0240 -0.6847  0.6400
 7839SOL    HW134976   1.223   4.053   5.255  0.4203  2.6475 -0.3435
 7839SOL    HW234977   1.317   3.983   5.348  1.6515  0.2179  1.5399
 7840SOL     OW34978   0.404   2.778   2.273  0.1910  0.1319 -0.5820
 7840SOL    HW134979   0.492   2.766   2.308  0.1270  1.1024 -0.0754
 7840SOL    HW234980   0.393   2.705   2.212  2.8493  0.8616 -1.9370
 7841SOL     OW34981   3.073   1.754  16.911  0.2006 -0.0289  0.2443
 7841SOL    HW134982   3.154   1.757  16.962  0.8600  2.4538 -0.9673
 7841SOL    HW234983   3.089   1.671  16.865 -2.4394 -2.5010  3.7620
 7842SOL     OW34984   1.144   3.149   8.522  0.0666 -0.3149 -0.1939
 7842SOL    HW134985   1.188   3.156   8.437  0.6220 -0.3373  0.0940
 7842SOL    HW234986   1.210   3.105   8.575 -0.4210 -0.6972  0.0996
 7843SOL     OW34987   2.871   1.950  10.305  0.4021  0.7264 -0.2248
 7843SOL    HW134988   2.794   1.991  10.265 -0.2004  0.5633  0.7660
 7843SOL    HW234989   2.841   1.859  10.301 -0.3893  0.8911  1.9349
 7844SOL     OW34990   0.381   1.100   9.790  0.1905 -0.3521 -0.7593
 7844SOL    HW134991   0.451   1.074   9.849  0.1305 -0.5062 -0.7553
 7844SOL    HW234992   0.403   1.048   9.713  0.9263  0.1426 -0.8766
 7845SOL     OW34993   2.850   2.784  12.437 -0.1030 -0.3113 -0.1176
 7845SOL    HW134994   2.759   2.793  12.408  0.0461  0.6256 -0.3026
 7845SOL    HW234995   2.886   2.868  12.465 -1.0160 -0.2237  0.7830
 7846SOL     OW34996   4.449   3.982  15.974 -0.0636  0.0582  0.1298
 7846SOL    HW134997   4.447   3.965  15.880 -2.4809 -2.2011  0.6043
 7846SOL    HW234998   4.374   3.925  15.993  0.7631  0.1740  3.6627
 7847SOL     OW34999   2.814   0.939  14.578 -0.7038  0.2053  0.4594
 7847SOL    HW135000   2.838   0.952  14.669  0.7085 -0.6247  0.2013
 7847SOL    HW235001   2.890   0.890  14.549 -0.4449  0.5701  0.5230
 7848SOL     OW35002   2.882   0.169   7.756 -0.4347 -1.2155  0.2183
 7848SOL    HW135003   2.826   0.247   7.750  0.9261 -0.4095 -1.7182
 7848SOL    HW235004   2.817   0.115   7.802 -3.1423  0.1442 -1.9697
 7849SOL     OW35005   3.581   4.723  17.068  0.6699 -0.5273  0.5488
 7849SOL    HW135006   3.558   4.633  17.090 -0.6348  0.0244  1.4209
 7849SOL    HW235007   3.647   0.012  17.136 -1.0185  1.4131  1.8424
 7850SOL     OW35008   2.636   0.964   5.977 -0.7850  0.5378  0.0366
 7850SOL    HW135009   2.570   1.012   5.927 -2.1048 -1.1847  0.1523
 7850SOL    HW235010   2.615   0.871   5.966 -1.2868  0.7225 -0.5848
 7851SOL     OW35011   1.551   2.071   7.201  0.7031 -0.3771  0.5038
 7851SOL    HW135012   1.527   2.017   7.276 -1.0144 -1.3840 -0.7762
 7851SOL    HW235013   1.531   2.019   7.123  1.3553  0.4240 -0.1924
 7852SOL     OW35014   0.930   2.660   4.099  0.4460  0.2686  0.0014
 7852SOL    HW135015   0.845   2.686   4.137  1.7031  2.0284  1.6329
 7852SOL    HW235016   0.979   2.648   4.181  0.1493  0.7585  0.2540
 7853SOL     OW35017   4.517   4.088   3.665 -0.0222  0.0336  0.6180
 7853SOL    HW135018   4.517   4.116   3.573  0.0243  0.0872  0.6351
 7853SOL    HW235019   4.422   4.089   3.675 -0.1881 -0.4063 -0.8130
 7854SOL     OW35020   3.952   1.997   0.138  0.5174  1.0648  0.9138
 7854SOL    HW135021   3.953   2.093   0.136 -3.1037  1.0848 -0.0797
 7854SOL    HW235022   4.045   1.975   0.146 -0.2491 -0.8282  4.1916
 7855SOL     OW35023   0.896   4.136   7.394  0.1057  0.1906  0.0276
 7855SOL    HW135024   0.920   4.214   7.345  0.1600  0.4541  0.4749
 7855SOL    HW235025   0.915   4.067   7.331 -1.4048 -1.6099  1.5405
 7856SOL     OW35026   3.283   3.298   4.491 -0.2477 -0.1877 -0.2966
 7856SOL    HW135027   3.316   3.257   4.411  0.2049  5.0206 -2.7707
 7856SOL    HW235028   3.206   3.336   4.449  0.1551 -0.0898 -0.9447
 7857SOL     OW35029   2.052   3.042   3.346 -0.2193 -0.1308 -0.1550
 7857SOL    HW135030   2.136   3.001   3.365 -0.6908 -0.6470  0.7849
 7857SOL    HW235031   2.067   3.132   3.315 -0.9730 -0.1375 -0.5589
 7858SOL     OW35032   0.202   1.981   2.995  0.5279  0.4452 -0.3812
 7858SOL    HW135033   0.152   1.901   3.010 -0.6192  1.1676 -0.3930
 7858SOL    HW235034   0.242   1.947   2.915 -0.5087 -2.0220  0.1714
 7859SOL     OW35035   2.633   1.585  15.179  0.7719 -0.7149  0.5619
 7859SOL    HW135036   2.609   1.574  15.271 -0.7716 -1.3527  0.0850
 7859SOL    HW235037   2.723   1.616  15.193  0.2684 -0.7333  3.8566
 7860SOL     OW35038   1.819   0.170   0.892  0.1029 -0.1706  0.5394
 7860SOL    HW135039   1.864   0.090   0.866  2.1564  0.5014  2.0612
 7860SOL    HW235040   1.768   0.152   0.971  0.6501 -0.4743  0.8252
 7861SOL     OW35041   1.799   0.648  16.788 -0.8895  0.0342 -0.2273
 7861SOL    HW135042   1.714   0.610  16.770 -1.1736  0.6642 -0.2315
 7861SOL    HW235043   1.781   0.698  16.868 -2.4545  3.0667 -2.4618
 7862SOL     OW35044   4.268   0.608   6.466 -0.0642 -0.0234  0.3808
 7862SOL    HW135045   4.250   0.671   6.535 -1.6831 -0.1246  0.0623
 7862SOL    HW235046   4.341   0.561   6.506 -1.7313 -2.1649  0.8996
 7863SOL     OW35047   0.370   4.050   3.948 -0.2822  0.2581 -0.4640
 7863SOL    HW135048   0.291   4.043   3.894 -0.9423 -1.9340  0.7880
 7863SOL    HW235049   0.434   4.060   3.877  2.4187 -2.5183  1.5700
 7864SOL     OW35050   1.623   2.636   1.916 -0.3418 -0.2904 -0.0638
 7864SOL    HW135051   1.688   2.567   1.931 -1.3724 -1.4044 -0.7634
 7864SOL    HW235052   1.685   2.708   1.928  0.4668 -0.7075 -1.7337
 7865SOL     OW35053   3.973   2.159  13.578  0.1968 -0.6656 -0.5060
 7865SOL    HW135054   3.900   2.179  13.637  2.2265  3.0092  0.7746
 7865SOL    HW235055   4.025   2.091  13.619 -0.4252 -0.7102  0.2007
 7866SOL     OW35056   3.711   2.006   6.830 -0.1966 -0.0364  0.5514
 7866SOL    HW135057   3.623   1.968   6.840  1.1320 -3.1867  0.3546
 7866SOL    HW235058   3.757   1.939   6.780  0.9266 -0.0106  1.5519
 7867SOL     OW35059   0.682   3.268   8.993  0.1890 -0.1077  0.1202
 7867SOL    HW135060   0.694   3.298   8.903 -4.3402  0.9628 -0.1302
 7867SOL    HW235061   0.770   3.280   9.028 -0.1374  1.8837  0.2776
 7868SOL     OW35062   0.083   3.057   2.687  0.3683  0.5082 -0.5719
 7868SOL    HW135063   0.055   3.032   2.598  2.3730  3.0199 -1.9107
 7868SOL    HW235064   0.146   2.987   2.704 -0.0732  0.2507 -0.0051
 7869SOL     OW35065   0.372   1.840   8.602 -0.3609 -0.2774 -0.0625
 7869SOL    HW135066   0.298   1.863   8.546 -0.5776 -0.7704  0.0249
 7869SOL    HW235067   0.344   1.898   8.673 -1.7753 -1.3718  0.2699
 7870SOL     OW35068   4.548   2.897  13.734 -0.1140 -0.2077  0.5916
 7870SOL    HW135069   4.516   2.823  13.785  0.1874 -0.8974 -0.2095
 7870SOL    HW235070   4.537   2.969  13.797  0.1218 -0.2802  0.7159
 7871SOL     OW35071   0.136   0.199   5.358  0.0941 -1.0424  0.1122
 7871SOL    HW135072   0.136   0.116   5.406 -3.1261 -0.9336  0.3155
 7871SOL    HW235073   0.059   0.240   5.399 -0.9596  0.4326 -3.3342
 7872SOL     OW35074   1.540   3.307  14.510 -0.2252  0.0410 -0.5832
 7872SOL    HW135075   1.548   3.291  14.604 -0.3205  1.5417 -0.3178
 7872SOL    HW235076   1.563   3.399  14.499 -1.2643  0.2313 -1.1662
 7873SOL     OW35077   0.477   3.877   9.097 -0.6137 -0.3378 -0.0445
 7873SOL    HW135078   0.455   3.799   9.046 -0.0916 -1.3502  1.2510
 7873SOL    HW235079   0.427   3.944   9.051  0.8738  0.6142 -0.2472
 7874SOL     OW35080   4.516   4.160   8.524  0.1279  0.5126 -0.0805
 7874SOL    HW135081   4.422   4.166   8.543  0.0962 -0.3778  0.0336
 7874SOL    HW235082   4.543   4.252   8.524 -0.8808  0.8084 -0.7746
 7875SOL     OW35083   3.241   3.321   7.056  0.3227  0.3122  0.3218
 7875SOL    HW135084   3.283   3.236   7.067 -1.7387 -0.6364  0.7498
 7875SOL    HW235085   3.312   3.382   7.076  1.1425 -0.5618  0.0899
 7876SOL     OW35086   2.220   1.448   6.455 -0.3291  0.1428  0.3714
 7876SOL    HW135087   2.173   1.482   6.530 -3.2764 -3.0708 -0.0320
 7876SOL    HW235088   2.211   1.353   6.446  0.0166  0.1796 -0.4653
 7877SOL     OW35089   3.372   3.682  11.876 -0.0989  0.0039  0.2563
 7877SOL    HW135090   3.335   3.601  11.911  0.8778 -0.6249 -0.1522
 7877SOL    HW235091   3.448   3.698  11.932 -1.7870  2.0429  1.9694
 7878SOL     OW35092   2.383   3.975   4.518  0.3646 -0.1099  0.3481
 7878SOL    HW135093   2.468   4.020   4.516 -0.4645  1.3498 -1.8430
 7878SOL    HW235094   2.377   3.934   4.432  0.5981  0.9698 -0.1692
 7879SOL     OW35095   1.530   4.291  17.063  0.2920  1.0347  0.6789
 7879SOL    HW135096   1.517   4.197  17.047 -2.9620  1.6202 -0.1197
 7879SOL    HW235097   1.623   4.301  17.042  1.0582 -2.2456  2.3658
 7880SOL     OW35098   3.144   2.311  12.271  0.0755  0.2735 -0.2108
 7880SOL    HW135099   3.185   2.336  12.189 -1.4949  0.8938 -0.8137
 7880SOL    HW235100   3.200   2.357  12.333 -2.4128  1.7689  0.9227
 7881SOL     OW35101   1.622   1.061   8.147 -0.2008  0.1902  0.4107
 7881SOL    HW135102   1.558   1.058   8.218  1.8134 -1.3027  2.1958
 7881SOL    HW235103   1.643   0.968   8.149 -0.4913  0.0944 -1.3880
 7882SOL     OW35104   0.541   2.662   7.203  0.3200 -0.0532 -0.2307
 7882SOL    HW135105   0.576   2.678   7.115  0.7788  0.0500 -0.0288
 7882SOL    HW235106   0.450   2.634   7.192  0.4117 -0.8431  0.9861
 7883SOL     OW35107   1.450   2.945   8.639  0.3217  0.4840  0.4765
 7883SOL    HW135108   1.477   3.031   8.608  0.1962  0.8539  1.3981
 7883SOL    HW235109   1.419   2.967   8.726  1.2646  0.8233  0.7243
 7884SOL     OW35110   1.619   2.135   0.996  0.1209  0.3827  0.1836
 7884SOL    HW135111   1.702   2.138   1.043 -0.0112 -0.5951  0.4832
 7884SOL    HW235112   1.561   2.182   1.056 -1.5158  0.0064 -1.0887
 7885SOL     OW35113   1.282   4.146   8.598  0.7090 -0.3183 -0.3937
 7885SOL    HW135114   1.209   4.085   8.591  0.0406  0.4356  0.0152
 7885SOL    HW235115   1.349   4.093   8.641  0.9342  0.6972  0.5100
 7886SOL     OW35116   3.163   4.720   3.305 -0.2285 -0.4234 -0.0261
 7886SOL    HW135117   3.254   4.722   3.332 -1.0739  0.8854  2.7191
 7886SOL    HW235118   3.143   0.004   3.398  1.0668  1.3891  0.1213
 7887SOL     OW35119   3.485   0.260   6.234 -0.1846  0.2529 -0.0020
 7887SOL    HW135120   3.434   0.333   6.200 -0.4230 -0.9292 -2.2161
 7887SOL    HW235121   3.525   0.296   6.313 -1.4000  0.6909  0.4089
 7888SOL     OW35122   1.202   2.163   4.529 -0.0235 -0.3361 -0.0529
 7888SOL    HW135123   1.189   2.131   4.619  0.9324  1.4491  0.7050
 7888SOL    HW235124   1.234   2.090   4.476  1.0672  1.6600 -2.0754
 7889SOL     OW35125   4.540   3.640  12.808 -0.1736  0.3760  0.2051
 7889SOL    HW135126   4.550   3.735  12.804  2.3945  0.1035 -0.2299
 7889SOL    HW235127   4.630   3.616  12.830 -0.0996 -2.7969 -3.4201
 7890SOL     OW35128   1.454   3.840   5.717 -0.2903  0.1995  0.2457
 7890SOL    HW135129   1.369   3.880   5.734 -1.3726 -1.8328 -0.4783
 7890SOL    HW235130   1.515   3.901   5.759 -0.3602 -1.1726  2.3460
 7891SOL     OW35131   0.145   0.245   2.726  0.1558 -0.3923  0.1705
 7891SOL    HW135132   0.055   0.212   2.730 -0.9349  2.2999 -2.4055
 7891SOL    HW235133   0.182   0.208   2.807  1.5318  0.9022  0.1406
 7892SOL     OW35134   0.239   0.041   4.489  0.5187  0.6688 -0.1964
 7892SOL    HW135135   0.177   4.693   4.507 -1.7784  2.7583  0.1689
 7892SOL    HW235136   0.319   0.013   4.533  1.0128  0.1891 -1.3938
 7893SOL     OW35137   2.025   0.702   6.853  0.3025  0.5533  0.3387
 7893SOL    HW135138   1.960   0.758   6.810 -1.4074 -0.6110  1.4426
 7893SOL    HW235139   2.031   0.755   6.932 -1.5754  1.5920 -0.2236
 7894SOL     OW35140   1.013   0.407   5.720  0.2887 -0.5693 -0.0298
 7894SOL    HW135141   1.089   0.405   5.662  1.8076  2.3223  1.8931
 7894SOL    HW235142   0.940   0.410   5.658 -0.8341 -0.9519  1.2770
 7895SOL     OW35143   2.292   3.356  10.319 -0.0086  0.5744 -1.3232
 7895SOL    HW135144   2.338   3.350  10.236 -0.3123 -0.9405 -1.3784
 7895SOL    HW235145   2.237   3.433  10.305 -0.0810  0.9749  1.1369
 7896SOL     OW35146   2.311   1.828  15.805 -0.2389  0.8387 -0.4006
 7896SOL    HW135147   2.287   1.897  15.868 -0.0831  0.4598  0.0772
 7896SOL    HW235148   2.250   1.764  15.841  0.1641  0.1528 -0.9483
 7897SOL     OW35149   2.574   4.027   1.441  0.8029  0.4821 -0.2502
 7897SOL    HW135150   2.545   3.940   1.467  1.1744  0.4922  0.1973
 7897SOL    HW235151   2.614   4.011   1.356 -1.3674 -0.1802 -1.1452
 7898SOL     OW35152   2.450   3.364   8.350  0.4881  0.7294 -0.4678
 7898SOL    HW135153   2.527   3.418   8.331  1.0618 -0.8054 -2.3766
 7898SOL    HW235154   2.442   3.396   8.440 -1.8759  0.8487 -0.7133
 7899SOL     OW35155   1.917   2.518   2.946 -0.2434  0.5302  0.4024
 7899SOL    HW135156   1.824   2.517   2.968 -0.0769 -1.2873  1.0118
 7899SOL    HW235157   1.932   2.610   2.970 -2.6325  0.8357  0.7584
 7900SOL     OW35158   0.243   4.506   5.804  0.3639 -0.8210 -0.0957
 7900SOL    HW135159   0.195   4.555   5.870  0.1688 -0.0876 -0.7839
 7900SOL    HW235160   0.176   4.459   5.754  0.7618 -0.0048 -1.3787
 7901SOL     OW35161   2.324   2.756   9.971  0.5997  0.0250 -0.3542
 7901SOL    HW135162   2.388   2.687   9.988 -1.8879 -2.0217  0.5188
 7901SOL    HW235163   2.392   2.823   9.982  1.5807 -0.7193 -1.9049
 7902SOL     OW35164   2.174   2.900   2.899 -0.0007  0.0337  0.0710
 7902SOL    HW135165   2.216   2.983   2.920 -0.5125  0.9985 -2.6266
 7902SOL    HW235166   2.247   2.838   2.904 -1.1102 -1.2478  0.5461
 7903SOL     OW35167   2.928   3.059  12.475  0.2590  0.1982 -0.3982
 7903SOL    HW135168   2.839   3.092  12.469 -0.6768 -2.1928  0.1181
 7903SOL    HW235169   2.980   3.127  12.518 -0.8021  1.4707 -1.1375
 7904SOL     OW35170   2.576   0.510   2.569  0.3566 -0.3608  0.1597
 7904SOL    HW135171   2.669   0.512   2.592  0.9384 -1.6252 -2.0735
 7904SOL    HW235172   2.568   0.606   2.572 -1.1350 -0.4825  0.4350
 7905SOL     OW35173   2.172   4.570  16.289 -0.5637 -0.1678  0.1115
 7905SOL    HW135174   2.174   4.665  16.273  0.4621 -0.0087  1.1868
 7905SOL    HW235175   2.217   4.566  16.373 -0.1524 -1.9044 -0.2065
 7906SOL     OW35176   4.543   1.329  12.686 -0.2524 -0.4186 -0.2567
 7906SOL    HW135177   4.557   1.239  12.655  0.8758  0.5622 -2.6224
 7906SOL    HW235178   4.631   1.366  12.692 -0.3561 -0.1533 -0.3524
 7907SOL     OW35179   1.030   2.468   7.198 -0.1862 -0.0332 -0.1383
 7907SOL    HW135180   0.944   2.438   7.226  0.5031 -1.1964  0.7345
 7907SOL    HW235181   1.033   2.428   7.111  1.7604 -0.1692 -0.0243
 7908SOL     OW35182   3.314   1.891   8.605  0.3858 -0.7009 -0.3091
 7908SOL    HW135183   3.235   1.910   8.656  2.0139  0.4337  1.7960
 7908SOL    HW235184   3.335   1.801   8.629 -3.5733 -1.2300  1.2299
 7909SOL     OW35185   2.978   3.327  11.174  0.4529  0.6956 -0.0417
 7909SOL    HW135186   2.957   3.360  11.262 -2.0106 -1.3395  0.1315
 7909SOL    HW235187   2.896   3.342  11.127  0.3767  1.5150  0.3539
 7910SOL     OW35188   3.804   3.502  12.050  0.9483 -0.4727  0.3044
 7910SOL    HW135189   3.872   3.569  12.060  3.3756 -2.7109 -1.2019
 7910SOL    HW235190   3.802   3.472  11.960 -0.4941 -1.0679  0.5351
 7911SOL     OW35191   2.929   0.153   1.319  0.4255 -0.2782 -0.2522
 7911SOL    HW135192   2.872   0.076   1.317 -0.0640  0.0901 -0.4139
 7911SOL    HW235193   2.989   0.126   1.249 -1.7327 -2.4769 -1.2576
 7912SOL     OW35194   3.691   3.716  15.708 -0.1390 -0.1751  0.2906
 7912SOL    HW135195   3.693   3.653  15.780  1.9005 -2.8252 -2.0594
 7912SOL    HW235196   3.643   3.786  15.752 -0.4374 -1.9998  2.8555
 7913SOL     OW35197   3.816   2.146   2.276 -0.1176 -0.0696 -0.4844
 7913SOL    HW135198   3.895   2.192   2.248  0.7757 -0.4684  1.4256
 7913SOL    HW235199   3.816   2.068   2.221  0.1367  0.0409 -0.6402
 7914SOL     OW35200   1.911   1.494   5.640 -0.2009 -0.3588  0.0900
 7914SOL    HW135201   1.841   1.557   5.622 -0.4149 -0.9203 -1.0409
 7914SOL    HW235202   1.995   1.538   5.627 -1.7680  2.5762 -0.0617
 7915SOL     OW35203   0.271   2.536  12.391 -0.0434 -0.5725 -0.3060
 7915SOL    HW135204   0.257   2.512  12.300 -2.2392  1.5973 -0.5487
 7915SOL    HW235205   0.354   2.492  12.405  0.0812 -0.9700 -2.3290
 7916SOL     OW35206   3.358   0.032   1.307 -0.2031 -0.4940  0.3812
 7916SOL    HW135207   3.428   0.088   1.340  1.0945 -0.4014 -2.5122
 7916SOL    HW235208   3.405   4.671   1.305  0.4077 -0.1209 -0.8570
 7917SOL     OW35209   1.850   3.865   3.248  0.0268  0.1958 -0.0603
 7917SOL    HW135210   1.932   3.910   3.270 -0.1669 -0.1975  1.5251
 7917SOL    HW235211   1.873   3.816   3.169  1.1389  0.8447 -0.1500
 7918SOL     OW35212   4.135   2.944   7.409  0.0638 -0.3355  0.2898
 7918SOL    HW135213   4.197   3.012   7.435  0.9843 -1.0717  0.0356
 7918SOL    HW235214   4.154   2.872   7.470  1.6624 -0.4019 -0.2876
 7919SOL     OW35215   2.858   1.777  17.471  0.4354  0.6598 -0.4890
 7919SOL    HW135216   2.791   1.720  17.509  0.2895  0.9170 -0.3590
 7919SOL    HW235217   2.894   1.712  17.411  0.2141 -0.7791  0.9370
 7920SOL     OW35218   0.749   3.469   9.314  0.0902  0.4016  0.3256
 7920SOL    HW135219   0.792   3.386   9.334 -1.0110  0.6006  3.6000
 7920SOL    HW235220   0.694   3.491   9.389  0.3816  0.8663  0.4016
 7921SOL     OW35221   3.461   1.328   8.313 -0.5973  0.3025  0.6558
 7921SOL    HW135222   3.421   1.415   8.313  0.3578  0.7544 -0.8206
 7921SOL    HW235223   3.471   1.313   8.219 -0.8708  2.8271  0.2133
 7922SOL     OW35224   4.068   2.332  10.210 -0.7325  0.6715  0.1989
 7922SOL    HW135225   3.974   2.319  10.225 -0.0189 -0.2037  3.8489
 7922SOL    HW235226   4.069   2.336  10.114  0.0065  2.3010  0.2730
 7923SOL     OW35227   0.336   4.051  14.504 -0.8242  0.1855  0.4071
 7923SOL    HW135228   0.337   4.081  14.413 -0.9579 -0.0569  0.3265
 7923SOL    HW235229   0.427   4.026  14.519 -1.4669 -0.8111  2.6842
 7924SOL     OW35230   0.569   4.646   1.894 -0.4587  0.0925 -0.2700
 7924SOL    HW135231   0.592   4.616   1.807 -2.5382  0.3222 -0.8919
 7924SOL    HW235232   0.630   4.719   1.908  0.5618 -0.2202 -3.1995
 7925SOL     OW35233   3.406   2.441   2.503 -0.1004  0.6999 -0.2816
 7925SOL    HW135234   3.420   2.433   2.597 -0.1770  0.6691 -0.2731
 7925SOL    HW235235   3.476   2.394   2.458  1.0170  1.2559  0.8948
 7926SOL     OW35236   0.692   4.702   0.990  0.6799 -0.6299  0.1270
 7926SOL    HW135237   0.723   4.664   1.072 -1.7224  2.9033  2.6759
 7926SOL    HW235238   0.694   0.069   1.023  1.0559 -0.4300 -0.4363
 7927SOL     OW35239   3.297   0.076   4.011 -0.4727 -0.5405 -0.1911
 7927SOL    HW135240   3.357   0.046   3.942 -0.2816  0.7391 -0.5902
 7927SOL    HW235241   3.234   0.004   4.016 -0.5775 -0.2857  2.1596
 7928SOL     OW35242   0.715   4.509   9.403  0.3076  0.1810 -0.4793
 7928SOL    HW135243   0.680   4.572   9.466 -2.4034 -1.2723 -0.4838
 7928SOL    HW235244   0.780   4.567   9.365  0.5607  1.8394  2.4916
 7929SOL     OW35245   2.168   3.205   2.281  0.1680 -0.6017 -0.6435
 7929SOL    HW135246   2.256   3.241   2.295 -0.1930  0.6727 -1.6148
 7929SOL    HW235247   2.106   3.266   2.321  0.6567 -0.0130 -0.7822
 7930SOL     OW35248   4.129   2.568   0.484 -0.4171 -0.0632  0.3436
 7930SOL    HW135249   4.152   2.496   0.425  0.7411  0.8909 -0.3772
 7930SOL    HW235250   4.101   2.523   0.563 -0.5464  0.3754  0.5440
 7931SOL     OW35251   3.980   1.189   9.397  0.2215  0.0991 -0.4883
 7931SOL    HW135252   4.045   1.231   9.341  0.6207  0.6890  0.4157
 7931SOL    HW235253   3.952   1.243   9.471 -1.4074 -0.6668 -0.5225
 7932SOL     OW35254   0.630   1.477   1.855  0.2427  0.0444  1.0008
 7932SOL    HW135255   0.665   1.432   1.932 -0.6785 -0.8598  0.8951
 7932SOL    HW235256   0.704   1.470   1.795 -0.4694 -1.5388  0.3051
 7933SOL     OW35257   2.182   0.747   6.536  0.3152  0.1428  0.4376
 7933SOL    HW135258   2.176   0.791   6.621 -0.2493 -0.1699  0.5545
 7933SOL    HW235259   2.090   0.751   6.510  0.6777  1.7734 -0.6012
 7934SOL     OW35260   1.726   2.363   2.165  0.3020 -0.5191  0.0680
 7934SOL    HW135261   1.730   2.269   2.183  1.5614 -0.7710 -1.5733
 7934SOL    HW235262   1.800   2.395   2.216 -0.4545  0.0095  0.8380
 7935SOL     OW35263   1.993   2.189   5.662  0.1433  0.7029 -0.6752
 7935SOL    HW135264   1.926   2.122   5.673  1.9570 -1.1362 -0.9421
 7935SOL    HW235265   1.973   2.222   5.749  1.8630 -0.0090 -0.0234
 7936SOL     OW35266   0.563   4.346  10.331  0.2414  0.3190  0.0795
 7936SOL    HW135267   0.524   4.263  10.360  1.2478 -0.1111  0.1825
 7936SOL    HW235268   0.563   4.390  10.417  0.8481 -0.7509  0.6261
 7937SOL     OW35269   4.634   2.980   4.148 -0.2310 -0.1833  0.0826
 7937SOL    HW135270   4.689   3.024   4.213 -1.5600 -1.1930  1.8984
 7937SOL    HW235271   4.634   3.052   4.085 -1.0907  0.7676  1.1466
 7938SOL     OW35272   4.344   4.617   4.479 -0.5849 -0.0741  0.2738
 7938SOL    HW135273   4.333   4.656   4.393  3.7627 -0.0028 -0.2515
 7938SOL    HW235274   4.385   4.685   4.533  1.3554  0.1848 -1.5241
 7939SOL     OW35275   0.605   0.308   3.938 -0.1624 -0.2517 -0.5008
 7939SOL    HW135276   0.688   0.296   3.894  0.0816 -0.8340  0.1237
 7939SOL    HW235277   0.559   0.339   3.860  1.0593  1.9441 -0.3561
 7940SOL     OW35278   2.675   3.278  12.997  0.4416  0.4718 -0.0006
 7940SOL    HW135279   2.699   3.365  13.028  0.2059  0.8554 -0.8884
 7940SOL    HW235280   2.605   3.313  12.941  1.0431 -0.3256 -1.2526
 7941SOL     OW35281   0.861   3.985   3.941  0.0927 -0.7740  0.4907
 7941SOL    HW135282   0.780   4.033   3.923  0.7613 -0.1129 -0.7721
 7941SOL    HW235283   0.911   4.039   4.002 -0.7515  0.1307  0.3845
 7942SOL     OW35284   4.072   3.292   7.639  0.0561  0.6322 -0.6972
 7942SOL    HW135285   4.114   3.207   7.627 -0.5231 -0.1509  2.7882
 7942SOL    HW235286   4.131   3.353   7.594 -0.6157 -0.7804 -3.4453
 7943SOL     OW35287   4.460   0.233  15.504  0.3356 -0.4412  0.1030
 7943SOL    HW135288   4.474   0.138  15.510 -0.1992 -0.6505 -1.8923
 7943SOL    HW235289   4.376   0.243  15.550 -0.1622  3.1245 -1.6118
 7944SOL     OW35290   2.941   2.481   7.400 -0.1304  0.4321  0.0022
 7944SOL    HW135291   2.901   2.518   7.479  0.4674 -0.7006  0.8366
 7944SOL    HW235292   3.024   2.462   7.444 -0.8506  0.0219  1.1976
 7945SOL     OW35293   1.750   2.988  10.718  0.0198 -0.5550 -0.0619
 7945SOL    HW135294   1.666   2.955  10.685  0.6174 -0.5844 -1.5266
 7945SOL    HW235295   1.753   2.962  10.810 -1.0608  0.0198  0.1348
 7946SOL     OW35296   2.626   2.679   8.577  0.2238  0.6954 -0.0706
 7946SOL    HW135297   2.547   2.687   8.524 -0.3715  0.2294  0.7487
 7946SOL    HW235298   2.633   2.774   8.589  2.1145  0.8953 -2.6207
 7947SOL     OW35299   0.868   3.682   7.330 -0.7251 -0.0503 -0.6210
 7947SOL    HW135300   0.950   3.653   7.292 -0.0410  2.3385 -0.9355
 7947SOL    HW235301   0.820   3.599   7.331  0.4022 -0.6850  0.2761
 7948SOL     OW35302   2.278   0.616   2.205 -0.9966  0.7745  0.0897
 7948SOL    HW135303   2.304   0.636   2.294  2.4099 -1.7121 -0.3283
 7948SOL    HW235304   2.361   0.582   2.172 -1.5310 -0.6062  0.1537
 7949SOL     OW35305   3.330   4.698  16.133  0.0779 -0.2197 -0.0045
 7949SOL    HW135306   3.419   4.677  16.104  0.8403  0.2313  2.0257
 7949SOL    HW235307   3.294   4.717  16.046  0.6082  4.8776  0.8920
 7950SOL     OW35308   1.509   2.492   6.551  0.2830  0.1726 -0.0583
 7950SOL    HW135309   1.501   2.406   6.509 -4.0038 -0.5383  2.2176
 7950SOL    HW235310   1.577   2.526   6.493  0.3585 -1.8040 -1.1275
 7951SOL     OW35311   3.500   4.310  11.592  0.5895  0.3718  0.5044
 7951SOL    HW135312   3.420   4.328  11.641 -0.4960 -0.2792 -1.0572
 7951SOL    HW235313   3.486   4.218  11.571 -1.8731  0.6606  0.9141
 7952SOL     OW35314   0.215   2.461   8.189 -0.2112  0.4978 -0.3267
 7952SOL    HW135315   0.229   2.556   8.195 -1.9775  0.6529  1.4343
 7952SOL    HW235316   0.261   2.434   8.268 -0.3153 -0.5084 -0.6108
 7953SOL     OW35317   1.103   2.082  11.857  0.2318  0.8233  0.3094
 7953SOL    HW135318   1.195   2.097  11.836 -0.6027  0.8510 -3.3528
 7953SOL    HW235319   1.099   2.101  11.951 -0.5594  0.2347  0.3925
 7954SOL     OW35320   1.887   3.903   2.570 -0.1378  0.1582  0.0310
 7954SOL    HW135321   1.900   3.981   2.516  1.1827 -0.5235 -0.6043
 7954SOL    HW235322   1.934   3.932   2.648  0.1600 -1.4147  0.4292
 7955SOL     OW35323   1.041   3.865  14.081 -0.0368 -0.1052 -0.5185
 7955SOL    HW135324   0.990   3.789  14.054 -0.1699 -0.6568  1.3006
 7955SOL    HW235325   1.012   3.898  14.166 -0.9147  0.5029 -1.0636
 7956SOL     OW35326   1.747   4.342   6.911  0.0306  0.4385 -0.5371
 7956SOL    HW135327   1.754   4.437   6.900  1.9658  0.5343  1.3802
 7956SOL    HW235328   1.657   4.337   6.944  0.4902  2.1898  1.0037
 7957SOL     OW35329   4.133   1.371  17.098  0.0787  0.0778  0.4916
 7957SOL    HW135330   4.145   1.371  17.193  2.3770  2.4653  0.2127
 7957SOL    HW235331   4.220   1.384  17.060 -0.0041 -0.7529  0.0319
 7958SOL     OW35332   2.879   1.729   2.648 -0.2789 -0.6862  0.0921
 7958SOL    HW135333   2.916   1.807   2.689 -0.8128  0.0314 -0.7774
 7958SOL    HW235334   2.940   1.666   2.687  0.6650  0.3552  0.2964
 7959SOL     OW35335   3.320   0.724   4.822 -0.6686  0.0602 -0.0061
 7959SOL    HW135336   3.399   0.680   4.791  2.1579  3.6900  2.0427
 7959SOL    HW235337   3.350   0.760   4.905 -0.3858  0.5024 -0.2989
 7960SOL     OW35338   0.234   1.436  14.911  0.1269  0.2336 -0.4430
 7960SOL    HW135339   0.156   1.408  14.959 -0.1493  0.6793 -0.6271
 7960SOL    HW235340   0.288   1.453  14.989  2.7815  0.6114 -2.3447
 7961SOL     OW35341   4.466   1.053   7.385  0.2824 -0.4836  0.4916
 7961SOL    HW135342   4.388   1.000   7.402 -0.3615  0.4356  0.4513
 7961SOL    HW235343   4.447   1.131   7.437 -0.3350  0.1200 -0.6367
 7962SOL     OW35344   0.316   3.610   5.669  0.3926 -0.1212 -0.5452
 7962SOL    HW135345   0.378   3.618   5.597 -0.2762 -1.2234 -1.2400
 7962SOL    HW235346   0.370   3.585   5.744 -2.0143 -1.2016  0.8490
 7963SOL     OW35347   3.507   1.952   3.489  0.5071 -0.4120  0.3321
 7963SOL    HW135348   3.479   1.904   3.412  0.0514 -0.4753  0.5397
 7963SOL    HW235349   3.481   1.890   3.557 -0.2589  1.2650  1.5651
 7964SOL     OW35350   3.440   2.417   2.773  0.1085 -0.5018 -0.3090
 7964SOL    HW135351   3.449   2.407   2.868  1.4879 -1.4969 -0.5432
 7964SOL    HW235352   3.515   2.472   2.750  1.0521 -1.6575 -0.0408
 7965SOL     OW35353   0.220   1.574  16.726 -0.1539 -0.1121  0.6611
 7965SOL    HW135354   0.138   1.571  16.678 -0.1434  0.7856  0.5876
 7965SOL    HW235355   0.217   1.490  16.772 -0.1954 -0.4694  0.0024
 7966SOL     OW35356   0.624   3.763   7.475 -0.5141 -0.0295  0.0344
 7966SOL    HW135357   0.705   3.729   7.437  0.9467  0.8889  2.3717
 7966SOL    HW235358   0.641   3.796   7.563  2.0724 -0.4311 -0.3133
 7967SOL     OW35359   1.229   2.049   3.225  0.4698  0.6355 -0.3263
 7967SOL    HW135360   1.265   2.088   3.145  0.0774  0.9169 -0.3635
 7967SOL    HW235361   1.172   1.985   3.181  0.1795 -1.1613  2.6734
 7968SOL     OW35362   2.947   2.207   5.254 -0.5114 -0.2787 -0.4078
 7968SOL    HW135363   2.899   2.150   5.193 -3.0091  0.8026  0.5441
 7968SOL    HW235364   2.878   2.272   5.241  1.1539  1.9893  2.1946
 7969SOL     OW35365   4.485   0.068  15.756  0.1784  0.5395  0.4882
 7969SOL    HW135366   4.488   0.041  15.848  0.3855 -0.2183  0.2615
 7969SOL    HW235367   4.452   0.158  15.757 -1.2751 -0.0111  0.8010
 7970SOL     OW35368   0.921   1.181   3.470  0.1270  0.1525  0.2024
 7970SOL    HW135369   0.841   1.206   3.424  2.2072  3.1474 -1.7908
 7970SOL    HW235370   0.987   1.241   3.436  0.3300 -1.0856 -1.6642
 7971SOL     OW35371   2.697   3.822  15.990  0.3526 -0.5441  0.0461
 7971SOL    HW135372   2.669   3.842  16.079 -1.8298  0.6718 -0.8945
 7971SOL    HW235373   2.661   3.734  15.979 -0.4877 -0.4524  1.9549
 7972SOL     OW35374   4.051   0.902  13.134  0.2214  0.0043 -0.2435
 7972SOL    HW135375   4.097   0.943  13.061 -0.6688  1.6483  0.1341
 7972SOL    HW235376   4.106   0.826  13.157 -2.2232 -1.6256  0.2558
 7973SOL     OW35377   3.183   2.598   6.986 -0.1382  0.4553  0.1944
 7973SOL    HW135378   3.130   2.609   7.065  1.3910  3.3116  0.8500
 7973SOL    HW235379   3.243   2.534   7.023 -0.4053  0.3842  0.5073
 7974SOL     OW35380   3.469   1.516   5.196 -0.2941 -0.0944 -0.2986
 7974SOL    HW135381   3.505   1.469   5.121  0.2156 -0.2884  0.0676
 7974SOL    HW235382   3.534   1.489   5.262  3.4767 -0.5217 -4.1731
 7975SOL     OW35383   0.210   3.091   5.115  0.4155 -0.3679 -0.4237
 7975SOL    HW135384   0.123   3.070   5.147  0.7354 -0.3712  0.4446
 7975SOL    HW235385   0.198   3.072   5.022 -0.6419  1.5035 -0.6714
 7976SOL     OW35386   2.668   1.711   7.208  0.0478 -0.0349 -0.4528
 7976SOL    HW135387   2.661   1.634   7.264  1.2377  0.3624  0.2386
 7976SOL    HW235388   2.606   1.691   7.138  0.1063  0.0422 -0.5272
 7977SOL     OW35389   2.587   1.538   3.769 -0.0398 -0.3404  0.1112
 7977SOL    HW135390   2.668   1.550   3.719  2.0596 -2.5601  2.9837
 7977SOL    HW235391   2.601   1.469   3.833  1.4027 -2.6788 -2.7167
 7978SOL     OW35392   3.742   2.379   7.910  0.7108  0.1710  0.5356
 7978SOL    HW135393   3.704   2.338   7.988  3.2618 -1.2632  1.0322
 7978SOL    HW235394   3.713   2.469   7.919 -2.7263 -0.8004 -0.9122
 7979SOL     OW35395   4.355   0.881   5.904  0.4201  0.2765  0.5503
 7979SOL    HW135396   4.331   0.922   5.988 -1.2681 -0.9059  0.6519
 7979SOL    HW235397   4.283   0.819   5.910  1.7206 -1.0336  2.8884
 7980SOL     OW35398   1.127   0.651   5.866 -0.8362  0.3821 -0.2976
 7980SOL    HW135399   1.076   0.590   5.814 -0.0877 -0.8639  0.4311
 7980SOL    HW235400   1.072   0.671   5.943 -0.1935 -0.1381  0.3016
 7981SOL     OW35401   1.932   0.603   7.265  0.3911  0.0144 -0.3470
 7981SOL    HW135402   2.023   0.631   7.271 -0.6665  3.3272  0.5929
 7981SOL    HW235403   1.941   0.520   7.217 -1.2851  0.1487 -0.8932
 7982SOL     OW35404   2.655   0.952   2.799 -0.5467 -0.1807  0.2411
 7982SOL    HW135405   2.657   0.922   2.890 -0.7460  3.3250  1.4033
 7982SOL    HW235406   2.646   1.046   2.817 -2.2588 -0.2105 -0.4298
 7983SOL     OW35407   2.429   3.519  10.498  0.0149 -0.4377 -0.0778
 7983SOL    HW135408   2.495   3.467  10.545  1.1776  1.6134  0.5860
 7983SOL    HW235409   2.402   3.458  10.429  0.0736  0.8396 -1.2278
 7984SOL     OW35410   1.828   1.323   5.063  0.5633  0.0014 -0.0248
 7984SOL    HW135411   1.836   1.349   5.155 -0.1507 -0.4947  0.1786
 7984SOL    HW235412   1.793   1.234   5.068 -0.1160  0.1928 -1.2238
 7985SOL     OW35413   0.588   3.719   3.117 -0.4983 -0.4276  0.1425
 7985SOL    HW135414   0.627   3.664   3.185  1.7313  0.8245 -0.1067
 7985SOL    HW235415   0.575   3.665   3.039  1.2052 -1.1168  0.3372
 7986SOL     OW35416   2.668   2.418   7.905 -0.3398 -0.0404  0.1473
 7986SOL    HW135417   2.740   2.371   7.862 -0.6164 -0.6556  0.3594
 7986SOL    HW235418   2.609   2.344   7.896 -0.0434 -0.2279 -0.2606
 7987SOL     OW35419   2.618   3.855   5.139 -0.0313  0.3226 -0.3762
 7987SOL    HW135420   2.691   3.843   5.200 -0.2147  1.2611  0.0320
 7987SOL    HW235421   2.548   3.840   5.203  0.0327  0.4481 -0.2749
 7988SOL     OW35422   2.271   4.036   0.149 -0.5003  0.2869 -0.5997
 7988SOL    HW135423   2.308   4.030   0.061 -0.2680 -1.0294 -0.4176
 7988SOL    HW235424   2.298   3.947   0.171  2.3263  1.1209 -0.7651
 7989SOL     OW35425   2.230   1.361   8.770 -0.2174  0.5616 -0.2697
 7989SOL    HW135426   2.251   1.343   8.862 -1.6981 -1.5166 -0.3526
 7989SOL    HW235427   2.198   1.451   8.780  1.6456  1.2236 -0.1559
 7990SOL     OW35428   4.701   0.917   0.295  0.9395 -0.2306  0.2679
 7990SOL    HW135429   4.719   1.007   0.321  1.0965  0.1327 -1.1314
 7990SOL    HW235430   4.646   0.884   0.366  0.0377  2.3368  0.7562
 7991SOL     OW35431   4.205   3.110   4.116  0.1847  0.3454 -0.1346
 7991SOL    HW135432   4.235   3.110   4.206  0.8347 -0.1766 -0.3502
 7991SOL    HW235433   4.187   3.017   4.099  1.1175  0.1614 -0.0885
 7992SOL     OW35434   2.679   0.016   9.843  0.0024 -0.2072  0.3078
 7992SOL    HW135435   2.608   0.078   9.825 -0.6705 -0.9706  0.3239
 7992SOL    HW235436   2.687   0.021   9.938 -0.9865 -0.7247  0.4207
 7993SOL     OW35437   4.218   0.040  12.683 -0.2272 -0.8970 -0.0525
 7993SOL    HW135438   4.213   0.079  12.595 -1.0381 -1.9108 -0.4512
 7993SOL    HW235439   4.269   4.683  12.670  1.3798 -0.0533  1.1284
 7994SOL     OW35440   0.613   0.651  12.163  0.1328  0.0313 -0.1260
 7994SOL    HW135441   0.685   0.638  12.102 -2.2469 -0.8634 -2.7481
 7994SOL    HW235442   0.546   0.682  12.103  1.1990  1.8573 -0.3602
 7995SOL     OW35443   1.633   3.387  10.122 -0.2370  0.4753 -0.6093
 7995SOL    HW135444   1.645   3.371  10.028  0.4375 -0.2961 -0.3930
 7995SOL    HW235445   1.653   3.304  10.166 -2.6949  1.2539  1.9629
 7996SOL     OW35446   1.573   4.718   6.677 -0.0913 -0.1160 -0.0485
 7996SOL    HW135447   1.495   0.013   6.730 -0.2787  0.3429 -0.4770
 7996SOL    HW235448   1.597   0.076   6.633  1.3683 -0.6897 -0.2940
 7997SOL     OW35449   0.590   4.435   9.003  0.4385  0.1364 -0.0275
 7997SOL    HW135450   0.554   4.494   9.070  0.8118 -2.4488  2.4580
 7997SOL    HW235451   0.588   4.354   9.053  0.3793  0.0173 -0.2252
 7998SOL     OW35452   4.010   1.979   2.084  0.0334 -0.4200 -0.0270
 7998SOL    HW135453   4.073   2.040   2.122  2.0335 -1.9775 -0.8344
 7998SOL    HW235454   4.047   1.894   2.108 -1.1376 -1.0189 -0.2986
 7999SOL     OW35455   3.478   1.013   3.391  0.0105  0.0564 -0.3003
 7999SOL    HW135456   3.430   0.988   3.313 -2.0159 -0.0012  0.9759
 7999SOL    HW235457   3.460   1.106   3.376 -0.7910  0.0723  0.7432
 8000SOL     OW35458   1.246   1.522   3.484 -0.2947 -0.1714  0.3458
 8000SOL    HW135459   1.291   1.471   3.416 -0.8783 -0.0834 -0.1055
 8000SOL    HW235460   1.261   1.454   3.550 -1.1230  0.3120  1.0342
 8001SOL     OW35461   2.172   1.631  15.939  0.1176  0.1169 -0.9871
 8001SOL    HW135462   2.231   1.621  16.014 -0.5877  4.1505  0.1242
 8001SOL    HW235463   2.088   1.647  15.983  0.6263  1.6405 -0.5667
 8002SOL     OW35464   0.188   2.262   9.606  0.1628  0.3656 -0.7063
 8002SOL    HW135465   0.152   2.174   9.616  1.4262 -0.3009 -2.0068
 8002SOL    HW235466   0.175   2.275   9.513  0.3658 -0.7869 -0.8966
 8003SOL     OW35467   2.862   2.453   3.173  0.6130 -0.7667  0.2044
 8003SOL    HW135468   2.848   2.365   3.136  1.1806  0.0068 -1.8531
 8003SOL    HW235469   2.944   2.439   3.221  1.2913 -1.0243 -1.0289
 8004SOL     OW35470   4.440   0.303   6.071 -0.4729 -0.4961 -0.2066
 8004SOL    HW135471   4.493   0.359   6.016 -1.7322  2.3675  1.4909
 8004SOL    HW235472   4.431   0.362   6.146  0.5945  1.1747 -1.4135
 8005SOL     OW35473   1.772   2.214  15.442  0.2026  0.3551  0.2029
 8005SOL    HW135474   1.822   2.295  15.434 -0.2563  0.6769  0.5653
 8005SOL    HW235475   1.683   2.248  15.443  0.5780  1.3816 -1.4891
 8006SOL     OW35476   2.258   2.044   3.206  0.5321  0.2206 -0.7717
 8006SOL    HW135477   2.208   1.981   3.154 -0.7333 -0.8378  1.7269
 8006SOL    HW235478   2.321   2.073   3.140  0.7638 -0.7626 -0.9806
 8007SOL     OW35479   0.346   3.633   0.694 -0.6397  0.3634 -0.6958
 8007SOL    HW135480   0.257   3.668   0.703 -0.9289 -0.5522  0.0209
 8007SOL    HW235481   0.342   3.552   0.745  0.2426 -0.0182 -1.2315
 8008SOL     OW35482   3.961   2.843  14.980  0.1802 -0.0304  0.6619
 8008SOL    HW135483   3.940   2.812  14.892  0.7775  1.0354  0.1414
 8008SOL    HW235484   3.892   2.907  14.999  0.8446  0.2522  2.1020
 8009SOL     OW35485   3.314   0.844   4.195  0.2841 -0.3823  0.3470
 8009SOL    HW135486   3.320   0.788   4.273 -2.4759 -0.4035  0.5575
 8009SOL    HW235487   3.221   0.837   4.172 -0.1118  0.6399  1.6456
 8010SOL     OW35488   1.100   4.067   6.768 -0.3017 -0.5950  0.0792
 8010SOL    HW135489   1.024   4.124   6.781  0.2572  0.5144 -1.3931
 8010SOL    HW235490   1.165   4.134   6.791 -0.5097 -0.5224  0.4523
 8011SOL     OW35491   2.554   1.449   4.253  0.2049  0.4063 -0.4733
 8011SOL    HW135492   2.579   1.359   4.272 -0.5236  0.9793  3.2809
 8011SOL    HW235493   2.541   1.452   4.158  0.9531 -0.5524 -0.6057
 8012SOL     OW35494   3.879   2.051   1.589  0.7545 -0.1514 -0.1537
 8012SOL    HW135495   3.970   2.039   1.617  0.0621  2.0456  3.0471
 8012SOL    HW235496   3.841   2.024   1.673 -0.4533 -0.1387 -0.7055
 8013SOL     OW35497   1.477   1.969   7.430 -1.2535  0.5598  0.4895
 8013SOL    HW135498   1.454   1.890   7.478 -3.1313  2.2077  2.3574
 8013SOL    HW235499   1.529   2.012   7.498 -0.4805 -0.1297  0.3330
 8014SOL     OW35500   0.713   1.768  13.258 -0.2588  0.5544 -0.0937
 8014SOL    HW135501   0.731   1.688  13.306 -0.6916  0.4164 -0.1621
 8014SOL    HW235502   0.799   1.809  13.267 -0.0570 -0.0754  0.8439
 8015SOL     OW35503   2.555   4.690  16.687 -0.2387  0.0151 -0.3022
 8015SOL    HW135504   2.650   4.698  16.679 -0.3227  2.2195  0.8773
 8015SOL    HW235505   2.520   0.041  16.735 -0.7617 -0.7697  0.5224
 8016SOL     OW35506   3.211   1.316   8.054  0.6474  0.1233  0.1767
 8016SOL    HW135507   3.159   1.373   8.112  1.8526  0.4293  0.9520
 8016SOL    HW235508   3.191   1.232   8.095  0.9783 -0.7608 -1.4749
 8017SOL     OW35509   4.328   2.822  10.199 -0.0572 -0.2903 -0.3265
 8017SOL    HW135510   4.249   2.811  10.251  0.3876  0.7319  0.5600
 8017SOL    HW235511   4.395   2.790  10.259  0.9024 -1.4584 -1.9923
 8018SOL     OW35512   2.458   4.244   4.989 -0.2073 -0.0239  0.1603
 8018SOL    HW135513   2.464   4.274   4.899  0.0135  1.0982  0.5492
 8018SOL    HW235514   2.526   4.179   5.002 -0.6953 -0.7499 -1.0017
 8019SOL     OW35515   1.463   4.478   3.614  0.2080  0.3871  0.5169
 8019SOL    HW135516   1.438   4.507   3.526  1.5883 -1.2824 -0.4522
 8019SOL    HW235517   1.431   4.550   3.667 -2.3700  0.0498 -0.5796
 8020SOL     OW35518   2.478   0.598  12.602 -0.4272  0.1594 -0.1295
 8020SOL    HW135519   2.563   0.631  12.630  0.1299 -0.8344 -0.6684
 8020SOL    HW235520   2.454   0.670  12.544 -3.9919  0.4695  1.6706
 8021SOL     OW35521   2.859   2.223   5.799  0.6431  0.1418 -0.0305
 8021SOL    HW135522   2.916   2.273   5.857 -0.9556 -2.7094  4.0145
 8021SOL    HW235523   2.774   2.249   5.835 -2.1975 -2.2500 -4.8475
 8022SOL     OW35524   3.585   4.393  16.403 -0.2115 -0.0599 -0.3463
 8022SOL    HW135525   3.609   4.484  16.389 -0.0091 -0.1631 -0.6726
 8022SOL    HW235526   3.492   4.392  16.378 -0.2457 -0.6488 -0.1901
 8023SOL     OW35527   2.796   3.250   4.714 -0.3825  0.2676 -0.3213
 8023SOL    HW135528   2.749   3.265   4.796  0.7320 -1.4513  0.6426
 8023SOL    HW235529   2.726   3.220   4.657 -2.4204  1.6287  1.4870
 8024SOL     OW35530   3.892   3.606  12.402 -0.2629  0.2229 -0.1833
 8024SOL    HW135531   3.901   3.538  12.336 -1.9927 -0.9909  0.8186
 8024SOL    HW235532   3.803   3.637  12.386  0.3311  1.4280 -1.1136
 8025SOL     OW35533   4.710   4.245  17.438  0.1493 -0.4869  0.2814
 8025SOL    HW135534   0.039   4.257  17.518 -0.8059  0.0811  0.8196
 8025SOL    HW235535   4.698   4.150  17.444  0.2324 -0.6588 -2.2030
 8026SOL     OW35536   1.252   1.203   8.347 -0.2795 -0.8802 -0.1670
 8026SOL    HW135537   1.332   1.151   8.345 -0.5750 -1.3468  0.2506
 8026SOL    HW235538   1.289   1.291   8.345  2.1799 -1.8862  1.2240
 8027SOL     OW35539   4.125   0.819   5.436  0.3212  0.4780  0.2917
 8027SOL    HW135540   4.097   0.902   5.398  1.4087  0.9312  0.4755
 8027SOL    HW235541   4.219   0.837   5.442  0.1110  1.0039  2.0002
 8028SOL     OW35542   3.056   2.109   4.501 -0.0980  0.4296  0.4359
 8028SOL    HW135543   3.048   2.204   4.509 -1.0143  0.1999  2.1303
 8028SOL    HW235544   3.087   2.093   4.590 -0.5223  1.0921  0.7077
 8029SOL     OW35545   2.926   2.740   5.486  0.7147 -0.5610 -0.0966
 8029SOL    HW135546   3.020   2.723   5.494  0.8357 -0.3469 -1.0420
 8029SOL    HW235547   2.893   2.663   5.532 -0.4667 -0.0881 -0.1700
 8030SOL     OW35548   1.735   1.343   3.335 -0.0868 -0.0097 -0.0951
 8030SOL    HW135549   1.663   1.404   3.319 -0.4464 -0.3488  0.2243
 8030SOL    HW235550   1.817   1.384   3.307 -0.7532  1.8998  0.7754
 8031SOL     OW35551   2.854   3.117   4.381  0.0712 -0.0076  0.6115
 8031SOL    HW135552   2.790   3.124   4.452 -0.7153  2.4304 -0.3073
 8031SOL    HW235553   2.918   3.188   4.392 -0.0590 -0.0116  1.3851
 8032SOL     OW35554   0.266   2.375   6.811 -0.0157 -0.4160 -0.2677
 8032SOL    HW135555   0.206   2.332   6.749 -0.2514 -1.1238  0.4503
 8032SOL    HW235556   0.327   2.303   6.828 -0.7137 -0.8905  0.2431
 8033SOL     OW35557   3.323   4.290  11.810  0.4650  0.7172 -0.4442
 8033SOL    HW135558   3.283   4.255  11.731  0.4873  0.6266 -0.4152
 8033SOL    HW235559   3.293   4.226  11.875  1.3962 -0.1532 -0.8749
 8034SOL     OW35560   3.433   2.165  14.050 -0.2702 -0.0929 -0.1859
 8034SOL    HW135561   3.478   2.227  13.993 -0.4227  1.2482  1.1816
 8034SOL    HW235562   3.341   2.175  14.026 -0.1858  1.5079  0.1707
 8035SOL     OW35563   0.185   3.828  14.945 -0.1570  0.3547 -0.2469
 8035SOL    HW135564   0.212   3.885  14.873 -0.1195  0.4006 -0.1968
 8035SOL    HW235565   0.259   3.834  15.006 -0.4824  0.7917  0.1112
 8036SOL     OW35566   3.010   0.927   2.971 -0.1290  0.0001  0.1282
 8036SOL    HW135567   3.072   0.999   2.957  2.1013 -1.7229  1.2819
 8036SOL    HW235568   3.046   0.859   2.914  1.2835  1.0009 -0.1654
 8037SOL     OW35569   1.544   4.480   8.541  0.4237 -0.5382  0.5238
 8037SOL    HW135570   1.501   4.564   8.531  0.1830 -0.6191  0.8953
 8037SOL    HW235571   1.635   4.507   8.555  0.7714 -1.0100 -0.7876
 8038SOL     OW35572   2.120   4.381   6.328  0.0603  0.2353 -0.2508
 8038SOL    HW135573   2.044   4.391   6.386 -0.0025 -2.3917  0.1215
 8038SOL    HW235574   2.172   4.317   6.378 -0.6181  0.1171  0.3111
 8039SOL     OW35575   4.338   2.165   3.014 -0.5086  0.5314 -0.2894
 8039SOL    HW135576   4.366   2.200   2.929 -0.2157 -4.0874 -2.1016
 8039SOL    HW235577   4.418   2.166   3.065 -0.1314  1.0599 -0.8880
 8040SOL     OW35578   1.846   3.472   2.201  0.4784 -1.2954 -0.2501
 8040SOL    HW135579   1.835   3.511   2.114 -2.4763 -0.7405  0.3456
 8040SOL    HW235580   1.834   3.551   2.254  0.0666 -0.7124 -1.2039
 8041SOL     OW35581   2.919   2.391   6.820 -0.1555  0.2254 -0.4440
 8041SOL    HW135582   2.910   2.474   6.775 -3.4175 -0.7080 -1.5298
 8041SOL    HW235583   2.844   2.391   6.879  0.5059  1.2319  0.3966
 8042SOL     OW35584   0.558   2.891   6.365  0.3498  0.2206 -0.4503
 8042SOL    HW135585   0.625   2.866   6.301  3.1011  2.6230  1.5007
 8042SOL    HW235586   0.485   2.920   6.311  1.2614  0.4512 -1.5486
 8043SOL     OW35587   3.115   2.453   4.100 -0.1108  0.0574  0.1760
 8043SOL    HW135588   3.147   2.543   4.114 -1.2953  0.1847  1.9981
 8043SOL    HW235589   3.023   2.467   4.082 -0.2414  0.5727  1.2014
 8044SOL     OW35590   1.184   3.883   3.766  0.0358  0.3398  0.3808
 8044SOL    HW135591   1.174   3.857   3.674  0.2133 -1.0616  0.7532
 8044SOL    HW235592   1.233   3.806   3.797 -0.7526 -0.2923  0.0476
 8045SOL     OW35593   0.826   1.906   8.813 -0.3217  0.2492  0.3937
 8045SOL    HW135594   0.893   1.931   8.749 -0.2224 -0.3467  0.2629
 8045SOL    HW235595   0.880   1.848   8.866  1.0381  3.6823  2.8084
 8046SOL     OW35596   0.398   3.846   7.977  0.0341 -0.2482 -0.4654
 8046SOL    HW135597   0.457   3.820   8.048 -1.0163 -0.5420  0.2889
 8046SOL    HW235598   0.442   3.926   7.947  0.3906 -0.0210  0.6758
 8047SOL     OW35599   2.471   2.599   2.795  0.3838  0.6374  0.1462
 8047SOL    HW135600   2.425   2.636   2.870  1.4812  2.4294 -0.0782
 8047SOL    HW235601   2.563   2.619   2.815  0.9528 -0.7829 -1.0738
 8048SOL     OW35602   1.551   2.156   3.193 -0.0961 -0.0855  0.8343
 8048SOL    HW135603   1.626   2.206   3.224  0.3672 -1.3494  1.7531
 8048SOL    HW235604   1.532   2.098   3.267 -1.2300 -0.6432  0.1071
 8049SOL     OW35605   4.523   4.099   6.813 -0.3765  0.2563 -0.5212
 8049SOL    HW135606   4.451   4.043   6.840 -0.4282  0.3130 -0.5418
 8049SOL    HW235607   4.516   4.109   6.718 -0.4539 -0.0746 -0.5530
 8050SOL     OW35608   4.666   1.549   0.539  0.6780  0.0626 -0.5275
 8050SOL    HW135609   4.628   1.614   0.599  1.6987  0.2622 -0.0940
 8050SOL    HW235610   0.028   1.547   0.582  0.4326 -1.2305 -0.1141
 8051SOL     OW35611   1.330   3.628   1.870  0.2418  0.2883 -0.8651
 8051SOL    HW135612   1.291   3.617   1.783 -0.7777  0.6078 -0.4502
 8051SOL    HW235613   1.409   3.681   1.854  0.8681 -1.2146 -2.7087
 8052SOL     OW35614   4.417   1.474   0.058 -0.8371  0.6466 -0.1161
 8052SOL    HW135615   4.441   1.554   0.105 -2.0294  1.8418 -1.5612
 8052SOL    HW235616   4.324   1.479   0.079 -0.8933 -0.3580 -0.1192
 8053SOL     OW35617   1.847   0.161  11.803  0.0823  0.3078  0.0502
 8053SOL    HW135618   1.796   0.085  11.776 -0.7597  1.4424 -1.5292
 8053SOL    HW235619   1.794   0.239  11.786 -0.3077  0.4577  1.9785
 8054SOL     OW35620   2.448   0.158   5.194 -0.1513  0.3147  0.9493
 8054SOL    HW135621   2.485   0.201   5.117  1.3375 -1.9823  0.3968
 8054SOL    HW235622   2.404   0.087   5.147  1.4343 -0.3950  0.5458
 8055SOL     OW35623   0.400   0.282   5.305 -0.4402  0.9010 -0.0140
 8055SOL    HW135624   0.307   0.270   5.322  0.0218 -2.3419  0.1272
 8055SOL    HW235625   0.434   0.208   5.355 -0.7738  0.5526 -0.3019
 8056SOL     OW35626   1.700   2.423  12.672 -0.3353 -0.3908 -0.1280
 8056SOL    HW135627   1.615   2.381  12.682  0.8312 -2.6518  0.2233
 8056SOL    HW235628   1.767   2.357  12.689  0.2191  0.2713  0.2529
 8057SOL     OW35629   3.344   2.872   7.936 -0.0116 -0.2212  0.5543
 8057SOL    HW135630   3.254   2.839   7.946  0.0768 -0.1263  1.6841
 8057SOL    HW235631   3.353   2.900   7.845  1.2537  1.7402  1.2812
 8058SOL     OW35632   0.635   3.791   8.634 -0.6164  0.0084  0.1164
 8058SOL    HW135633   0.645   3.880   8.669 -1.3375 -1.0177  2.8899
 8058SOL    HW235634   0.713   3.755   8.676 -0.8208 -0.1790  0.3287
 8059SOL     OW35635   1.992   2.875   5.858 -0.1952  0.5471 -0.5739
 8059SOL    HW135636   2.042   2.923   5.923 -0.1916 -2.4301  1.6288
 8059SOL    HW235637   2.045   2.795   5.862 -3.0413 -1.4065 -1.6796
 8060SOL     OW35638   2.652   1.113  14.147 -0.1734  0.4329 -0.1936
 8060SOL    HW135639   2.592   1.039  14.138 -1.6691  1.4876  1.1341
 8060SOL    HW235640   2.719   1.076  14.204  0.4828  0.6456 -0.8278
 8061SOL     OW35641   2.209   0.900   7.418  0.5997 -1.1448 -0.1210
 8061SOL    HW135642   2.166   0.986   7.417 -2.2599 -2.5508  0.8992
 8061SOL    HW235643   2.292   0.918   7.375  0.8442  0.9055  1.2253
 8062SOL     OW35644   0.261   3.002   3.825  0.4580  0.0159 -0.2731
 8062SOL    HW135645   0.312   2.988   3.746  0.0446 -0.3494 -0.4772
 8062SOL    HW235646   0.194   3.060   3.787 -0.5721  0.3644  2.0599
 8063SOL     OW35647   4.430   1.701   6.807 -0.2514  0.1667 -0.3777
 8063SOL    HW135648   4.456   1.774   6.864  0.0939  0.4574 -0.9121
 8063SOL    HW235649   4.501   1.698   6.743  0.5077 -1.9824  0.5674
 8064SOL     OW35650   2.008   1.084   6.660  0.1120  0.7648 -0.0620
 8064SOL    HW135651   2.092   1.053   6.695 -0.7337 -0.8728  0.4973
 8064SOL    HW235652   2.022   1.101   6.567 -1.3802 -2.2613 -0.8120
 8065SOL     OW35653   3.974   3.138   6.034  0.4939 -0.5194  0.2007
 8065SOL    HW135654   3.993   3.108   5.945  0.6802 -0.9936  0.4013
 8065SOL    HW235655   3.987   3.050   6.068  1.1342 -0.0259  1.2243
 8066SOL     OW35656   1.755   1.625   3.930  0.1252  0.0770  0.0420
 8066SOL    HW135657   1.755   1.533   3.958 -1.5147 -0.2219 -0.9415
 8066SOL    HW235658   1.661   1.640   3.920  0.2232 -0.8936 -2.3107
 8067SOL     OW35659   3.194   1.245   8.967 -0.0794  0.2340  0.2814
 8067SOL    HW135660   3.195   1.158   8.926 -0.7325  0.0450  0.6687
 8067SOL    HW235661   3.224   1.228   9.056  0.6205  1.8252  0.3531
 8068SOL     OW35662   0.001   3.213   5.792  0.1440 -0.0790 -0.4347
 8068SOL    HW135663   4.697   3.259   5.713  1.4949  4.7298  1.9033
 8068SOL    HW235664   4.702   3.268   5.868 -1.1449 -1.3877  0.1373
 8069SOL     OW35665   3.057   0.411  11.000 -0.2338 -0.3033 -0.0547
 8069SOL    HW135666   2.998   0.405  10.925 -0.2688  0.6100 -0.0920
 8069SOL    HW235667   3.072   0.505  11.007  1.8604 -0.7325  1.3216
 8070SOL     OW35668   4.168   4.104  13.568 -0.0562 -0.1517 -0.0316
 8070SOL    HW135669   4.099   4.073  13.510 -0.4955 -1.6149  1.2659
 8070SOL    HW235670   4.147   4.198  13.570 -1.7005 -0.5394  1.1405
 8071SOL     OW35671   1.998   0.808   5.575  0.1533  0.1292  0.2171
 8071SOL    HW135672   2.067   0.809   5.509 -1.4933  0.1449 -1.5186
 8071SOL    HW235673   1.922   0.826   5.519 -0.2518  2.6772  1.5751
 8072SOL     OW35674   0.424   1.709   7.403  0.0567 -0.0475 -0.1899
 8072SOL    HW135675   0.434   1.680   7.313  0.3843  0.7158 -0.3988
 8072SOL    HW235676   0.511   1.747   7.417 -0.0745  0.3179 -0.3631
 8073SOL     OW35677   0.274   0.483   3.978 -0.2104 -0.1204 -0.0772
 8073SOL    HW135678   0.337   0.539   4.023 -1.3566  0.7161  0.4867
 8073SOL    HW235679   0.257   0.419   4.046  1.1132  0.4509  0.7765
 8074SOL     OW35680   3.883   0.078   5.392  0.3674 -0.0104 -0.1800
 8074SOL    HW135681   3.858   4.719   5.436  2.8819  0.3926  1.9664
 8074SOL    HW235682   3.877   0.135   5.468  0.9720  0.8905 -0.8137
 8075SOL     OW35683   1.157   0.996   5.254  0.6663 -0.1050  0.2551
 8075SOL    HW135684   1.101   1.049   5.311 -2.4971 -0.4646 -2.4793
 8075SOL    HW235685   1.202   0.934   5.311  0.4252 -2.1804 -1.8157
 8076SOL     OW35686   1.097   1.931   6.251 -0.0646  0.6251 -0.1986
 8076SOL    HW135687   1.025   1.987   6.221 -1.4862 -1.8115 -1.2739
 8076SOL    HW235688   1.145   1.980   6.318 -1.4091 -1.1258  2.0386
 8077SOL     OW35689   0.257   3.290   9.494 -0.2532 -0.6450  0.2722
 8077SOL    HW135690   0.347   3.267   9.471  0.7406  2.6783  0.9195
 8077SOL    HW235691   0.213   3.211   9.463 -2.2321  0.2842  0.7108
 8078SOL     OW35692   2.409   1.160   7.837 -0.3300  1.1372  0.3359
 8078SOL    HW135693   2.323   1.124   7.819  0.4325 -0.1191 -0.7977
 8078SOL    HW235694   2.431   1.198   7.751 -1.2970  0.4245 -0.2211
 8079SOL     OW35695   2.102   3.688  17.399 -0.4111 -0.1777  0.2627
 8079SOL    HW135696   2.031   3.745  17.430  0.9643  1.6851 -0.0043
 8079SOL    HW235697   2.167   3.686  17.469 -0.2688  2.8788  0.2269
 8080SOL     OW35698   2.981   2.176   4.030 -0.6314 -0.4248  0.2288
 8080SOL    HW135699   2.915   2.111   4.052 -0.5363  0.1215  2.1181
 8080SOL    HW235700   2.933   2.250   4.068 -0.8524 -0.1047 -0.6639
 8081SOL     OW35701   4.007   1.821  10.340  0.2767  0.0092  0.0931
 8081SOL    HW135702   4.002   1.880  10.265 -0.5742  0.3888  0.4466
 8081SOL    HW235703   3.946   1.754  10.308  1.8226 -0.0543 -2.7682
 8082SOL     OW35704   1.783   2.465  14.700 -0.2180  0.4202 -0.2540
 8082SOL    HW135705   1.837   2.455  14.778  1.5929  1.2592 -1.3690
 8082SOL    HW235706   1.846   2.482  14.629 -1.1493  4.6953 -0.0769
 8083SOL     OW35707   4.197   3.987  14.824 -0.3929 -0.8626  0.1299
 8083SOL    HW135708   4.150   4.066  14.799  0.4966  0.0738  1.4853
 8083SOL    HW235709   4.285   4.010  14.796  0.0757 -0.3370  2.0496
 8084SOL     OW35710   0.747   3.351   5.981  0.2929 -0.5128 -0.0950
 8084SOL    HW135711   0.714   3.262   5.973 -1.1495  0.0938 -0.7379
 8084SOL    HW235712   0.743   3.376   6.074  1.5485  0.8455 -0.4033
 8085SOL     OW35713   0.134   0.580   3.769 -0.2105 -0.3973 -0.1650
 8085SOL    HW135714   0.220   0.608   3.737 -0.9194  1.2840 -0.6440
 8085SOL    HW235715   0.161   0.532   3.847  0.9815  0.2333 -0.1809
 8086SOL     OW35716   3.500   2.058   7.739 -0.7952 -0.1890 -0.2395
 8086SOL    HW135717   3.470   2.089   7.824  2.3072 -1.3722  1.3080
 8086SOL    HW235718   3.581   2.105   7.720 -0.0186 -0.5182  2.2504
 8087SOL     OW35719   3.419   4.244  10.215  0.0397  0.1391 -0.0015
 8087SOL    HW135720   3.400   4.151  10.205 -1.6264  0.7240 -2.2519
 8087SOL    HW235721   3.465   4.265  10.134 -1.1088  0.4723 -0.5539
 8088SOL     OW35722   3.671   3.069   4.459 -0.3048 -0.2629 -0.1581
 8088SOL    HW135723   3.749   3.054   4.405  0.3320  0.6045  0.5141
 8088SOL    HW235724   3.684   2.998   4.521 -0.3960 -0.5151 -0.4252
 8089SOL     OW35725   3.778   1.419   8.988 -0.6193  0.0735  0.6680
 8089SOL    HW135726   3.804   1.419   9.080  0.4545 -1.6263  0.3476
 8089SOL    HW235727   3.815   1.335   8.962 -0.9853  0.0020  0.3759
 8090SOL     OW35728   0.424   3.876  10.583 -0.0605 -0.4241 -0.0146
 8090SOL    HW135729   0.490   3.838  10.525 -1.1687  0.2483 -1.6984
 8090SOL    HW235730   0.439   3.829  10.665 -0.4241  1.5079  1.1422
 8091SOL     OW35731   4.500   4.600   7.367  0.0055 -0.0642  0.0568
 8091SOL    HW135732   4.534   4.668   7.426  1.4590 -0.2350 -0.5860
 8091SOL    HW235733   4.568   4.534   7.379  0.0307 -0.3117 -1.4903
 8092SOL     OW35734   3.581   3.113  13.187  0.3663 -0.2196 -0.6421
 8092SOL    HW135735   3.620   3.196  13.160 -0.9649  0.5255 -0.2758
 8092SOL    HW235736   3.502   3.102  13.133  0.6122 -2.5465 -0.5390
 8093SOL     OW35737   1.678   2.573   6.751 -0.0539  0.1225  0.2830
 8093SOL    HW135738   1.682   2.665   6.722  2.0178 -0.0805 -0.0924
 8093SOL    HW235739   1.619   2.541   6.683 -0.9417  1.7877  0.2671
 8094SOL     OW35740   1.979   0.102  16.156 -0.2094  0.1935  0.4789
 8094SOL    HW135741   1.941   0.044  16.221  3.1862 -1.5350  0.9653
 8094SOL    HW235742   2.064   0.125  16.193  0.1194  0.4035 -0.3973
 8095SOL     OW35743   3.464   1.698   5.561 -0.2875  0.2371 -0.3917
 8095SOL    HW135744   3.416   1.696   5.478  0.1021 -0.8889 -0.5884
 8095SOL    HW235745   3.442   1.789   5.581 -2.6835 -0.5654  0.5871
 8096SOL     OW35746   0.824   1.579   3.681  0.4422 -0.0793 -0.3183
 8096SOL    HW135747   0.796   1.632   3.755  1.0726 -0.3048  0.0788
 8096SOL    HW235748   0.830   1.489   3.712  1.6342 -0.4677 -1.6955
 8097SOL     OW35749   4.364   1.483   5.741  0.0311 -0.6531  0.0244
 8097SOL    HW135750   4.368   1.435   5.659 -2.1140 -1.1537  0.2000
 8097SOL    HW235751   4.274   1.515   5.738  0.1256 -0.2783  1.1297
 8098SOL     OW35752   2.780   1.371  14.256  0.0140  0.2518  0.1295
 8098SOL    HW135753   2.686   1.371  14.274 -0.2634  2.0754 -1.3606
 8098SOL    HW235754   2.799   1.282  14.286 -2.8524 -0.6583 -0.7573
 8099SOL     OW35755   3.902   4.354  11.023 -0.0475 -0.0423 -0.2570
 8099SOL    HW135756   3.897   4.408  11.102  0.9478 -1.2632  0.6204
 8099SOL    HW235757   3.808   4.339  11.009 -0.6592  0.6683  3.0966
 8100SOL     OW35758   0.267   3.687   7.803  0.4238 -0.5739 -0.5490
 8100SOL    HW135759   0.327   3.686   7.728  2.1877  1.0819  0.8614
 8100SOL    HW235760   0.316   3.746   7.860 -1.0086 -2.7162  2.8747
 8101SOL     OW35761   1.563   0.023  17.533 -0.1699  0.5720 -0.5186
 8101SOL    HW135762   1.483   0.010  17.482 -0.0142  0.6465 -0.7837
 8101SOL    HW235763   1.525   0.022  17.621 -0.9289  0.3115 -0.8423
 8102SOL     OW35764   3.233   3.339   5.795 -0.1164  0.0295 -0.6486
 8102SOL    HW135765   3.225   3.259   5.847  0.0261  0.0059 -0.6626
 8102SOL    HW235766   3.306   3.311   5.739  0.2487  0.8576 -0.5844
 8103SOL     OW35767   1.835   2.656  12.537  0.1249  0.1611 -0.3905
 8103SOL    HW135768   1.784   2.584  12.576 -2.1712  3.3735  2.5022
 8103SOL    HW235769   1.920   2.622  12.510  0.7229  1.3632  0.0090
 8104SOL     OW35770   0.375   0.918   3.475  0.3610 -0.1830  0.2090
 8104SOL    HW135771   0.355   1.011   3.474  0.8275 -0.1070 -2.2972
 8104SOL    HW235772   0.447   0.909   3.413  0.9535 -0.0459  0.8798
 8105SOL     OW35773   1.248   2.920   1.025  0.5427  0.0987  0.1805
 8105SOL    HW135774   1.266   3.009   1.055 -1.6489  0.7243 -0.3200
 8105SOL    HW235775   1.289   2.908   0.939  1.0362  0.4356  0.3740
 8106SOL     OW35776   0.557   1.646   7.143  0.5419 -0.1796 -0.4396
 8106SOL    HW135777   0.600   1.665   7.060  0.6308  2.4018  0.2033
 8106SOL    HW235778   0.635   1.610   7.186  0.6289  1.1435  0.5031
 8107SOL     OW35779   2.000   3.860   9.858 -0.3210  0.2733  0.0183
 8107SOL    HW135780   1.955   3.944   9.857 -0.2265  0.3351  2.7661
 8107SOL    HW235781   2.034   3.853   9.768  0.6115  2.6275  0.1849
 8108SOL     OW35782   0.395   2.578   4.364 -0.1167  0.7592  0.0823
 8108SOL    HW135783   0.387   2.618   4.450  0.5691  0.1763  0.4127
 8108SOL    HW235784   0.379   2.487   4.386 -0.6776  1.3614  2.1975
 8109SOL     OW35785   3.622   1.255  13.296 -0.6030 -0.0040 -0.1134
 8109SOL    HW135786   3.580   1.308  13.228  0.0693  0.3339 -0.2609
 8109SOL    HW235787   3.638   1.168  13.257  1.7716 -0.3289  1.5896
 8110SOL     OW35788   3.667   4.352   6.362 -0.0924 -0.4206  0.0906
 8110SOL    HW135789   3.628   4.433   6.394  0.5531  0.0768 -0.4069
 8110SOL    HW235790   3.744   4.351   6.418  1.8801 -0.6253 -2.6464
 8111SOL     OW35791   1.979   2.351   9.913  0.2436  0.0331 -0.3866
 8111SOL    HW135792   1.948   2.441   9.925 -2.4707 -1.1488  1.2429
 8111SOL    HW235793   2.065   2.361   9.870  0.1221  0.1639 -0.6035
 8112SOL     OW35794   0.823   2.490   3.371  0.1134 -0.2601 -0.0388
 8112SOL    HW135795   0.866   2.573   3.392 -0.7697 -0.0627  0.9612
 8112SOL    HW235796   0.844   2.479   3.278  0.3957  1.1785 -0.1402
 8113SOL     OW35797   0.854   1.602   7.211 -0.3002  0.1100  0.0261
 8113SOL    HW135798   0.878   1.687   7.248 -0.5353  0.4514 -0.6080
 8113SOL    HW235799   0.880   1.545   7.283 -0.9562  0.9225  0.8986
 8114SOL     OW35800   1.700   1.653  16.962  0.2497  0.4676 -0.2362
 8114SOL    HW135801   1.636   1.609  16.906 -0.2983 -0.0801  0.8216
 8114SOL    HW235802   1.729   1.576  17.011  0.4682 -0.1207 -1.3040
 8115SOL     OW35803   1.359   0.809   8.946 -0.0195 -0.6636  0.3126
 8115SOL    HW135804   1.426   0.821   8.879  2.5763 -1.2335  2.7801
 8115SOL    HW235805   1.413   0.820   9.024  0.9727 -0.1685 -0.4432
 8116SOL     OW35806   1.530   0.565   5.704  0.1470 -0.2649 -0.1891
 8116SOL    HW135807   1.507   0.601   5.790 -1.4250  2.3986 -1.7316
 8116SOL    HW235808   1.504   0.474   5.714 -1.3102  0.0556 -1.0877
 8117SOL     OW35809   2.459   0.984   8.069 -0.0977 -0.6014 -0.0880
 8117SOL    HW135810   2.458   0.925   7.994 -0.2475  0.3903 -0.8583
 8117SOL    HW235811   2.452   1.070   8.028  0.2432  1.1819  3.5687
 8118SOL     OW35812   0.044   2.641   9.031  0.2965  0.2416 -0.3367
 8118SOL    HW135813   0.124   2.614   8.984 -0.5872 -2.6674 -0.1352
 8118SOL    HW235814   4.701   2.578   9.004  2.0147 -1.8753  0.3801
 8119SOL     OW35815   4.624   1.744   2.641  0.6179  0.6355  0.1522
 8119SOL    HW135816   4.688   1.785   2.584  2.1417 -0.8842  0.7701
 8119SOL    HW235817   4.545   1.764   2.592  1.0440  1.6052 -0.1403
 8120SOL     OW35818   4.050   1.068   6.129  0.2537  0.3215  0.0219
 8120SOL    HW135819   4.024   1.038   6.042 -1.1309 -0.5854  0.7526
 8120SOL    HW235820   3.966   1.058   6.174  0.4576 -0.5247  0.2108
 8121SOL     OW35821   4.212   1.198   5.792  0.5924 -0.0585  0.2232
 8121SOL    HW135822   4.176   1.115   5.824  0.2288 -0.2153 -0.5918
 8121SOL    HW235823   4.218   1.244   5.876  2.4818 -1.0397  0.6312
 8122SOL     OW35824   3.260   3.029  15.339 -0.4071  0.0227 -0.1891
 8122SOL    HW135825   3.282   2.971  15.413 -0.1116 -0.7174 -0.8573
 8122SOL    HW235826   3.314   3.096  15.379  0.4896  0.9707 -3.0384
 8123SOL     OW35827   3.830   4.017   3.147 -0.4557  0.7434 -0.0913
 8123SOL    HW135828   3.870   3.950   3.203  3.7424  2.2404 -1.3063
 8123SOL    HW235829   3.904   4.076   3.151 -0.2668  0.4548  0.6330
 8124SOL     OW35830   4.436   1.013   8.129 -0.4129 -0.2640  0.3236
 8124SOL    HW135831   4.434   1.099   8.088 -0.5448 -1.1158 -1.4600
 8124SOL    HW235832   4.375   1.031   8.200  0.7675  0.2227  1.2042
 8125SOL     OW35833   2.566   4.626  12.053 -0.5989  0.1110  0.1976
 8125SOL    HW135834   2.564   4.709  12.006 -0.6166  0.2501  0.4430
 8125SOL    HW235835   2.494   4.573  12.018  0.6147 -2.6037  1.7222
 8126SOL     OW35836   3.569   2.615  11.694 -0.1955 -0.6007 -0.0964
 8126SOL    HW135837   3.570   2.632  11.600 -0.2984 -1.5597 -0.2706
 8126SOL    HW235838   3.661   2.620  11.718 -0.3682 -0.6689  0.5779
 8127SOL     OW35839   2.536   1.689   8.357 -0.2207 -0.0393  0.2715
 8127SOL    HW135840   2.463   1.732   8.314  0.3478 -0.0985 -0.7653
 8127SOL    HW235841   2.511   1.597   8.345  0.5682 -0.1471 -0.5940
 8128SOL     OW35842   4.277   2.798   0.317 -0.1785  0.0939 -0.1095
 8128SOL    HW135843   4.265   2.857   0.242 -1.5958 -1.3250 -0.9894
 8128SOL    HW235844   4.294   2.724   0.258 -1.1283 -2.0897  2.3768
 8129SOL     OW35845   0.887   1.618   4.120 -0.1986 -0.0899 -0.1190
 8129SOL    HW135846   0.883   1.691   4.058 -0.0591  1.7736  2.0857
 8129SOL    HW235847   0.871   1.664   4.202  0.6726  0.1880 -0.1032
 8130SOL     OW35848   0.769   1.900   7.066  0.6136 -0.6185 -0.1373
 8130SOL    HW135849   0.739   1.912   7.156 -0.2616  0.0136 -0.5082
 8130SOL    HW235850   0.693   1.930   7.015  0.1831 -1.2502  0.1245
 8131SOL     OW35851   1.124   4.210   4.754 -0.2747  0.0372  0.3210
 8131SOL    HW135852   1.119   4.285   4.814 -2.6963 -0.1059  0.2912
 8131SOL    HW235853   1.219   4.198   4.749 -0.3546  0.8182 -2.8907
 8132SOL     OW35854   0.437   3.783   6.935  0.3178 -0.1130  0.2743
 8132SOL    HW135855   0.523   3.765   6.898  0.4492 -1.7397  1.3460
 8132SOL    HW235856   0.456   3.770   7.027  0.6088 -0.5669  0.1523
 8133SOL     OW35857   0.428   0.576   4.716  0.4869 -0.3293  0.1336
 8133SOL    HW135858   0.468   0.526   4.644 -0.4462  0.9098 -1.2585
 8133SOL    HW235859   0.336   0.564   4.695  1.3235 -4.3088 -1.3705
 8134SOL     OW35860   1.015   3.583   1.812  0.5659 -0.3228  0.3489
 8134SOL    HW135861   1.074   3.616   1.744  2.1291  1.4643  2.5855
 8134SOL    HW235862   1.041   3.493   1.792  0.5882 -0.0557 -0.8636
 8135SOL     OW35863   0.806   3.428   0.715 -0.0454 -0.3944  0.1869
 8135SOL    HW135864   0.747   3.496   0.685 -0.4192 -0.3181  1.1069
 8135SOL    HW235865   0.743   3.356   0.709 -1.8445  1.1615  0.9079
 8136SOL     OW35866   3.683   4.444  10.020 -0.4297  0.3076 -0.3129
 8136SOL    HW135867   3.663   4.423  10.112  2.0494 -0.3313  0.0808
 8136SOL    HW235868   3.648   4.365   9.979  0.1569  0.1600 -0.5366
 8137SOL     OW35869   0.408   1.465   1.674  0.0611 -0.1387  0.3266
 8137SOL    HW135870   0.480   1.473   1.737 -0.3682  2.6175  0.4938
 8137SOL    HW235871   0.388   1.552   1.639  0.1077 -0.3661 -0.2580
 8138SOL     OW35872   1.952   2.342   4.903  0.2238 -0.3582  0.1596
 8138SOL    HW135873   2.037   2.298   4.901  0.5577  0.2829  0.2337
 8138SOL    HW235874   1.948   2.364   4.996  0.0714  2.1013 -0.4343
 8139SOL     OW35875   0.226   3.299   3.519  0.1308 -0.0026  0.5683
 8139SOL    HW135876   0.198   3.373   3.466  0.5906 -0.7867 -0.7739
 8139SOL    HW235877   0.237   3.330   3.609 -0.3741  2.3334 -0.1701
 8140SOL     OW35878   2.601   1.171   4.315  0.1628  0.0649  0.1146
 8140SOL    HW135879   2.658   1.104   4.352 -0.6170 -0.6132  0.0939
 8140SOL    HW235880   2.584   1.135   4.228  2.7314 -0.0019 -0.3561
 8141SOL     OW35881   0.653   3.560   6.191  0.4664  0.0612 -0.1919
 8141SOL    HW135882   0.731   3.589   6.238 -0.3702 -0.4475  1.5334
 8141SOL    HW235883   0.653   3.610   6.110  3.2169  1.0596  0.4253
 8142SOL     OW35884   1.969   3.102   0.755  0.2423  0.7885 -0.0374
 8142SOL    HW135885   2.012   3.148   0.827  0.6234  0.3380  0.0267
 8142SOL    HW235886   2.023   3.027   0.728 -1.5118 -0.7194  0.6509
 8143SOL     OW35887   1.384   2.441   3.148 -0.1352  0.2958 -0.2048
 8143SOL    HW135888   1.310   2.408   3.097 -0.7359  1.9035 -0.3778
 8143SOL    HW235889   1.380   2.537   3.149 -1.2017  0.2417  0.4329
 8144SOL     OW35890   2.787   2.664   4.194 -0.4374 -0.2753 -0.0953
 8144SOL    HW135891   2.702   2.704   4.173 -0.6415 -0.9371 -0.5493
 8144SOL    HW235892   2.818   2.628   4.111  0.9377  0.7959 -0.0433
 8145SOL     OW35893   4.316   3.956   2.595  0.3047 -0.1610  0.2309
 8145SOL    HW135894   4.269   3.903   2.530  1.4915 -0.5980 -0.2840
 8145SOL    HW235895   4.295   3.903   2.672  4.1687 -1.5760  0.3301
 8146SOL     OW35896   3.131   4.720   4.544  0.8425  0.3101 -0.1166
 8146SOL    HW135897   3.217   4.721   4.586  0.7028 -0.6161  0.1759
 8146SOL    HW235898   3.129   0.057   4.469  1.8957 -1.4915 -1.5818
 8147SOL     OW35899   0.810   1.294   8.391 -0.3802 -0.1745  0.0671
 8147SOL    HW135900   0.750   1.277   8.464 -0.4713 -2.7066 -0.6084
 8147SOL    HW235901   0.802   1.220   8.330 -0.3648 -0.5815  0.5551
 8148SOL     OW35902   3.692   3.119   0.639  0.7385  0.4592  0.2856
 8148SOL    HW135903   3.746   3.063   0.694 -1.1582 -0.4846  1.1894
 8148SOL    HW235904   3.711   3.090   0.550 -2.1570  0.8636 -0.4636
 8149SOL     OW35905   3.226   1.451   8.746 -0.1067 -0.3579  0.4040
 8149SOL    HW135906   3.219   1.533   8.795  0.4991  0.7732 -1.3785
 8149SOL    HW235907   3.201   1.389   8.814 -0.1593 -2.3076 -1.3820
 8150SOL     OW35908   3.408   2.429   6.505 -0.2481 -0.5640  0.2104
 8150SOL    HW135909   3.314   2.434   6.487  0.0088 -1.5975 -1.3700
 8150SOL    HW235910   3.415   2.463   6.595  1.9094 -0.1392 -0.1323
 8151SOL     OW35911   4.650   3.153   6.519  0.3515  0.4730  0.2248
 8151SOL    HW135912   4.573   3.123   6.567 -0.7517  1.3892 -0.9423
 8151SOL    HW235913   4.714   3.085   6.538  2.5694  2.1194 -1.3973
 8152SOL     OW35914   1.442   4.340   9.420  0.0284  0.1978 -0.1479
 8152SOL    HW135915   1.421   4.377   9.505 -0.0534 -1.8187  0.7017
 8152SOL    HW235916   1.387   4.261   9.423  0.3862 -0.0665 -0.5836
 8153SOL     OW35917   2.249   1.716   4.864 -0.4014 -1.1428  0.0998
 8153SOL    HW135918   2.179   1.732   4.928  0.1343  0.0885  0.3722
 8153SOL    HW235919   2.300   1.794   4.885  1.9066 -2.8524  0.7614
 8154SOL     OW35920   2.863   1.063   6.275  0.5270  0.1703 -0.2378
 8154SOL    HW135921   2.846   1.157   6.276  1.3641  0.3243 -1.9192
 8154SOL    HW235922   2.892   1.050   6.185  0.1825 -1.9879 -0.0418
 8155SOL     OW35923   0.344   2.595  15.779  0.0849 -0.2153  0.4702
 8155SOL    HW135924   0.422   2.548  15.807  0.1774 -0.5568 -0.3837
 8155SOL    HW235925   0.338   2.561  15.690 -0.7524 -0.2482  0.5329
 8156SOL     OW35926   3.965   1.850   9.876 -0.2306  0.2213  0.5917
 8156SOL    HW135927   3.956   1.838   9.970  1.9315  0.0755  0.7876
 8156SOL    HW235928   3.989   1.943   9.871  1.2339 -0.0493  2.4850
 8157SOL     OW35929   4.154   0.264  15.165 -0.2601 -0.6219  0.3607
 8157SOL    HW135930   4.070   0.228  15.135  0.0712 -0.7188 -0.4516
 8157SOL    HW235931   4.167   0.327  15.094 -1.7710  0.7343  1.2926
 8158SOL     OW35932   3.417   3.333  15.727 -0.3203 -0.1300  0.1786
 8158SOL    HW135933   3.507   3.340  15.697  0.1513 -1.2529  1.3250
 8158SOL    HW235934   3.397   3.419  15.764 -1.5066 -0.7597  1.0282
 8159SOL     OW35935   3.387   1.001   7.581 -0.0533 -0.3481  0.3947
 8159SOL    HW135936   3.457   1.025   7.642 -0.2450  1.0592  0.0664
 8159SOL    HW235937   3.429   0.987   7.497  2.4366  1.5980  1.3325
 8160SOL     OW35938   3.719   1.346   4.311  0.3119 -0.0801 -0.2258
 8160SOL    HW135939   3.654   1.387   4.254  2.4310  1.9016 -1.1854
 8160SOL    HW235940   3.730   1.423   4.367 -0.8121  0.7923 -1.2027
 8161SOL     OW35941   1.364   3.694  17.683  0.1695  0.6096 -0.3755
 8161SOL    HW135942   1.383   3.656  17.598 -1.0007  1.2942 -0.9486
 8161SOL    HW235943   1.393   3.784  17.668 -0.3487  0.8559  0.0854
 8162SOL     OW35944   3.956   4.427   5.896  0.1793  0.5405 -0.0974
 8162SOL    HW135945   3.908   4.344   5.894 -0.7051  1.0524  0.3457
 8162SOL    HW235946   4.044   4.391   5.880  0.8341  2.1159 -0.0304
 8163SOL     OW35947   0.660   0.882   2.646 -0.4052 -0.3509  0.0909
 8163SOL    HW135948   0.602   0.808   2.629  1.2338 -1.8628  1.0502
 8163SOL    HW235949   0.698   0.897   2.559  1.4351 -2.8923  0.4577
 8164SOL     OW35950   0.648   1.177  13.393  0.0176 -0.6317  0.0290
 8164SOL    HW135951   0.641   1.128  13.311  3.8735 -0.3010 -0.4560
 8164SOL    HW235952   0.647   1.270  13.370 -0.1281 -0.8060 -0.6760
 8165SOL     OW35953   2.520   0.006   3.004  0.6658  0.0873  0.3898
 8165SOL    HW135954   2.585   0.076   3.010 -0.7441  1.4191  0.3287
 8165SOL    HW235955   2.514   4.703   3.096 -1.3974 -2.3484 -0.4174
 8166SOL     OW35956   3.134   2.806   0.582  0.3602 -0.0501 -0.7116
 8166SOL    HW135957   3.153   2.729   0.635 -0.2291 -0.1127 -0.5912
 8166SOL    HW235958   3.202   2.804   0.514  0.7870  0.7331 -0.3108
 8167SOL     OW35959   3.295   4.489   5.722 -0.3621 -0.1998  0.2101
 8167SOL    HW135960   3.269   4.399   5.701 -1.6366 -0.0016  0.9339
 8167SOL    HW235961   3.214   4.533   5.695 -0.1148 -0.5651 -1.1301
 8168SOL     OW35962   1.856   2.722   4.338 -0.4780 -0.0553 -0.0455
 8168SOL    HW135963   1.926   2.775   4.299 -0.6151 -0.5300 -0.9400
 8168SOL    HW235964   1.790   2.783   4.370 -2.1604  0.2738 -4.1996
 8169SOL     OW35965   0.624   2.709   2.424  0.1113 -0.2797 -0.2693
 8169SOL    HW135966   0.687   2.696   2.495 -1.4790 -1.8321  0.8491
 8169SOL    HW235967   0.683   2.670   2.360 -0.4914 -0.2161 -0.8669
 8170SOL     OW35968   1.816   3.916  16.100 -0.0811 -0.7634  0.3758
 8170SOL    HW135969   1.847   3.827  16.081 -0.0540 -1.3078  3.0203
 8170SOL    HW235970   1.890   3.962  16.139 -0.3616 -1.1157  1.3254
 8171SOL     OW35971   3.730   2.362   5.223 -0.1520 -0.1324  0.2575
 8171SOL    HW135972   3.648   2.397   5.258 -1.2574 -1.9429 -0.5224
 8171SOL    HW235973   3.705   2.343   5.132 -0.5806  1.1199  0.1193
 8172SOL     OW35974   4.703   1.675   8.637  0.0848  0.1866 -0.3450
 8172SOL    HW135975   4.713   1.765   8.666  0.2670  0.6533 -1.8687
 8172SOL    HW235976   0.068   1.653   8.605  0.0929  1.2045 -0.9946
 8173SOL     OW35977   3.898   1.712   4.060  0.3201 -0.0758  0.2277
 8173SOL    HW135978   3.819   1.749   4.021 -0.5102 -1.4108  0.6539
 8173SOL    HW235979   3.964   1.761   4.011  2.2385 -0.2689  2.6441
 8174SOL     OW35980   1.236   0.456   5.603  0.2937 -0.5188  0.2258
 8174SOL    HW135981   1.314   0.430   5.651 -0.7552  0.4959  2.5069
 8174SOL    HW235982   1.285   0.514   5.545  0.9673  0.5243  1.8478
 8175SOL     OW35983   2.191   4.516   0.634 -0.4701  0.0298 -0.1557
 8175SOL    HW135984   2.150   4.584   0.686 -0.4352 -0.8420  1.0056
 8175SOL    HW235985   2.255   4.469   0.688  0.1751  0.4984 -0.4973
 8176SOL     OW35986   1.793   0.976  12.916 -0.3820 -0.5190  0.5335
 8176SOL    HW135987   1.786   0.970  13.011 -2.3634  2.0455  0.5568
 8176SOL    HW235988   1.786   0.882  12.900  0.1792  0.4615 -5.3484
 8177SOL     OW35989   4.140   3.538   8.573 -0.1047  0.6256  0.1149
 8177SOL    HW135990   4.199   3.468   8.602 -0.2510 -0.0391 -1.2255
 8177SOL    HW235991   4.161   3.555   8.481 -1.2463  0.9410 -0.0836
 8178SOL     OW35992   3.175   3.168   7.770  0.0611 -0.8475  0.0904
 8178SOL    HW135993   3.169   3.212   7.854  3.8015 -0.8195  0.3369
 8178SOL    HW235994   3.118   3.092   7.787  0.6486 -1.5934 -1.2760
 8179SOL     OW35995   1.325   0.128   5.919 -0.4199 -0.1733  0.6502
 8179SOL    HW135996   1.330   0.142   6.013  4.6923 -2.3302  0.6772
 8179SOL    HW235997   1.233   0.130   5.892 -0.5097 -0.0679  0.9656
 8180SOL     OW35998   1.815   0.577  13.747  0.3181  0.3325  0.1184
 8180SOL    HW135999   1.838   0.577  13.840 -1.0659 -1.2320  0.4559
 8180SOL    HW236000   1.872   0.509  13.709 -0.2653 -0.0890 -0.0088
 8181SOL     OW36001   3.135   0.467  16.460  0.4854  0.0413 -0.5530
 8181SOL    HW136002   3.111   0.546  16.412  1.4958  0.6066 -0.1148
 8181SOL    HW236003   3.227   0.454  16.436  1.3608  0.2694  2.7667
 8182SOL     OW36004   3.272   0.404   4.678  0.1011  0.0519 -0.1491
 8182SOL    HW136005   3.276   0.330   4.617  0.0678 -0.5433  0.5674
 8182SOL    HW236006   3.293   0.366   4.763 -0.9453  1.1508  0.6128
 8183SOL     OW36007   1.861   2.433   9.258  0.1330  0.0554  0.2317
 8183SOL    HW136008   1.894   2.406   9.344  0.5827 -1.0447 -0.2935
 8183SOL    HW236009   1.889   2.525   9.254  0.1711  0.2146  4.8131
 8184SOL     OW36010   0.520   3.829   4.304 -0.7835 -0.4596  0.1458
 8184SOL    HW136011   0.572   3.838   4.384  1.0222  1.5927 -1.2736
 8184SOL    HW236012   0.500   3.922   4.303  0.0233 -0.3162 -1.3968
 8185SOL     OW36013   3.041   2.044   3.777  0.0693  0.2666  0.3056
 8185SOL    HW136014   3.025   2.082   3.863 -2.2732 -2.2714  1.0082
 8185SOL    HW236015   3.026   2.119   3.721 -1.1437 -0.2957 -0.1269
 8186SOL     OW36016   2.755   0.491   2.282  0.1249  0.2950  0.1230
 8186SOL    HW136017   2.709   0.528   2.358 -1.4271 -1.6806  0.1596
 8186SOL    HW236018   2.766   0.566   2.224  0.0675  0.6307  0.5481
 8187SOL     OW36019   0.511   2.952  13.589 -0.2932 -0.8157 -0.6434
 8187SOL    HW136020   0.566   3.011  13.537 -0.1828  1.1081  1.6374
 8187SOL    HW236021   0.447   3.017  13.619 -0.8371 -1.2643 -0.8226
 8188SOL     OW36022   3.951   2.573   4.728 -0.2021 -0.0773  0.1733
 8188SOL    HW136023   3.900   2.548   4.805  1.4832 -1.9391  0.6758
 8188SOL    HW236024   3.959   2.667   4.745  0.1031  0.1963 -1.4151
 8189SOL     OW36025   1.479   2.016   3.968 -0.1855  0.2148  0.4867
 8189SOL    HW136026   1.384   2.019   3.954  0.0500 -0.4704 -1.2975
 8189SOL    HW236027   1.475   2.019   4.063 -0.0790  0.8985  0.4691
 8190SOL     OW36028   0.913   4.719   6.896  0.1740  0.1981  0.4921
 8190SOL    HW136029   0.891   0.069   6.838 -0.6770 -1.7400 -1.6068
 8190SOL    HW236030   0.989   0.030   6.943 -0.4045  1.2303  0.6995
 8191SOL     OW36031   2.492   3.411   0.171 -0.1130 -1.0873 -0.2104
 8191SOL    HW136032   2.474   3.333   0.119 -0.3364 -1.7425  0.8350
 8191SOL    HW236033   2.584   3.418   0.145 -0.4765  0.2421 -1.1685
 8192SOL     OW36034   1.651   0.761   6.521 -0.3985  1.1161 -0.6588
 8192SOL    HW136035   1.663   0.731   6.611 -0.8632  1.2373 -0.5533
 8192SOL    HW236036   1.589   0.834   6.532  2.0549  3.0446  0.5478
 8193SOL     OW36037   4.268   4.446   4.225 -0.3132  0.5810 -0.4900
 8193SOL    HW136038   4.325   4.523   4.217  0.1621  0.4089  1.2321
 8193SOL    HW236039   4.316   4.390   4.164 -2.0658 -2.0124  0.5314
 8194SOL     OW36040   4.579   4.368  16.813  0.5793 -0.2493  0.1201
 8194SOL    HW136041   4.556   4.275  16.824  2.4408 -0.6264  0.9230
 8194SOL    HW236042   4.669   4.375  16.844  0.4874  1.9875 -0.1475
 8195SOL     OW36043   1.778   4.593  13.402  0.1220  0.3177  0.3940
 8195SOL    HW136044   1.759   4.539  13.325  2.7129 -0.3507  0.2014
 8195SOL    HW236045   1.690   4.595  13.439 -0.1017  1.9380 -0.2293
 8196SOL     OW36046   4.653   2.212   1.631 -0.4285  0.5855  0.3823
 8196SOL    HW136047   4.590   2.263   1.579 -0.8043  0.1408  0.4018
 8196SOL    HW236048   4.664   2.141   1.568 -0.3842 -1.3333  2.5711
 8197SOL     OW36049   1.376   4.267   4.037 -0.4493  0.1990 -0.0840
 8197SOL    HW136050   1.372   4.348   3.985  0.0505  0.4583  0.2797
 8197SOL    HW236051   1.396   4.205   3.967 -2.0984  1.1843 -1.4494
 8198SOL     OW36052   3.347   1.489   6.417 -0.0259 -0.9634  0.1977
 8198SOL    HW136053   3.385   1.409   6.455  0.9266  0.1119  1.5164
 8198SOL    HW236054   3.329   1.463   6.327  0.4141 -1.6352  0.2972
 8199SOL     OW36055   1.284   3.348   3.357  0.4955 -0.4436 -0.1683
 8199SOL    HW136056   1.203   3.399   3.365 -0.8284 -2.4476 -0.7314
 8199SOL    HW236057   1.339   3.406   3.306 -0.3110  2.4037  2.2013
 8200SOL     OW36058   2.960   0.601   6.459  0.1400  0.0754 -0.3981
 8200SOL    HW136059   3.041   0.645   6.434 -0.2273  0.1727 -1.3968
 8200SOL    HW236060   2.897   0.646   6.404  0.1511  0.4343 -0.1183
 8201SOL     OW36061   1.835   4.510   9.363  0.5200 -0.2749  0.1032
 8201SOL    HW136062   1.824   4.605   9.367 -1.2581 -0.5921  2.4769
 8201SOL    HW236063   1.882   4.482   9.441  2.1977  0.4302 -0.6556
 8202SOL     OW36064   1.926   4.461  10.109 -0.1888 -0.3745  0.0499
 8202SOL    HW136065   1.977   4.387  10.079  1.7083  1.0484 -0.2056
 8202SOL    HW236066   1.921   4.525  10.038  1.5353  1.0591  1.2510
 8203SOL     OW36067   2.535   0.585   7.785 -0.0469 -0.2034 -0.8578
 8203SOL    HW136068   2.494   0.541   7.711 -2.4829  1.9807 -0.7943
 8203SOL    HW236069   2.627   0.561   7.793  0.2369  0.9158 -0.6379
 8204SOL     OW36070   1.064   3.336   3.694  0.1922  0.3138 -0.3492
 8204SOL    HW136071   1.010   3.258   3.681 -0.8820  1.1232 -0.8139
 8204SOL    HW236072   1.122   3.311   3.765  1.7017  1.8674 -1.0446
 8205SOL     OW36073   1.341   0.751   3.342  0.1248  0.2764 -0.3261
 8205SOL    HW136074   1.376   0.662   3.349  2.2696  1.1639  0.3118
 8205SOL    HW236075   1.424   0.798   3.328  0.3846  0.3332  1.4160
 8206SOL     OW36076   1.827   0.469   2.322  0.2809 -0.0496 -0.1293
 8206SOL    HW136077   1.774   0.531   2.272  1.5439  0.1170 -1.2658
 8206SOL    HW236078   1.884   0.536   2.361  1.8532 -1.4735  0.0138
 8207SOL     OW36079   4.026   2.980   1.121  0.1275 -0.1847  0.2263
 8207SOL    HW136080   3.977   3.046   1.169 -4.0360 -1.7559 -1.8387
 8207SOL    HW236081   4.013   3.013   1.032  1.0103  0.8102  0.4645
 8208SOL     OW36082   1.788   4.240   4.910  0.6974  0.6933 -0.9989
 8208SOL    HW136083   1.842   4.285   4.975  0.3831 -0.0615 -0.2223
 8208SOL    HW236084   1.718   4.300   4.885  0.3814  0.6285 -0.2514
 8209SOL     OW36085   0.720   1.628   2.680 -0.2442  0.0054  0.1538
 8209SOL    HW136086   0.699   1.695   2.615  2.3171  1.3670  0.7364
 8209SOL    HW236087   0.634   1.591   2.697 -0.4639 -0.7437 -2.6154
 8210SOL     OW36088   3.638   3.028   1.001 -0.8701 -0.0086 -0.0163
 8210SOL    HW136089   3.713   3.027   0.942 -0.5287  1.6876  0.3826
 8210SOL    HW236090   3.686   3.005   1.081  0.5052 -0.2478 -0.9065
 8211SOL     OW36091   4.426   1.272   7.526 -0.3192 -0.5541  0.0350
 8211SOL    HW136092   4.403   1.317   7.445 -0.2269  0.0125  0.3232
 8211SOL    HW236093   4.457   1.341   7.585 -1.7933  0.0118  0.1448
 8212SOL     OW36094   3.482   1.194   5.872  0.3585 -1.1182 -0.8474
 8212SOL    HW136095   3.500   1.101   5.876  2.5617 -0.6277  0.6766
 8212SOL    HW236096   3.552   1.214   5.809  0.5989 -0.2489 -0.3044
 8213SOL     OW36097   2.310   4.275  15.650  0.2728 -0.4860  0.1021
 8213SOL    HW136098   2.312   4.344  15.717 -2.0991  1.2194 -1.5725
 8213SOL    HW236099   2.323   4.200  15.707 -2.4228  0.1285  1.5356
 8214SOL     OW36100   1.342   0.845   5.401 -0.0930  0.1241 -0.3038
 8214SOL    HW136101   1.382   0.921   5.444  0.7250  0.2850 -1.3464
 8214SOL    HW236102   1.292   0.802   5.470 -0.9746  0.8409 -0.5037
 8215SOL     OW36103   0.010   4.459   5.691  0.0689  0.1984 -0.1345
 8215SOL    HW136104   4.649   4.488   5.655  0.2837  0.6217 -0.2886
 8215SOL    HW236105   4.709   4.371   5.721  1.1468 -0.8692 -2.4766
 8216SOL     OW36106   2.812   3.559   3.374 -0.2056 -0.0546 -0.6920
 8216SOL    HW136107   2.898   3.545   3.414 -1.2740 -0.0216  1.5938
 8216SOL    HW236108   2.803   3.652   3.355 -0.7263  0.3625  1.6338
 8217SOL     OW36109   4.383   2.884   2.887 -0.2289 -0.1492  0.2291
 8217SOL    HW136110   4.329   2.849   2.958  1.2519 -0.4704  1.2082
 8217SOL    HW236111   4.452   2.820   2.869 -0.7845 -1.1309  1.5369
 8218SOL     OW36112   1.229   3.471   0.851 -0.3224 -0.2787  0.4386
 8218SOL    HW136113   1.299   3.414   0.822 -0.8899 -1.0341  0.5701
 8218SOL    HW236114   1.151   3.428   0.817  0.0854 -1.0908  0.5516
 8219SOL     OW36115   4.130   0.034   1.495  0.1644  0.6678 -0.0433
 8219SOL    HW136116   4.216   0.017   1.456  0.3229 -2.1327  1.5543
 8219SOL    HW236117   4.083   0.043   1.412 -0.3270  0.1655  0.1853
 8220SOL     OW36118   3.074   0.582   4.896 -0.2405  0.0672 -0.6425
 8220SOL    HW136119   3.036   0.569   4.809  0.5007 -0.5426 -0.8858
 8220SOL    HW236120   3.164   0.598   4.869  0.0148 -0.8457 -0.3412
 8221SOL     OW36121   4.674   0.816   2.200  0.0069  0.7135 -0.0498
 8221SOL    HW136122   4.643   0.729   2.226  0.4161  0.7416  0.5506
 8221SOL    HW236123   4.598   0.873   2.196 -0.9681 -0.6084 -0.4881
 8222SOL     OW36124   3.691   2.048   2.800 -0.3602 -0.0158  0.0583
 8222SOL    HW136125   3.721   1.959   2.779  0.8762  0.1486  1.0792
 8222SOL    HW236126   3.606   2.040   2.758 -0.6455  2.2891  0.2307
 8223SOL     OW36127   0.165   1.959   7.342  0.1252 -0.4338 -0.2773
 8223SOL    HW136128   0.147   1.865   7.351 -0.1707 -0.4314 -0.8224
 8223SOL    HW236129   0.258   1.966   7.318 -0.2287  0.1171 -1.4715
 8224SOL     OW36130   1.319   1.249   7.555 -0.3498 -0.0746 -0.0418
 8224SOL    HW136131   1.373   1.265   7.632  1.3849 -3.6309 -0.4888
 8224SOL    HW236132   1.266   1.329   7.554 -0.5946 -0.2413 -0.5977
 8225SOL     OW36133   0.798   4.443   5.970 -0.2890  0.1976 -0.1652
 8225SOL    HW136134   0.834   4.442   6.058  0.8269  1.8231 -0.5952
 8225SOL    HW236135   0.755   4.358   5.973  3.4416 -1.7311 -1.6473
 8226SOL     OW36136   1.328   1.022   3.316  0.1460  0.1205 -0.1272
 8226SOL    HW136137   1.304   1.017   3.408 -2.1566  2.0270 -0.6270
 8226SOL    HW236138   1.330   0.928   3.298  1.4508  0.3950 -1.4848
 8227SOL     OW36139   3.370   2.195   0.177 -0.1431 -0.3179  0.6324
 8227SOL    HW136140   3.424   2.262   0.135 -0.5324  0.0180  0.6603
 8227SOL    HW236141   3.312   2.169   0.106  0.6584 -1.3674  0.3726
 8228SOL     OW36142   3.285   0.771   4.463  0.5048 -0.6023  0.0844
 8228SOL    HW136143   3.322   0.744   4.546 -0.0938 -1.2938  0.1274
 8228SOL    HW236144   3.197   0.793   4.494  0.6375  0.2719 -0.1345
 8229SOL     OW36145   1.529   0.674   1.624  0.2212  0.3015 -0.2265
 8229SOL    HW136146   1.459   0.710   1.679 -0.8932  1.9626 -2.6945
 8229SOL    HW236147   1.536   0.589   1.667  1.0744 -0.5477 -2.0228
 8230SOL     OW36148   1.156   3.096   3.885  0.1093  0.1887  0.4946
 8230SOL    HW136149   1.139   3.002   3.895  1.5979  0.1077  2.2496
 8230SOL    HW236150   1.238   3.098   3.837 -0.5326 -0.8570 -0.6697
 8231SOL     OW36151   2.052   2.234  11.517  0.3746  0.8113  0.6553
 8231SOL    HW136152   2.128   2.180  11.499  0.6124  0.9515  1.2566
 8231SOL    HW236153   2.059   2.250  11.611 -3.6386  2.2515  0.7023
 8232SOL     OW36154   2.220   2.043   7.823  0.6587 -0.0529 -0.5326
 8232SOL    HW136155   2.127   2.023   7.815  0.8015 -1.4584  1.3723
 8232SOL    HW236156   2.248   2.027   7.733  0.3430  1.2593 -0.8677
 8233SOL     OW36157   2.499   3.125   2.491 -0.5861  0.2720 -0.5223
 8233SOL    HW136158   2.463   3.195   2.437 -2.3281 -0.2451 -0.0351
 8233SOL    HW236159   2.582   3.162   2.522  0.4186 -2.1532 -0.3157
 8234SOL     OW36160   4.059   3.232   3.920  0.5068 -0.2577  0.7781
 8234SOL    HW136161   4.098   3.176   3.987  0.5945  2.1985  2.7447
 8234SOL    HW236162   4.002   3.293   3.966  1.7448  0.9131  0.7684
 8235SOL     OW36163   3.216   4.298  11.300 -0.0895  0.1147 -0.6557
 8235SOL    HW136164   3.164   4.221  11.321  0.6765 -0.8056 -2.1362
 8235SOL    HW236165   3.179   4.326  11.217  0.0358  0.2301 -0.6722
 8236SOL     OW36166   2.142   2.898   5.074  0.1190  1.0063  0.4432
 8236SOL    HW136167   2.223   2.892   5.023  0.2256 -1.8814  0.9782
 8236SOL    HW236168   2.165   2.954   5.149 -2.1857  3.6373 -0.8308
 8237SOL     OW36169   3.197   1.974   5.239  0.4828  0.1706 -0.5755
 8237SOL    HW136170   3.256   2.048   5.229 -1.7270  1.8544 -1.1199
 8237SOL    HW236171   3.260   1.902   5.241  1.5794  1.1738  0.6544
 8238SOL     OW36172   3.021   1.484   8.530  1.0385 -0.1676 -0.3439
 8238SOL    HW136173   3.026   1.567   8.577 -0.1869 -0.4044  0.2154
 8238SOL    HW236174   3.094   1.439   8.573  1.5377 -1.3003 -2.3847
 8239SOL     OW36175   0.142   0.998   3.800 -0.3907  0.2064 -0.5415
 8239SOL    HW136176   0.119   1.071   3.857 -2.9952 -0.4256 -0.7695
 8239SOL    HW236177   0.202   0.946   3.853 -0.5569  1.2307  0.6625
 8240SOL     OW36178   0.573   1.927   4.502  0.2491 -0.1492  0.0021
 8240SOL    HW136179   0.505   1.968   4.449  0.6696  0.1268 -0.3131
 8240SOL    HW236180   0.584   2.000   4.563 -0.2238  1.3192 -1.6550
 8241SOL     OW36181   1.284   2.509   8.823 -0.3468 -0.3742  0.4650
 8241SOL    HW136182   1.374   2.486   8.802 -0.1572 -1.2322  2.2886
 8241SOL    HW236183   1.286   2.518   8.918 -0.6823 -0.7246  0.5046
 8242SOL     OW36184   4.103   0.835  13.422 -0.1859  0.4905  0.2196
 8242SOL    HW136185   4.040   0.885  13.369 -0.0271  0.2007 -0.2450
 8242SOL    HW236186   4.056   0.780  13.485 -2.0950 -1.2837 -2.7108
 8243SOL     OW36187   2.672   0.661   0.588 -0.3279  0.0003 -0.0999
 8243SOL    HW136188   2.650   0.683   0.497 -0.0315  1.4884  0.1939
 8243SOL    HW236189   2.755   0.612   0.590  0.2162  1.0116  1.7331
 8244SOL     OW36190   3.186   4.071   4.034  0.6073 -0.5551 -0.2213
 8244SOL    HW136191   3.156   3.981   4.049 -2.3280  0.5099  0.3039
 8244SOL    HW236192   3.230   4.088   4.118 -0.6534  0.7273  0.1771
 8245SOL     OW36193   2.964   1.417   4.985 -0.6346  0.2982  0.2917
 8245SOL    HW136194   2.989   1.358   4.914 -2.2303 -0.4684  0.3526
 8245SOL    HW236195   3.043   1.448   5.029 -0.4479  0.2210  0.0083
 8246SOL     OW36196   2.448   0.433   7.029  0.2753  0.1185 -0.6322
 8246SOL    HW136197   2.401   0.357   6.993  0.4640 -0.2820 -0.0228
 8246SOL    HW236198   2.434   0.501   6.963  0.9980 -0.5705 -1.4997
 8247SOL     OW36199   0.929   1.287  16.218 -0.1474 -0.6164  0.2951
 8247SOL    HW136200   0.916   1.212  16.277 -1.7486  0.2848  1.0776
 8247SOL    HW236201   1.008   1.323  16.258 -1.6356  2.1352  0.7756
 8248SOL     OW36202   1.495   1.597  12.812  0.4445 -0.3570 -0.3775
 8248SOL    HW136203   1.439   1.598  12.734 -0.1403 -0.0449  0.0453
 8248SOL    HW236204   1.474   1.687  12.836 -1.0184 -0.6388 -0.6135
 8249SOL     OW36205   0.435   0.673  11.690  0.4825  0.0768  0.1784
 8249SOL    HW136206   0.478   0.758  11.689 -0.6997  0.6572 -0.4240
 8249SOL    HW236207   0.348   0.688  11.653 -0.1138 -0.3621  1.3895
 8250SOL     OW36208   4.425   1.053   3.425  0.1038 -0.4634  0.2584
 8250SOL    HW136209   4.511   1.092   3.442  0.1161 -0.3871  0.0208
 8250SOL    HW236210   4.394   1.114   3.358 -1.8448 -0.6111  1.0232
 8251SOL     OW36211   4.309   0.786   2.436 -0.3084  0.3871 -0.8433
 8251SOL    HW136212   4.337   0.834   2.358 -1.0786  0.1518 -1.2673
 8251SOL    HW236213   4.392   0.756   2.473 -0.7114  0.3877  0.0670
 8252SOL     OW36214   2.842   2.778   8.801 -0.6389  0.2092 -0.4813
 8252SOL    HW136215   2.858   2.786   8.895 -0.7495  0.5123 -0.4858
 8252SOL    HW236216   2.784   2.850   8.775 -0.7452 -0.1692 -1.3117
 8253SOL     OW36217   4.486   1.045   5.734  0.2817  0.2758  0.4144
 8253SOL    HW136218   4.425   0.996   5.790  2.7437 -0.5925  2.3261
 8253SOL    HW236219   4.428   1.062   5.659  1.5785 -1.2562 -0.9539
 8254SOL     OW36220   0.131   0.012   5.034  0.4459 -0.5609  0.1138
 8254SOL    HW136221   0.145   4.641   5.030  1.3292 -0.4650  1.0025
 8254SOL    HW236222   0.039   0.016   5.007  0.1034  0.9507  1.5521
 8255SOL     OW36223   3.357   2.949   3.735  0.1175 -0.3009 -0.0607
 8255SOL    HW136224   3.445   2.911   3.744  0.0433 -0.8101 -1.5244
 8255SOL    HW236225   3.367   3.013   3.665 -2.2292 -0.6784 -0.7271
 8256SOL     OW36226   2.913   2.349   2.845 -0.4004 -0.3490  0.1145
 8256SOL    HW136227   2.993   2.345   2.792  0.0971 -1.7043  0.9703
 8256SOL    HW236228   2.897   2.255   2.856  0.1659 -0.5638 -0.9117
 8257SOL     OW36229   3.694   3.389   7.156 -0.5332  0.2410 -0.1454
 8257SOL    HW136230   3.662   3.399   7.067  0.5278 -0.2009 -0.5780
 8257SOL    HW236231   3.685   3.296   7.177  0.2960 -0.1441 -1.5150
 8258SOL     OW36232   1.677   0.945   1.310 -0.1048  0.3500  0.3939
 8258SOL    HW136233   1.618   0.875   1.338 -0.7516  1.4490  1.7594
 8258SOL    HW236234   1.653   1.014   1.372  0.1053 -1.1261  2.1248
 8259SOL     OW36235   0.969   4.544   1.064  0.3995 -0.2779  0.3850
 8259SOL    HW136236   0.949   4.543   1.157  1.5331  0.7102  0.6413
 8259SOL    HW236237   0.959   4.449   1.062 -0.9527 -0.0817 -1.7007
 8260SOL     OW36238   0.692   4.544   3.801 -0.1205  0.1807  0.4363
 8260SOL    HW136239   0.771   4.599   3.805 -0.0034 -0.1455  2.5964
 8260SOL    HW236240   0.647   4.593   3.733  1.2701  1.3111  0.3204
 8261SOL     OW36241   3.720   0.840  10.675  0.4408  0.3130 -0.1324
 8261SOL    HW136242   3.742   0.931  10.659 -1.0727  0.1601 -3.0151
 8261SOL    HW236243   3.797   0.796  10.639  0.4562  0.0913  0.1725
 8262SOL     OW36244   0.273   2.758   5.016  0.0321 -0.0198 -0.0430
 8262SOL    HW136245   0.259   2.848   5.045  1.2498  0.3290 -0.5062
 8262SOL    HW236246   0.214   2.754   4.941 -0.3329  3.2851  0.0803
 8263SOL     OW36247   2.458   3.778   0.599 -0.2850 -0.5599 -0.5778
 8263SOL    HW136248   2.478   3.766   0.507 -1.2694  0.5817 -0.9546
 8263SOL    HW236249   2.394   3.849   0.608  1.1460  0.8114 -1.3753
 8264SOL     OW36250   4.664   3.912   8.635 -0.5250 -0.1801  0.3489
 8264SOL    HW136251   4.722   3.955   8.699  2.1877 -1.5371 -1.1913
 8264SOL    HW236252   4.615   3.981   8.590 -0.7334 -1.7767 -1.8523
 8265SOL     OW36253   2.281   4.043   2.629 -0.2394  0.3206  0.0966
 8265SOL    HW136254   2.363   4.003   2.657 -1.3708 -2.0066  0.0908
 8265SOL    HW236255   2.280   4.018   2.537  0.5179  0.1883  0.1234
 8266SOL     OW36256   2.816   4.591  13.469 -0.1714  0.1808 -0.8874
 8266SOL    HW136257   2.762   4.545  13.533 -2.3421 -0.0585 -2.8936
 8266SOL    HW236258   2.795   4.553  13.383 -0.1820  1.2838 -1.3756
 8267SOL     OW36259   4.327   1.017  13.402  0.0149  0.5461 -0.6128
 8267SOL    HW136260   4.258   0.955  13.424 -1.3014  2.0239 -0.5632
 8267SOL    HW236261   4.400   0.988  13.457  0.6844 -0.4380 -2.0122
 8268SOL     OW36262   4.660   4.665   1.722 -0.5060 -0.0623  0.3435
 8268SOL    HW136263   4.671   4.629   1.810 -0.8428  1.5500  1.0449
 8268SOL    HW236264   4.721   4.605   1.678 -1.5942 -0.4047 -0.6989
 8269SOL     OW36265   1.070   3.037   5.506 -0.2188 -0.1432 -0.6650
 8269SOL    HW136266   1.079   2.947   5.538  1.3220  0.4051  0.4516
 8269SOL    HW236267   1.149   3.075   5.544 -2.2105  1.4312  1.8929
 8270SOL     OW36268   2.098   1.975   8.986 -0.1323  0.3544  0.3923
 8270SOL    HW136269   2.095   2.070   8.980 -1.1392  0.2502 -0.7083
 8270SOL    HW236270   2.058   1.963   9.073  4.0788  4.4664  2.8619
 8271SOL     OW36271   4.368   1.769   8.728  0.0158  0.0251 -0.2878
 8271SOL    HW136272   4.385   1.817   8.808  0.2192  0.9711 -0.8976
 8271SOL    HW236273   4.359   1.840   8.664  2.7470  0.2766 -0.3870
 8272SOL     OW36274   1.799   4.055  13.644  0.6064 -0.0486  0.0253
 8272SOL    HW136275   1.831   4.073  13.556  1.6896  2.9287  1.0263
 8272SOL    HW236276   1.777   4.142  13.678 -0.6097  0.5129 -2.1522
 8273SOL     OW36277   1.353   0.728   8.076  0.2229 -0.1025 -0.2301
 8273SOL    HW136278   1.320   0.658   8.132 -2.5549  1.2234 -0.2173
 8273SOL    HW236279   1.395   0.779   8.146 -0.7149  0.8572 -0.3682
 8274SOL     OW36280   1.672   4.157   0.451  0.3405  0.0405 -0.3241
 8274SOL    HW136281   1.748   4.122   0.499 -0.1202  1.8850  1.7321
 8274SOL    HW236282   1.615   4.081   0.442  0.7384 -0.0882 -1.8022
 8275SOL     OW36283   1.080   4.010  10.379 -0.6536 -0.8432  0.3093
 8275SOL    HW136284   1.071   4.048  10.467  1.1070  0.0029  0.1353
 8275SOL    HW236285   1.103   4.093  10.338 -1.0737  0.1277  2.0464
 8276SOL     OW36286   2.213   2.513  14.188 -0.2037  0.2727 -0.6883
 8276SOL    HW136287   2.193   2.432  14.142  0.3658 -0.5648  0.5330
 8276SOL    HW236288   2.296   2.540  14.149 -0.2458 -0.6360 -1.3945
 8277SOL     OW36289   1.172   2.108  12.135  0.3600  0.2388  0.3242
 8277SOL    HW136290   1.193   2.117  12.228 -0.8689  3.3298  0.2992
 8277SOL    HW236291   1.157   2.200  12.113 -0.8603 -0.4811 -1.9121
 8278SOL     OW36292   1.213   2.533   9.133 -0.1416 -0.0414  0.1903
 8278SOL    HW136293   1.300   2.532   9.093  1.6131 -0.5177  4.0570
 8278SOL    HW236294   1.231   2.562   9.222  0.7974  0.4100 -0.1444
 8279SOL     OW36295   2.710   1.811   4.946 -0.1677  0.2017  0.7452
 8279SOL    HW136296   2.766   1.812   4.869 -2.0693  2.0173 -0.6173
 8279SOL    HW236297   2.623   1.819   4.906 -0.8722 -1.3570  1.9646
 8280SOL     OW36298   2.059   1.737  11.118 -0.3552  0.2742  0.5036
 8280SOL    HW136299   2.093   1.797  11.051  2.3128 -1.5848  0.1885
 8280SOL    HW236300   2.078   1.790  11.195 -1.4655 -0.5139  1.3229
 8281SOL     OW36301   4.401   0.990  16.372  0.0501  0.1008 -0.1352
 8281SOL    HW136302   4.320   1.041  16.368  0.3139  0.5244  0.0334
 8281SOL    HW236303   4.404   0.979  16.276  1.2065 -0.2903 -0.0436
 8282SOL     OW36304   1.484   1.479   8.054 -0.0545  0.0876 -0.6969
 8282SOL    HW136305   1.428   1.405   8.077 -2.0039  1.5472 -0.7987
 8282SOL    HW236306   1.417   1.545   8.072  0.0886 -0.1360  0.6150
 8283SOL     OW36307   1.419   3.598   2.830 -0.3724 -0.6078 -0.4322
 8283SOL    HW136308   1.331   3.586   2.864 -1.3609  0.2548 -2.7300
 8283SOL    HW236309   1.414   3.560   2.743  1.9208 -0.9352 -0.4193
 8284SOL     OW36310   0.830   0.421  11.827 -0.8093  0.0428  0.5057
 8284SOL    HW136311   0.868   0.509  11.831 -0.0822 -0.2067 -0.8055
 8284SOL    HW236312   0.738   0.440  11.847 -0.2291  2.0326  1.2955
 8285SOL     OW36313   2.872   2.386   9.722 -0.2002  0.4195 -0.9838
 8285SOL    HW136314   2.936   2.314   9.725 -1.0798 -0.3160  0.4305
 8285SOL    HW236315   2.791   2.354   9.763  0.0257  1.7636  0.4898
 8286SOL     OW36316   3.754   1.454   4.001 -0.3536  0.4844  0.1949
 8286SOL    HW136317   3.784   1.535   4.042  4.3253 -0.7073 -0.8302
 8286SOL    HW236318   3.836   1.405   4.010  0.0573  0.9648 -0.9012
 8287SOL     OW36319   4.494   2.058   3.941  0.4132 -0.7080 -0.0076
 8287SOL    HW136320   4.499   1.966   3.914  0.4283 -0.3619 -1.1847
 8287SOL    HW236321   4.454   2.098   3.865  1.9762 -0.8133 -0.8866
 8288SOL     OW36322   3.483   2.162   7.018 -0.3211 -0.5797 -0.3383
 8288SOL    HW136323   3.538   2.125   6.949  0.1071  2.2334 -1.4941
 8288SOL    HW236324   3.403   2.109   7.014 -1.0476  0.4583  0.4936
 8289SOL     OW36325   1.916   1.519   9.712 -0.0214 -0.3851 -0.0557
 8289SOL    HW136326   1.847   1.582   9.735  1.4954  0.5363  1.9690
 8289SOL    HW236327   1.993   1.573   9.729 -0.0556  0.5308 -2.7737
 8290SOL     OW36328   2.813   2.651  17.315 -0.0840  0.1069  0.2036
 8290SOL    HW136329   2.870   2.707  17.263  0.5035  0.7836  1.5810
 8290SOL    HW236330   2.766   2.723  17.356 -1.8417 -1.4156  0.8973
 8291SOL     OW36331   2.103   1.561   2.863  0.1361  0.0669  0.4450
 8291SOL    HW136332   2.111   1.608   2.780 -2.2639  0.2901  0.3363
 8291SOL    HW236333   2.072   1.628   2.924  1.2205  1.0293 -0.0689
 8292SOL     OW36334   0.270   1.128  12.893  0.1219 -0.2154 -0.3316
 8292SOL    HW136335   0.214   1.206  12.901  1.8989  0.6612  3.5882
 8292SOL    HW236336   0.356   1.154  12.926  0.8506 -2.8421 -0.1977
 8293SOL     OW36337   4.083   2.017   5.401 -0.1808 -0.5257 -0.2796
 8293SOL    HW136338   4.057   2.100   5.440  1.9514 -0.5247  1.1390
 8293SOL    HW236339   4.063   2.027   5.308 -1.1527  1.9184  0.2004
 8294SOL     OW36340   4.519   2.106   9.598  0.2998 -0.2732 -0.6790
 8294SOL    HW136341   4.552   2.165   9.666  1.0053 -0.7466 -0.6089
 8294SOL    HW236342   4.597   2.054   9.581  0.1475 -0.3058 -1.2561
 8295SOL     OW36343   1.888   2.594  10.364  0.0260  0.5831 -0.0373
 8295SOL    HW136344   1.824   2.599  10.293  0.5440 -0.0685 -0.5528
 8295SOL    HW236345   1.966   2.607  10.311 -1.1166 -0.5382 -2.0034
 8296SOL     OW36346   0.494   2.235  17.167 -0.1135 -0.1918  0.6922
 8296SOL    HW136347   0.433   2.203  17.234 -1.9410  1.6822 -0.1151
 8296SOL    HW236348   0.488   2.328  17.186 -1.5192 -0.1938  0.2426
 8297SOL     OW36349   4.236   1.273   6.902  0.0785  0.1319 -0.0904
 8297SOL    HW136350   4.171   1.271   6.972 -2.1002 -1.2791 -2.1652
 8297SOL    HW236351   4.280   1.356   6.915 -1.3991  0.7697  0.8650
 8298SOL     OW36352   0.539   3.332   7.164  0.5314  0.0100 -0.5925
 8298SOL    HW136353   0.590   3.348   7.085 -1.0709 -2.1915 -2.0490
 8298SOL    HW236354   0.517   3.240   7.154  3.3752 -0.7984  0.3458
 8299SOL     OW36355   2.964   0.905   3.616 -0.6587  0.6244 -0.7033
 8299SOL    HW136356   2.980   0.999   3.610  0.2431  0.5125 -0.1988
 8299SOL    HW236357   2.983   0.902   3.710 -0.1812  0.4589 -0.8032
 8300SOL     OW36358   1.052   3.808  13.269 -0.6620  0.0773  0.4013
 8300SOL    HW136359   1.132   3.861  13.272  0.2945 -1.3308 -0.6526
 8300SOL    HW236360   0.985   3.875  13.259 -0.2557  0.3926 -0.1711
 8301SOL     OW36361   1.822   2.450   1.762  0.2496  0.8764 -0.3844
 8301SOL    HW136362   1.789   2.488   1.681  0.6011  1.2997 -0.3270
 8301SOL    HW236363   1.882   2.390   1.718  1.3650  1.5371  0.2573
 8302SOL     OW36364   4.690   2.819   2.245 -0.3931 -0.5696  0.1917
 8302SOL    HW136365   4.665   2.876   2.317 -2.2773 -0.3173 -0.6640
 8302SOL    HW236366   0.028   2.761   2.291  0.5667 -0.9728 -1.6003
 8303SOL     OW36367   1.689   0.184   5.568 -0.1442  0.3653  0.2941
 8303SOL    HW136368   1.772   0.231   5.578 -0.8419  1.7777 -0.5988
 8303SOL    HW236369   1.671   0.166   5.660 -0.1609 -2.3138 -0.2363
 8304SOL     OW36370   4.331   1.840  13.097  0.5083 -0.0465 -0.3029
 8304SOL    HW136371   4.251   1.847  13.149  1.3921 -0.2363  1.0622
 8304SOL    HW236372   4.370   1.760  13.132 -2.6684 -1.0596  0.9326
 8305SOL     OW36373   4.293   0.579  10.235 -0.1639 -0.8839 -0.0757
 8305SOL    HW136374   4.376   0.562  10.191  0.6545  0.3945  0.9656
 8305SOL    HW236375   4.254   0.495  10.257  1.5087 -1.3861  0.9709
 8306SOL     OW36376   2.823   1.156  14.417 -0.3403 -0.4227  0.1619
 8306SOL    HW136377   2.818   1.091  14.488  2.2506 -0.7392  0.0363
 8306SOL    HW236378   2.850   1.095  14.349 -2.2852 -0.9878 -0.1183
 8307SOL     OW36379   0.445   3.922   5.500  0.4235  0.0062  0.4400
 8307SOL    HW136380   0.497   3.849   5.533  0.5297  0.6493  1.6886
 8307SOL    HW236381   0.380   3.922   5.570  1.0124 -4.3791  1.0089
 8308SOL     OW36382   2.209   3.440  14.313  0.4931  0.2053 -0.1526
 8308SOL    HW136383   2.246   3.381  14.379 -1.1444  0.8961  1.3789
 8308SOL    HW236384   2.167   3.376  14.256 -3.2116  0.3306  2.4437
 8309SOL     OW36385   2.554   4.302  17.662  0.3731  0.1967 -0.0761
 8309SOL    HW136386   2.570   4.361  17.589  1.3002  1.0289  0.7888
 8309SOL    HW236387   2.562   4.219  17.616  0.2639 -0.0933  0.4260
 8310SOL     OW36388   2.074   3.483   6.504 -0.3994 -0.2382 -0.4757
 8310SOL    HW136389   2.008   3.496   6.572  0.3070 -1.0300  0.3620
 8310SOL    HW236390   2.154   3.491   6.556 -0.4134 -0.1015 -0.4750
 8311SOL     OW36391   4.157   2.085   4.214  0.5034  0.1470 -0.3037
 8311SOL    HW136392   4.249   2.107   4.232 -0.2766  3.0906  0.0897
 8311SOL    HW236393   4.160   2.091   4.119 -1.2985 -0.5822 -0.3932
 8312SOL     OW36394   0.768   1.436   5.075  0.0385  0.3379  0.4438
 8312SOL    HW136395   0.777   1.530   5.091  0.1953  0.2626  0.7954
 8312SOL    HW236396   0.736   1.403   5.159 -0.6027 -2.0334 -0.7276
 8313SOL     OW36397   0.111   0.238  10.920 -0.2831 -0.2809 -0.1095
 8313SOL    HW136398   0.016   0.234  10.931 -0.1608  0.5166  1.2475
 8313SOL    HW236399   0.135   0.148  10.896 -1.4148 -0.7516  0.4926
 8314SOL     OW36400   4.144   4.462  13.244 -0.5427 -0.2721  0.0395
 8314SOL    HW136401   4.175   4.376  13.219  1.6306  1.0252 -1.6943
 8314SOL    HW236402   4.053   4.456  13.213 -0.4853  1.6227 -0.5243
 8315SOL     OW36403   0.633   2.047   6.023 -0.3647 -0.0346  0.1361
 8315SOL    HW136404   0.620   2.115   5.957 -1.2543 -0.6187 -0.2843
 8315SOL    HW236405   0.619   1.973   5.965 -0.2758  1.9113 -2.3719
 8316SOL     OW36406   4.659   4.349   0.323 -0.1773  0.1527  0.3532
 8316SOL    HW136407   4.625   4.373   0.409 -0.0005  0.8590  0.2305
 8316SOL    HW236408   4.587   4.357   0.260  0.3586  0.3422 -0.2337
 8317SOL     OW36409   4.367   3.232  15.374 -0.5130  0.6519 -0.3111
 8317SOL    HW136410   4.401   3.182  15.300 -1.4134 -0.3945 -0.0293
 8317SOL    HW236411   4.432   3.302  15.366 -0.9976  1.0227 -0.9602
 8318SOL     OW36412   4.036   3.241   3.160 -0.2975 -0.6730 -0.2471
 8318SOL    HW136413   4.117   3.286   3.187 -1.1833 -1.0611  3.0829
 8318SOL    HW236414   4.075   3.179   3.098  0.9134  0.5493 -0.6966
 8319SOL     OW36415   3.357   2.690  15.108 -0.1938  0.0444  0.1654
 8319SOL    HW136416   3.340   2.665  15.199  0.1310 -2.2586 -0.4049
 8319SOL    HW236417   3.389   2.604  15.078 -0.0620  0.2970 -0.4055
 8320SOL     OW36418   1.863   3.453   0.784 -0.0094  0.1056 -0.4972
 8320SOL    HW136419   1.773   3.463   0.816 -0.4017  0.3450 -1.6659
 8320SOL    HW236420   1.852   3.483   0.694  2.1242 -0.6680 -1.0184
 8321SOL     OW36421   1.424   2.348   2.440  0.5581  0.2862 -0.8195
 8321SOL    HW136422   1.486   2.276   2.430  2.9361  2.3563 -1.1031
 8321SOL    HW236423   1.480   2.422   2.465  0.5076  0.1446 -0.2853
 8322SOL     OW36424   4.191   2.215   5.618 -0.0667  0.4555  0.1967
 8322SOL    HW136425   4.176   2.207   5.712 -0.0783  0.3555  0.1863
 8322SOL    HW236426   4.284   2.240   5.615 -0.3518  1.2427 -2.7055
 8323SOL     OW36427   0.431   3.928  12.642  0.1454 -0.1265  0.3116
 8323SOL    HW136428   0.470   3.981  12.572 -1.5492 -0.3677 -0.8127
 8323SOL    HW236429   0.508   3.886  12.681  0.5804 -0.1127 -0.5426
 8324SOL     OW36430   0.622   0.655   7.624  0.1091  0.0848 -0.6772
 8324SOL    HW136431   0.626   0.666   7.529 -1.7903 -2.9264 -1.0824
 8324SOL    HW236432   0.549   0.594   7.630 -1.6460  2.2447 -0.2166
 8325SOL     OW36433   1.729   1.192   6.527  0.7631 -0.7470 -0.3953
 8325SOL    HW136434   1.772   1.265   6.483  1.9886 -0.3973  1.3926
 8325SOL    HW236435   1.803   1.131   6.527  1.7132  0.3978  0.3018
 8326SOL     OW36436   2.894   2.877  12.995  0.0297  0.0031 -0.5215
 8326SOL    HW136437   2.823   2.846  13.050  0.6629  0.6291  0.6559
 8326SOL    HW236438   2.875   2.860  12.903  0.2781 -0.6042 -0.4641
 8327SOL     OW36439   2.432   3.735   2.069  0.1144  0.9617 -0.5741
 8327SOL    HW136440   2.485   3.682   2.127 -2.0460 -0.8513 -0.2428
 8327SOL    HW236441   2.449   3.824   2.101 -0.4960  0.7855  0.2361
 8328SOL     OW36442   4.094   1.400   2.820  0.0947 -0.5260  0.2066
 8328SOL    HW136443   4.051   1.455   2.885 -1.1659 -1.7339  0.4064
 8328SOL    HW236444   4.059   1.314   2.846 -1.8040  0.1968  0.0034
 8329SOL     OW36445   0.154   2.100   3.284  0.6063 -0.3468 -0.4657
 8329SOL    HW136446   0.210   2.099   3.362 -1.8463  0.9220  1.3101
 8329SOL    HW236447   0.119   2.011   3.287 -0.3618  0.1212  2.2814
 8330SOL     OW36448   1.178   3.764   7.922 -0.0455  0.4521  0.4389
 8330SOL    HW136449   1.149   3.752   8.012  0.6461  0.6520  0.6831
 8330SOL    HW236450   1.252   3.704   7.921 -0.4792 -0.0955  1.6556
 8331SOL     OW36451   3.597   0.400   4.438  0.3100  0.4703 -0.1979
 8331SOL    HW136452   3.667   0.429   4.380  1.7127 -0.1569  1.1676
 8331SOL    HW236453   3.519   0.384   4.384  0.0595 -1.6765  0.7979
 8332SOL     OW36454   4.389   1.221   3.745  0.5646 -0.3495  0.5142
 8332SOL    HW136455   4.327   1.185   3.808 -1.0206 -0.1903 -0.9456
 8332SOL    HW236456   4.448   1.147   3.730  0.8129 -0.1648  0.5894
 8333SOL     OW36457   1.883   1.297  14.971  0.3872  0.3665  0.0295
 8333SOL    HW136458   1.826   1.228  15.007  0.7812 -0.4138 -0.8376
 8333SOL    HW236459   1.913   1.255  14.891  0.4351  2.5850 -1.0985
 8334SOL     OW36460   0.902   3.925   0.767  0.0630 -0.3858  0.3252
 8334SOL    HW136461   0.859   3.983   0.704 -1.4298 -2.6780 -0.7413
 8334SOL    HW236462   0.858   3.844   0.740  1.2232 -0.8750 -0.1008
 8335SOL     OW36463   0.323   1.445   6.338  0.0670 -0.0175  0.0747
 8335SOL    HW136464   0.412   1.461   6.305  1.4470 -0.0817  3.8205
 8335SOL    HW236465   0.304   1.367   6.286 -2.6746  0.2879  0.6448
 8336SOL     OW36466   1.856   2.243  12.361  0.9250 -0.5042 -0.3456
 8336SOL    HW136467   1.924   2.178  12.381  1.7612  1.0664  1.8452
 8336SOL    HW236468   1.903   2.322  12.383  0.9565 -1.0234  1.4362
 8337SOL     OW36469   2.226   3.958  11.315  0.4133  0.0688  0.1390
 8337SOL    HW136470   2.241   3.993  11.227  0.7867  1.8658  0.8969
 8337SOL    HW236471   2.179   3.879  11.290 -2.3239  1.4719  0.8044
 8338SOL     OW36472   2.737   2.810  14.389  0.0954 -0.0775  0.1968
 8338SOL    HW136473   2.755   2.903  14.375 -1.3190  0.0718 -0.5508
 8338SOL    HW236474   2.681   2.799  14.313 -2.4429  1.3272  1.8487
 8339SOL     OW36475   2.682   4.427  10.471  0.4213  0.0883 -0.2015
 8339SOL    HW136476   2.740   4.378  10.529 -1.1520 -1.6149 -0.0756
 8339SOL    HW236477   2.601   4.386  10.501  0.3271 -0.0289 -0.6189
 8340SOL     OW36478   2.438   3.632  11.020  0.4007  0.3950  1.1910
 8340SOL    HW136479   2.466   3.713  10.978 -1.1691 -0.8061 -2.1734
 8340SOL    HW236480   2.419   3.664  11.108 -2.0919 -1.5997  1.3711
 8341SOL     OW36481   2.892   0.974   8.538 -0.4098 -0.0211 -0.2891
 8341SOL    HW136482   2.954   0.940   8.603  0.0051  2.9049  0.8540
 8341SOL    HW236483   2.842   0.893   8.526  1.4357 -1.3564  1.0517
 8342SOL     OW36484   2.546   2.903   9.955  0.2267 -0.4701 -0.1719
 8342SOL    HW136485   2.595   2.978   9.989 -1.3372  0.5311 -0.1258
 8342SOL    HW236486   2.615   2.838   9.946  1.5343  0.6766  1.5364
 8343SOL     OW36487   1.563   1.682   6.855 -0.2480  0.2072 -0.2168
 8343SOL    HW136488   1.588   1.634   6.776  0.9587 -1.5528  1.2390
 8343SOL    HW236489   1.569   1.609   6.916 -0.7745  2.3707  2.4290
 8344SOL     OW36490   0.824   1.037   5.919 -1.1224 -0.2920  0.3052
 8344SOL    HW136491   0.779   0.978   5.859 -2.9895  0.0839  1.3320
 8344SOL    HW236492   0.846   1.111   5.862 -2.5335 -0.2283 -0.1587
 8345SOL     OW36493   2.162   4.699   2.990 -0.1089  0.3042 -0.1203
 8345SOL    HW136494   2.145   0.069   2.975  1.6662  0.5595 -0.5435
 8345SOL    HW236495   2.072   4.666   2.985 -0.4528  1.3000 -0.6028
 8346SOL     OW36496   3.746   1.177   3.381  0.2712 -0.8968 -0.0847
 8346SOL    HW136497   3.664   1.172   3.431  0.3768  1.1018  0.2820
 8346SOL    HW236498   3.809   1.141   3.443  1.6511 -0.1889 -1.0889
 8347SOL     OW36499   3.145   3.087   4.603  0.3563 -0.2369 -0.6420
 8347SOL    HW136500   3.156   3.003   4.558  1.4064  1.0002 -2.6956
 8347SOL    HW236501   3.220   3.140   4.577 -1.2192  2.2619  0.0052
 8348SOL     OW36502   2.492   3.073   8.393 -0.7341  0.8181 -0.4090
 8348SOL    HW136503   2.439   3.153   8.391  0.2943  1.5364  0.7164
 8348SOL    HW236504   2.515   3.049   8.304 -0.0979  0.4199 -0.1398
 8349SOL     OW36505   3.693   4.337   7.232 -0.3637 -0.0264 -0.8368
 8349SOL    HW136506   3.615   4.349   7.286  0.6052 -2.3753  1.1227
 8349SOL    HW236507   3.656   4.273   7.171  0.5459 -1.5188  0.1668
 8350SOL     OW36508   0.875   3.141   8.560 -0.2816  0.1148 -0.2588
 8350SOL    HW136509   0.967   3.163   8.549 -0.3575  0.6136  0.0921
 8350SOL    HW236510   0.873   3.063   8.505 -1.5608  0.4733 -0.7403
 8351SOL     OW36511   0.682   1.807   4.759 -0.0648  0.4976 -0.3311
 8351SOL    HW136512   0.677   1.815   4.664  0.0803  0.7709 -0.3181
 8351SOL    HW236513   0.736   1.729   4.775 -0.9985 -0.2779 -1.0031
 8352SOL     OW36514   1.884   2.863   8.194 -0.4724 -0.2606  0.1442
 8352SOL    HW136515   1.897   2.768   8.202  1.1154 -0.0388  0.3376
 8352SOL    HW236516   1.827   2.869   8.117 -0.1958  0.1226 -0.0339
 8353SOL     OW36517   1.267   4.179   5.588  0.0106  0.3808 -0.2122
 8353SOL    HW136518   1.302   4.153   5.503 -0.5116 -0.5955 -0.1324
 8353SOL    HW236519   1.265   4.274   5.576  1.4309  0.5068  0.6150
 8354SOL     OW36520   2.853   3.316   4.119 -0.0026  0.3516 -0.1224
 8354SOL    HW136521   2.874   3.225   4.095  0.5345  0.5074 -0.2433
 8354SOL    HW236522   2.760   3.320   4.095  0.1725 -0.5698 -0.9470
 8355SOL     OW36523   1.725   4.435   6.260  0.1694  1.0143  0.3473
 8355SOL    HW136524   1.776   4.448   6.180 -1.1267  0.5591 -0.5499
 8355SOL    HW236525   1.768   4.360   6.301 -0.5130  0.3511 -0.1746
 8356SOL     OW36526   0.988   0.438   5.385  0.3472  0.1439  0.3130
 8356SOL    HW136527   0.973   0.347   5.360  0.7824  0.1062  0.1845
 8356SOL    HW236528   1.014   0.473   5.299 -0.5565 -0.1230 -0.0655
 8357SOL     OW36529   0.408   1.928   3.447 -0.7861 -0.2288 -0.3100
 8357SOL    HW136530   0.452   1.884   3.520 -1.0543  0.4853  0.2744
 8357SOL    HW236531   0.405   2.020   3.474 -2.2339 -0.9381  2.0352
 8358SOL     OW36532   4.308   2.051   0.450 -0.0537  0.2552 -0.4037
 8358SOL    HW136533   4.342   2.047   0.539 -3.0320 -1.2398  0.6704
 8358SOL    HW236534   4.295   1.959   0.424  0.4107 -0.2855  1.3054
 8359SOL     OW36535   1.347   4.184   2.763  0.1809 -0.5532  0.0348
 8359SOL    HW136536   1.314   4.099   2.736 -1.9364 -0.1826  1.4615
 8359SOL    HW236537   1.422   4.201   2.706 -0.4614 -2.8325 -1.4819
 8360SOL     OW36538   2.988   3.614   4.221  0.3533 -0.6514 -0.7519
 8360SOL    HW136539   3.034   3.689   4.186  1.1730 -0.7896  0.0302
 8360SOL    HW236540   2.938   3.580   4.147  2.9913 -2.2937 -1.7877
 8361SOL     OW36541   3.394   3.384   3.949  0.0168 -0.0431 -0.4358
 8361SOL    HW136542   3.315   3.433   3.927 -0.3071 -1.4396 -2.3175
 8361SOL    HW236543   3.391   3.324   3.875  2.4838  0.3526 -0.8461
 8362SOL     OW36544   2.501   3.954  12.890  0.3479 -0.7675 -0.0281
 8362SOL    HW136545   2.472   4.042  12.866  0.2414 -0.9918 -0.7178
 8362SOL    HW236546   2.443   3.943  12.965  1.1376  0.4433  0.7546
 8363SOL     OW36547   4.404   0.447  15.928 -0.1868 -0.0119  0.0344
 8363SOL    HW136548   4.497   0.442  15.907 -0.5092  0.5637 -1.5668
 8363SOL    HW236549   4.403   0.381  15.997 -0.0801 -0.4430 -0.3744
 8364SOL     OW36550   0.901   3.467   3.181  0.3812  0.3620  0.8608
 8364SOL    HW136551   0.967   3.535   3.169  0.4692  0.2307  0.6068
 8364SOL    HW236552   0.926   3.446   3.271 -0.7499  0.2533  1.1502
 8365SOL     OW36553   4.343   0.927   0.900 -0.4209  0.4596 -0.5556
 8365SOL    HW136554   4.384   0.843   0.918 -2.3891 -0.5849 -0.8940
 8365SOL    HW236555   4.271   0.909   0.960 -0.1902  1.4388  0.0147
 8366SOL     OW36556   1.084   2.043   8.725  0.1463 -0.8275  0.0034
 8366SOL    HW136557   1.159   1.986   8.709  0.1816 -1.1409  1.2360
 8366SOL    HW236558   1.127   2.115   8.771  1.2046 -1.3048 -0.2285
 8367SOL     OW36559   2.329   3.568  14.569  0.8384  0.6685  0.1566
 8367SOL    HW136560   2.327   3.510  14.493  0.6694 -0.0773  0.7367
 8367SOL    HW236561   2.421   3.577  14.592  1.4474  0.0061 -2.0128
 8368SOL     OW36562   0.647   1.140   8.545 -0.0051  0.3298  0.3620
 8368SOL    HW136563   0.600   1.071   8.498 -0.1038 -0.6520  1.9098
 8368SOL    HW236564   0.712   1.091   8.596  1.0509  1.5523  0.1975
 8369SOL     OW36565   1.301   2.933  17.392  0.2166  0.2582  0.1145
 8369SOL    HW136566   1.258   2.906  17.472 -0.8973  1.3598 -0.1133
 8369SOL    HW236567   1.278   2.865  17.329 -0.0429  0.2471  0.2227
 8370SOL     OW36568   2.557   4.614  11.699 -0.6567  0.0123  0.1403
 8370SOL    HW136569   2.632   4.671  11.714  0.5407 -1.0019 -1.9785
 8370SOL    HW236570   2.601   4.529  11.697  1.4666  1.1648 -1.2366
 8371SOL     OW36571   3.654   0.910   4.472 -0.0655  0.1952 -0.4850
 8371SOL    HW136572   3.737   0.874   4.443  0.1260 -0.6388  1.1266
 8371SOL    HW236573   3.600   0.836   4.500 -0.9749  0.8539 -0.4666
 8372SOL     OW36574   0.045   0.924   2.915  0.5299  0.7385 -0.0963
 8372SOL    HW136575   0.050   0.844   2.864 -0.5685  0.0101  0.9371
 8372SOL    HW236576   0.108   0.908   2.985 -1.4035 -0.0056  1.4713
 8373SOL     OW36577   1.499   1.454   9.821  0.0482 -0.1524 -0.1945
 8373SOL    HW136578   1.432   1.518   9.846 -0.4181 -0.2889 -1.0563
 8373SOL    HW236579   1.564   1.520   9.796 -1.1633  1.6616  1.4412
 8374SOL     OW36580   4.260   3.427   2.168 -0.2677 -0.3019  1.3061
 8374SOL    HW136581   4.165   3.419   2.165 -0.1980 -1.1097  1.3922
 8374SOL    HW236582   4.282   3.451   2.078 -0.6812 -0.7652  1.0817
 8375SOL     OW36583   2.530   0.423   0.158 -0.0230 -0.0931  0.3525
 8375SOL    HW136584   2.524   0.507   0.111  0.5028 -0.7956 -0.9788
 8375SOL    HW236585   2.587   0.463   0.223  0.8738  0.9856 -1.0957
 8376SOL     OW36586   2.447   3.872   3.012  0.1839  0.0164  0.4631
 8376SOL    HW136587   2.351   3.869   3.009  0.2534  0.9989 -2.8634
 8376SOL    HW236588   2.461   3.897   3.104 -0.2290 -0.8378  0.7576
 8377SOL     OW36589   1.559   0.529  16.775 -0.0180  0.0291 -0.6433
 8377SOL    HW136590   1.476   0.508  16.733 -1.0571  3.1037 -0.0786
 8377SOL    HW236591   1.591   0.443  16.804 -1.2078 -0.6369 -1.2928
 8378SOL     OW36592   2.383   2.942   0.570  0.0471 -0.6854  0.2499
 8378SOL    HW136593   2.464   2.925   0.522 -0.4003 -0.5921 -0.5382
 8378SOL    HW236594   2.402   2.951   0.663 -1.7774 -1.3854  0.6961
 8379SOL     OW36595   0.492   0.156   6.369  0.2170 -0.3384  0.1225
 8379SOL    HW136596   0.538   0.127   6.448  0.3553  2.1553  0.9604
 8379SOL    HW236597   0.568   0.174   6.314  0.7986 -0.5929  0.8403
 8380SOL     OW36598   3.248   1.466   6.871 -0.1028 -0.2995  0.0647
 8380SOL    HW136599   3.314   1.409   6.830 -0.0316 -0.8502  0.9418
 8380SOL    HW236600   3.299   1.518   6.933  2.7796 -0.0534 -2.5043
 8381SOL     OW36601   4.631   1.352   4.115  0.3860  0.3065 -0.1635
 8381SOL    HW136602   4.670   1.433   4.081  1.4180 -0.6511 -1.2427
 8381SOL    HW236603   4.652   1.355   4.208  2.1544 -0.4139 -0.5367
 8382SOL     OW36604   4.653   3.560   4.676 -0.3886 -0.0664 -1.0793
 8382SOL    HW136605   4.610   3.635   4.636 -0.7451  0.2714 -0.0760
 8382SOL    HW236606   0.003   3.545   4.616  0.4152  0.7085 -0.2952
 8383SOL     OW36607   4.194   1.142   2.260  0.0135 -0.0933 -0.1667
 8383SOL    HW136608   4.260   1.190   2.310  0.2728  1.2468 -1.7760
 8383SOL    HW236609   4.121   1.202   2.243  0.7065  0.6856 -0.4006
 8384SOL     OW36610   4.671   0.463  15.339  0.0885 -0.3261 -0.0709
 8384SOL    HW136611   4.607   0.403  15.302  1.6450 -1.6861 -0.5573
 8384SOL    HW236612   4.624   0.500  15.414 -0.5672 -1.5573  0.1112
 8385SOL     OW36613   0.647   0.928  17.364 -0.2056 -0.0401 -0.0249
 8385SOL    HW136614   0.731   0.970  17.383  0.5088 -0.5160 -2.1179
 8385SOL    HW236615   0.626   0.896  17.452 -0.5241  0.0260 -0.0771
 8386SOL     OW36616   1.534   1.254   3.977  0.4596 -0.7255 -0.0273
 8386SOL    HW136617   1.460   1.290   3.927  0.7379 -0.1935 -0.0598
 8386SOL    HW236618   1.537   1.172   3.928 -2.2211  0.4490 -2.1565
 8387SOL     OW36619   2.804   0.173   5.286  0.0511 -0.2527  0.2218
 8387SOL    HW136620   2.834   0.142   5.201 -1.7389 -0.2898 -0.3870
 8387SOL    HW236621   2.758   0.095   5.317  0.0264 -0.8784 -1.4325
 8388SOL     OW36622   1.057   3.322   0.664 -0.0765  0.9942 -0.4505
 8388SOL    HW136623   0.967   3.353   0.673 -0.5987  0.0011 -2.4126
 8388SOL    HW236624   1.059   3.255   0.596 -1.8150  1.5011 -0.9808
 8389SOL     OW36625   4.695   4.147  14.869 -0.6185 -0.1083  0.6737
 8389SOL    HW136626   4.703   4.241  14.850 -0.1605 -0.2355  0.2365
 8389SOL    HW236627   0.042   4.115  14.811  0.6469 -1.3323  2.8677
 8390SOL     OW36628   0.264   4.681   2.591  0.0091  0.1193 -0.5492
 8390SOL    HW136629   0.279   4.680   2.496 -3.0743 -2.1326 -0.9991
 8390SOL    HW236630   0.185   4.632   2.614  1.0589 -2.1535 -1.7043
 8391SOL     OW36631   1.670   3.045   3.388  0.0586  0.2591  0.6214
 8391SOL    HW136632   1.696   3.136   3.402 -1.3610  0.5561  1.2914
 8391SOL    HW236633   1.603   3.060   3.322  0.7414  0.9566  0.0904
 8392SOL     OW36634   1.493   3.563   9.533  0.3371  0.2493  0.5758
 8392SOL    HW136635   1.464   3.651   9.512  0.7212  0.3221  0.3565
 8392SOL    HW236636   1.573   3.586   9.581  0.6570  0.8930 -0.2795
 8393SOL     OW36637   0.532   2.495   8.611  0.1889  0.1076  0.0057
 8393SOL    HW136638   0.545   2.530   8.700  3.2125  0.1843 -0.4812
 8393SOL    HW236639   0.621   2.466   8.591  0.2571  0.3605 -0.0608
 8394SOL     OW36640   2.493   0.255   2.640  0.1120 -0.2804 -1.0534
 8394SOL    HW136641   2.531   0.340   2.617  3.9168 -1.7634 -0.2334
 8394SOL    HW236642   2.407   0.273   2.603  0.3456  0.4695 -1.2385
 8395SOL     OW36643   3.725   1.176  14.946  0.2978  0.1777  0.7055
 8395SOL    HW136644   3.768   1.101  14.905  2.0557  1.8250 -0.4464
 8395SOL    HW236645   3.737   1.249  14.885  0.1434 -0.1107  0.3264
 8396SOL     OW36646   1.327   1.781   2.191  0.0984  0.4306  0.5387
 8396SOL    HW136647   1.330   1.690   2.162 -1.7277  0.1825  1.1226
 8396SOL    HW236648   1.261   1.820   2.133 -1.1209 -2.0122  0.2899
 8397SOL     OW36649   1.030   2.101  12.726 -0.6739 -0.3157 -0.3096
 8397SOL    HW136650   1.055   2.016  12.762  0.1101  0.5259  1.1443
 8397SOL    HW236651   1.012   2.152  12.805  4.7934  0.0825  0.6846
 8398SOL     OW36652   0.032   2.335   6.992 -0.2366  0.0726  0.4255
 8398SOL    HW136653   0.034   2.242   6.968  3.7979  1.0045 -2.7956
 8398SOL    HW236654   0.103   2.366   6.936 -0.0153  0.6689  1.0344
 8399SOL     OW36655   3.371   2.860  15.791  0.3714  0.2305 -0.1558
 8399SOL    HW136656   3.408   2.867  15.703  0.5664 -5.0815 -0.5365
 8399SOL    HW236657   3.389   2.945  15.830 -0.5456  0.4082 -0.1249
 8400SOL     OW36658   2.255   2.795  17.329  0.1685 -0.2143 -0.6014
 8400SOL    HW136659   2.266   2.732  17.401  1.0751 -0.6680 -1.1462
 8400SOL    HW236660   2.171   2.767  17.291 -1.2016  0.5803  1.8181
 8401SOL     OW36661   0.890   3.333   5.454  0.0107 -0.4282 -0.0215
 8401SOL    HW136662   0.803   3.308   5.423  0.4048 -1.2416 -0.4862
 8401SOL    HW236663   0.947   3.305   5.382  0.3884 -0.3317  0.2398
 8402SOL     OW36664   0.488   1.996   9.363  0.3300  0.1360 -0.7167
 8402SOL    HW136665   0.465   1.969   9.452  1.4641 -0.3462 -0.5618
 8402SOL    HW236666   0.507   2.089   9.376 -1.0474  0.3498 -0.3184
 8403SOL     OW36667   2.620   3.312   2.665  0.2450 -0.4683 -0.2848
 8403SOL    HW136668   2.636   3.392   2.613  0.3198 -0.1976  0.1544
 8403SOL    HW236669   2.601   3.342   2.754 -0.8591  2.6962 -1.5781
 8404SOL     OW36670   3.852   3.349   4.034 -0.1342 -0.1294 -0.0150
 8404SOL    HW136671   3.776   3.352   4.092 -0.2580  1.3119 -0.2428
 8404SOL    HW236672   3.813   3.416   3.978 -0.1872 -0.3881 -0.2825
 8405SOL     OW36673   2.840   3.485  16.154 -0.7589  0.3191  0.1688
 8405SOL    HW136674   2.905   3.418  16.175 -1.6112 -0.1085  1.4100
 8405SOL    HW236675   2.882   3.521  16.076 -0.4215  0.5930  0.4776
 8406SOL     OW36676   2.444   2.602   0.838 -0.0778  0.4742 -0.3740
 8406SOL    HW136677   2.402   2.671   0.787  0.1627  1.7184  1.1108
 8406SOL    HW236678   2.387   2.598   0.915  1.7100  0.0958  0.9291
 8407SOL     OW36679   0.191   0.777   5.023  0.1553 -0.3116  0.2034
 8407SOL    HW136680   0.242   0.854   4.997 -1.9830  0.9852 -0.1311
 8407SOL    HW236681   0.269   0.723   5.034  1.3867  1.3136 -0.4530
 8408SOL     OW36682   0.174   3.572   4.541 -0.3167 -1.0218  0.0842
 8408SOL    HW136683   0.214   3.659   4.550 -1.5446 -0.5347  0.8980
 8408SOL    HW236684   0.238   3.527   4.596  0.6924  1.3950  0.8857
 8409SOL     OW36685   1.925   3.700   3.540 -0.1994  0.1613 -0.2639
 8409SOL    HW136686   1.840   3.740   3.556 -0.3931 -0.0464 -0.7526
 8409SOL    HW236687   1.977   3.778   3.561 -1.2562  0.1746  2.2488
 8410SOL     OW36688   1.443   4.020  10.611  0.2157  0.6166  0.1040
 8410SOL    HW136689   1.478   4.004  10.699  3.1490 -1.3360 -1.3848
 8410SOL    HW236690   1.486   4.105  10.597  2.6005 -0.8180 -1.4150
 8411SOL     OW36691   2.137   3.780   6.859  0.1790  0.5845  0.0254
 8411SOL    HW136692   2.136   3.806   6.767  2.1296  1.6677  0.3088
 8411SOL    HW236693   2.118   3.687   6.851  0.0357  0.5017  1.4060
 8412SOL     OW36694   0.571   3.474   9.513 -0.1280  0.1940  0.1389
 8412SOL    HW136695   0.484   3.471   9.555  0.9553  1.3597  2.4857
 8412SOL    HW236696   0.624   3.481   9.592  0.7909 -0.8236 -0.4061
 8413SOL     OW36697   1.472   0.096   5.098 -0.0099  0.1218  0.0213
 8413SOL    HW136698   1.485   0.176   5.048  2.6771 -0.1992  0.1853
 8413SOL    HW236699   1.532   0.106   5.173  0.5772  1.4641 -0.6165
 8414SOL     OW36700   2.453   3.205   0.011 -0.0388 -0.0803 -0.5970
 8414SOL    HW136701   2.458   3.211  17.609 -0.2080  1.2362 -0.5307
 8414SOL    HW236702   2.388   3.136   0.017  1.2295 -1.3387 -1.3087
 8415SOL     OW36703   1.451   0.199   3.870  0.4074  0.5460 -0.4941
 8415SOL    HW136704   1.435   0.111   3.835 -0.0700  0.6364 -0.5073
 8415SOL    HW236705   1.546   0.192   3.871  0.1600 -2.8095 -0.6604
 8416SOL     OW36706   3.474   3.561   3.090 -0.6272  0.0035  0.6752
 8416SOL    HW136707   3.489   3.496   3.158  3.1106  0.3381  0.1668
 8416SOL    HW236708   3.406   3.614   3.131 -1.0275 -1.2074  1.5649
 8417SOL     OW36709   2.399   0.672  11.941  0.0474 -0.0095  0.2852
 8417SOL    HW136710   2.322   0.705  11.895 -1.3824 -1.4888  1.6383
 8417SOL    HW236711   2.396   0.721  12.023  1.6871  0.2002  0.2287
 8418SOL     OW36712   1.768   4.586   5.603 -0.1516  0.0232 -0.0480
 8418SOL    HW136713   1.855   4.548   5.594 -0.5119 -1.4913  2.8994
 8418SOL    HW236714   1.796   4.678   5.604 -0.4248  0.1195 -1.2940
 8419SOL     OW36715   3.514   3.100   4.799 -0.7271  0.2290 -0.1123
 8419SOL    HW136716   3.502   3.080   4.706  0.9917 -0.4153 -0.2073
 8419SOL    HW236717   3.471   3.020   4.831 -0.3250 -0.4097 -1.1529
 8420SOL     OW36718   2.967   3.844   4.712 -0.2551  0.4962  0.0697
 8420SOL    HW136719   2.967   3.789   4.633 -4.0712 -0.4896  0.7261
 8420SOL    HW236720   3.030   3.795   4.765 -1.1733  1.3053  1.9230
 8421SOL     OW36721   0.949   4.275   1.018  0.1065 -0.5419 -0.0100
 8421SOL    HW136722   1.041   4.253   1.030 -0.2187 -1.1435  1.3930
 8421SOL    HW236723   0.909   4.194   1.050 -0.6133  0.8166  2.5603
 8422SOL     OW36724   1.195   2.009   7.879 -0.1699 -0.0237  0.2869
 8422SOL    HW136725   1.262   1.942   7.867  0.9865  0.8340  1.9138
 8422SOL    HW236726   1.239   2.091   7.856  0.0914  0.3813  2.2154
 8423SOL     OW36727   3.042   4.369   4.221  0.2268  0.1439 -0.1700
 8423SOL    HW136728   2.997   4.347   4.140  0.8781 -0.7792 -0.2771
 8423SOL    HW236729   3.057   4.279   4.250 -2.0327 -1.0270 -2.6324
 8424SOL     OW36730   1.284   2.695   8.277 -0.2916 -0.3303  0.1298
 8424SOL    HW136731   1.224   2.762   8.310 -1.1317 -1.1149  0.2079
 8424SOL    HW236732   1.330   2.675   8.359  1.3635 -2.2590 -1.2749
 8425SOL     OW36733   0.496   0.032   8.563  0.3219 -0.1310 -0.3309
 8425SOL    HW136734   0.509   4.677   8.617  1.1885  1.6914  2.0782
 8425SOL    HW236735   0.549   0.103   8.597 -4.1115  2.9658  0.1114
 8426SOL     OW36736   1.461   4.470   1.042 -0.0973 -0.1063 -0.4870
 8426SOL    HW136737   1.473   4.564   1.056 -1.2316 -0.0347 -0.0254
 8426SOL    HW236738   1.491   4.449   1.130  0.7521  0.0603 -0.7369
 8427SOL     OW36739   1.486   4.619   2.255  0.1380  0.3146  0.3059
 8427SOL    HW136740   1.547   4.595   2.185 -0.1871  2.3775 -0.6924
 8427SOL    HW236741   1.482   4.714   2.247  1.5415  0.3299 -0.3478
 8428SOL     OW36742   3.145   0.096   5.775 -0.0412  0.0954  0.0483
 8428SOL    HW136743   3.085   0.090   5.701  0.0471 -1.7442  0.1375
 8428SOL    HW236744   3.089   0.058   5.843  1.7858 -2.6719  0.0015
 8429SOL     OW36745   3.720   2.915   3.436 -0.4419 -0.1915  0.2277
 8429SOL    HW136746   3.753   2.828   3.411 -1.1175 -0.5095  0.4315
 8429SOL    HW236747   3.687   2.949   3.353 -1.2754  1.6711  1.3306
 8430SOL     OW36748   0.436   0.441   8.160 -1.6025  0.6948  0.1849
 8430SOL    HW136749   0.497   0.407   8.226  4.2312  1.9707 -4.5452
 8430SOL    HW236750   0.390   0.360   8.143  0.0836 -0.7239  2.2828
 8431SOL     OW36751   1.528   4.295   6.424 -0.2467 -0.5925  0.1137
 8431SOL    HW136752   1.569   4.268   6.507 -1.5215 -0.0846  0.9119
 8431SOL    HW236753   1.611   4.320   6.384  1.1498 -2.5868  1.7460
 8432SOL     OW36754   3.935   4.555   3.890 -0.1716 -0.8567  0.2854
 8432SOL    HW136755   3.869   4.532   3.825  0.4604  0.4423 -0.8212
 8432SOL    HW236756   3.903   4.505   3.965  0.8608  0.1289  1.3979
 8433SOL     OW36757   3.290   3.257   8.465 -0.2076  0.2622  0.1368
 8433SOL    HW136758   3.295   3.352   8.460 -2.7325  0.4506  1.2680
 8433SOL    HW236759   3.196   3.257   8.482 -0.2885  0.9885 -0.3146
 8434SOL     OW36760   2.879   4.170   2.517  0.4251 -0.0312  0.1943
 8434SOL    HW136761   2.933   4.243   2.549 -1.5086  0.9444  1.2546
 8434SOL    HW236762   2.940   4.129   2.456 -0.8311 -0.6037 -0.6797
 8435SOL     OW36763   4.377   4.496   6.974  0.6756  1.0293 -0.5794
 8435SOL    HW136764   4.436   4.426   7.001  0.4509  0.9248 -0.3531
 8435SOL    HW236765   4.340   4.520   7.059  0.4449 -2.6842  0.3504
 8436SOL     OW36766   0.263   1.709  17.074  0.7848  0.1300 -0.2770
 8436SOL    HW136767   0.235   1.798  17.051 -1.8940 -0.8652 -0.9095
 8436SOL    HW236768   0.180   1.662  17.085  2.6337 -2.6494  1.6045
 8437SOL     OW36769   0.372   4.452   8.504  0.5655  0.0565  0.2918
 8437SOL    HW136770   0.455   4.427   8.545  1.5865 -0.5781 -2.1599
 8437SOL    HW236771   0.397   4.401   8.427  0.2420  0.7066 -0.2386
 8438SOL     OW36772   3.108   2.652  11.020  0.0146  0.2898  0.1867
 8438SOL    HW136773   3.035   2.678  10.964  0.0845 -0.8697 -0.4480
 8438SOL    HW236774   3.089   2.563  11.052 -2.5477  1.1684  1.1630
 8439SOL     OW36775   3.051   1.774   8.175 -0.0497  0.1346 -0.5394
 8439SOL    HW136776   2.977   1.728   8.135 -0.4748 -0.7960  1.3177
 8439SOL    HW236777   3.116   1.760   8.107 -1.2085  1.4129 -1.9305
 8440SOL     OW36778   4.596   0.086   6.200 -0.0583 -0.4128 -0.3751
 8440SOL    HW136779   4.553   0.136   6.131  1.3621  2.8496  1.0668
 8440SOL    HW236780   4.610   0.002   6.156  0.8963 -0.8420  0.7209
 8441SOL     OW36781   1.146   1.837   0.597 -0.7653 -0.5071 -0.0991
 8441SOL    HW136782   1.145   1.746   0.567 -1.8244 -0.2012 -0.9711
 8441SOL    HW236783   1.216   1.877   0.545  1.2374 -0.6876  2.4377
 8442SOL     OW36784   3.466   0.874   5.573  0.0690  0.0015 -0.0650
 8442SOL    HW136785   3.548   0.828   5.591 -1.5147 -2.4137  0.9676
 8442SOL    HW236786   3.477   0.957   5.621  3.4984  0.3886 -1.5146
 8443SOL     OW36787   2.954   4.480  11.119 -0.5825  0.2284 -0.0358
 8443SOL    HW136788   3.012   4.542  11.164  0.8627 -1.2751  0.1720
 8443SOL    HW236789   3.022   4.437  11.067  2.3287  2.2615  2.1254
 8444SOL     OW36790   0.679   4.262   7.494  0.3900  0.7286 -0.3137
 8444SOL    HW136791   0.756   4.207   7.497 -0.2630 -0.2419 -1.4618
 8444SOL    HW236792   0.705   4.332   7.434  0.4096  0.1117 -1.0277
 8445SOL     OW36793   2.241   0.079   5.495 -0.1129  0.2403  0.3505
 8445SOL    HW136794   2.157   0.035   5.507  1.8024 -3.0017  1.7971
 8445SOL    HW236795   2.285   4.723   5.465  0.4708  0.3204  1.0065
 8446SOL     OW36796   1.225   2.143   5.078  0.3290  0.5698 -0.0432
 8446SOL    HW136797   1.297   2.195   5.113 -0.5444  2.5992 -1.2771
 8446SOL    HW236798   1.245   2.055   5.110  0.4112 -0.2513 -2.3733
 8447SOL     OW36799   3.340   0.474  13.366 -0.6605 -0.6818 -0.0467
 8447SOL    HW136800   3.306   0.530  13.436  2.1456  1.0232 -0.0092
 8447SOL    HW236801   3.289   0.394  13.362 -2.1538  0.2190  0.8852
 8448SOL     OW36802   1.320   4.127   7.477 -0.1739  0.0947 -0.3627
 8448SOL    HW136803   1.298   4.194   7.412 -0.3065 -0.3450 -0.7679
 8448SOL    HW236804   1.409   4.108   7.448  0.3150  0.6959  0.7385
 8449SOL     OW36805   2.158   0.422  14.240 -0.6334  0.3528 -0.1367
 8449SOL    HW136806   2.116   0.366  14.304 -0.2824 -0.8424 -0.9593
 8449SOL    HW236807   2.120   0.382  14.162 -2.7265  0.8025  0.6440
 8450SOL     OW36808   4.486   2.242   0.092  0.0687  0.6711  0.2093
 8450SOL    HW136809   4.477   2.261  17.692 -0.9236  0.3015  0.2318
 8450SOL    HW236810   4.474   2.330   0.127  1.3159  0.5740  0.8857
 8451SOL     OW36811   4.576   1.317   0.305 -0.0451 -0.1261 -1.1509
 8451SOL    HW136812   4.550   1.316   0.213 -0.0750  1.7406 -1.1461
 8451SOL    HW236813   4.501   1.356   0.348  0.3666 -1.2548  0.5794
 8452SOL     OW36814   2.111   4.386   3.447  0.1027 -0.4634  0.7628
 8452SOL    HW136815   2.079   4.340   3.369  0.3420  0.1223  0.3141
 8452SOL    HW236816   2.033   4.429   3.480  0.2443 -0.9324  1.6839
 8453SOL     OW36817   2.206   0.215  11.234  0.3051 -0.0236  0.2954
 8453SOL    HW136818   2.230   0.123  11.247 -1.1260 -0.3780  0.3456
 8453SOL    HW236819   2.230   0.263  11.313  1.2739  1.5844 -0.9437
 8454SOL     OW36820   3.264   2.012   9.836 -0.3843 -0.0313 -0.6255
 8454SOL    HW136821   3.290   2.036   9.924  1.6304 -0.2027 -1.1779
 8454SOL    HW236822   3.253   2.090   9.783 -0.0400  1.1796  1.1062
 8455SOL     OW36823   2.049   0.739   1.252  0.5030  0.6690  1.3720
 8455SOL    HW136824   1.969   0.687   1.261  0.4853  0.0419 -2.1284
 8455SOL    HW236825   2.100   0.673   1.205  1.1169  2.4306 -0.4401
 8456SOL     OW36826   4.202   0.971  11.635  0.1865 -0.3910 -0.0618
 8456SOL    HW136827   4.211   0.876  11.643 -1.6034 -0.7138 -1.9389
 8456SOL    HW236828   4.171   0.987  11.725  1.2409  1.6215 -0.0429
 8457SOL     OW36829   1.633   1.482   2.997  0.1912 -0.4605 -0.4433
 8457SOL    HW136830   1.592   1.529   3.069  0.4212 -0.7505 -0.1275
 8457SOL    HW236831   1.600   1.530   2.921 -0.8761  0.2271  0.4498
 8458SOL     OW36832   2.624   2.693  14.155  0.2896 -0.7624 -0.4321
 8458SOL    HW136833   2.689   2.705  14.086  0.3338 -0.4248 -0.3340
 8458SOL    HW236834   2.555   2.647  14.108 -1.7242  0.7976  0.9905
 8459SOL     OW36835   3.994   0.586   2.411  0.5155 -0.6692  0.2220
 8459SOL    HW136836   4.051   0.531   2.357 -0.9812 -0.2401 -1.7954
 8459SOL    HW236837   3.908   0.560   2.377  1.3724 -0.1619 -2.2935
 8460SOL     OW36838   3.302   1.881   4.132  0.2038  0.4151 -0.1489
 8460SOL    HW136839   3.263   1.944   4.192 -0.3667 -0.2416  0.1643
 8460SOL    HW236840   3.292   1.928   4.048  1.1778  0.6630 -0.1282
 8461SOL     OW36841   0.286   0.796   1.661  1.2502 -0.3339 -0.0648
 8461SOL    HW136842   0.302   0.883   1.623 -0.1645 -0.2990 -0.5593
 8461SOL    HW236843   0.194   0.792   1.634  1.4106  2.3304 -1.0818
 8462SOL     OW36844   0.733   1.426   1.459 -0.0654 -0.5747  0.8741
 8462SOL    HW136845   0.655   1.371   1.460 -0.8772  0.5512 -2.2247
 8462SOL    HW236846   0.777   1.405   1.542  1.0037  1.1132  0.7329
 8463SOL     OW36847   0.315   1.381   1.358  0.4110  0.4133  0.7012
 8463SOL    HW136848   0.312   1.420   1.271  1.1877 -0.4281  0.2992
 8463SOL    HW236849   0.223   1.360   1.372  0.2568 -0.1190 -1.0524
 8464SOL     OW36850   0.140   0.616  14.176  0.6411 -0.5199  0.0189
 8464SOL    HW136851   0.056   0.574  14.158 -0.2774  1.7808 -1.1247
 8464SOL    HW236852   0.106   0.705  14.164 -0.4059 -0.9280 -0.0793
 8465SOL     OW36853   4.664   3.297  11.284 -0.1353  0.1290 -0.3129
 8465SOL    HW136854   4.638   3.388  11.302  1.1755  0.0369  2.0564
 8465SOL    HW236855   4.649   3.256  11.369 -1.1368 -0.5556 -0.8229
 8466SOL     OW36856   1.111   4.300   0.621  0.2513 -0.4486 -0.4093
 8466SOL    HW136857   1.034   4.299   0.679 -0.3197  3.5764 -1.0867
 8466SOL    HW236858   1.150   4.214   0.637 -0.9120 -0.7837  0.6713
 8467SOL     OW36859   0.527   1.252   5.868 -0.7589  0.5470  0.0196
 8467SOL    HW136860   0.442   1.210   5.877  0.1514 -1.4779 -0.6320
 8467SOL    HW236861   0.516   1.290   5.781 -1.1550 -1.6558 -0.8948
 8468SOL     OW36862   3.922   1.393   5.795  0.0577 -0.4281 -0.2371
 8468SOL    HW136863   3.901   1.476   5.752  0.4474  0.3988  1.1651
 8468SOL    HW236864   3.975   1.356   5.725  0.2656 -1.6071  0.5451
 8469SOL     OW36865   2.972   2.201   8.214  0.0747 -0.6956  0.3263
 8469SOL    HW136866   3.034   2.173   8.282 -1.2395 -0.1772  1.7563
 8469SOL    HW236867   2.896   2.214   8.272 -2.1759 -2.3941 -2.2411
 8470SOL     OW36868   0.148   4.071   3.771  0.0070  0.7349  0.6332
 8470SOL    HW136869   0.096   3.994   3.747  2.8574 -1.4013  1.4827
 8470SOL    HW236870   0.082   4.120   3.820  0.8143  1.0731  1.3814
 8471SOL     OW36871   4.543   1.272   5.901  0.2279 -0.0697 -0.8103
 8471SOL    HW136872   4.544   1.202   5.835 -1.0775  0.1095 -1.0185
 8471SOL    HW236873   4.461   1.317   5.881 -0.9857 -2.2360 -0.6165
 8472SOL     OW36874   4.340   0.824   8.482 -0.0197 -0.0308 -0.3211
 8472SOL    HW136875   4.390   0.744   8.471  2.9452  1.6761  0.7698
 8472SOL    HW236876   4.396   0.873   8.542 -0.5806  0.3362 -0.0886
 8473SOL     OW36877   4.711   2.660   5.197 -0.9544 -0.1170 -0.0798
 8473SOL    HW136878   4.637   2.620   5.152 -0.9554  0.1976 -0.3507
 8473SOL    HW236879   0.049   2.586   5.198 -1.5981 -0.6671 -1.9135
 8474SOL     OW36880   3.385   1.847   9.353  0.7776 -0.2529 -0.1379
 8474SOL    HW136881   3.471   1.886   9.365  0.9268 -1.0568  1.3159
 8474SOL    HW236882   3.323   1.914   9.382 -2.2042 -2.1842 -2.0532
 8475SOL     OW36883   0.744   2.290  12.592  0.1002 -0.0429  0.4070
 8475SOL    HW136884   0.757   2.196  12.585  0.4133  0.0441 -0.2059
 8475SOL    HW236885   0.682   2.298  12.664  2.5138  3.7676  2.1213
 8476SOL     OW36886   2.742   1.690   9.945 -0.1888 -0.2858 -0.4353
 8476SOL    HW136887   2.681   1.617   9.936  0.7344 -1.2682  1.3990
 8476SOL    HW236888   2.825   1.644   9.932  0.9910  1.3178  1.3192
 8477SOL     OW36889   0.864   3.716   5.820 -0.1586 -0.1257  0.4291
 8477SOL    HW136890   0.948   3.728   5.778  1.2271  0.2264  3.3001
 8477SOL    HW236891   0.823   3.650   5.765 -0.2391 -1.5731  2.2007
 8478SOL     OW36892   0.205   4.051   2.711 -0.2399 -0.4950  0.2883
 8478SOL    HW136893   0.274   4.103   2.670 -0.9266 -1.4515 -2.1086
 8478SOL    HW236894   0.186   3.992   2.638  0.2499 -1.5597  1.0343
 8479SOL     OW36895   4.397   3.257  15.020  0.4099  0.5948  0.0508
 8479SOL    HW136896   4.456   3.200  14.970  0.8138  0.7543  0.3505
 8479SOL    HW236897   4.314   3.236  14.978  1.1055  0.9876 -1.4965
 8480SOL     OW36898   3.634   3.937   2.619  0.9247 -0.2304 -0.1311
 8480SOL    HW136899   3.722   3.899   2.617 -0.0563 -2.4966 -1.0170
 8480SOL    HW236900   3.644   4.004   2.686  0.0876 -2.5792  2.3734
 8481SOL     OW36901   0.075   1.563   2.770  0.8760  0.3644 -0.6124
 8481SOL    HW136902   0.146   1.538   2.710 -1.4420 -2.3588 -2.2376
 8481SOL    HW236903   0.028   1.636   2.731 -0.4382 -0.4454 -0.5599
 8482SOL     OW36904   4.029   1.158  14.595 -0.1683  0.2553  0.0835
 8482SOL    HW136905   4.116   1.118  14.587 -1.6044 -3.0068  0.7075
 8482SOL    HW236906   4.043   1.191  14.683 -1.1633  0.1979  0.2610
 8483SOL     OW36907   4.300   4.574   0.291 -0.0856 -0.1211  0.2865
 8483SOL    HW136908   4.334   4.528   0.369  1.9044 -0.7898 -0.9823
 8483SOL    HW236909   4.356   4.651   0.294 -1.0093  0.5854 -0.7419
 8484SOL     OW36910   0.339   4.127   1.462 -0.1676  0.5635  0.2246
 8484SOL    HW136911   0.296   4.213   1.459  1.2921  1.2846 -0.0407
 8484SOL    HW236912   0.343   4.108   1.368  2.0531 -4.7159  1.3825
 8485SOL     OW36913   1.669   4.593   9.105  0.1907 -0.2988  0.0060
 8485SOL    HW136914   1.652   4.531   9.175  1.3414  1.9816  2.2877
 8485SOL    HW236915   1.734   4.551   9.050  0.9707  1.0606 -0.1232
 8486SOL     OW36916   2.604   1.270   5.610 -0.0107 -0.1153 -0.4071
 8486SOL    HW136917   2.697   1.271   5.586  0.2059  0.7366  0.4462
 8486SOL    HW236918   2.564   1.246   5.527 -0.3976  4.0218 -1.4361
 8487SOL     OW36919   1.310   4.457   5.550 -0.1613 -0.4386 -0.4595
 8487SOL    HW136920   1.391   4.501   5.576 -0.7465  1.0972 -1.1773
 8487SOL    HW236921   1.276   4.510   5.478  2.7391  0.6260 -1.0628
 8488SOL     OW36922   3.293   1.126   2.246 -0.2817 -0.0705 -0.0811
 8488SOL    HW136923   3.323   1.142   2.156  0.4833 -0.2594  0.1449
 8488SOL    HW236924   3.202   1.096   2.239 -0.7373  1.0625  1.1436
 8489SOL     OW36925   2.962   4.701   8.096 -0.2334  0.7435  0.5096
 8489SOL    HW136926   2.886   4.647   8.117 -0.0173 -0.3121 -1.3424
 8489SOL    HW236927   2.978   4.672   8.006  1.5666  1.5059  0.5789
 8490SOL     OW36928   2.935   0.924   5.129 -0.1590  0.8984 -0.2953
 8490SOL    HW136929   2.981   0.853   5.174  1.0758 -0.0263 -3.0206
 8490SOL    HW236930   3.005   0.989   5.119 -0.5763  1.5157  0.7455
 8491SOL     OW36931   3.608   2.392   3.880 -0.3223 -0.0575 -0.2008
 8491SOL    HW136932   3.587   2.315   3.829 -0.9885 -0.4753  0.6984
 8491SOL    HW236933   3.670   2.438   3.824  0.7099 -0.9889  0.1797
 8492SOL     OW36934   2.159   3.823   5.251 -0.7382  0.2016 -0.1918
 8492SOL    HW136935   2.099   3.784   5.315 -1.6698  3.9358  1.2546
 8492SOL    HW236936   2.103   3.893   5.216 -1.7027 -0.7692 -0.5897
 8493SOL     OW36937   2.212   1.290   2.277  0.2832 -0.0688  0.3907
 8493SOL    HW136938   2.284   1.276   2.338 -0.1445  0.5212  1.0452
 8493SOL    HW236939   2.256   1.304   2.194 -1.6000 -0.3843 -0.6546
 8494SOL     OW36940   3.580   0.138  16.828  0.6583  0.0249  0.0946
 8494SOL    HW136941   3.638   0.213  16.843  0.7047 -0.1562  0.7979
 8494SOL    HW236942   3.582   0.101  16.916 -0.9805  0.6372  0.3956
 8495SOL     OW36943   3.540   1.754   2.535 -0.4987  0.4221 -0.5554
 8495SOL    HW136944   3.480   1.693   2.579  1.1932 -0.6313  0.3289
 8495SOL    HW236945   3.511   1.844   2.548  3.1029  1.4089  0.9269
 8496SOL     OW36946   0.449   2.073   4.308 -0.2529  0.0545  0.4763
 8496SOL    HW136947   0.372   2.106   4.354  0.1112 -1.0975  1.8767
 8496SOL    HW236948   0.500   2.154   4.299 -1.4527  0.6449 -0.9622
 8497SOL     OW36949   1.327   2.071   5.888  0.3448  0.4108  0.1433
 8497SOL    HW136950   1.350   1.999   5.947 -0.6545  2.1502  2.6828
 8497SOL    HW236951   1.260   2.119   5.937  0.5059 -0.2883  1.0444
 8498SOL     OW36952   2.469   0.284   7.957 -0.0078  0.3329  0.3306
 8498SOL    HW136953   2.437   0.197   7.933  2.2346 -0.6209  0.7675
 8498SOL    HW236954   2.388   0.332   7.943 -1.4500 -2.5068 -1.0745
 8499SOL     OW36955   0.471   1.681   4.579  0.2852  0.3030 -0.3741
 8499SOL    HW136956   0.499   1.761   4.535 -0.2058  0.0827 -1.1011
 8499SOL    HW236957   0.377   1.675   4.559  0.3867 -0.8870 -0.4799
 8500SOL     OW36958   1.539   4.573   8.194  0.1285  0.7963 -0.1225
 8500SOL    HW136959   1.502   4.518   8.125  2.5729 -0.1196 -0.6817
 8500SOL    HW236960   1.610   4.523   8.233  0.0788 -0.9286 -2.1827
 8501SOL     OW36961   4.631   4.657   6.648  0.0410  0.4322 -0.5896
 8501SOL    HW136962   4.614   0.010   6.593 -1.4302  1.3743  1.2096
 8501SOL    HW236963   4.547   4.631   6.686  0.5354 -1.6485 -0.8770
 8502SOL     OW36964   2.435   0.781   6.620 -0.1164  0.3046 -0.4177
 8502SOL    HW136965   2.463   0.872   6.621 -0.1798  0.3031  1.0352
 8502SOL    HW236966   2.350   0.782   6.575 -0.3401 -0.7886 -0.0222
 8503SOL     OW36967   1.090   3.962   8.660  0.0734 -0.2552 -0.1069
 8503SOL    HW136968   1.062   3.964   8.752  0.6458  0.7130  0.0530
 8503SOL    HW236969   1.126   3.874   8.654 -3.5832 -1.7914  0.7095
 8504SOL     OW36970   1.814   4.348   7.281  0.0228 -0.0973  0.1649
 8504SOL    HW136971   1.899   4.371   7.243  1.1932 -3.9215  0.5011
 8504SOL    HW236972   1.839   4.303   7.362 -2.4253  1.1150  1.6058
 8505SOL     OW36973   3.118   3.672  14.797 -0.0912  0.2426 -0.2233
 8505SOL    HW136974   3.152   3.688  14.709 -2.4273  0.9117 -1.0206
 8505SOL    HW236975   3.159   3.591  14.825  0.4148  0.1303 -1.3021
 8506SOL     OW36976   1.998   0.317   4.239 -0.0966  0.1744 -0.3966
 8506SOL    HW136977   1.907   0.346   4.241 -0.4885 -1.0793 -0.0364
 8506SOL    HW236978   2.008   0.260   4.316  2.2051  1.5839  0.3458
 8507SOL     OW36979   4.629   4.221   5.822 -0.3677  0.1064 -0.2013
 8507SOL    HW136980   4.538   4.244   5.805  0.0538 -0.4787 -3.3019
 8507SOL    HW236981   4.634   4.147   5.762  3.7758 -0.3690  0.7085
 8508SOL     OW36982   3.015   0.894   3.898  0.0747 -0.0020 -0.2804
 8508SOL    HW136983   3.074   0.820   3.885 -0.2602 -0.2820 -0.2161
 8508SOL    HW236984   3.081   0.963   3.895  1.0945 -0.9307  0.7168
 8509SOL     OW36985   1.467   1.552   5.205 -0.0155 -0.0783 -0.4920
 8509SOL    HW136986   1.484   1.637   5.164  2.4946  0.7071  2.2097
 8509SOL    HW236987   1.441   1.500   5.130  0.8438 -0.2720 -0.6517
 8510SOL     OW36988   0.124   2.496   3.768  0.3967  0.2319  0.6287
 8510SOL    HW136989   0.071   2.467   3.842  0.7755 -2.9140 -0.3156
 8510SOL    HW236990   0.069   2.447   3.706 -0.6277  1.2959  0.6993
 8511SOL     OW36991   3.723   3.412   2.204  0.1329 -0.3796  0.2234
 8511SOL    HW136992   3.715   3.506   2.216  0.8433 -0.1257 -1.2762
 8511SOL    HW236993   3.687   3.374   2.284  2.0807 -1.7046  0.4880
 8512SOL     OW36994   4.249   1.464   7.391 -0.1491  0.3062  0.3842
 8512SOL    HW136995   4.163   1.442   7.426  0.3857 -1.0953  0.8134
 8512SOL    HW236996   4.227   1.430   7.304  0.2195  3.2311 -0.8750
 8513SOL     OW36997   1.086   0.620   8.251  0.5200  0.1401 -0.2380
 8513SOL    HW136998   1.004   0.606   8.298 -0.1963  0.0462 -1.5255
 8513SOL    HW236999   1.054   0.642   8.164 -1.0094 -0.3106  0.2227
 8514SOL     OW37000   4.192   0.386   5.098 -0.0995 -0.2305  0.6516
 8514SOL    HW137001   4.123   0.450   5.116  1.0953  1.1330  0.3843
 8514SOL    HW237002   4.139   0.312   5.128 -3.6387  1.7909 -0.5247
 8515SOL     OW37003   3.931   3.129   8.954  0.3963 -0.1776 -0.0384
 8515SOL    HW137004   4.021   3.161   8.941  0.7790 -1.6184 -1.0281
 8515SOL    HW237005   3.909   3.169   9.038  0.4932  2.5299 -1.2804
 8516SOL     OW37006   4.334   2.867  17.570  0.8424 -0.0136 -0.0375
 8516SOL    HW137007   4.312   2.909  17.653  1.2161 -4.1574  2.1797
 8516SOL    HW237008   4.253   2.868  17.518 -0.6672  0.6702  2.3570
 8517SOL     OW37009   4.635   0.837   8.176  0.2785  0.1127 -0.0340
 8517SOL    HW137010   4.639   0.818   8.270 -1.3195 -0.8382 -0.1655
 8517SOL    HW237011   4.562   0.898   8.160  1.0003  0.7125 -1.0185
 8518SOL     OW37012   3.232   4.578   8.942  0.0794  0.2244  0.2343
 8518SOL    HW137013   3.160   4.615   8.891  1.1072 -1.4393 -2.3912
 8518SOL    HW237014   3.300   4.617   8.888  0.2458 -1.1107 -0.5301
 8519SOL     OW37015   4.490   1.885   8.312  0.8599 -0.2552  0.4924
 8519SOL    HW137016   4.555   1.945   8.275 -0.3788  0.1833 -0.9871
 8519SOL    HW237017   4.535   1.800   8.316  1.2757 -0.0682 -0.1201
 8520SOL     OW37018   1.948   3.671   0.561 -0.0685 -0.3313  0.2280
 8520SOL    HW137019   1.974   3.730   0.490 -1.5678 -1.5887 -1.3854
 8520SOL    HW237020   1.904   3.730   0.623  3.1327  1.0821  1.1611
 8521SOL     OW37021   3.518   3.499  16.180 -0.5410 -0.4103 -0.0178
 8521SOL    HW137022   3.458   3.572  16.164 -0.6803 -0.6825 -0.7565
 8521SOL    HW237023   3.598   3.543  16.208 -0.7892  1.1887 -1.8263
 8522SOL     OW37024   3.574   0.301   1.731 -0.5249  0.6784 -0.1005
 8522SOL    HW137025   3.656   0.291   1.682 -0.4796  2.4939 -0.3904
 8522SOL    HW237026   3.563   0.213   1.767 -1.4164  1.2942  1.1200
 8523SOL     OW37027   1.258   1.264   3.576 -0.0356  0.6137  0.0036
 8523SOL    HW137028   1.261   1.170   3.561 -0.4617  0.3547  1.5931
 8523SOL    HW237029   1.269   1.268   3.671  0.8261  0.5811 -0.0877
 8524SOL     OW37030   2.509   0.388   9.728  0.2882 -0.1886  0.5242
 8524SOL    HW137031   2.472   0.300   9.732 -0.2614  0.0427  0.6445
 8524SOL    HW237032   2.430   0.440   9.710  0.2772 -0.6748 -0.8277
 8525SOL     OW37033   4.466   1.850   0.897 -0.7272  0.1178  0.3617
 8525SOL    HW137034   4.473   1.910   0.971 -1.3731 -0.7849  1.1470
 8525SOL    HW237035   4.378   1.814   0.905 -0.8587  0.2244 -0.6026
 8526SOL     OW37036   3.976   1.626   4.826 -0.3404 -0.2342  0.5089
 8526SOL    HW137037   3.921   1.547   4.829  0.6186 -1.0156 -2.6935
 8526SOL    HW237038   3.987   1.633   4.731  0.0078  2.2877  0.7483
 8527SOL     OW37039   0.310   1.932   6.147  0.5395  0.0975 -0.1611
 8527SOL    HW137040   0.391   1.956   6.103  1.4029 -0.7029  1.0136
 8527SOL    HW237041   0.246   1.982   6.095  1.4683  0.8218 -0.6173
 8528SOL     OW37042   3.330   0.319   6.922 -0.3821 -0.5738  0.0909
 8528SOL    HW137043   3.367   0.372   6.992 -1.2456  1.2758 -0.8744
 8528SOL    HW237044   3.406   0.267   6.898 -0.2566 -0.3388 -0.0183
 8529SOL     OW37045   4.069   4.635   7.940 -0.1403 -0.1645  0.0791
 8529SOL    HW137046   4.071   4.554   7.991  1.5630  0.2983  0.7663
 8529SOL    HW237047   3.979   4.631   7.908 -0.8208  0.3871  1.9340
 8530SOL     OW37048   1.524   3.596   5.648  0.4320  0.3829  0.2510
 8530SOL    HW137049   1.495   3.687   5.650  1.5635  0.7879 -1.4375
 8530SOL    HW237050   1.457   3.559   5.705  0.2002  1.1187  0.4521
 8531SOL     OW37051   1.574   3.789  12.489 -0.2684  0.4891 -0.1929
 8531SOL    HW137052   1.575   3.694  12.477 -0.3230  0.7902 -2.5765
 8531SOL    HW237053   1.652   3.809  12.437  0.5316  1.2202  1.2822
 8532SOL     OW37054   2.694   3.779   4.396 -0.2821 -0.6177  0.5162
 8532SOL    HW137055   2.605   3.775   4.360  0.8687 -1.4951 -2.2671
 8532SOL    HW237056   2.717   3.687   4.411  0.1440 -0.6254 -0.1558
 8533SOL     OW37057   0.956   3.230   2.389  0.2303  0.0468  0.2608
 8533SOL    HW137058   0.935   3.275   2.471  2.0295  0.0276  0.7366
 8533SOL    HW237059   1.046   3.261   2.375  0.3428 -1.6664 -2.8082
 8534SOL     OW37060   4.377   4.234   5.694 -0.7797 -0.0100  0.3421
 8534SOL    HW137061   4.326   4.171   5.643  0.8145 -2.0811  1.3580
 8534SOL    HW237062   4.374   4.308   5.633 -0.4677  0.2979  0.6933
 8535SOL     OW37063   1.149   0.666   3.559 -0.2223  0.6483  0.1430
 8535SOL    HW137064   1.082   0.733   3.569 -1.6762 -0.8155  0.2347
 8535SOL    HW237065   1.201   0.691   3.482  2.4155 -0.0485  1.6824
 8536SOL     OW37066   2.342   3.254  10.850  0.3493  0.0790  0.3493
 8536SOL    HW137067   2.274   3.318  10.825  1.1031  1.4058  1.7033
 8536SOL    HW237068   2.335   3.182  10.788 -0.1120 -0.2002  0.7231
 8537SOL     OW37069   3.353   0.090  12.727 -0.2411 -0.0373 -0.2862
 8537SOL    HW137070   3.351   0.171  12.675  3.5468  1.0813  1.2749
 8537SOL    HW237071   3.369   0.131  12.812 -3.0078 -2.6747  1.4993
 8538SOL     OW37072   1.165   2.974   6.582  0.1573 -0.4241  0.5159
 8538SOL    HW137073   1.144   2.935   6.667 -1.1221 -3.0715 -1.0396
 8538SOL    HW237074   1.258   2.952   6.570  0.3807  0.9390 -0.2425
 8539SOL     OW37075   4.435   3.850  13.324 -0.3343  0.3576  0.5360
 8539SOL    HW137076   4.493   3.855  13.400  0.6035 -1.9272 -0.0341
 8539SOL    HW237077   4.360   3.813  13.370 -0.1012  0.8484  1.3212
 8540SOL     OW37078   1.155   2.082   7.486 -0.0315  0.0308  0.4574
 8540SOL    HW137079   1.180   1.997   7.522  1.0207  0.0392 -0.2495
 8540SOL    HW237080   1.131   2.119   7.571 -2.6520  1.3621 -0.8430
 8541SOL     OW37081   4.453   0.750   7.450 -0.6793  0.1398  0.3337
 8541SOL    HW137082   4.543   0.726   7.472 -1.7706 -2.1846  2.1921
 8541SOL    HW237083   4.423   0.670   7.406  1.7210 -0.5919  0.0317
 8542SOL     OW37084   3.496   3.026  17.463 -0.3643 -0.3597 -0.2737
 8542SOL    HW137085   3.421   3.052  17.516  0.0006  1.4874 -0.6661
 8542SOL    HW237086   3.533   3.113  17.448  0.0283 -0.4330  0.2377
 8543SOL     OW37087   2.328   3.473   6.602  0.5721 -0.4543 -0.4526
 8543SOL    HW137088   2.410   3.424   6.602  0.9482  0.1872 -0.4739
 8543SOL    HW237089   2.354   3.551   6.650 -0.4861  0.8611 -2.0277
 8544SOL     OW37090   2.491   1.845  10.485  0.0703 -0.3398 -0.3669
 8544SOL    HW137091   2.456   1.890  10.408 -2.1168 -0.8443  0.3397
 8544SOL    HW237092   2.470   1.907  10.554  1.7151 -0.5061  0.2922
 8545SOL     OW37093   4.381   2.298   5.383  0.1918  0.5355 -0.1323
 8545SOL    HW137094   4.392   2.249   5.465 -1.9658 -2.7614 -1.8351
 8545SOL    HW237095   4.416   2.381   5.414 -2.0131  0.8804  1.3913
 8546SOL     OW37096   4.227   3.943   4.585 -0.0061 -0.7078  0.7107
 8546SOL    HW137097   4.308   3.973   4.626  1.1874 -2.0388 -0.6513
 8546SOL    HW237098   4.175   3.906   4.656  1.0679 -3.4802  0.0612
 8547SOL     OW37099   3.042   0.670   5.789 -0.0301  0.4080  0.5517
 8547SOL    HW137100   2.999   0.736   5.735 -0.5464  2.2650  3.2239
 8547SOL    HW237101   2.976   0.600   5.791 -0.9866  1.3511  1.5538
 8548SOL     OW37102   4.512   0.631   2.556 -0.2209 -0.8680 -0.5084
 8548SOL    HW137103   4.429   0.588   2.573 -1.7836  1.7538 -1.3813
 8548SOL    HW237104   4.551   0.581   2.485  0.3761  1.0146 -1.5127
 8549SOL     OW37105   3.930   3.757   8.869  1.0024  0.1024  0.4772
 8549SOL    HW137106   4.017   3.721   8.877  0.7686 -0.2863  1.2058
 8549SOL    HW237107   3.924   3.793   8.780 -0.8293 -0.1921  0.4734
 8550SOL     OW37108   3.507   1.272  10.323 -0.1801 -0.4482 -0.2200
 8550SOL    HW137109   3.554   1.197  10.360 -0.0222  0.7327  1.9747
 8550SOL    HW237110   3.439   1.277  10.390  0.1856 -0.9626  0.1935
 8551SOL     OW37111   1.499   1.035   6.519 -0.0507 -0.2237  0.2492
 8551SOL    HW137112   1.476   1.069   6.433  0.5478  0.4634  0.3602
 8551SOL    HW237113   1.585   1.076   6.529 -0.5211  1.1185 -1.2141
 8552SOL     OW37114   3.414   3.060   2.708 -0.0546  0.0536  0.6110
 8552SOL    HW137115   3.381   3.070   2.618  0.7423  0.5730  0.3739
 8552SOL    HW237116   3.444   2.969   2.714  2.3697  0.9589  2.3027
 8553SOL     OW37117   2.365   1.705   4.139  0.2253  0.3152  0.0865
 8553SOL    HW137118   2.366   1.651   4.218 -3.4557 -1.4589 -1.0834
 8553SOL    HW237119   2.451   1.747   4.136 -0.1796  1.3120  2.4333
 8554SOL     OW37120   3.544   4.614  15.610 -0.1007 -0.7051 -0.4138
 8554SOL    HW137121   3.525   4.695  15.562  0.7818  0.4627  1.2170
 8554SOL    HW237122   3.637   4.611  15.587 -0.2740 -0.3850 -1.1815
 8555SOL     OW37123   4.375   2.425   4.881  0.0241  0.4254 -0.2554
 8555SOL    HW137124   4.316   2.393   4.813  1.2161 -1.5262 -0.3897
 8555SOL    HW237125   4.449   2.368   4.860 -0.6786 -0.9548  1.0225
 8556SOL     OW37126   4.700   1.943   9.301  0.3492 -0.2730 -0.0171
 8556SOL    HW137127   4.713   2.036   9.316 -0.0780 -0.2209  0.0320
 8556SOL    HW237128   4.612   1.935   9.337  0.4726 -0.7812  0.1763
 8557SOL     OW37129   0.646   1.840   2.477  0.6212 -0.0131  0.1796
 8557SOL    HW137130   0.695   1.807   2.401 -1.7246 -1.1052 -0.8581
 8557SOL    HW237131   0.642   1.933   2.455 -2.7302  0.1521  1.5595
 8558SOL     OW37132   0.599   4.472  10.585  0.7595  0.1643  0.4075
 8558SOL    HW137133   0.635   4.561  10.586  1.0653  0.0215  1.3037
 8558SOL    HW237134   0.574   4.460  10.676 -0.5485 -0.0849  0.0316
 8559SOL     OW37135   3.680   4.146   8.250 -0.1987 -0.0449  0.5704
 8559SOL    HW137136   3.770   4.173   8.235 -0.7240  1.3605 -0.0449
 8559SOL    HW237137   3.659   4.201   8.325 -2.8976 -0.0650 -0.1639
 8560SOL     OW37138   4.037   1.930   3.773 -0.3565 -0.0123  0.2716
 8560SOL    HW137139   4.053   1.841   3.741  0.0209 -1.0240  3.2353
 8560SOL    HW237140   3.984   1.970   3.704 -0.2424 -2.8477 -1.4593
 8561SOL     OW37141   1.685   3.758  17.591 -0.5452  0.1625  0.8967
 8561SOL    HW137142   1.727   3.705  17.523  0.5832  1.9243  0.2117
 8561SOL    HW237143   1.690   3.847  17.557 -0.8737  0.4846  1.7019
 8562SOL     OW37144   0.226   3.715  12.010 -0.5236 -0.0922 -0.1475
 8562SOL    HW137145   0.261   3.786  11.957 -0.7183 -0.3447 -0.6159
 8562SOL    HW237146   0.173   3.762  12.075 -0.2340 -1.3076  0.9768
 8563SOL     OW37147   3.929   2.010   8.936  0.0541 -0.7719  0.2174
 8563SOL    HW137148   3.836   2.023   8.955  0.0210 -0.3281 -0.2825
 8563SOL    HW237149   3.935   1.914   8.928 -1.3281 -0.5376 -3.3938
 8564SOL     OW37150   0.246   4.078   4.705  0.4409  0.8069  0.3328
 8564SOL    HW137151   0.251   4.169   4.675 -1.0461  0.7006 -0.2103
 8564SOL    HW237152   0.259   4.085   4.800 -3.2873 -3.1330  1.1601
 8565SOL     OW37153   4.230   4.214   4.763  0.5359 -0.4954  0.2281
 8565SOL    HW137154   4.269   4.130   4.785  1.0898  0.3776  2.5462
 8565SOL    HW237155   4.244   4.217   4.668 -0.3015  1.9236  0.1713
 8566SOL     OW37156   0.890   4.694   7.567  0.4148  0.1182  0.3109
 8566SOL    HW137157   0.935   0.046   7.606 -0.1646  0.1785  0.8669
 8566SOL    HW237158   0.847   4.663   7.646  1.6627 -1.2259  0.4480
 8567SOL     OW37159   4.085   2.001  11.521 -0.9441 -0.1101  0.4796
 8567SOL    HW137160   4.134   1.927  11.556  0.8547  1.1725  0.6627
 8567SOL    HW237161   4.089   1.987  11.427 -1.2418  1.3487  0.2476
 8568SOL     OW37162   2.370   1.563   4.414 -0.3315 -0.6888 -0.4250
 8568SOL    HW137163   2.435   1.515   4.363 -0.4200 -0.6625 -0.5634
 8568SOL    HW237164   2.376   1.525   4.502 -0.2525 -1.0667 -0.5963
 8569SOL     OW37165   1.402   0.965   7.430  0.3967  0.0430  0.0914
 8569SOL    HW137166   1.380   1.055   7.454  3.4300  0.7893  0.0945
 8569SOL    HW237167   1.319   0.921   7.449 -0.1402  0.7622 -0.5682
 8570SOL     OW37168   1.090   3.654   3.187 -0.1139 -0.2052 -0.7313
 8570SOL    HW137169   1.149   3.683   3.258  0.3721 -0.4058 -1.0575
 8570SOL    HW237170   1.029   3.727   3.180 -0.0452 -0.0193  0.5196
 8571SOL     OW37171   3.472   4.007   8.162  0.3357  0.5627 -0.0432
 8571SOL    HW137172   3.545   4.047   8.209  0.6632  2.4870 -2.2374
 8571SOL    HW237173   3.459   3.932   8.220  1.4381 -0.3609 -0.9713
 8572SOL     OW37174   2.138   2.360   9.298 -0.3799 -0.0297  0.6435
 8572SOL    HW137175   2.119   2.450   9.325 -0.4503  0.2814 -0.4387
 8572SOL    HW237176   2.068   2.321   9.350 -1.0012  0.6318  0.3107
 8573SOL     OW37177   2.812   0.416   6.117  0.6074 -0.1991  0.0517
 8573SOL    HW137178   2.845   0.381   6.034 -0.9057  1.3754 -1.2082
 8573SOL    HW237179   2.775   0.348   6.174 -1.6004  0.6642 -0.3514
 8574SOL     OW37180   3.920   0.665  12.527  0.4026  0.4374 -0.3496
 8574SOL    HW137181   3.986   0.720  12.483 -2.5116  1.8218 -2.9490
 8574SOL    HW237182   3.858   0.726  12.567  1.1291  0.3769  0.8735
 8575SOL     OW37183   2.068   4.363  12.140 -0.3806  0.1423 -0.3063
 8575SOL    HW137184   2.057   4.395  12.229 -0.6055  0.7345 -0.5510
 8575SOL    HW237185   2.018   4.427  12.090 -1.2842 -0.8976 -0.7483
 8576SOL     OW37186   2.584   2.471   5.971  0.0520 -0.4147  0.1988
 8576SOL    HW137187   2.585   2.385   5.927  1.2349 -1.9542  3.2137
 8576SOL    HW237188   2.491   2.494   5.967 -0.0111 -0.9045 -1.2345
 8577SOL     OW37189   3.506   3.653   6.181  0.3157 -0.0584  0.0725
 8577SOL    HW137190   3.547   3.739   6.176  1.9370 -0.7758  0.9156
 8577SOL    HW237191   3.547   3.604   6.109 -0.6256 -1.0432  0.1967
 8578SOL     OW37192   3.292   3.785   3.147 -0.3662  0.4385  0.4210
 8578SOL    HW137193   3.363   3.842   3.117 -2.2081  3.3182  1.6161
 8578SOL    HW237194   3.283   3.809   3.239 -0.4763  2.8667 -0.2399
 8579SOL     OW37195   3.615   0.965   5.789  0.9234  0.1976 -0.3141
 8579SOL    HW137196   3.666   0.905   5.843  0.2466 -0.6460 -0.6028
 8579SOL    HW237197   3.687   1.010   5.744  0.3380  2.1453  0.6852
 8580SOL     OW37198   3.652   4.368   2.685  0.1550 -0.1933  0.0398
 8580SOL    HW137199   3.716   4.404   2.624  0.4351 -0.1572  0.3583
 8580SOL    HW237200   3.686   4.349   2.772 -2.1740 -2.8496  0.3784
 8581SOL     OW37201   3.753   3.900  16.616 -0.2683  0.2299 -0.3033
 8581SOL    HW137202   3.704   3.882  16.535  0.2703  3.8107 -1.4143
 8581SOL    HW237203   3.755   3.808  16.644  0.3014 -0.6873 -3.3001
 8582SOL     OW37204   1.919   0.999  16.775 -0.3892  0.0838  0.0858
 8582SOL    HW137205   1.931   0.912  16.814  0.7346  1.1543  2.1410
 8582SOL    HW237206   1.906   1.049  16.856 -0.7842  1.7868 -1.0374
 8583SOL     OW37207   2.736   2.739  15.586 -0.1417  0.4027 -0.5568
 8583SOL    HW137208   2.806   2.703  15.642  1.0792 -0.1979 -2.4759
 8583SOL    HW237209   2.755   2.833  15.581  2.4045 -0.1293 -1.1725
 8584SOL     OW37210   2.556   2.319   7.132  0.5084 -0.6203 -0.6572
 8584SOL    HW137211   2.473   2.366   7.131  0.3805 -0.8047  0.6589
 8584SOL    HW237212   2.536   2.241   7.184  0.3288 -1.0852 -1.4299
 8585SOL     OW37213   3.003   3.493  14.352  0.7993 -0.6879  0.0955
 8585SOL    HW137214   3.001   3.456  14.263  0.6773 -1.3102  0.3560
 8585SOL    HW237215   2.937   3.561  14.346 -0.2445 -1.7789 -0.7130
 8586SOL     OW37216   2.158   0.792   7.793  0.1635 -0.4653  0.8176
 8586SOL    HW137217   2.104   0.801   7.715  2.9035 -0.6598 -1.0756
 8586SOL    HW237218   2.088   0.788   7.858  1.3524 -1.8818  2.0099
 8587SOL     OW37219   2.547   3.269  14.790  0.1483  0.0584 -0.0786
 8587SOL    HW137220   2.453   3.285  14.799  0.6159  2.3339  0.5991
 8587SOL    HW237221   2.577   3.358  14.771 -1.7001  0.5833 -0.5538
 8588SOL     OW37222   3.490   1.637  16.134 -1.0949 -0.2620 -0.0318
 8588SOL    HW137223   3.536   1.721  16.132 -2.8876  0.7215  0.0842
 8588SOL    HW237224   3.537   1.578  16.075 -2.8195 -1.0027 -0.6720
 8589SOL     OW37225   1.664   4.028   6.119  0.1431  0.2783 -0.5834
 8589SOL    HW137226   1.682   4.014   6.026 -1.1472 -1.2280 -0.6165
 8589SOL    HW237227   1.568   4.027   6.116  0.1195  0.7201  0.1923
 8590SOL     OW37228   1.822   0.617   5.722  0.5499 -0.0931  0.9432
 8590SOL    HW137229   1.871   0.690   5.684 -0.3286 -1.0762 -2.0598
 8590SOL    HW237230   1.741   0.657   5.753 -0.3427 -0.2893 -1.1705
 8591SOL     OW37231   1.471   0.599   5.067  0.6233 -0.6105  0.6711
 8591SOL    HW137232   1.413   0.675   5.073 -0.9151 -1.6238 -1.7364
 8591SOL    HW237233   1.512   0.598   4.981 -2.4984 -2.9311 -0.8041
 8592SOL     OW37234   4.165   1.635   5.254 -0.1768  0.2263 -0.2509
 8592SOL    HW137235   4.163   1.651   5.160  0.0661  1.7927  0.0196
 8592SOL    HW237236   4.257   1.616   5.271  0.1769  2.0219 -0.2192
 8593SOL     OW37237   3.487   1.169   8.783 -0.2113 -0.6626  0.0802
 8593SOL    HW137238   3.423   1.103   8.813 -1.1588  0.8088  1.2945
 8593SOL    HW237239   3.473   1.160   8.689 -0.9674 -2.2686  0.3265
 8594SOL     OW37240   2.322   2.817  16.069 -0.1036  0.1882 -0.5719
 8594SOL    HW137241   2.282   2.904  16.076  0.7017  0.3189  2.7102
 8594SOL    HW237242   2.255   2.761  16.032  1.4556 -1.5077 -0.8259
 8595SOL     OW37243   2.192   3.280   8.639  0.0511 -0.2847 -0.3655
 8595SOL    HW137244   2.267   3.333   8.611 -0.9884  0.5012 -1.6839
 8595SOL    HW237245   2.220   3.246   8.724 -1.7444  0.2461  0.4342
 8596SOL     OW37246   2.267   3.264   4.344  0.0352 -0.0937 -0.8573
 8596SOL    HW137247   2.234   3.183   4.383  0.2173  0.3362  0.1698
 8596SOL    HW237248   2.214   3.274   4.264 -2.3026 -0.9494  0.5717
 8597SOL     OW37249   1.752   4.397   3.100 -0.3603 -0.3845 -0.1053
 8597SOL    HW137250   1.711   4.357   3.177 -1.4674 -0.2513 -0.6274
 8597SOL    HW237251   1.719   4.487   3.100 -1.6739 -0.8697 -2.4347
 8598SOL     OW37252   1.658   2.013  11.361  0.1170 -0.3870  0.5144
 8598SOL    HW137253   1.657   2.051  11.449 -0.7735 -0.8300  0.6969
 8598SOL    HW237254   1.674   2.093  11.311 -0.0081 -0.6942 -0.0251
 8599SOL     OW37255   3.347   1.328   7.600  0.2917 -0.5949  0.1437
 8599SOL    HW137256   3.380   1.238   7.591 -0.3474 -0.7956 -0.2029
 8599SOL    HW237257   3.422   1.370   7.559 -0.9383  2.7267  1.3098
 8600SOL     OW37258   1.147   1.675  14.708  0.7383  0.1003  0.1786
 8600SOL    HW137259   1.196   1.724  14.774  1.1069  0.5065 -0.4014
 8600SOL    HW237260   1.149   1.592  14.756  0.6783  0.3187  0.5597
 8601SOL     OW37261   4.028   0.691   9.822  0.1302 -0.6982  0.1560
 8601SOL    HW137262   4.120   0.665   9.826  0.4911  0.5439 -0.1306
 8601SOL    HW237263   4.017   0.716   9.730  3.1795 -0.4549 -0.1549
 8602SOL     OW37264   1.112   0.879   7.918 -0.5226 -0.1444  0.0484
 8602SOL    HW137265   1.046   0.943   7.945 -1.5259 -0.5970 -1.3071
 8602SOL    HW237266   1.185   0.926   7.959 -0.8370  1.0511 -0.7514
 8603SOL     OW37267   3.076   3.126   5.130  0.0977 -0.1053  0.2324
 8603SOL    HW137268   3.112   3.156   5.213  1.6860  1.2530 -0.9325
 8603SOL    HW237269   3.049   3.207   5.085  0.1349  0.8676  1.9717
 8604SOL     OW37270   1.401   0.012   9.139  0.1736 -0.2327 -0.4710
 8604SOL    HW137271   1.377   4.658   9.189 -1.0692  2.4475  3.0671
 8604SOL    HW237272   1.389   0.090   9.193 -0.7045  0.4966 -1.6889
 8605SOL     OW37273   1.219   2.033   9.916 -0.6724  0.4368 -0.3267
 8605SOL    HW137274   1.280   2.104   9.898 -0.6162  0.1254 -1.3814
 8605SOL    HW237275   1.281   1.961   9.929 -1.2589 -0.6413 -3.4342
 8606SOL     OW37276   4.300   4.337   4.533  0.3704 -0.1734 -0.3592
 8606SOL    HW137277   4.301   4.421   4.486 -0.0061  0.1859  0.2817
 8606SOL    HW237278   4.375   4.294   4.491 -0.6038 -2.6321  0.4006
 8607SOL     OW37279   2.786   3.798   3.104  0.0734  0.3808 -0.5405
 8607SOL    HW137280   2.800   3.870   3.043  0.2550  1.2451  0.5116
 8607SOL    HW237281   2.877   3.768   3.114  0.3509  0.9602 -1.4080
 8608SOL     OW37282   2.016   4.163   0.218 -0.2795 -0.1868 -0.3805
 8608SOL    HW137283   1.988   4.254   0.226  1.8419  0.3682  0.6528
 8608SOL    HW237284   2.075   4.167   0.142 -0.0786 -0.0909 -0.2184
 8609SOL     OW37285   1.586   0.668  13.278 -0.0422  0.2245 -0.8185
 8609SOL    HW137286   1.531   0.592  13.298 -0.1963  0.7014  0.5757
 8609SOL    HW237287   1.620   0.686  13.366  0.2432  2.8989 -1.4662
 8610SOL     OW37288   0.996   1.479   2.088  0.0288  0.1298  0.0002
 8610SOL    HW137289   1.029   1.553   2.037  1.2803 -0.3245  0.1687
 8610SOL    HW237290   1.000   1.517   2.175 -1.1284  2.6903 -1.0441
 8611SOL     OW37291   0.887   3.596   5.474  0.5349  0.2708 -0.1980
 8611SOL    HW137292   0.875   3.502   5.466 -3.3501  0.6125  1.3277
 8611SOL    HW237293   0.973   3.605   5.516  0.7858  0.4821 -0.7586
 8612SOL     OW37294   3.410   0.102   5.801  0.0475 -0.0197 -0.0038
 8612SOL    HW137295   3.324   0.067   5.780  0.4972 -1.1560  0.0559
 8612SOL    HW237296   3.451   0.100   5.714 -0.8946 -1.1839 -0.4120
 8613SOL     OW37297   3.982   4.706   2.493  0.8318  0.1940  0.6772
 8613SOL    HW137298   3.915   0.010   2.556 -1.2513  0.1834 -1.5135
 8613SOL    HW237299   4.002   0.048   2.425 -1.5091  1.4607  1.2009
 8614SOL     OW37300   2.180   0.346   5.460 -0.3877 -0.0107 -0.5527
 8614SOL    HW137301   2.189   0.378   5.550  0.1229 -1.8074  0.0320
 8614SOL    HW237302   2.226   0.262   5.460  2.6130  1.6320  1.1013
 8615SOL     OW37303   4.419   2.652   0.071  0.0409  0.1838 -0.1031
 8615SOL    HW137304   4.400   2.735   0.027 -0.5016 -0.2077 -0.6183
 8615SOL    HW237305   4.495   2.625   0.020 -0.7750  0.0901 -1.2795
 8616SOL     OW37306   2.520   4.169   3.219  0.4735  0.2444 -0.2466
 8616SOL    HW137307   2.505   4.080   3.249  0.1423  0.0552 -0.9608
 8616SOL    HW237308   2.433   4.195   3.189 -0.4361 -0.3901  1.8689
 8617SOL     OW37309   3.291   1.851   7.475  0.2523 -0.4356 -0.4802
 8617SOL    HW137310   3.294   1.845   7.379  0.4877 -1.4431 -0.4036
 8617SOL    HW237311   3.383   1.872   7.491  0.2496 -1.3760  0.7374
 8618SOL     OW37312   4.701   0.961  13.115  0.5095  0.3308 -0.2550
 8618SOL    HW137313   4.610   0.935  13.099  1.5573 -2.0471 -2.4276
 8618SOL    HW237314   4.684   1.054  13.108 -0.7731 -0.0313 -1.9433
 8619SOL     OW37315   0.952   3.028   4.240  0.1042  0.3180  0.2833
 8619SOL    HW137316   1.018   2.958   4.245 -0.2229 -0.0754 -0.9017
 8619SOL    HW237317   0.883   2.992   4.296  2.8271 -0.7775  2.9646
 8620SOL     OW37318   1.389   4.351  10.225 -0.8140  0.2199 -0.3149
 8620SOL    HW137319   1.479   4.347  10.259 -0.9313 -3.2497 -0.3484
 8620SOL    HW237320   1.374   4.445  10.225 -1.7955  0.0603 -0.6084
 8621SOL     OW37321   4.358   2.319  10.267 -0.7787  0.3246 -0.1263
 8621SOL    HW137322   4.262   2.316  10.272 -0.7736  0.3263 -0.0188
 8621SOL    HW237323   4.381   2.227  10.257 -1.1560  0.2225 -0.0416
 8622SOL     OW37324   0.443   1.282   8.375  0.7751 -0.2821  0.1480
 8622SOL    HW137325   0.396   1.274   8.292  0.0679  0.5761  0.4618
 8622SOL    HW237326   0.447   1.191   8.403 -0.2857  0.5661  3.0380
 8623SOL     OW37327   2.475   3.062   7.417  0.3023  0.1376  0.2994
 8623SOL    HW137328   2.518   3.117   7.483 -2.8629  0.1022  2.4419
 8623SOL    HW237329   2.464   2.980   7.466  1.4705  1.1035  2.1896
 8624SOL     OW37330   4.709   0.852   3.609  0.0681 -0.3807 -0.2902
 8624SOL    HW137331   4.676   0.942   3.610  0.8472 -0.0971 -0.3987
 8624SOL    HW237332   0.076   0.861   3.639 -0.9713  0.7862  2.4110
 8625SOL     OW37333   1.082   2.040   2.585  0.4239 -0.1517  0.2710
 8625SOL    HW137334   1.123   2.024   2.670 -1.3438  2.0853  1.5337
 8625SOL    HW237335   1.142   2.107   2.549 -0.1532  1.0401  1.5204
 8626SOL     OW37336   1.101   2.970  15.632  0.1992 -0.3259 -0.1890
 8626SOL    HW137337   1.133   3.057  15.609 -2.2181  0.9262  1.1828
 8626SOL    HW237338   1.019   2.998  15.674 -0.7163 -1.7565 -1.0132
 8627SOL     OW37339   2.309   1.096   8.692  0.5451 -0.1003 -0.2409
 8627SOL    HW137340   2.295   1.190   8.700  1.6065 -0.1123  1.7289
 8627SOL    HW237341   2.282   1.068   8.780 -2.6127 -2.6190 -1.9948
 8628SOL     OW37342   0.235   0.402   6.798  0.5013 -0.0122  0.0928
 8628SOL    HW137343   0.262   0.349   6.873  0.7086 -0.7094 -0.4640
 8628SOL    HW237344   0.212   0.485   6.839  2.4323  0.6155 -0.1352
 8629SOL     OW37345   3.674   4.519   7.028 -1.0771 -0.2834 -0.6520
 8629SOL    HW137346   3.637   4.496   7.113 -0.4190 -1.0619 -0.5865
 8629SOL    HW237347   3.766   4.495   7.036 -0.4096  1.9435 -1.5986
 8630SOL     OW37348   4.674   4.651   6.918  0.3252  0.4470  0.6138
 8630SOL    HW137349   4.667   4.611   6.831  3.3786  0.4671  0.3507
 8630SOL    HW237350   4.708   4.574   6.963 -1.4823  0.1757  1.5074
 8631SOL     OW37351   3.295   2.231   3.297  0.3910  0.1468 -0.2419
 8631SOL    HW137352   3.266   2.164   3.359 -0.6062  1.6681  0.9706
 8631SOL    HW237353   3.285   2.295   3.369  0.6730  0.8107 -0.7901
 8632SOL     OW37354   1.581   3.977   3.229  0.4174 -0.2534 -0.2927
 8632SOL    HW137355   1.596   4.028   3.150 -0.0726 -1.3595 -1.1036
 8632SOL    HW237356   1.667   3.937   3.239  0.6923  0.6758  1.0316
 8633SOL     OW37357   4.239   4.122   3.677  0.1173 -0.4704 -0.5414
 8633SOL    HW137358   4.147   4.127   3.704  0.4056 -1.7373  0.6780
 8633SOL    HW237359   4.239   4.035   3.637  0.4952 -0.6025 -0.2530
 8634SOL     OW37360   3.915   0.987  10.470 -0.1719 -0.7134 -0.1763
 8634SOL    HW137361   3.948   1.076  10.473 -0.2035 -0.6724 -1.1325
 8634SOL    HW237362   3.975   0.944  10.531 -0.1366  1.9230  1.6259
 8635SOL     OW37363   1.042   4.551   9.099  0.0494  0.3583  0.1319
 8635SOL    HW137364   0.995   4.597   9.169  0.7142 -0.6111  1.2160
 8635SOL    HW237365   1.120   4.532   9.150 -0.6617 -0.7515  0.8214
 8636SOL     OW37366   2.865   1.833   7.461  0.1921 -0.1048 -0.6908
 8636SOL    HW137367   2.917   1.775   7.405 -0.5760 -0.1144 -1.3914
 8636SOL    HW237368   2.836   1.907   7.407  1.1043  0.5632 -0.2792
 8637SOL     OW37369   2.669   4.070   4.162 -0.7217  0.2355  0.4993
 8637SOL    HW137370   2.727   4.019   4.219  1.0286 -1.6586 -3.0259
 8637SOL    HW237371   2.669   4.027   4.077  1.6872  1.6121 -0.1996
 8638SOL     OW37372   2.273   1.518   3.196  0.2414 -0.0808  0.4322
 8638SOL    HW137373   2.244   1.468   3.120 -2.0337 -2.1000  2.6423
 8638SOL    HW237374   2.210   1.498   3.265 -1.9057  0.5647 -1.3470
 8639SOL     OW37375   4.645   2.434   9.273 -0.2366  0.3958  0.1850
 8639SOL    HW137376   4.625   2.525   9.250 -1.6224  0.2816  0.9463
 8639SOL    HW237377   4.628   2.453   9.365  0.8531  1.1734  0.2315
 8640SOL     OW37378   1.230   0.517   1.902  0.1448 -0.1855 -0.7349
 8640SOL    HW137379   1.165   0.454   1.934  0.2398  0.6420  1.1031
 8640SOL    HW237380   1.300   0.463   1.865  2.0023  1.0228  0.9816
 8641SOL     OW37381   0.330   2.374  15.327 -0.0977  0.0940  0.0505
 8641SOL    HW137382   0.277   2.309  15.281 -1.7284  0.2295  1.7308
 8641SOL    HW237383   0.339   2.445  15.264 -0.7182 -1.5295 -1.8825
 8642SOL     OW37384   3.463   1.763   6.535 -0.2667 -0.5831  0.0713
 8642SOL    HW137385   3.519   1.742   6.610 -0.8618 -1.9481  0.1337
 8642SOL    HW237386   3.455   1.677   6.494  0.8120 -1.1741  1.0883
 8643SOL     OW37387   4.196   4.004   9.756  0.6887  0.0031 -0.3367
 8643SOL    HW137388   4.128   4.033   9.818 -0.9334 -0.1471 -2.0537
 8643SOL    HW237389   4.143   3.983   9.679  0.1535 -0.3862  0.1378
 8644SOL     OW37390   1.169   4.495  17.674  0.7631  0.4512 -0.3216
 8644SOL    HW137391   1.148   4.430  17.607  0.2715 -1.4310  1.6549
 8644SOL    HW237392   1.085   4.494   0.026 -0.2308  2.1404 -2.1319
 8645SOL     OW37393   1.977   2.080   2.958  0.0329  0.2169 -0.0317
 8645SOL    HW137394   1.935   2.045   3.037  2.9822 -1.8827  0.6064
 8645SOL    HW237395   2.013   2.165   2.980 -1.9664  1.0905 -0.1198
 8646SOL     OW37396   4.232   3.490   6.577  0.1677  0.4541 -0.2785
 8646SOL    HW137397   4.235   3.537   6.661 -1.4347  0.7521 -0.3731
 8646SOL    HW237398   4.243   3.398   6.598 -0.6756  0.4643  0.2221
 8647SOL     OW37399   4.645   3.878   5.293  0.3573 -0.0117  0.0236
 8647SOL    HW137400   4.679   3.789   5.286 -0.2975 -0.4253  2.4043
 8647SOL    HW237401   4.709   3.925   5.238 -0.4376  1.5669  0.4708
 8648SOL     OW37402   4.334   3.890  17.481  0.7027 -0.2169 -0.2887
 8648SOL    HW137403   4.271   3.936  17.425 -0.6602  0.9934  2.2153
 8648SOL    HW237404   4.283   3.866  17.559 -0.8797  0.7070 -1.0511
 8649SOL     OW37405   0.621   1.353   1.041 -0.1255  0.3881 -0.0835
 8649SOL    HW137406   0.702   1.313   1.070 -0.8178 -0.7293  0.3000
 8649SOL    HW237407   0.561   1.355   1.117 -0.1276 -0.9063 -0.0493
 8650SOL     OW37408   1.708   4.318   2.261 -0.0580  0.9018 -0.4436
 8650SOL    HW137409   1.746   4.239   2.299 -2.6072  0.1275  0.5010
 8650SOL    HW237410   1.673   4.356   2.342  2.2335 -1.5187  1.6895
 8651SOL     OW37411   3.425   1.096   6.164  0.2629  0.1859  0.0796
 8651SOL    HW137412   3.511   1.138   6.166  0.4388 -0.1092 -1.3333
 8651SOL    HW237413   3.376   1.138   6.093 -0.5955  0.5767  0.9004
 8652SOL     OW37414   3.328   3.713   5.873  0.0222  0.0119 -0.0475
 8652SOL    HW137415   3.297   3.649   5.936 -0.5248  1.5041  1.2129
 8652SOL    HW237416   3.416   3.686   5.846  0.4455  1.4262 -0.0982
 8653SOL     OW37417   0.371   0.787   0.417  0.0617  0.4509  0.0313
 8653SOL    HW137418   0.343   0.831   0.497  1.5195  1.4567 -0.0200
 8653SOL    HW237419   0.420   0.861   0.382  0.5584 -0.7596 -1.8233
 8654SOL     OW37420   0.829   2.284  12.892 -0.5049  0.2115  0.0077
 8654SOL    HW137421   0.745   2.312  12.858 -1.2025 -1.3601  0.4327
 8654SOL    HW237422   0.815   2.190  12.897 -0.1000  0.0954 -0.9927
 8655SOL     OW37423   0.200   0.763   4.447 -0.0332  0.1976 -0.2960
 8655SOL    HW137424   0.237   0.837   4.495  2.1396 -0.6113 -0.7335
 8655SOL    HW237425   0.278   0.724   4.410 -0.0643  1.2785 -1.5351
 8656SOL     OW37426   3.835   1.500   6.889  0.6619  0.2777 -0.3825
 8656SOL    HW137427   3.898   1.566   6.863 -1.4887  1.3946 -2.8460
 8656SOL    HW237428   3.871   1.429   6.836  0.2989  0.4305 -0.8346
 8657SOL     OW37429   4.351   2.971   8.177 -0.0816 -0.0337  0.3111
 8657SOL    HW137430   4.429   2.946   8.228  0.1532  0.2353  0.0869
 8657SOL    HW237431   4.379   2.965   8.086  1.2777 -0.8217  0.7813
 8658SOL     OW37432   3.709   1.827  14.726 -0.4363  0.5647  0.0609
 8658SOL    HW137433   3.635   1.861  14.675  0.3970 -0.4506 -1.8541
 8658SOL    HW237434   3.661   1.796  14.803 -3.0517  2.4068 -0.8110
 8659SOL     OW37435   2.204   3.604  10.661 -0.3652 -0.2958 -0.0217
 8659SOL    HW137436   2.171   3.518  10.687 -1.0042  0.4579  1.6624
 8659SOL    HW237437   2.295   3.586  10.636 -0.1909  1.2413 -0.5262
 8660SOL     OW37438   3.536   2.169   6.443  0.4041  0.5041 -0.5727
 8660SOL    HW137439   3.473   2.241   6.442  0.7750  0.8408  0.2291
 8660SOL    HW237440   3.609   2.214   6.485  1.2171 -0.6241 -0.7940
 8661SOL     OW37441   2.491   2.495   3.744  0.7297  1.0084  0.6664
 8661SOL    HW137442   2.450   2.562   3.799  0.4338 -0.5639  2.3537
 8661SOL    HW237443   2.465   2.533   3.660 -0.0905  1.4769  1.1338
 8662SOL     OW37444   4.704   4.600   2.339  0.6824  0.0981  0.6386
 8662SOL    HW137445   0.029   4.531   2.294 -3.1566 -1.2759 -1.3335
 8662SOL    HW237446   4.642   4.548   2.390  0.6719  0.2937  0.8243
 8663SOL     OW37447   1.437   2.799   4.162  0.5696 -0.3153 -0.2782
 8663SOL    HW137448   1.409   2.824   4.074 -1.7424  0.0915  0.5911
 8663SOL    HW237449   1.517   2.852   4.159 -0.2614  0.8297 -2.4994
 8664SOL     OW37450   2.505   2.214  15.934  0.1952 -0.1411 -0.0888
 8664SOL    HW137451   2.519   2.309  15.928 -2.0359  0.2634  0.6968
 8664SOL    HW237452   2.423   2.219  15.983 -0.0658  0.3963 -0.5745
 8665SOL     OW37453   1.672   4.602  13.725  0.3961 -0.4349  0.1252
 8665SOL    HW137454   1.601   4.618  13.663 -1.4379 -0.2176  2.2841
 8665SOL    HW237455   1.625   4.571  13.802  0.5833  1.5168  1.0133
 8666SOL     OW37456   2.382   0.515   6.220  0.0033 -0.8893 -0.2767
 8666SOL    HW137457   2.378   0.481   6.131 -0.3935 -1.2651 -0.1122
 8666SOL    HW237458   2.420   0.602   6.206  0.1384 -0.8889  0.0755
 8667SOL     OW37459   4.311   2.998   6.454  0.0361 -0.6801  0.2844
 8667SOL    HW137460   4.299   2.904   6.441  2.5042 -0.8759 -0.5672
 8667SOL    HW237461   4.386   2.984   6.512  0.7607 -1.8637 -0.9497
 8668SOL     OW37462   2.006   1.085   5.478  0.0056  0.3374 -0.4717
 8668SOL    HW137463   2.005   1.013   5.414 -1.3288 -0.3776  0.3523
 8668SOL    HW237464   1.917   1.082   5.514  0.7394  1.2743  1.4309
 8669SOL     OW37465   1.687   2.245   4.282  0.4968 -0.3159 -0.2447
 8669SOL    HW137466   1.605   2.262   4.328  0.8206  4.9982 -1.6852
 8669SOL    HW237467   1.709   2.334   4.255  1.0436 -0.5356 -0.5345
 8670SOL     OW37468   1.226   1.694   4.086 -0.2259  0.1736  0.2149
 8670SOL    HW137469   1.210   1.600   4.085  1.5143 -0.1194  0.9569
 8670SOL    HW237470   1.181   1.718   4.167  1.0106  1.7394  0.4341
 8671SOL     OW37471   2.755   4.561   2.506 -0.0173  0.5340  0.2072
 8671SOL    HW137472   2.768   4.580   2.412 -0.5155 -1.1054 -0.1847
 8671SOL    HW237473   2.664   4.587   2.518 -0.3776 -0.3122 -0.6901
 8672SOL     OW37474   1.533   2.469   7.436  0.3284  0.4369  0.4085
 8672SOL    HW137475   1.491   2.540   7.386  1.0883 -0.6039 -1.7094
 8672SOL    HW237476   1.500   2.391   7.392 -0.2226  1.0780 -0.3175
 8673SOL     OW37477   4.274   4.027  12.240 -0.5026 -0.5452 -0.3526
 8673SOL    HW137478   4.297   4.102  12.296 -0.7824  0.3478 -1.4316
 8673SOL    HW237479   4.354   3.983  12.266 -1.8146 -1.1273  2.7195
 8674SOL     OW37480   2.789   4.102  11.931 -0.0171  0.0848 -0.4291
 8674SOL    HW137481   2.794   4.107  12.027  2.5935 -0.6452 -0.5195
 8674SOL    HW237482   2.701   4.135  11.914  0.0524  0.2477 -0.4788
 8675SOL     OW37483   2.579   1.196   6.433  0.6532 -0.7897 -0.2205
 8675SOL    HW137484   2.652   1.231   6.382 -0.6455 -0.1738 -1.6491
 8675SOL    HW237485   2.542   1.137   6.367  0.5120 -1.6834  0.6429
 8676SOL     OW37486   0.026   0.295   6.679  0.3482 -0.0284  0.2386
 8676SOL    HW137487   0.018   0.311   6.585  0.9006  0.1798  0.2257
 8676SOL    HW237488   0.111   0.328   6.707  0.4173 -0.9888  1.1454
 8677SOL     OW37489   3.758   0.923   8.745 -0.3353  0.6623  0.2703
 8677SOL    HW137490   3.774   0.980   8.669 -0.7031 -1.7250 -1.5961
 8677SOL    HW237491   3.669   0.909   8.711  0.7626  1.8674 -3.1455
 8678SOL     OW37492   3.692   3.243   2.421  0.3612 -0.3663 -0.4361
 8678SOL    HW137493   3.666   3.201   2.339 -1.7678 -0.5744  0.3509
 8678SOL    HW237494   3.788   3.238   2.416  0.4111 -1.1951  1.1879
 8679SOL     OW37495   2.510   3.384   7.180 -0.0490  0.2647 -0.1155
 8679SOL    HW137496   2.477   3.357   7.094  2.2717  0.5606 -1.0925
 8679SOL    HW237497   2.594   3.339   7.181 -1.2190 -1.8728  1.8184
 8680SOL     OW37498   1.561   0.874   0.109  0.4376 -0.0686  0.2437
 8680SOL    HW137499   1.554   0.966   0.085  1.5073  0.0630  0.4243
 8680SOL    HW237500   1.497   0.827   0.056  1.2647  1.4869 -2.1401
 8681SOL     OW37501   3.319   4.686   7.768 -0.0158  0.1108 -0.4706
 8681SOL    HW137502   3.331   0.010   7.685 -0.4766  0.1936 -0.4898
 8681SOL    HW237503   3.373   4.609   7.750 -0.1975 -0.3226  0.8343
 8682SOL     OW37504   1.195   1.515  13.167  1.1701 -0.1460 -0.2101
 8682SOL    HW137505   1.129   1.556  13.223 -0.2672 -1.2766 -1.0840
 8682SOL    HW237506   1.224   1.600  13.135 -2.1738  1.5226  1.1470
 8683SOL     OW37507   2.681   2.008  15.876 -0.5329  0.0514 -0.0464
 8683SOL    HW137508   2.623   2.085  15.880 -0.4387  0.0856  0.5479
 8683SOL    HW237509   2.685   2.003  15.780  0.8028 -1.1610  0.0865
 8684SOL     OW37510   4.055   4.383   2.341 -0.0891 -0.2265 -0.2349
 8684SOL    HW137511   4.148   4.407   2.336 -0.4957  1.1054 -1.2854
 8684SOL    HW237512   4.015   4.461   2.302  0.2125 -1.3570 -2.7475
 8685SOL     OW37513   2.650   3.649  16.747  0.3958 -0.8768  0.7568
 8685SOL    HW137514   2.557   3.656  16.767  0.8081  0.9126  2.0769
 8685SOL    HW237515   2.674   3.557  16.752 -0.2799 -1.0595  0.6102
 8686SOL     OW37516   1.436   0.397   8.274  0.1140 -0.5564 -0.3135
 8686SOL    HW137517   1.479   0.331   8.329  1.9635 -0.2215 -1.3648
 8686SOL    HW237518   1.466   0.479   8.312 -1.4564 -1.5516  3.1064
 8687SOL     OW37519   2.495   1.801   5.885 -0.3448  0.0845 -0.4562
 8687SOL    HW137520   2.525   1.714   5.913 -3.4120 -0.5938  0.7783
 8687SOL    HW237521   2.528   1.825   5.799 -1.7763 -0.6143 -1.1969
 8688SOL     OW37522   0.147   3.844  16.262  0.1267  0.6325 -0.5236
 8688SOL    HW137523   0.097   3.851  16.180  1.6616  3.7712 -1.2239
 8688SOL    HW237524   0.092   3.896  16.320  1.0590  1.0252  0.0136
 8689SOL     OW37525   4.483   1.961   7.458  0.7246 -0.3233 -0.0197
 8689SOL    HW137526   4.460   1.868   7.468  0.4441 -0.1274  1.1271
 8689SOL    HW237527   4.572   1.965   7.491  1.5915 -0.4185 -2.3145
 8690SOL     OW37528   2.083   4.247   7.239 -0.2129  0.0520 -0.8558
 8690SOL    HW137529   2.047   4.206   7.317  1.4212 -0.3047 -0.3164
 8690SOL    HW237530   2.063   4.179   7.175 -2.8421  1.5270 -1.6309
 8691SOL     OW37531   0.759   3.213  14.714  0.0895 -0.7206  0.0071
 8691SOL    HW137532   0.831   3.234  14.655  0.3087 -2.0463 -0.1944
 8691SOL    HW237533   0.810   3.196  14.793  0.2728  1.8748  0.4480
 8692SOL     OW37534   1.089   4.665   6.543  0.2629 -0.3177 -0.0464
 8692SOL    HW137535   1.084   4.643   6.450 -0.0898 -3.1499  0.6320
 8692SOL    HW237536   1.044   4.587   6.577 -3.4670  2.6842  1.8011
 8693SOL     OW37537   0.500   4.064   4.419  0.4889  0.3052 -0.4572
 8693SOL    HW137538   0.458   4.121   4.355  0.0262 -1.0644 -1.3832
 8693SOL    HW237539   0.471   4.107   4.500  1.5975 -0.4115  0.3196
 8694SOL     OW37540   1.273   3.421   6.137 -0.0498 -0.0435  0.3849
 8694SOL    HW137541   1.190   3.384   6.105  0.9175 -1.3260 -0.6296
 8694SOL    HW237542   1.251   3.514   6.136 -2.0978 -0.5057  0.7589
 8695SOL     OW37543   0.297   2.170  10.788 -0.2291 -0.2459 -0.0727
 8695SOL    HW137544   0.209   2.204  10.806 -0.6891 -0.5443 -1.7753
 8695SOL    HW237545   0.287   2.076  10.779 -2.1801 -0.1126  0.7873
 8696SOL     OW37546   3.858   1.983   2.552 -0.3210  0.6309  0.3847
 8696SOL    HW137547   3.836   2.011   2.463 -0.7836  0.5574  0.4735
 8696SOL    HW237548   3.914   2.055   2.582 -1.8226  1.3071  1.5832
 8697SOL     OW37549   3.093   2.017  11.915 -0.2733 -0.4282  0.1802
 8697SOL    HW137550   3.170   2.071  11.903 -1.5002  1.5274  1.0906
 8697SOL    HW237551   3.088   1.970  11.832  0.1880  0.0679 -0.1195
 8698SOL     OW37552   3.244   2.867  14.931 -0.1391 -0.6950 -0.0678
 8698SOL    HW137553   3.314   2.930  14.914  1.9143 -2.7272  0.9185
 8698SOL    HW237554   3.287   2.824  15.005 -1.8286 -0.8684  0.7951
 8699SOL     OW37555   0.847   2.007   4.877 -0.5737  0.5512  0.3239
 8699SOL    HW137556   0.780   1.939   4.866 -1.3505  1.3752 -0.0641
 8699SOL    HW237557   0.923   1.952   4.897 -1.2214 -0.3178  0.3752
 8700SOL     OW37558   3.680   3.590   7.889 -0.4749 -0.0012 -0.0222
 8700SOL    HW137559   3.754   3.538   7.859  0.6176  1.4546  0.1756
 8700SOL    HW237560   3.692   3.673   7.844  2.3885 -0.7563 -0.6552
 8701SOL     OW37561   4.373   1.539   0.519 -0.6198 -0.4950 -0.1909
 8701SOL    HW137562   4.469   1.542   0.528 -0.7938  0.0675  1.5212
 8701SOL    HW237563   4.341   1.598   0.587 -0.8122 -0.5813 -0.2085
 8702SOL     OW37564   1.860   2.967  13.733 -0.6452 -0.1911 -0.3810
 8702SOL    HW137565   1.855   2.961  13.637  1.3275 -2.6543 -0.3053
 8702SOL    HW237566   1.870   2.875  13.755 -0.5842 -0.4015 -1.2819
 8703SOL     OW37567   2.615   3.135   4.573  0.0517  0.4057  0.1438
 8703SOL    HW137568   2.593   3.050   4.611  2.5753  0.1810  1.1105
 8703SOL    HW237569   2.589   3.118   4.482  3.0322  1.3502 -0.8880
 8704SOL     OW37570   4.017   0.813   7.218  0.2229  0.5910 -0.0043
 8704SOL    HW137571   3.937   0.864   7.206  0.8365  1.0580 -2.1009
 8704SOL    HW237572   4.010   0.805   7.313 -0.6756  3.2272  0.1453
 8705SOL     OW37573   0.872   0.018   3.874 -1.1417 -0.2692 -0.7196
 8705SOL    HW137574   0.847   0.108   3.857 -1.8937 -0.0242  1.6142
 8705SOL    HW237575   0.965   0.033   3.856 -0.6171  3.1089  4.6757
 8706SOL     OW37576   1.195   0.809   7.182  0.1875  0.1462 -0.2571
 8706SOL    HW137577   1.280   0.774   7.208  0.1867 -0.7674 -1.5109
 8706SOL    HW237578   1.221   0.840   7.095 -1.5688  1.6404 -0.2585
 8707SOL     OW37579   4.519   4.621   3.247  0.2351 -0.3800  0.5518
 8707SOL    HW137580   4.500   4.595   3.157 -4.2560 -0.9196  1.6277
 8707SOL    HW237581   4.494   4.711   3.264 -1.0650 -0.5467 -0.5109
 8708SOL     OW37582   3.610   0.127   9.744 -0.1111 -0.7249 -0.1172
 8708SOL    HW137583   3.543   0.179   9.789  1.8912  2.0401 -0.3377
 8708SOL    HW237584   3.649   0.075   9.813 -0.6051 -1.1820 -0.1837
 8709SOL     OW37585   2.487   2.154   2.081 -0.0925  0.3307 -0.3206
 8709SOL    HW137586   2.543   2.230   2.065  0.4514 -0.0585 -0.2319
 8709SOL    HW237587   2.441   2.159   1.997  0.9947 -0.1356 -0.9408
 8710SOL     OW37588   1.623   3.072  16.959  0.3155  0.0384 -0.2931
 8710SOL    HW137589   1.587   3.030  17.037  2.4249 -1.9591 -0.3811
 8710SOL    HW237590   1.542   3.060  16.909  0.8254 -0.2220 -1.0525
 8711SOL     OW37591   0.357   2.077   5.637  0.0574  0.5120  0.1842
 8711SOL    HW137592   0.439   2.046   5.600 -1.4439 -1.0585 -1.8540
 8711SOL    HW237593   0.310   1.998   5.609 -1.9045  1.9220 -0.5778
 8712SOL     OW37594   3.938   4.431   9.883 -0.0520  0.3766 -0.2858
 8712SOL    HW137595   3.852   4.470   9.894  0.1783  0.3408  1.6734
 8712SOL    HW237596   3.979   4.506   9.841 -1.9799  0.2928 -2.2759
 8713SOL     OW37597   1.521   0.038   4.666 -0.3003  0.4711  0.1829
 8713SOL    HW137598   1.533   0.088   4.586  0.7523  0.4038  0.3031
 8713SOL    HW237599   1.574   0.087   4.729  1.7153 -2.0357  0.4243
 8714SOL     OW37600   3.229   4.112   3.019 -0.2050  0.0847 -0.1303
 8714SOL    HW137601   3.309   4.066   3.045  1.1139  1.8345 -1.0836
 8714SOL    HW237602   3.263   4.150   2.938 -1.4666  0.4222 -0.5061
 8715SOL     OW37603   1.618   0.835   3.242 -0.1209 -0.1116  0.0242
 8715SOL    HW137604   1.682   0.776   3.281  0.9472 -0.5261 -2.3616
 8715SOL    HW237605   1.663   0.917   3.224  2.7864 -1.8555 -0.6776
 8716SOL     OW37606   2.947   3.874   2.513  0.5015 -0.1191 -0.0480
 8716SOL    HW137607   2.868   3.854   2.562  0.5004 -0.2761 -0.1160
 8716SOL    HW237608   3.006   3.906   2.583  1.2596 -0.1949 -0.6483
 8717SOL     OW37609   3.207   1.441  11.815 -0.0733  0.3399 -0.8095
 8717SOL    HW137610   3.295   1.442  11.777  0.6363 -2.1771  0.8218
 8717SOL    HW237611   3.193   1.523  11.863 -0.7971  0.6572 -1.5494
 8718SOL     OW37612   3.731   4.648   4.859  0.2654 -0.8229  0.4993
 8718SOL    HW137613   3.744   4.614   4.771 -3.2592 -1.0172  0.0226
 8718SOL    HW237614   3.763   4.571   4.905  1.7020 -1.3107 -1.3512
 8719SOL     OW37615   3.439   0.293   7.338 -0.0138  0.4615  0.0120
 8719SOL    HW137616   3.529   0.282   7.371  0.3601 -0.5643 -1.3070
 8719SOL    HW237617   3.424   0.212   7.289 -2.6331 -1.1664  3.5186
 8720SOL     OW37618   1.636   2.211  11.168  0.1151 -0.2774 -0.4714
 8720SOL    HW137619   1.681   2.269  11.107  0.3517  0.2284  0.1786
 8720SOL    HW237620   1.551   2.254  11.165 -1.3253 -3.0977 -0.6411
 8721SOL     OW37621   4.436   3.277   9.064  0.1592  0.3969 -0.1035
 8721SOL    HW137622   4.406   3.359   9.102 -2.6209 -0.7451  0.1620
 8721SOL    HW237623   4.526   3.302   9.042 -0.3209  1.9232 -0.3134
 8722SOL     OW37624   0.581   1.997  10.260  0.6045  0.0774  0.0609
 8722SOL    HW137625   0.549   1.925  10.205 -0.4555 -0.9254  2.0011
 8722SOL    HW237626   0.627   2.049  10.193 -0.0124 -1.0574 -1.2513
 8723SOL     OW37627   1.115   0.274   2.981  0.2043  0.2471  0.0131
 8723SOL    HW137628   1.209   0.271   3.001 -0.4863  0.0313  3.1555
 8723SOL    HW237629   1.086   0.324   3.058 -1.5197  1.1602 -1.2357
 8724SOL     OW37630   4.576   0.087   7.539 -0.2991  0.7641 -0.0750
 8724SOL    HW137631   4.489   0.123   7.552  0.5926  1.9124  2.7754
 8724SOL    HW237632   4.620   0.131   7.611  1.4438 -2.4668  0.8620
 8725SOL     OW37633   1.330   2.527  14.610 -0.1727 -0.2737  0.5457
 8725SOL    HW137634   1.417   2.546  14.576 -0.6947 -0.8969 -1.1392
 8725SOL    HW237635   1.296   2.616  14.620 -1.8127 -0.6978 -1.2758
 8726SOL     OW37636   4.310   4.511   8.194 -0.4134  0.5232 -0.2645
 8726SOL    HW137637   4.396   4.528   8.233 -0.2294  0.8557 -0.8082
 8726SOL    HW237638   4.321   4.499   8.100  0.2825 -0.2804 -0.0704
 8727SOL     OW37639   2.779   2.012   6.239  0.6041 -0.3078  0.0338
 8727SOL    HW137640   2.798   1.925   6.274  0.4320  0.9449  3.1944
 8727SOL    HW237641   2.799   1.994   6.147 -1.9729 -1.9164 -0.1963
 8728SOL     OW37642   3.067   1.589   7.073  0.0169  0.4277  0.3573
 8728SOL    HW137643   3.152   1.554   7.046 -1.5021 -2.2231 -0.9966
 8728SOL    HW237644   3.001   1.527   7.042  0.1590  0.2562  0.3908
 8729SOL     OW37645   1.179   2.897  15.898 -0.0446  0.0921  0.2060
 8729SOL    HW137646   1.193   2.915  15.805  0.5530  0.6997  0.4109
 8729SOL    HW237647   1.131   2.974  15.928 -0.2311  0.4192 -0.9320
 8730SOL     OW37648   4.700   2.706   4.117  0.5895  0.2832  0.1353
 8730SOL    HW137649   0.006   2.738   4.031 -1.4791  0.4514 -0.5099
 8730SOL    HW237650   4.694   2.796   4.148  3.4552 -0.8250  3.9218
 8731SOL     OW37651   2.479   2.959   0.810  0.2290 -0.2130 -0.4583
 8731SOL    HW137652   2.456   3.035   0.864  2.7302  0.3571 -0.2104
 8731SOL    HW237653   2.572   2.947   0.827 -0.2736 -2.3209  0.7974
 8732SOL     OW37654   1.120   0.199   3.594 -0.1025  0.6232  0.0288
 8732SOL    HW137655   1.061   0.172   3.524 -1.5612  1.6167  0.8890
 8732SOL    HW237656   1.094   0.291   3.595 -1.0619  0.3549 -1.0786
 8733SOL     OW37657   1.678   0.708   2.252  0.0940  0.6866  0.2033
 8733SOL    HW137658   1.645   0.669   2.171 -0.3558 -0.9147  1.1550
 8733SOL    HW237659   1.718   0.785   2.213  0.5785  0.1550 -0.3648
 8734SOL     OW37660   1.308   1.242  15.685 -0.7217  0.3945  0.0516
 8734SOL    HW137661   1.326   1.150  15.704  0.1112  0.2267 -1.6085
 8734SOL    HW237662   1.266   1.267  15.768 -0.5835 -0.3222  0.3391
 8735SOL     OW37663   0.407   4.102   8.913 -0.0362  0.0281 -0.0633
 8735SOL    HW137664   0.335   4.164   8.898  0.9530  0.4937 -2.8408
 8735SOL    HW237665   0.430   4.096   8.820 -2.9454  0.7523 -0.8294
 8736SOL     OW37666   3.046   1.629   5.676 -0.3157 -0.0073  0.3891
 8736SOL    HW137667   3.069   1.716   5.710 -0.3772  0.8009 -1.6410
 8736SOL    HW237668   3.026   1.589   5.761  1.7111 -1.6275  0.0949
 8737SOL     OW37669   0.725   1.883   7.842  0.3971  0.1934 -0.3918
 8737SOL    HW137670   0.688   1.960   7.798 -2.3583 -1.4165 -0.9199
 8737SOL    HW237671   0.678   1.885   7.925 -0.4555 -2.1075 -0.8298
 8738SOL     OW37672   2.891   2.330   2.157 -0.3276 -0.0629  0.2812
 8738SOL    HW137673   2.950   2.321   2.232 -0.5923 -0.4750  0.4429
 8738SOL    HW237674   2.895   2.242   2.120  0.3947  1.0972 -2.4026
 8739SOL     OW37675   3.304   1.620   4.053  0.8700  0.5164  0.9331
 8739SOL    HW137676   3.356   1.631   3.973  1.3798 -0.8371  1.0890
 8739SOL    HW237677   3.308   1.711   4.083  1.3194  0.5134  0.8892
 8740SOL     OW37678   3.413   3.947   5.472 -0.0873 -0.5474 -0.6295
 8740SOL    HW137679   3.444   3.862   5.442 -0.8277 -1.2280  0.5668
 8740SOL    HW237680   3.319   3.932   5.483 -0.2415  0.9039  0.0663
 8741SOL     OW37681   0.172   1.272   7.537  0.3896 -0.5839 -0.4322
 8741SOL    HW137682   0.214   1.293   7.453 -1.2005 -1.3417 -1.4035
 8741SOL    HW237683   0.102   1.337   7.534  0.8600 -0.0141  0.6856
 8742SOL     OW37684   2.398   2.047  14.104 -0.0368  0.5028 -0.2521
 8742SOL    HW137685   2.337   1.986  14.145 -0.9773  1.2889 -0.4472
 8742SOL    HW237686   2.434   2.102  14.174  0.7882 -0.0023 -0.2818
 8743SOL     OW37687   1.989   0.539   2.958 -0.1890  0.1526 -0.9008
 8743SOL    HW137688   1.915   0.600   2.956 -1.1811 -0.9220  2.0239
 8743SOL    HW237689   1.979   0.499   2.872 -1.9707 -0.5261 -0.3917
 8744SOL     OW37690   0.762   4.564   6.368  0.2949  0.6397  0.0007
 8744SOL    HW137691   0.837   4.509   6.388  2.3433  2.9412 -1.2431
 8744SOL    HW237692   0.707   4.558   6.446 -1.8622 -1.4021 -1.6775
 8745SOL     OW37693   1.514   2.442  14.819 -0.1886 -0.3420 -0.0067
 8745SOL    HW137694   1.494   2.497  14.743  3.3839  0.4009 -0.3821
 8745SOL    HW237695   1.597   2.403  14.793  1.8612  2.0896  3.0062
 8746SOL     OW37696   2.169   1.546   5.488  0.5271 -0.2147  0.5337
 8746SOL    HW137697   2.169   1.467   5.434 -2.7140  1.1521 -1.4964
 8746SOL    HW237698   2.245   1.530   5.543  0.0971  0.5360  1.3493
 8747SOL     OW37699   2.560   3.694  10.354  0.3372  0.8356  0.0916
 8747SOL    HW137700   2.628   3.628  10.363 -0.1379  0.0781 -1.8167
 8747SOL    HW237701   2.492   3.666  10.415  0.4453 -2.9703 -1.5783
 8748SOL     OW37702   2.309   1.501   6.163  0.3349  0.2154  0.1204
 8748SOL    HW137703   2.235   1.519   6.105 -0.5001 -1.6228  0.6142
 8748SOL    HW237704   2.378   1.542   6.112  1.1966  0.1237  1.2093
 8749SOL     OW37705   4.207   1.747  17.062  0.4320  0.1953 -0.0480
 8749SOL    HW137706   4.153   1.798  17.001  1.2717  0.3845 -0.6312
 8749SOL    HW237707   4.133   1.718  17.116  1.0354  0.5520  0.9845
 8750SOL     OW37708   4.390   3.894   5.115  0.0818 -0.1702 -0.1137
 8750SOL    HW137709   4.438   3.975   5.129  1.9413 -1.5596  1.5210
 8750SOL    HW237710   4.368   3.871   5.205  0.6292  2.0006  0.5749
 8751SOL     OW37711   4.450   4.517   5.616 -0.2347  0.5372 -0.1040
 8751SOL    HW137712   4.401   4.573   5.677 -0.3005  0.7466 -0.3523
 8751SOL    HW237713   4.458   4.563   5.533  3.2413  1.1629  0.5829
 8752SOL     OW37714   3.540   1.299   4.713  0.1610  0.0371  0.1762
 8752SOL    HW137715   3.474   1.230   4.702  0.3377 -0.3736  1.8038
 8752SOL    HW237716   3.616   1.251   4.679 -0.2837  1.4450 -2.8532
 8753SOL     OW37717   2.088   2.726  16.011  0.3147 -0.6018 -0.0544
 8753SOL    HW137718   2.048   2.696  16.092 -1.7866 -3.3384 -2.1053
 8753SOL    HW237719   2.049   2.813  16.009  0.0679 -0.7606 -3.1277
 8754SOL     OW37720   1.375   3.522   4.200  0.4061 -0.5506  0.0083
 8754SOL    HW137721   1.431   3.550   4.272  1.6392  1.9766 -1.9381
 8754SOL    HW237722   1.327   3.603   4.182  0.9436  0.4173  2.9850
 8755SOL     OW37723   1.248   1.443  10.064 -0.2175 -0.0228  0.1000
 8755SOL    HW137724   1.344   1.438  10.068 -0.1468  0.1881 -1.4627
 8755SOL    HW237725   1.231   1.492   9.984  1.0510 -0.6287 -0.5396
 8756SOL     OW37726   2.668   0.135  13.418  0.2142  0.4979  0.1571
 8756SOL    HW137727   2.679   0.201  13.487 -0.1266  0.9496 -0.2154
 8756SOL    HW237728   2.754   0.093  13.422  0.0832  0.3197  1.0487
 8757SOL     OW37729   0.444   4.261   8.327 -0.6803 -0.0495 -0.4714
 8757SOL    HW137730   0.368   4.210   8.298 -1.4383  1.6779 -1.5296
 8757SOL    HW237731   0.509   4.202   8.288 -0.7329  0.9804 -2.1322
 8758SOL     OW37732   0.050   2.735   6.021 -0.2294  0.1774  0.0667
 8758SOL    HW137733   0.122   2.774   5.971  1.5056 -2.7620  0.3229
 8758SOL    HW237734   0.098   2.715   6.101 -1.0131 -2.6859 -0.2065
 8759SOL     OW37735   1.782   0.312   2.532 -0.2519 -0.0971 -0.2329
 8759SOL    HW137736   1.807   0.343   2.445  0.5860 -0.0912  0.0104
 8759SOL    HW237737   1.871   0.288   2.557 -0.0721 -0.3355 -1.1045
 8760SOL     OW37738   2.693   2.391   5.481 -0.4648  0.2478  0.1578
 8760SOL    HW137739   2.648   2.314   5.516 -1.0522  0.2388 -0.6318
 8760SOL    HW237740   2.632   2.429   5.418 -0.2225 -3.1168 -2.0882
 8761SOL     OW37741   4.630   3.363   5.553  0.1970 -0.4257 -0.3713
 8761SOL    HW137742   4.670   3.340   5.469  0.0145  1.2754 -0.9253
 8761SOL    HW237743   4.691   3.428   5.587  1.1720 -1.2027 -0.6372
 8762SOL     OW37744   1.094   4.437   7.973 -0.2287 -0.4429  0.3978
 8762SOL    HW137745   1.171   4.440   7.915  0.3898 -0.5778  1.2123
 8762SOL    HW237746   1.105   4.519   8.022 -0.7185  1.6650 -3.0215
 8763SOL     OW37747   1.511   3.531   2.236  0.5265 -0.2313 -0.0802
 8763SOL    HW137748   1.596   3.489   2.250  0.7076 -0.1151 -0.8192
 8763SOL    HW237749   1.500   3.571   2.322 -2.4602 -0.3114 -0.4290
 8764SOL     OW37750   4.340   3.597  12.472 -0.2662 -0.2140  0.2948
 8764SOL    HW137751   4.313   3.509  12.497  1.7508 -1.0106 -0.3364
 8764SOL    HW237752   4.433   3.574  12.474 -0.6523 -1.7171  0.3379
 8765SOL     OW37753   4.031   4.047   7.505  0.6098 -0.3539  0.0314
 8765SOL    HW137754   3.977   4.126   7.506  0.7487 -0.2797  1.7728
 8765SOL    HW237755   3.987   3.992   7.570  0.7319 -1.0461 -0.4714
 8766SOL     OW37756   1.362   1.966   1.542  0.0857 -0.1541  0.2057
 8766SOL    HW137757   1.437   2.014   1.508  1.1334 -2.3194 -0.5266
 8766SOL    HW237758   1.399   1.878   1.550 -1.3177 -0.7258  0.4708
 8767SOL     OW37759   3.058   2.739   2.863 -0.1330 -0.1619  0.1035
 8767SOL    HW137760   3.049   2.717   2.770 -1.2754  1.2700 -0.1122
 8767SOL    HW237761   3.128   2.803   2.862  0.9246 -1.3590 -2.4464
 8768SOL     OW37762   1.427   2.467  12.118  0.0695 -0.0457 -0.2560
 8768SOL    HW137763   1.379   2.515  12.050  1.5297  0.1909 -1.1489
 8768SOL    HW237764   1.352   2.455  12.176  0.1609  1.3272  0.1558
 8769SOL     OW37765   1.185   0.891   5.724  0.1804 -0.3735 -0.2464
 8769SOL    HW137766   1.193   0.818   5.785  0.4103  0.4994  0.7724
 8769SOL    HW237767   1.171   0.849   5.640  1.8220 -1.1653 -0.1228
 8770SOL     OW37768   1.438   4.418   7.962  0.1127 -0.5707  0.2206
 8770SOL    HW137769   1.382   4.415   7.884  0.6739  1.1467 -0.2521
 8770SOL    HW237770   1.406   4.345   8.015 -0.8365 -1.1155 -1.1050
 8771SOL     OW37771   2.081   3.812   6.570 -0.1464  0.3361  0.2019
 8771SOL    HW137772   2.082   3.757   6.492 -4.4680 -0.9496  1.0428
 8771SOL    HW237773   2.010   3.866   6.536  0.0164  0.1118 -0.4910
 8772SOL     OW37774   2.040   1.615  12.536  0.2947  0.1693  0.0535
 8772SOL    HW137775   2.132   1.637  12.546  0.8860 -1.7771 -1.1424
 8772SOL    HW237776   2.022   1.546  12.599  2.1826 -0.6493 -0.3034
 8773SOL     OW37777   0.539   2.554   7.567  0.1372  0.3346 -0.3693
 8773SOL    HW137778   0.448   2.541   7.542 -0.1146 -1.1014  1.3204
 8773SOL    HW237779   0.549   2.492   7.639  0.5099 -1.5864 -2.1006
 8774SOL     OW37780   0.787   3.420   7.656  0.0096  0.5594 -0.2384
 8774SOL    HW137781   0.751   3.476   7.587  1.3452  0.6528 -0.8802
 8774SOL    HW237782   0.824   3.475   7.725  1.3946 -1.7445  0.8613
 8775SOL     OW37783   1.564   0.936   8.574  0.2981 -0.0732 -0.4377
 8775SOL    HW137784   1.574   0.878   8.649  1.8322 -0.3791 -0.8841
 8775SOL    HW237785   1.571   1.024   8.611 -1.8415  0.0439 -0.2915
 8776SOL     OW37786   0.498   1.479   2.153  0.0473  0.1071 -0.2705
 8776SOL    HW137787   0.532   1.406   2.102  0.1481  0.0124 -0.0681
 8776SOL    HW237788   0.578   1.510   2.195  0.4851 -1.4189  0.0255
 8777SOL     OW37789   2.227   0.490   6.440 -0.3801  0.3544 -0.3992
 8777SOL    HW137790   2.199   0.581   6.441 -0.4020  0.3351  1.0833
 8777SOL    HW237791   2.293   0.488   6.371 -1.9241 -0.3875 -1.8508
 8778SOL     OW37792   0.443   1.303   9.000 -0.4423  0.3804 -0.3756
 8778SOL    HW137793   0.463   1.299   8.906  1.1775 -0.5683  0.0113
 8778SOL    HW237794   0.511   1.242   9.029  0.9694  2.6616  1.1317
 8779SOL     OW37795   0.188   2.334   2.858 -0.6643  0.2267  0.0489
 8779SOL    HW137796   0.230   2.293   2.934 -1.8534 -1.2239 -0.0915
 8779SOL    HW237797   0.229   2.282   2.790 -0.8510  0.1560 -0.0078
 8780SOL     OW37798   0.159   0.981  15.609 -0.2717  1.3999 -0.1318
 8780SOL    HW137799   0.205   0.931  15.677 -3.1539 -0.3692  0.5103
 8780SOL    HW237800   0.082   0.929  15.585  1.1920 -1.0394  0.5116
 8781SOL     OW37801   2.197   0.424   5.731  0.8156  0.5577  0.0191
 8781SOL    HW137802   2.240   0.364   5.792  2.3449  1.3297 -0.2953
 8781SOL    HW237803   2.276   0.475   5.712  0.1890  1.0660 -1.2274
 8782SOL     OW37804   3.984   1.220   4.604  0.6908 -0.2863  0.2671
 8782SOL    HW137805   3.910   1.160   4.613 -1.0028  1.3026 -3.3806
 8782SOL    HW237806   4.004   1.210   4.511  0.3385 -1.4860  0.3213
 8783SOL     OW37807   1.460   1.310   7.789  0.2268  0.1678  0.9007
 8783SOL    HW137808   1.439   1.368   7.862  0.0705  0.1392  0.8783
 8783SOL    HW237809   1.549   1.345   7.778 -0.9447  2.2721 -1.8308
 8784SOL     OW37810   4.351   4.407  16.651  0.2519 -0.0489  0.6572
 8784SOL    HW137811   4.409   4.372  16.718  2.2114 -0.6801 -1.3791
 8784SOL    HW237812   4.414   4.410  16.580 -1.0453  0.1600 -0.4951
 8785SOL     OW37813   2.124   1.264   5.841  0.1063 -0.0826 -0.3693
 8785SOL    HW137814   2.061   1.327   5.877  1.5007  2.0253 -1.6522
 8785SOL    HW237815   2.209   1.308   5.842  0.9514 -1.7431  0.9978
 8786SOL     OW37816   3.298   1.546   8.302 -0.3254  0.5568  0.3666
 8786SOL    HW137817   3.230   1.567   8.367 -2.1334 -1.0492 -1.0314
 8786SOL    HW237818   3.360   1.617   8.318  0.7676 -0.1752 -0.6638
 8787SOL     OW37819   0.249   0.050   6.406  0.3046 -0.3692 -0.4299
 8787SOL    HW137820   0.261   0.038   6.500 -1.2405  1.5072  0.0031
 8787SOL    HW237821   0.340   0.067   6.380  0.6556 -0.4798  0.7326
 8788SOL     OW37822   3.442   3.118   4.327 -0.3829 -0.9342  0.3168
 8788SOL    HW137823   3.426   3.024   4.327 -0.3789 -0.9282  2.5512
 8788SOL    HW237824   3.525   3.123   4.373  0.4288 -2.6304 -0.9692
 8789SOL     OW37825   3.540   0.883   7.044 -0.2303 -0.0130 -0.4815
 8789SOL    HW137826   3.463   0.844   7.086 -1.2100  0.9617 -1.3492
 8789SOL    HW237827   3.517   0.975   7.030 -0.2870 -0.2869 -2.1963
 8790SOL     OW37828   2.858   2.243   7.715 -0.9055 -0.1460 -0.1750
 8790SOL    HW137829   2.895   2.155   7.709 -1.6907 -0.3753 -1.7024
 8790SOL    HW237830   2.788   2.229   7.651 -0.3818 -0.9591 -0.5765
 8791SOL     OW37831   0.408   1.426  13.666  0.0207  0.2727  0.1088
 8791SOL    HW137832   0.374   1.507  13.703  0.7561  0.7258 -0.2032
 8791SOL    HW237833   0.389   1.359  13.731  1.5884 -1.0452 -0.7962
 8792SOL     OW37834   2.136   3.277  15.415  0.3634  0.2949 -0.2442
 8792SOL    HW137835   2.082   3.198  15.424  1.6461 -0.8976 -3.0490
 8792SOL    HW237836   2.098   3.324  15.490  1.6139  0.0265  0.5536
 8793SOL     OW37837   2.269   1.456   2.632  0.3759 -0.0943 -0.3353
 8793SOL    HW137838   2.225   1.477   2.549 -1.9229  0.2057  0.9664
 8793SOL    HW237839   2.197   1.452   2.695 -0.3754  2.1467 -1.0577
 8794SOL     OW37840   1.852   2.778   8.644  0.3373 -0.1213 -0.0689
 8794SOL    HW137841   1.771   2.782   8.695  1.0625  1.7860  0.9566
 8794SOL    HW237842   1.822   2.837   8.574 -2.0522  1.3014  2.1192
 8795SOL     OW37843   0.408   4.139   4.948 -0.0333 -0.0561 -0.4846
 8795SOL    HW137844   0.474   4.085   4.991 -0.1129 -1.8056 -2.5413
 8795SOL    HW237845   0.435   4.229   4.964 -0.0480 -0.0150 -0.6931
 8796SOL     OW37846   2.339   2.714   2.988  0.2337  0.2789  0.1920
 8796SOL    HW137847   2.372   2.738   3.075  0.7735 -0.2306  0.1223
 8796SOL    HW237848   2.301   2.629   3.011 -1.7879  0.8264 -1.1674
 8797SOL     OW37849   1.847   0.553   6.194  0.2927  0.0055 -0.1776
 8797SOL    HW137850   1.846   0.470   6.147  1.4734 -0.9025  1.4036
 8797SOL    HW237851   1.928   0.583   6.153  0.0402 -1.8385 -2.0456
 8798SOL     OW37852   4.409   0.808   5.387  0.0470 -0.6726 -0.4508
 8798SOL    HW137853   4.380   0.726   5.347 -0.6355 -0.0196 -1.2828
 8798SOL    HW237854   4.467   0.841   5.318 -0.7548  2.8267  0.5403
 8799SOL     OW37855   1.906   2.111   3.514  0.5685 -0.1881  0.7564
 8799SOL    HW137856   1.955   2.084   3.592  0.4004 -0.8202  0.6502
 8799SOL    HW237857   1.977   2.132   3.453 -1.1732 -0.6934 -1.4566
 8800SOL     OW37858   3.181   4.300   7.807 -0.5472 -0.0950  0.1751
 8800SOL    HW137859   3.262   4.338   7.838 -0.0209 -0.4780 -0.7153
 8800SOL    HW237860   3.166   4.223   7.862 -0.3387  0.0304  0.4081
 8801SOL     OW37861   3.108   3.811   4.046 -0.1932  0.5705  0.0173
 8801SOL    HW137862   3.202   3.795   4.053  0.3065  4.0237  1.0608
 8801SOL    HW237863   3.102   3.790   3.953 -1.2988 -0.5878  0.3597
 8802SOL     OW37864   0.637   0.769   4.783  0.6382 -0.6636  0.1418
 8802SOL    HW137865   0.562   0.710   4.776  0.1666 -0.1857  1.1269
 8802SOL    HW237866   0.703   0.709   4.748  1.9329  0.8965 -0.1150
 8803SOL     OW37867   2.069   0.029   4.414 -0.0760 -0.1642  0.3869
 8803SOL    HW137868   2.105   4.665   4.433 -0.7491 -0.7971 -1.2532
 8803SOL    HW237869   2.052   0.003   4.324 -0.0367  0.5462  0.1730
 8804SOL     OW37870   0.144   0.248   3.522 -0.1038  0.3672  0.0886
 8804SOL    HW137871   0.061   0.293   3.514 -1.4608 -1.8780  1.5495
 8804SOL    HW237872   0.154   0.239   3.616  1.0246  0.0371 -0.0624
 8805SOL     OW37873   3.361   1.934   5.624 -0.2342 -0.1095  0.0962
 8805SOL    HW137874   3.430   1.924   5.690  0.5277 -0.6503 -0.7802
 8805SOL    HW237875   3.383   2.022   5.594 -1.5450  0.9363  2.2253
 8806SOL     OW37876   0.138   2.242   2.000  0.1578  0.0713  0.4906
 8806SOL    HW137877   0.093   2.327   1.995  0.2235  0.0582 -0.2589
 8806SOL    HW237878   0.070   2.182   1.971 -1.4562  3.1342 -2.0822
 8807SOL     OW37879   1.582   3.903  10.841  0.1759 -0.6139  0.1144
 8807SOL    HW137880   1.593   3.847  10.918  0.4571  0.6555  0.9943
 8807SOL    HW237881   1.668   3.908  10.801  0.3859 -0.7609  0.5391
 8808SOL     OW37882   0.025   0.567   3.145 -0.5500  0.4258 -0.0852
 8808SOL    HW137883   0.101   0.509   3.145 -0.1665  0.9170  0.9725
 8808SOL    HW237884   0.042   0.597   3.235  3.7637  1.0352 -1.0804
 8809SOL     OW37885   0.958   1.783   7.840  0.2603 -0.5191  0.0512
 8809SOL    HW137886   0.883   1.841   7.824  0.6907  0.1708  0.5181
 8809SOL    HW237887   0.999   1.816   7.920 -0.3693 -0.1693  0.2298
 8810SOL     OW37888   2.053   4.536   7.633  0.1158  0.0817 -0.1291
 8810SOL    HW137889   2.036   4.510   7.723 -2.8120  1.0813 -0.3705
 8810SOL    HW237890   2.011   4.621   7.621 -1.3370 -0.3776  1.7566
 8811SOL     OW37891   1.652   1.955   4.538  0.5416 -0.3301  0.2011
 8811SOL    HW137892   1.643   1.973   4.632  0.6175  1.5710 -0.1679
 8811SOL    HW237893   1.745   1.970   4.518  0.5988 -0.5028  0.3339
 8812SOL     OW37894   4.600   1.193   8.587  0.6549 -0.0269 -0.0639
 8812SOL    HW137895   4.572   1.283   8.603 -0.7829 -0.8289  1.9924
 8812SOL    HW237896   4.692   1.188   8.610  0.9563  1.4978 -0.9537
 8813SOL     OW37897   0.651   2.695   3.044  0.9699 -0.1160  0.0049
 8813SOL    HW137898   0.618   2.678   3.132 -0.3030  2.0215 -0.0590
 8813SOL    HW237899   0.584   2.761   3.025 -1.2297 -2.2029  0.6010
 8814SOL     OW37900   3.084   3.146   8.882  0.0792 -0.2257  0.0069
 8814SOL    HW137901   2.993   3.174   8.875 -0.1301 -0.8232  0.3857
 8814SOL    HW237902   3.068   3.107   8.968  1.8135 -1.1502 -0.0849
 8815SOL     OW37903   1.870   2.312   5.877 -0.5983 -0.3469 -0.0278
 8815SOL    HW137904   1.776   2.298   5.868 -0.6217  0.9254 -1.8835
 8815SOL    HW237905   1.891   2.242   5.938  0.9099 -2.1073 -2.5863
 8816SOL     OW37906   2.547   3.140   8.821  0.4623  0.6348  0.1635
 8816SOL    HW137907   2.485   3.207   8.793 -0.8121 -0.5953  0.0416
 8816SOL    HW237908   2.512   3.094   8.897 -0.5491 -1.4798 -1.5729
 8817SOL     OW37909   1.655   0.644   3.517 -0.6709 -0.9191  0.3198
 8817SOL    HW137910   1.574   0.629   3.565 -1.2472 -1.1253 -0.7118
 8817SOL    HW237911   1.695   0.557   3.523  1.3394 -0.0249 -0.1661
 8818SOL     OW37912   2.238   4.342   2.311 -0.1615  0.2522  0.0734
 8818SOL    HW137913   2.250   4.352   2.216  2.3508 -0.8535  0.2885
 8818SOL    HW237914   2.326   4.307   2.319  0.3560  1.3468 -0.7130
 8819SOL     OW37915   0.694   1.484  17.258 -0.1266 -0.2618 -0.2002
 8819SOL    HW137916   0.610   1.478  17.212  0.2575 -1.6104 -0.7501
 8819SOL    HW237917   0.697   1.399  17.303 -1.5059 -0.1020  0.1907
 8820SOL     OW37918   2.853   2.799   6.173  0.5810 -0.4781 -0.5177
 8820SOL    HW137919   2.829   2.892   6.170 -1.2649 -1.0027 -1.3859
 8820SOL    HW237920   2.942   2.810   6.209  0.7855 -0.0432 -1.1529
 8821SOL     OW37921   0.623   1.458   7.825 -0.3203  0.3291 -0.5678
 8821SOL    HW137922   0.563   1.415   7.764 -0.5550  0.7882 -0.6549
 8821SOL    HW237923   0.554   1.472   7.889  2.9656  1.4714  2.7387
 8822SOL     OW37924   3.417   3.104  14.873  0.5764  0.4763  0.6089
 8822SOL    HW137925   3.457   3.080  14.956  0.8021 -1.1519  0.0261
 8822SOL    HW237926   3.491   3.132  14.820 -0.5213  0.6157 -0.8674
 8823SOL     OW37927   4.219   4.006   7.219 -0.0971  0.2781  0.3543
 8823SOL    HW137928   4.259   3.935   7.270  0.1575 -0.1392 -0.4207
 8823SOL    HW237929   4.127   3.983   7.217  0.0549 -0.2770 -0.3942
 8824SOL     OW37930   4.313   1.506   1.666 -0.2700 -0.0275  0.1556
 8824SOL    HW137931   4.268   1.426   1.638  1.9429 -0.6435 -1.6826
 8824SOL    HW237932   4.242   1.554   1.707  0.5234 -1.1304  2.7847
 8825SOL     OW37933   0.142   0.495   2.598 -0.2153 -0.1911  0.2103
 8825SOL    HW137934   0.130   0.476   2.505  0.9940  0.8767 -0.1584
 8825SOL    HW237935   0.097   0.427   2.648 -0.8122 -0.6767 -0.9890
 8826SOL     OW37936   0.767   1.576  14.861 -0.2437 -0.6205  0.0210
 8826SOL    HW137937   0.787   1.489  14.897 -2.7481 -1.1121  0.2201
 8826SOL    HW237938   0.735   1.545  14.776 -1.4798 -0.5207  0.4602
 8827SOL     OW37939   0.333   3.014   7.686  0.5311  0.0605 -0.2025
 8827SOL    HW137940   0.393   2.943   7.709  0.2086  0.7729  2.8629
 8827SOL    HW237941   0.380   3.093   7.711  0.9873  0.0354 -0.9869
 8828SOL     OW37942   3.221   3.390  16.009 -0.6045  0.7760  0.4186
 8828SOL    HW137943   3.234   3.450  15.936  3.2197  1.2039  1.4113
 8828SOL    HW237944   3.286   3.427  16.068 -0.3212 -0.0484  0.6286
 8829SOL     OW37945   1.642   4.439   0.444 -0.4273 -0.3060 -0.3858
 8829SOL    HW137946   1.645   4.346   0.464 -0.1626 -0.6659 -2.1021
 8829SOL    HW237947   1.625   4.475   0.531 -0.9629  0.8117 -0.9507
 8830SOL     OW37948   1.756   0.931   7.871 -0.4729 -0.1547  0.0644
 8830SOL    HW137949   1.746   0.905   7.963 -1.7050  0.8340  0.2116
 8830SOL    HW237950   1.766   0.846   7.830  0.4172 -0.4064  0.8054
 8831SOL     OW37951   0.936   3.851  14.849 -0.3910 -0.4740  0.0099
 8831SOL    HW137952   0.956   3.794  14.923  1.2766  0.6701  0.4392
 8831SOL    HW237953   0.924   3.790  14.776  1.8261 -0.5495 -0.2790
 8832SOL     OW37954   1.589   1.361  12.630 -0.2057  0.2536  0.4737
 8832SOL    HW137955   1.614   1.271  12.653  4.1089  1.5304  0.8344
 8832SOL    HW237956   1.619   1.403  12.711  0.8557  0.5306 -0.0603
 8833SOL     OW37957   3.499   2.330  17.007  0.0470 -0.4385  0.4549
 8833SOL    HW137958   3.496   2.328  17.103  0.9624 -2.0066  0.4501
 8833SOL    HW237959   3.422   2.385  16.992 -0.2240 -0.7963  0.5261
 8834SOL     OW37960   3.450   3.575  16.562  0.3186  0.0737 -0.3952
 8834SOL    HW137961   3.383   3.547  16.624  0.1187  0.5906 -0.3866
 8834SOL    HW237962   3.488   3.492  16.532 -1.1321 -1.3998  1.8241
 8835SOL     OW37963   4.295   3.731   4.106 -0.4140  0.3238 -0.6333
 8835SOL    HW137964   4.239   3.666   4.064 -0.5916 -1.6740  2.6908
 8835SOL    HW237965   4.304   3.807   4.048 -1.8844 -0.0678 -1.3749
 8836SOL     OW37966   2.851   3.936   6.114 -0.3409 -0.4201  0.1550
 8836SOL    HW137967   2.875   3.945   6.021 -0.6822 -1.2522 -0.0118
 8836SOL    HW237968   2.873   3.845   6.134  0.0959 -0.6920 -1.5172
 8837SOL     OW37969   2.802   0.542   2.687  0.1406 -0.0248  0.1326
 8837SOL    HW137970   2.897   0.532   2.699 -0.1845 -0.0317  2.6564
 8837SOL    HW237971   2.774   0.522   2.776 -2.0243  1.0755 -0.3090
 8838SOL     OW37972   2.480   3.931  17.683  0.6651  0.2186 -0.0264
 8838SOL    HW137973   2.503   3.927  17.590  1.1573  0.3878  0.0867
 8838SOL    HW237974   2.550   3.875   0.022  0.8543  0.0424 -0.7241
 8839SOL     OW37975   1.907   0.286   2.140  0.7207  0.7166  0.7280
 8839SOL    HW137976   1.936   0.213   2.195  3.1871 -1.2723 -3.2238
 8839SOL    HW237977   1.886   0.351   2.207  1.0283  1.4496  0.1044
 8840SOL     OW37978   1.973   2.057  16.608 -0.6068 -0.1018 -0.8800
 8840SOL    HW137979   1.894   2.072  16.661  0.0398  1.8790 -0.5112
 8840SOL    HW237980   1.952   1.976  16.560 -0.2251 -0.4476 -0.4619
 8841SOL     OW37981   3.889   2.147   4.914 -0.4059 -0.2059 -0.0916
 8841SOL    HW137982   3.818   2.207   4.889  0.5186  0.7927 -0.3110
 8841SOL    HW237983   3.867   2.075   4.855 -0.8764  0.1104 -0.3045
 8842SOL     OW37984   2.907   2.476   5.595 -0.4862  0.1121  0.1471
 8842SOL    HW137985   2.835   2.441   5.543 -0.4572  2.5024 -1.4782
 8842SOL    HW237986   2.890   2.432   5.678 -2.1391 -0.7877 -0.6781
 8843SOL     OW37987   3.298   4.640   6.890  0.6136  0.0432  0.1141
 8843SOL    HW137988   3.245   4.700   6.836 -1.4262 -2.2284 -0.3985
 8843SOL    HW237989   3.340   4.601   6.813  0.3337  0.8880 -0.4829
 8844SOL     OW37990   1.423   1.712   8.381  0.2814  0.0726  0.5340
 8844SOL    HW137991   1.496   1.722   8.442  0.5254 -2.0735  0.5919
 8844SOL    HW237992   1.343   1.722   8.433  0.9356 -0.5259  1.6475
 8845SOL     OW37993   4.019   1.464  15.001 -0.2968  0.4645  0.6728
 8845SOL    HW137994   4.105   1.456  15.044 -0.5663 -1.1081  0.9009
 8845SOL    HW237995   4.048   1.481  14.911 -1.0191  3.2811  0.9545
 8846SOL     OW37996   3.596   4.057   7.928 -0.0067  0.1107 -0.2954
 8846SOL    HW137997   3.664   3.992   7.944  1.1234  1.4692  0.4711
 8846SOL    HW237998   3.549   4.041   8.010 -1.7259  0.1524 -1.2720
 8847SOL     OW37999   0.400   2.205   6.519 -0.9294 -0.0707 -0.0988
 8847SOL    HW138000   0.460   2.189   6.445 -0.6412 -1.2966  0.3927
 8847SOL    HW238001   0.361   2.118   6.513 -2.6822  0.6497  0.8052
 8848SOL     OW38002   2.503   2.486  16.181 -0.0552  0.3701 -0.0958
 8848SOL    HW138003   2.591   2.451  16.193  0.5908  2.1935  0.4530
 8848SOL    HW238004   2.499   2.509  16.088  0.2903  2.6704  0.4555
 8849SOL     OW38005   1.560   3.933   4.489 -0.0978 -0.0734 -0.3577
 8849SOL    HW138006   1.506   3.985   4.430  2.2727  2.0740 -0.6239
 8849SOL    HW238007   1.637   3.990   4.488 -1.1668  1.3885  1.2412
 8850SOL     OW38008   2.093   2.329   3.030 -0.4291  0.5674 -0.3331
 8850SOL    HW138009   2.154   2.379   3.085 -1.9928 -0.4345  2.3418
 8850SOL    HW238010   2.017   2.388   3.024 -1.2991 -0.3882  1.3409
 8851SOL     OW38011   2.951   3.766   2.270  0.0978 -0.2174  0.0990
 8851SOL    HW138012   2.957   3.690   2.327  0.4409  0.6095  1.1690
 8851SOL    HW238013   2.928   3.836   2.331 -0.3898 -1.4334  1.3151
 8852SOL     OW38014   3.050   4.337  14.664  0.0463  0.0234 -0.1205
 8852SOL    HW138015   3.075   4.410  14.720  2.2072 -0.5754 -0.2904
 8852SOL    HW238016   2.956   4.345  14.679 -0.1970 -2.7583 -0.1656
 8853SOL     OW38017   0.542   1.489   6.167 -0.1229 -0.1625  0.1185
 8853SOL    HW138018   0.601   1.415   6.177  0.1528 -0.0054 -0.3771
 8853SOL    HW238019   0.603   1.562   6.162 -1.2989  0.8093 -0.1272
 8854SOL     OW38020   3.954   4.128   6.428  0.1721  0.5767 -0.2429
 8854SOL    HW138021   3.969   4.201   6.488  0.1196  0.3142  0.0847
 8854SOL    HW238022   3.966   4.048   6.479  0.4280  0.4500 -0.5024
 8855SOL     OW38023   0.038   4.111   2.949 -0.5429 -0.5901  0.4151
 8855SOL    HW138024   4.706   4.050   2.899  0.6893 -4.1190  3.3074
 8855SOL    HW238025   0.116   4.117   2.893  0.5395  0.4518  2.0476
 8856SOL     OW38026   4.025   3.724   4.861  0.3976 -0.2208  0.1929
 8856SOL    HW138027   3.930   3.716   4.875  0.2423 -1.0123 -1.2633
 8856SOL    HW238028   4.028   3.712   4.766  1.5180  1.3844  0.0414
 8857SOL     OW38029   3.538   2.013   5.006  0.4905  0.3004 -0.0477
 8857SOL    HW138030   3.518   1.929   4.964  1.1723 -0.0636  0.3383
 8857SOL    HW238031   3.564   1.984   5.094  0.0855  0.8011  0.2344
 8858SOL     OW38032   0.096   2.236   6.656  0.0384 -1.0076 -0.2313
 8858SOL    HW138033   0.084   2.151   6.698  0.7521 -0.7810  0.4190
 8858SOL    HW238034   0.098   2.221   6.561  1.2617  1.1022 -0.5664
 8859SOL     OW38035   4.441   0.351   8.746 -0.2299 -0.1853 -0.3603
 8859SOL    HW138036   4.509   0.419   8.739  2.1674 -2.5210 -0.0457
 8859SOL    HW238037   4.378   0.409   8.788  0.2860  1.1560 -1.4436
 8860SOL     OW38038   0.331   0.152   8.309  0.7896  0.2114 -0.2790
 8860SOL    HW138039   0.269   0.079   8.302  2.2521 -1.0703  0.1010
 8860SOL    HW238040   0.364   0.137   8.398  0.4822 -0.1878 -0.2298
 8861SOL     OW38041   3.890   3.188   7.839 -0.2415  0.0174 -0.0835
 8861SOL    HW138042   3.921   3.241   7.766 -0.4635  1.1718  0.6685
 8861SOL    HW238043   3.968   3.198   7.894 -0.8157  0.7048  0.6001
 8862SOL     OW38044   4.079   2.771   3.286  0.8074  0.1267  0.2919
 8862SOL    HW138045   4.051   2.849   3.334  0.1119 -1.9013  3.1833
 8862SOL    HW238046   4.031   2.710   3.342  1.4823  0.0384  0.7705
 8863SOL     OW38047   0.506   0.975   4.102  0.8571 -0.0621 -0.4297
 8863SOL    HW138048   0.502   1.070   4.102  1.3190 -0.0516  1.7803
 8863SOL    HW238049   0.581   0.964   4.160 -1.4512 -1.3294  2.2813
 8864SOL     OW38050   0.670   4.533  15.110 -0.3501 -0.2149  0.1513
 8864SOL    HW138051   0.594   4.544  15.053  0.7360 -1.0454 -1.4576
 8864SOL    HW238052   0.632   4.571  15.189 -0.2504 -1.9477  1.0487
 8865SOL     OW38053   0.666   2.224   0.654 -0.4798 -0.0162  0.1403
 8865SOL    HW138054   0.634   2.256   0.738  1.7632  2.5642  0.0230
 8865SOL    HW238055   0.614   2.145   0.640  0.0308 -0.1005 -1.2625
 8866SOL     OW38056   3.676   0.206   7.447  0.1295  0.4730 -0.2859
 8866SOL    HW138057   3.647   0.276   7.505 -1.8199 -0.5040 -0.0601
 8866SOL    HW238058   3.722   0.148   7.509  1.6228  0.8254 -1.0730
 8867SOL     OW38059   3.885   4.648  12.993 -0.0157  1.1248  0.3609
 8867SOL    HW138060   3.900   0.005  13.043 -1.5177  2.7047 -1.7567
 8867SOL    HW238061   3.926   4.672  12.911  1.0280 -1.9944 -0.0367
 8868SOL     OW38062   1.416   3.896   2.125  0.3206 -0.1021  0.1773
 8868SOL    HW138063   1.401   3.991   2.124  0.1425 -0.1441 -1.9649
 8868SOL    HW238064   1.507   3.873   2.142  1.1393  2.7559 -0.2925
 8869SOL     OW38065   3.957   4.616   1.665 -0.5802  0.3829 -0.3740
 8869SOL    HW138066   3.904   4.543   1.634  2.0909 -1.5689 -0.4027
 8869SOL    HW238067   4.007   4.636   1.585 -0.2645 -0.2818 -0.3378
 8870SOL     OW38068   2.345   3.665   5.134  1.0958 -0.4010  0.0875
 8870SOL    HW138069   2.288   3.727   5.180  2.5391  1.1889 -0.2430
 8870SOL    HW238070   2.294   3.588   5.157 -2.3342  1.4743 -1.1739
 8871SOL     OW38071   1.471   1.502   7.040 -0.1945 -0.0206 -0.1146
 8871SOL    HW138072   1.403   1.570   7.049 -0.3578 -0.3945  1.4692
 8871SOL    HW238073   1.425   1.419   7.027  0.6503 -0.8857  2.3533
 8872SOL     OW38074   0.421   1.942   2.641  1.1292 -0.0062 -0.5444
 8872SOL    HW138075   0.499   1.905   2.598  1.8043  1.3780 -0.5133
 8872SOL    HW238076   0.382   1.971   2.559 -1.8485 -0.9575  0.5329
 8873SOL     OW38077   2.687   1.669   7.619 -0.2238 -0.1355  0.4211
 8873SOL    HW138078   2.749   1.710   7.558  0.5755  1.2386  2.1230
 8873SOL    HW238079   2.731   1.587   7.640 -0.6126 -0.2588  0.7541
 8874SOL     OW38080   0.970   1.773   2.685 -0.0960 -0.4625 -0.7599
 8874SOL    HW138081   0.941   1.861   2.710  1.6430  0.6240 -2.6346
 8874SOL    HW238082   0.884   1.732   2.674  0.7625 -1.8410 -2.3966
 8875SOL     OW38083   4.451   1.785   3.864 -0.3195 -0.2026 -0.4781
 8875SOL    HW138084   4.411   1.763   3.779  1.8529  2.9258 -2.2828
 8875SOL    HW238085   4.392   1.750   3.931 -0.1396  3.7198  1.7366
 8876SOL     OW38086   2.042   1.832  12.342 -0.3984  0.2768 -0.1031
 8876SOL    HW138087   2.129   1.794  12.327 -1.4697 -2.3608  0.4487
 8876SOL    HW238088   2.006   1.764  12.398 -0.1057  0.3646  0.1976
 8877SOL     OW38089   4.598   3.781   3.916 -0.3753 -0.5860 -0.1239
 8877SOL    HW138090   4.673   3.725   3.932 -1.2953 -1.7712  0.0629
 8877SOL    HW238091   4.623   3.801   3.826 -1.3213 -0.7259 -0.4181
 8878SOL     OW38092   0.083   3.670   5.282  0.1289  0.1587 -0.7684
 8878SOL    HW138093   0.172   3.680   5.248  1.0599 -2.4286  0.9106
 8878SOL    HW238094   0.060   3.594   5.230 -3.3384  2.0755 -1.9929
 8879SOL     OW38095   3.950   2.525  11.294  0.4752 -0.1152 -0.4660
 8879SOL    HW138096   3.926   2.486  11.378  1.4699  0.9428  0.3023
 8879SOL    HW238097   3.907   2.609  11.308  0.9187  0.0093  0.1657
 8880SOL     OW38098   1.745   2.759  17.244 -0.5803 -0.8868  0.6329
 8880SOL    HW138099   1.710   2.761  17.333 -2.0339 -0.9283  0.0629
 8880SOL    HW238100   1.702   2.839  17.213 -0.8728 -0.6131  1.7345
 8881SOL     OW38101   3.466   1.071  12.608 -0.0711 -0.0634 -0.0193
 8881SOL    HW138102   3.484   1.165  12.619  3.6419 -0.8141  0.2607
 8881SOL    HW238103   3.474   1.059  12.703  1.2957 -0.2024 -0.1636
 8882SOL     OW38104   3.886   1.287   5.161  0.2744  0.5433  0.0359
 8882SOL    HW138105   3.955   1.311   5.100  0.3134  2.2644  0.7599
 8882SOL    HW238106   3.898   1.351   5.231 -3.1952 -0.3243  1.4265
 8883SOL     OW38107   2.006   4.076   2.138  0.2374 -0.3403 -0.1746
 8883SOL    HW138108   2.000   3.981   2.140  2.5008 -0.4939 -0.5124
 8883SOL    HW238109   1.999   4.101   2.046 -3.0013 -0.6074  0.0136
 8884SOL     OW38110   2.130   1.536   2.386  0.2568  0.1341 -0.1484
 8884SOL    HW138111   2.122   1.450   2.344  3.6143  0.2576 -1.0079
 8884SOL    HW238112   2.050   1.579   2.356 -1.2883 -1.5455  1.4952
 8885SOL     OW38113   1.042   0.710  14.064 -0.3431 -0.0337  0.0724
 8885SOL    HW138114   1.040   0.615  14.076  2.2070 -0.2171 -0.8612
 8885SOL    HW238115   1.122   0.736  14.110  0.0365 -2.3720  0.7398
 8886SOL     OW38116   4.656   4.435   3.619 -0.1713  0.2006 -0.6286
 8886SOL    HW138117   4.616   4.365   3.568 -0.1995  0.8474 -1.5084
 8886SOL    HW238118   0.024   4.405   3.620 -0.2971 -0.1523 -0.1329
 8887SOL     OW38119   2.601   4.004   6.266  0.1989  0.4067  0.1380
 8887SOL    HW138120   2.572   4.027   6.177 -0.4403  0.4410  0.3597
 8887SOL    HW238121   2.696   4.015   6.256 -0.0922 -0.0430 -3.1517
 8888SOL     OW38122   0.378   4.386   2.318  0.0380  0.5488  0.4086
 8888SOL    HW138123   0.404   4.294   2.329 -0.8684  0.2915  0.3991
 8888SOL    HW238124   0.437   4.423   2.252  0.6366 -2.7490 -0.9114
 8889SOL     OW38125   4.099   4.021  10.074 -0.0836  0.4036 -0.1880
 8889SOL    HW138126   4.026   3.960  10.065  1.5786 -1.9031  1.8652
 8889SOL    HW238127   4.073   4.103  10.032  0.7104 -0.1071 -1.6621
 8890SOL     OW38128   4.476   1.684   2.856 -0.4985  0.4314 -0.1468
 8890SOL    HW138129   4.551   1.689   2.797 -0.4131  0.8371 -0.0014
 8890SOL    HW238130   4.431   1.759   2.817 -0.3432  1.3457  1.4280
 8891SOL     OW38131   1.585   3.406   0.874  0.8292 -0.0521 -0.3464
 8891SOL    HW138132   1.590   3.325   0.924 -1.9786 -0.9336 -1.5028
 8891SOL    HW238133   1.524   3.379   0.806 -0.2533 -0.3702  0.7451
 8892SOL     OW38134   2.049   0.532   7.754  0.4632 -0.4672  0.2177
 8892SOL    HW138135   1.990   0.518   7.679  0.7675 -1.1124  0.1047
 8892SOL    HW238136   1.984   0.543   7.824  0.1878  1.7564 -0.3717
 8893SOL     OW38137   2.544   4.175   7.520 -0.2476 -0.4175 -0.2351
 8893SOL    HW138138   2.575   4.147   7.606  3.7725  2.2736 -0.8409
 8893SOL    HW238139   2.594   4.122   7.458  3.7131  1.4421  1.4189
 8894SOL     OW38140   2.832   3.662  14.955 -0.3526 -0.0206  0.1102
 8894SOL    HW138141   2.750   3.668  15.003  0.5154 -0.4169  1.6459
 8894SOL    HW238142   2.895   3.673  15.026 -0.5118 -0.6864  0.3555
 8895SOL     OW38143   0.342   2.166  15.104 -0.3008 -0.2238 -0.1075
 8895SOL    HW138144   0.426   2.195  15.070 -0.6301 -0.2799 -0.9677
 8895SOL    HW238145   0.282   2.193  15.035  1.1150 -1.0685 -1.6645
 8896SOL     OW38146   1.299   4.370  16.248  0.2288 -0.0244 -0.5250
 8896SOL    HW138147   1.375   4.321  16.215 -0.7381 -1.3230 -0.8257
 8896SOL    HW238148   1.331   4.381  16.338  0.8264  0.7443 -0.8322
 8897SOL     OW38149   2.008   1.215   4.673  0.3605  0.0449  0.6809
 8897SOL    HW138150   1.955   1.136   4.661 -1.3130  1.2614  0.0207
 8897SOL    HW238151   2.096   1.186   4.648 -0.3951 -1.0573 -0.6875
 8898SOL     OW38152   3.879   2.029  14.590 -0.1710 -0.2581 -0.3382
 8898SOL    HW138153   3.808   2.093  14.590  0.1957  0.1490  0.0360
 8898SOL    HW238154   3.836   1.949  14.622 -1.4946  0.0989 -1.2479
 8899SOL     OW38155   0.906   1.043  15.211  0.1115  0.1458 -0.0102
 8899SOL    HW138156   0.914   1.135  15.238 -2.3976  0.8734 -1.7832
 8899SOL    HW238157   0.878   1.042  15.119  0.6766  2.2576 -0.2159
 8900SOL     OW38158   1.757   2.937   5.525  0.1303  0.1155  0.3975
 8900SOL    HW138159   1.723   2.944   5.614 -1.1919 -0.5169 -0.0516
 8900SOL    HW238160   1.758   2.843   5.506 -0.3077  0.4336 -1.2245
 8901SOL     OW38161   0.659   2.811   1.798  0.2260 -0.0830 -0.0769
 8901SOL    HW138162   0.607   2.826   1.719 -0.5692  1.7120  0.8092
 8901SOL    HW238163   0.661   2.899   1.835  2.5820 -1.4366  3.0520
 8902SOL     OW38164   1.819   1.682  11.235 -0.1456 -0.4535 -0.6734
 8902SOL    HW138165   1.909   1.696  11.204 -0.2888  0.6215 -0.6119
 8902SOL    HW238166   1.804   1.590  11.214 -1.0967 -0.6963  1.0557
 8903SOL     OW38167   1.416   1.500   2.446 -0.3995 -0.0115  0.2168
 8903SOL    HW138168   1.495   1.547   2.475  0.5347 -1.9015  0.7491
 8903SOL    HW238169   1.385   1.564   2.381 -1.8201 -1.0281 -0.1103
 8904SOL     OW38170   3.732   4.145   5.386  0.9766  0.8237  0.0499
 8904SOL    HW138171   3.824   4.122   5.403  0.4702  0.1200  1.7848
 8904SOL    HW238172   3.742   4.179   5.297  1.3691 -1.0318 -0.6160
 8905SOL     OW38173   1.682   1.918   9.616  0.2219 -0.1588  0.2563
 8905SOL    HW138174   1.695   1.885   9.528 -2.4902 -0.8134  0.0945
 8905SOL    HW238175   1.723   2.004   9.613  0.6322 -0.3082  1.6440
 8906SOL     OW38176   1.028   0.777   4.372  0.1772 -0.1891 -0.4640
 8906SOL    HW138177   1.080   0.766   4.451 -2.8981  0.4807  1.6466
 8906SOL    HW238178   1.092   0.744   4.309  2.0720  0.0974  1.3333
 8907SOL     OW38179   1.164   4.580   8.404 -0.5904  0.2570  1.3314
 8907SOL    HW138180   1.095   4.547   8.462 -2.4309 -1.3004 -1.7214
 8907SOL    HW238181   1.226   4.507   8.406  0.5254  1.2249  1.3453
 8908SOL     OW38182   1.576   2.967  17.229 -0.6430 -0.9931  0.3564
 8908SOL    HW138183   1.599   3.045  17.279 -0.5953  0.6045 -2.1354
 8908SOL    HW238184   1.491   2.943  17.266 -0.6608 -0.5549  0.5976
 8909SOL     OW38185   1.041   4.198   4.107  0.1215 -0.4669  0.2196
 8909SOL    HW138186   1.028   4.195   4.201  0.1282 -0.1596  0.2290
 8909SOL    HW238187   1.062   4.290   4.090 -1.3357 -0.5008 -1.8004
 8910SOL     OW38188   4.565   3.945  12.199 -0.0826 -0.3776 -0.0095
 8910SOL    HW138189   4.526   3.862  12.228 -0.6265  0.0525  0.4767
 8910SOL    HW238190   4.657   3.928  12.222  0.5049  0.7817 -1.5489
 8911SOL     OW38191   3.966   0.402   8.705  0.0434  0.6888  0.1086
 8911SOL    HW138192   3.955   0.484   8.753  1.9833  0.0470  1.6779
 8911SOL    HW238193   3.923   0.345   8.769 -1.5173 -0.0323 -1.5936
 8912SOL     OW38194   2.815   2.568   3.465 -0.2530  0.3727  0.2574
 8912SOL    HW138195   2.882   2.513   3.423 -2.2118 -1.4515 -0.4254
 8912SOL    HW238196   2.843   2.654   3.433 -0.2079  0.6643  1.0882
 8913SOL     OW38197   3.570   2.052  11.980  0.4227  0.2645  0.7465
 8913SOL    HW138198   3.544   1.965  12.010  0.4664  0.0480  0.1597
 8913SOL    HW238199   3.629   2.080  12.051  0.4740  1.8804  0.0784
 8914SOL     OW38200   2.924   4.008  13.619  0.6329  0.1642  0.5980
 8914SOL    HW138201   2.908   3.994  13.525 -2.3374 -0.4103  1.1752
 8914SOL    HW238202   2.923   4.102  13.633 -2.6917  0.3619 -0.9252
 8915SOL     OW38203   3.604   2.745  15.011  0.5957  0.0083 -0.4474
 8915SOL    HW138204   3.567   2.676  14.955 -2.8127  1.6475 -0.2241
 8915SOL    HW238205   3.694   2.714  15.022  0.8282  0.9354  0.1646
 8916SOL     OW38206   4.511   2.389   5.929 -0.6511  0.1837  0.3201
 8916SOL    HW138207   4.446   2.410   5.862 -0.1491 -2.4853 -1.0072
 8916SOL    HW238208   4.598   2.406   5.893 -0.5748 -2.2527 -0.6363
 8917SOL     OW38209   1.240   0.990   3.577 -0.5513  0.6130  0.2591
 8917SOL    HW138210   1.150   0.958   3.574 -0.5652  0.7419 -0.8634
 8917SOL    HW238211   1.280   0.924   3.633 -3.2660 -1.4630 -0.2809
 8918SOL     OW38212   3.053   0.232   6.409 -0.0519  0.3893  0.1162
 8918SOL    HW138213   3.084   0.282   6.333  0.3089 -0.1374 -0.0869
 8918SOL    HW238214   3.133   0.189   6.442 -0.3570 -0.8831 -0.7799
 8919SOL     OW38215   3.640   1.027  10.433 -0.1511  0.3936 -0.5291
 8919SOL    HW138216   3.636   1.062  10.523  0.5936  0.5785 -0.5709
 8919SOL    HW238217   3.730   1.041  10.405  0.2476  1.4565  1.2760
 8920SOL     OW38218   1.892   2.940   0.001  0.6337 -0.3712  0.1684
 8920SOL    HW138219   1.924   2.872  17.636 -0.6168 -0.6400 -0.2012
 8920SOL    HW238220   1.902   2.898   0.087 -0.2250  1.2612  1.0591
 8921SOL     OW38221   0.030   0.033   4.724  0.2515 -0.2857  0.6697
 8921SOL    HW138222   0.005   0.062   4.812  0.4847 -1.7900  1.2326
 8921SOL    HW238223   0.074   4.672   4.740  1.6454  0.6456  1.7272
 8922SOL     OW38224   2.923   0.027   0.820  0.1631  0.6174 -0.6885
 8922SOL    HW138225   2.882   0.016   0.734  1.3135  1.1034 -1.2863
 8922SOL    HW238226   2.846   0.059   0.867  0.2621 -0.5099  0.2587
 8923SOL     OW38227   1.855   4.080   9.853 -0.2584  0.6178  0.3231
 8923SOL    HW138228   1.764   4.071   9.880  0.0568 -0.4564  1.0510
 8923SOL    HW238229   1.852   4.165   9.810 -0.6562  0.1675 -0.5363
 8924SOL     OW38230   2.582   4.386   1.960  0.1945  0.2079  0.3276
 8924SOL    HW138231   2.595   4.458   2.022 -2.9634 -0.4553  1.8025
 8924SOL    HW238232   2.593   4.307   2.014 -0.1870 -0.5130 -0.6562
 8925SOL     OW38233   2.189   2.813   6.076  0.0255  0.1485 -0.2366
 8925SOL    HW138234   2.257   2.866   6.118  0.9746 -0.6680 -0.7316
 8925SOL    HW238235   2.237   2.735   6.048  0.5502  0.5650 -0.4852
 8926SOL     OW38236   3.717   3.826   8.043  0.0519 -0.5206 -0.0767
 8926SOL    HW138237   3.682   3.737   8.043 -2.2637  0.3744  0.7363
 8926SOL    HW238238   3.704   3.853   8.134  1.6052  1.4527 -0.4339
 8927SOL     OW38239   4.501   4.719  16.777 -0.1108  0.4516  0.3584
 8927SOL    HW138240   4.565   4.690  16.842  1.2562  2.9370  0.1343
 8927SOL    HW238241   4.443   4.645  16.794  0.5982 -0.3495 -0.6842
 8928SOL     OW38242   0.838   3.265   8.195  0.3410 -0.1299  0.3132
 8928SOL    HW138243   0.762   3.323   8.196 -0.0858 -0.6955  1.8177
 8928SOL    HW238244   0.826   3.238   8.104  0.2585 -0.1627  0.3334
 8929SOL     OW38245   3.872   0.992   0.362 -0.1049 -0.2270 -0.0634
 8929SOL    HW138246   3.961   1.025   0.357 -1.3304  3.3392  2.0209
 8929SOL    HW238247   3.881   0.899   0.340 -0.6933 -0.7001  1.6947
 8930SOL     OW38248   0.773   0.507   3.738  0.0248 -0.0968 -0.0385
 8930SOL    HW138249   0.764   0.545   3.825 -0.2463 -1.4547  0.5277
 8930SOL    HW238250   0.681   0.501   3.712 -0.1658 -2.3408  1.1814
 8931SOL     OW38251   4.402   0.262   3.736  0.1258 -0.2656  0.2492
 8931SOL    HW138252   4.364   0.286   3.652  2.3403 -0.1717 -0.7337
 8931SOL    HW238253   4.477   0.322   3.731  0.7204 -1.1546 -1.4021
 8932SOL     OW38254   4.245   4.229   7.040  0.1780  0.5114 -0.1893
 8932SOL    HW138255   4.235   4.290   7.113 -0.6971 -0.3389  0.4031
 8932SOL    HW238256   4.229   4.150   7.092 -0.0261 -0.1895 -1.3175
 8933SOL     OW38257   3.138   2.230   8.635 -0.1838  0.4661  0.4423
 8933SOL    HW138258   3.079   2.156   8.650 -1.8780  1.7585  0.0257
 8933SOL    HW238259   3.081   2.305   8.623 -1.4275 -0.8406 -1.8340
 8934SOL     OW38260   2.895   0.246   8.118  0.4190 -0.0524 -0.0430
 8934SOL    HW138261   2.906   0.259   8.212 -1.5282 -0.2957  0.2148
 8934SOL    HW238262   2.901   0.150   8.112 -0.6813 -0.0666 -0.9049
 8935SOL     OW38263   3.617   1.019  12.843 -0.3836 -0.6750 -0.7746
 8935SOL    HW138264   3.594   0.933  12.879 -0.4654 -0.8100 -1.1441
 8935SOL    HW238265   3.710   1.020  12.865 -0.7387 -2.3627  0.8324
 8936SOL     OW38266   0.890   2.595   1.673 -0.4137  0.2875 -0.0308
 8936SOL    HW138267   0.922   2.561   1.589  0.9020  1.4411  0.0076
 8936SOL    HW238268   0.973   2.601   1.720  0.9432 -2.9044 -1.9743
 8937SOL     OW38269   3.617   2.780   8.241  0.0697  0.0895  0.4021
 8937SOL    HW138270   3.532   2.775   8.284 -0.2011  1.6605  0.0659
 8937SOL    HW238271   3.595   2.774   8.148  1.0871 -4.0268  0.4440
 8938SOL     OW38272   1.888   2.027  12.181 -0.8700 -0.1714 -0.0228
 8938SOL    HW138273   1.977   2.049  12.208 -0.1938 -1.4286 -1.2075
 8938SOL    HW238274   1.884   1.941  12.223 -1.5001 -0.8097 -1.4016
 8939SOL     OW38275   0.341   2.415   0.477  0.4184  0.0609  0.2278
 8939SOL    HW138276   0.279   2.488   0.462 -0.3749 -0.5788  0.3949
 8939SOL    HW238277   0.424   2.460   0.464  0.1027  0.5157 -0.2235
 8940SOL     OW38278   4.386   0.006   4.205 -0.1115  0.1919 -0.3066
 8940SOL    HW138279   4.474   4.691   4.205  0.1297  0.7701 -3.2414
 8940SOL    HW238280   4.381   0.015   4.110 -0.3171  0.3954 -0.2778
 8941SOL     OW38281   1.835   3.379   7.602  0.4395  0.4174 -0.4249
 8941SOL    HW138282   1.916   3.430   7.608  0.6888 -0.1774  1.2622
 8941SOL    HW238283   1.779   3.428   7.541  1.0270  1.6368  0.0089
 8942SOL     OW38284   0.269   0.263   9.565  0.5228  0.3492 -0.3766
 8942SOL    HW138285   0.320   0.338   9.597 -0.2028  0.8253 -0.3492
 8942SOL    HW238286   0.190   0.275   9.618  1.3504 -0.7735  1.1220
 8943SOL     OW38287   1.534   1.038   3.818  0.6761  0.2871 -0.2600
 8943SOL    HW138288   1.446   1.000   3.808 -0.0655  2.0199 -0.2571
 8943SOL    HW238289   1.580   1.005   3.740 -1.8910 -3.1269 -0.3419
 8944SOL     OW38290   0.339   3.721   2.197  0.1073 -0.0731  0.2483
 8944SOL    HW138291   0.375   3.801   2.234  0.2645  0.0735 -0.2209
 8944SOL    HW238292   0.409   3.657   2.206  2.7038  2.3205 -3.0400
 8945SOL     OW38293   2.887   3.233  14.950 -0.4445 -0.1494 -0.6222
 8945SOL    HW138294   2.866   3.287  15.026 -1.4885 -1.2023 -0.1566
 8945SOL    HW238295   2.821   3.164  14.943  0.0998 -0.7460  0.1069
 8946SOL     OW38296   1.976   3.715  10.550  0.1181 -0.0934  0.4087
 8946SOL    HW138297   1.997   3.771  10.476 -0.5481  0.6820  0.7998
 8946SOL    HW238298   2.057   3.684  10.589 -0.6586 -2.1973  0.3842
 8947SOL     OW38299   4.510   4.268   7.018 -0.3535 -0.1604 -0.3529
 8947SOL    HW138300   4.423   4.227   7.012 -0.0854 -0.8515  0.3902
 8947SOL    HW238301   4.544   4.223   6.941 -2.9901 -2.5885 -0.1082
 8948SOL     OW38302   0.211   2.766  10.588 -0.3828  0.3358  0.0798
 8948SOL    HW138303   0.257   2.850  10.589  0.9202 -0.4026  0.9185
 8948SOL    HW238304   0.260   2.693  10.624 -1.6335  0.0873  1.2904
 8949SOL     OW38305   3.981   0.578   7.856 -0.1977 -0.6118  0.2624
 8949SOL    HW138306   4.050   0.601   7.917  0.2201  1.0087 -0.8164
 8949SOL    HW238307   4.019   0.597   7.770  0.9359  0.1967  0.9548
 8950SOL     OW38308   0.388   2.532   7.832 -0.2734 -0.2915 -0.6117
 8950SOL    HW138309   0.309   2.553   7.781 -1.9503 -2.0379  1.2339
 8950SOL    HW238310   0.357   2.467   7.895 -1.7212  0.4965 -0.5192
 8951SOL     OW38311   4.576   0.969  13.513 -0.5864 -0.4887  0.3935
 8951SOL    HW138312   4.660   1.003  13.543 -0.5538 -0.7176  0.5587
 8951SOL    HW238313   4.583   0.881  13.550  0.8980 -0.6478 -0.2387
 8952SOL     OW38314   2.297   4.589  16.549 -0.1622  0.0067  0.0062
 8952SOL    HW138315   2.280   4.683  16.561 -1.4772 -0.3774  1.1167
 8952SOL    HW238316   2.365   4.578  16.615 -0.5226  0.8324  0.5243
 8953SOL     OW38317   1.887   4.356   9.739 -0.1438 -0.2059 -0.0753
 8953SOL    HW138318   1.947   4.388   9.671 -2.2312  0.9625 -1.3603
 8953SOL    HW238319   1.802   4.393   9.716  0.4354  0.7799 -0.6259
 8954SOL     OW38320   1.267   2.183  12.413  0.4218 -0.3461 -0.6044
 8954SOL    HW138321   1.308   2.105  12.451  0.8051  0.2661  0.2588
 8954SOL    HW238322   1.256   2.243  12.487 -0.8380  0.0004 -1.0840
 8955SOL     OW38323   0.175   1.302   6.839  0.0712  0.1352  0.3811
 8955SOL    HW138324   0.175   1.278   6.747 -0.3722 -0.5011  0.5489
 8955SOL    HW238325   0.200   1.395   6.836 -1.4172  0.5159  0.0272
 8956SOL     OW38326   3.663   4.153   3.292  0.1454  0.1678 -0.1687
 8956SOL    HW138327   3.679   4.107   3.374  0.5337  0.9366  0.1909
 8956SOL    HW238328   3.733   4.107   3.246  1.0803  0.7970  0.5975
 8957SOL     OW38329   2.029   2.338   1.642  0.3281  0.0109  0.1711
 8957SOL    HW138330   2.049   2.354   1.550 -0.4266  0.0552  0.0139
 8957SOL    HW238331   2.011   2.244   1.641  0.3028  0.0117  0.4800
 8958SOL     OW38332   0.797   1.555   4.691  0.0013 -0.2754  0.0865
 8958SOL    HW138333   0.807   1.484   4.629 -0.0795  1.1197 -1.5200
 8958SOL    HW238334   0.881   1.600   4.693  0.4792 -1.0112 -3.2295
 8959SOL     OW38335   4.573   4.307   2.966 -0.3789  0.0214 -0.7068
 8959SOL    HW138336   4.652   4.255   2.950 -0.7360 -0.1044 -2.0315
 8959SOL    HW238337   4.502   4.243   2.979 -1.6567  1.7624  0.8999
 8960SOL     OW38338   0.512   2.627   9.540 -0.0875  0.5852  0.3318
 8960SOL    HW138339   0.573   2.680   9.592  0.0262 -0.5370  1.3548
 8960SOL    HW238340   0.509   2.671   9.456 -1.2629  0.0820  0.1124
 8961SOL     OW38341   2.543   3.426  13.936 -0.2384  0.5004  0.3436
 8961SOL    HW138342   2.570   3.339  13.907 -0.3011  1.5366 -2.8873
 8961SOL    HW238343   2.627   3.455  13.972  0.6791 -1.2129 -0.4742
 8962SOL     OW38344   2.748   1.450   2.818 -0.0362 -0.8693  0.2184
 8962SOL    HW138345   2.682   1.494   2.873 -0.8900  0.5349 -1.9406
 8962SOL    HW238346   2.684   1.404   2.764  0.3177 -3.0069  1.6449
 8963SOL     OW38347   0.812   3.663   6.394 -0.0941  0.1708  0.3680
 8963SOL    HW138348   0.765   3.591   6.436 -2.1781 -0.4167 -3.0078
 8963SOL    HW238349   0.794   3.739   6.449 -0.1096 -0.5515  1.3613
 8964SOL     OW38350   3.992   1.980  12.683 -0.0994 -0.2186 -0.6069
 8964SOL    HW138351   4.036   1.914  12.631 -0.7432 -0.7162 -0.5200
 8964SOL    HW238352   3.942   1.922  12.740 -2.0597 -0.6651 -2.8160
 8965SOL     OW38353   1.244   4.233   1.032 -0.2357 -0.4486  0.4534
 8965SOL    HW138354   1.260   4.250   1.125 -1.4480  0.7033  0.4567
 8965SOL    HW238355   1.336   4.248   1.009  0.0761  0.2597  2.1068
 8966SOL     OW38356   0.226   2.938   2.423  0.7399 -0.1954 -0.0326
 8966SOL    HW138357   0.160   2.879   2.460  1.6691 -0.7018  0.8113
 8966SOL    HW238358   0.278   2.886   2.362  3.6199  1.4239  1.0874
 8967SOL     OW38359   4.586   1.001   3.879  0.4566  0.0417 -0.0589
 8967SOL    HW138360   4.682   1.000   3.878  0.4295 -1.7288 -0.9577
 8967SOL    HW238361   4.568   0.908   3.866  1.5326 -0.1616 -0.0817
 8968SOL     OW38362   1.732   4.139   7.692  0.2571  0.5456 -0.6353
 8968SOL    HW138363   1.700   4.140   7.603 -0.5735 -2.7207 -0.3586
 8968SOL    HW238364   1.784   4.059   7.686 -0.8205 -0.3017  1.1154
 8969SOL     OW38365   4.514   2.878   8.373  0.2372  0.1578  0.0702
 8969SOL    HW138366   4.497   2.806   8.435  0.9740 -1.3591 -1.4954
 8969SOL    HW238367   4.535   2.945   8.438  1.5986  1.3657 -1.6382
 8970SOL     OW38368   3.082   1.319   2.416 -0.4792 -0.0769  0.3796
 8970SOL    HW138369   3.052   1.240   2.372 -0.9850 -0.8725  2.1630
 8970SOL    HW238370   3.048   1.314   2.505 -0.8345  0.7852  0.2940
 8971SOL     OW38371   2.553   2.646   8.855 -0.1243 -0.1218  0.8223
 8971SOL    HW138372   2.606   2.709   8.903  0.2054 -1.0279  1.6500
 8971SOL    HW238373   2.611   2.627   8.781  1.4138  2.4413  1.3446
 8972SOL     OW38374   2.895   0.847   6.055 -0.1581 -0.2251 -0.6806
 8972SOL    HW138375   2.805   0.878   6.042 -0.0092  0.4159 -0.1796
 8972SOL    HW238376   2.949   0.899   5.996 -2.0939  1.4964 -0.9533
 8973SOL     OW38377   1.007   4.196   3.279 -0.0027 -0.0036 -0.1799
 8973SOL    HW138378   0.975   4.286   3.285  0.2185  0.1395 -1.1302
 8973SOL    HW238379   0.946   4.180   3.208  0.7799  0.3208 -0.9183
 8974SOL     OW38380   0.160   0.990   8.129  0.5144  0.1686  0.5591
 8974SOL    HW138381   0.082   0.937   8.144  1.4940 -0.7886  2.2510
 8974SOL    HW238382   0.153   1.051   8.203  0.5376  0.4497  0.3278
 8975SOL     OW38383   1.634   2.486   6.215 -0.1725 -0.7756  0.2945
 8975SOL    HW138384   1.670   2.519   6.297  0.4724 -2.5107  0.7209
 8975SOL    HW238385   1.704   2.428   6.183  3.0342  3.5104 -0.3662
 8976SOL     OW38386   0.067   1.083   6.901 -0.1668  0.3656 -0.3497
 8976SOL    HW138387   0.107   1.169   6.895  0.0606  0.2117 -1.0662
 8976SOL    HW238388   4.708   1.121   6.869 -1.8136 -2.6140  0.2701
 8977SOL     OW38389   2.116   2.357  15.590 -0.7158 -0.5009  0.3562
 8977SOL    HW138390   2.186   2.324  15.646  1.1165  0.3601 -1.4116
 8977SOL    HW238391   2.145   2.322  15.505 -1.4576 -0.3590  0.0389
 8978SOL     OW38392   4.311   4.535  10.119 -0.1075 -0.0236 -0.1130
 8978SOL    HW138393   4.230   4.496  10.153  0.2553  0.5541  1.4218
 8978SOL    HW238394   4.306   4.525  10.024 -3.2317 -1.4013  0.1894
 8979SOL     OW38395   2.204   1.968   4.640 -0.2572  0.4150 -0.1117
 8979SOL    HW138396   2.231   1.880   4.614  0.9352  0.1738  1.9669
 8979SOL    HW238397   2.282   2.013   4.608 -0.4816  2.2514  1.9273
 8980SOL     OW38398   2.908   0.991  14.834 -0.3529 -0.5015  0.1880
 8980SOL    HW138399   2.855   1.066  14.860 -2.6411 -1.7086 -0.9229
 8980SOL    HW238400   2.995   1.027  14.848  0.7566 -3.0062 -0.1659
 8981SOL     OW38401   3.009   4.080   6.774 -0.1425  0.2349  0.2423
 8981SOL    HW138402   3.009   4.175   6.778  0.1188  0.2361  0.1982
 8981SOL    HW238403   2.982   4.082   6.682 -3.5528 -2.3072  1.1696
 8982SOL     OW38404   4.548   4.193  12.109 -0.3808  0.5078  0.1172
 8982SOL    HW138405   4.559   4.215  12.201 -2.0688  0.6560  0.2778
 8982SOL    HW238406   4.544   4.098  12.119 -0.7365  0.4873 -0.2135
 8983SOL     OW38407   1.003   1.576  12.478  0.0297  0.2388  0.5862
 8983SOL    HW138408   1.080   1.632  12.485 -0.0841  0.3446  1.0260
 8983SOL    HW238409   1.044   1.490  12.476  1.6379  1.1086 -2.9302
 8984SOL     OW38410   2.801   2.025   5.136 -0.2592  0.8900  0.2939
 8984SOL    HW138411   2.852   1.970   5.076 -1.4675 -1.2257  1.2041
 8984SOL    HW238412   2.724   2.050   5.085 -0.5749  1.1536  0.8954
 8985SOL     OW38413   4.614   4.658  12.581  0.3112  0.2886 -0.1154
 8985SOL    HW138414   4.601   4.571  12.543 -0.8932  0.2066  0.4943
 8985SOL    HW238415   4.525   4.682  12.607  0.7435 -0.3760  1.9656
 8986SOL     OW38416   1.499   1.028   2.366 -0.0615  0.3547 -0.2120
 8986SOL    HW138417   1.516   0.943   2.407 -1.1898  1.1520  1.9494
 8986SOL    HW238418   1.420   0.992   2.325  1.3926  0.1148 -2.7415
 8987SOL     OW38419   4.059   1.220   2.525 -0.2288 -0.0406 -0.3927
 8987SOL    HW138420   3.996   1.204   2.454 -2.8487  1.6136  1.5727
 8987SOL    HW238421   4.114   1.289   2.488  0.7500 -0.4252  0.3605
 8988SOL     OW38422   1.574   3.274  12.356  0.8584  0.0297 -0.6418
 8988SOL    HW138423   1.656   3.296  12.312  0.0661 -0.3759 -2.3348
 8988SOL    HW238424   1.588   3.180  12.346 -3.4561 -0.5437 -1.4965
 8989SOL     OW38425   0.505   4.616   9.212 -0.8618  0.0254 -0.1272
 8989SOL    HW138426   0.586   4.603   9.261 -0.4679  4.1056  0.3586
 8989SOL    HW238427   0.456   4.674   9.270 -0.1255 -2.3526  2.8217
 8990SOL     OW38428   4.497   2.897   6.643 -0.2522  0.0605  0.0059
 8990SOL    HW138429   4.435   2.874   6.713  0.1210  3.2345  1.4041
 8990SOL    HW238430   4.561   2.828   6.656  0.4782  0.3639 -2.0054
 8991SOL     OW38431   2.678   2.571   8.144 -0.0715 -0.3594 -0.8494
 8991SOL    HW138432   2.692   2.534   8.057  2.5309 -0.0410 -0.5681
 8991SOL    HW238433   2.765   2.566   8.184 -0.3442  3.3351  0.2492
 8992SOL     OW38434   0.950   4.508   3.559 -0.5469 -0.0924  0.5713
 8992SOL    HW138435   0.958   4.453   3.637 -0.7882  0.8655  1.2652
 8992SOL    HW238436   0.888   4.459   3.504  0.5810 -1.4295  0.4790
 8993SOL     OW38437   1.886   4.632   1.970 -0.0451  0.5348 -0.2336
 8993SOL    HW138438   1.909   4.600   2.057  0.6153  1.4698 -0.0698
 8993SOL    HW238439   1.792   4.625   1.985 -0.0241  1.5433  0.3144
 8994SOL     OW38440   3.478   3.918   2.336  0.4104 -0.0064 -0.0849
 8994SOL    HW138441   3.515   4.006   2.331  1.3263 -0.4357 -0.8451
 8994SOL    HW238442   3.480   3.908   2.431 -0.9710  0.3503 -0.0127
 8995SOL     OW38443   3.892   3.555  12.669  0.4674  0.3468  0.6948
 8995SOL    HW138444   3.948   3.484  12.701  1.1828  1.5794  2.1615
 8995SOL    HW238445   3.893   3.545  12.573  1.2611  1.3551  0.5981
 8996SOL     OW38446   2.712   4.393   3.811  0.0797 -0.5139  0.1638
 8996SOL    HW138447   2.662   4.474   3.818 -1.3764 -1.0588 -3.6467
 8996SOL    HW238448   2.668   4.359   3.733 -2.5054  0.4651  1.1881
 8997SOL     OW38449   0.816   3.035  11.107 -0.1747  0.1963  0.3725
 8997SOL    HW138450   0.830   2.941  11.110  0.7160  0.3486  1.0694
 8997SOL    HW238451   0.858   3.044  11.021 -0.3986  0.0571  0.2499
 8998SOL     OW38452   0.120   0.893  12.874 -0.1563  0.3721  0.1114
 8998SOL    HW138453   0.172   0.971  12.855  2.0171 -0.9936  0.3206
 8998SOL    HW238454   0.125   0.899  12.970 -0.3160  0.6627  0.1006
 8999SOL     OW38455   4.232   1.438   3.637 -0.2117 -0.1553 -0.2204
 8999SOL    HW138456   4.280   1.367   3.680 -0.0035 -0.9964 -1.8193
 8999SOL    HW238457   4.298   1.475   3.579  1.4180  0.0838  1.8026
 9000SOL     OW38458   4.065   2.953   3.534 -0.5008 -0.3234  0.1773
 9000SOL    HW138459   4.140   3.011   3.517  1.0981 -2.6266 -0.6206
 9000SOL    HW238460   4.004   3.026   3.548  0.2238  0.2885  0.1680
 9001SOL     OW38461   4.223   2.711   5.892  0.2729 -0.0250 -0.4849
 9001SOL    HW138462   4.266   2.626   5.905 -0.9578 -0.6513 -0.5641
 9001SOL    HW238463   4.236   2.753   5.977 -0.7643  0.4506 -0.5611
 9002SOL     OW38464   1.479   4.606   9.581 -0.3004  0.0552  0.2230
 9002SOL    HW138465   1.496   4.686   9.531  2.7051 -0.6358  0.1350
 9002SOL    HW238466   1.386   4.601   9.562 -0.3412 -0.5380  0.5789
 9003SOL     OW38467   1.999   0.011  11.428  0.1614 -0.3389 -0.2793
 9003SOL    HW138468   1.977   0.100  11.400  2.6218  0.4685  0.3515
 9003SOL    HW238469   2.076   0.027  11.484 -0.1418  1.1958 -0.2942
 9004SOL     OW38470   4.576   0.856   0.538 -0.1625  0.0960 -0.1157
 9004SOL    HW138471   4.600   0.801   0.613  1.9522  0.6046 -0.4273
 9004SOL    HW238472   4.598   0.940   0.578  0.6256 -0.9342  1.6363
 9005SOL     OW38473   0.258   3.944   7.568 -0.1316  0.3399  0.0825
 9005SOL    HW138474   0.295   3.962   7.481  1.4375 -1.7056  0.3545
 9005SOL    HW238475   0.291   4.024   7.609 -0.9991  1.4792 -1.4415
 9006SOL     OW38476   4.312   0.549   7.334 -0.2792  0.1918 -0.3683
 9006SOL    HW138477   4.233   0.533   7.386  1.0006 -3.1822  0.5808
 9006SOL    HW238478   4.357   0.464   7.334  0.0779  0.3799  0.9699
 9007SOL     OW38479   2.091   4.290   5.260 -0.6917  0.1184 -0.5359
 9007SOL    HW138480   2.055   4.234   5.329 -1.2678 -0.4713 -1.3157
 9007SOL    HW238481   2.124   4.215   5.211  0.7017  0.5945 -0.3242
 9008SOL     OW38482   4.505   0.469   2.344 -0.6374 -0.5902  0.4339
 9008SOL    HW138483   4.444   0.500   2.276  0.2393  0.6895  0.2331
 9008SOL    HW238484   4.457   0.399   2.387  0.9110 -0.2266  2.7150
 9009SOL     OW38485   1.559   4.588  12.072 -0.0070 -0.2544  0.5371
 9009SOL    HW138486   1.569   4.542  11.988  1.3519  0.0430  0.5426
 9009SOL    HW238487   1.546   4.678  12.041 -1.4786 -1.3383 -2.0111
 9010SOL     OW38488   4.114   1.148   4.824 -0.8225 -0.4421 -0.0666
 9010SOL    HW138489   4.089   1.149   4.732  0.4916 -0.6008 -0.4304
 9010SOL    HW238490   4.199   1.192   4.816 -1.7503  1.0364 -1.8975
 9011SOL     OW38491   4.260   0.237   6.442  0.1108  0.1416  0.4391
 9011SOL    HW138492   4.199   0.305   6.415 -0.8992 -1.4745 -1.3217
 9011SOL    HW238493   4.250   0.183   6.364  2.8104  0.4206 -0.0846
 9012SOL     OW38494   1.403   3.524   3.216 -0.8989 -0.0084 -0.8244
 9012SOL    HW138495   1.463   3.508   3.143 -0.0263 -1.0147  0.1238
 9012SOL    HW238496   1.381   3.617   3.204  1.6862  1.0465  2.6959
 9013SOL     OW38497   1.986   0.041  17.512 -0.0975  0.1697 -0.4941
 9013SOL    HW138498   1.926   0.115  17.523 -0.7147 -0.5758  1.1472
 9013SOL    HW238499   2.042   0.072  17.441  0.2646 -1.1227 -0.7736
 9014SOL     OW38500   4.658   0.268  17.201 -0.2803 -0.3413 -0.4650
 9014SOL    HW138501   4.661   0.312  17.116  1.3236 -2.0024 -1.2450
 9014SOL    HW238502   0.026   0.254  17.224 -0.4513 -1.9469 -0.8045
 9015SOL     OW38503   3.733   3.357  10.573  0.1968 -0.1956  0.1319
 9015SOL    HW138504   3.737   3.450  10.594 -0.7680  0.3285 -1.9769
 9015SOL    HW238505   3.652   3.327  10.614  0.0845 -2.6124 -1.8916
 9016SOL     OW38506   2.514   0.492  17.500  0.1218  0.2005 -0.7664
 9016SOL    HW138507   2.466   0.513  17.580 -1.0179  0.6264 -1.5482
 9016SOL    HW238508   2.571   0.568  17.495 -0.4942  0.4713 -3.7659
 9017SOL     OW38509   0.725   4.644   1.262  0.4773 -0.1622 -0.0242
 9017SOL    HW138510   0.804   4.598   1.288  1.6569  0.4971 -2.4264
 9017SOL    HW238511   0.725   4.717   1.323 -0.9012 -0.3795  0.2367
 9018SOL     OW38512   3.466   0.806  13.306 -0.4107  0.4405  0.0071
 9018SOL    HW138513   3.485   0.820  13.399  1.3696 -0.1242 -0.2843
 9018SOL    HW238514   3.389   0.864  13.301 -0.1171  0.9215  0.9219
 9019SOL     OW38515   1.836   3.472   6.682  0.5334 -0.3633 -0.0163
 9019SOL    HW138516   1.762   3.532   6.693  1.4576  0.6792  0.4877
 9019SOL    HW238517   1.802   3.386   6.707  2.0820 -0.9141  0.2205
 9020SOL     OW38518   1.732   0.885  13.748  0.1753  0.3686 -0.4797
 9020SOL    HW138519   1.764   0.968  13.713 -1.0634  0.9387 -0.2661
 9020SOL    HW238520   1.802   0.866  13.811 -1.5850 -2.3845  0.6055
 9021SOL     OW38521   3.183   3.120  10.817  0.1837 -0.0989 -0.9327
 9021SOL    HW138522   3.272   3.155  10.808 -0.1972  1.0678 -0.0856
 9021SOL    HW238523   3.198   3.059  10.889  0.7462  1.3344  0.1635
 9022SOL     OW38524   3.286   4.261   9.873  0.5162  0.6516 -0.1072
 9022SOL    HW138525   3.227   4.241   9.801 -0.3285  1.1500  0.4502
 9022SOL    HW238526   3.323   4.340   9.835  0.4617  0.5395 -0.3893
 9023SOL     OW38527   2.448   1.474   2.327  0.2065  0.1753  0.0857
 9023SOL    HW138528   2.356   1.490   2.347 -0.3910 -1.4817 -1.3950
 9023SOL    HW238529   2.485   1.453   2.412  2.3438 -0.2132 -0.9265
 9024SOL     OW38530   4.237   3.565   7.817 -0.4085  0.1115 -0.1385
 9024SOL    HW138531   4.322   3.535   7.786 -0.8463 -0.7704 -0.4935
 9024SOL    HW238532   4.204   3.490   7.866  0.5281 -1.8391 -2.5236
 9025SOL     OW38533   2.192   3.365   3.452 -0.2707 -0.2711  0.0233
 9025SOL    HW138534   2.255   3.362   3.524 -0.4036 -2.2836  0.0571
 9025SOL    HW238535   2.240   3.334   3.374 -0.0875  1.6567 -0.6282
 9026SOL     OW38536   0.261   2.512  17.105  0.1590  0.1637 -0.2908
 9026SOL    HW138537   0.355   2.527  17.116  0.4563 -2.5732  0.9770
 9026SOL    HW238538   0.234   2.515  17.197 -3.1767 -0.7863 -1.2446
 9027SOL     OW38539   1.989   0.975  16.505  0.0221 -0.5920 -0.5621
 9027SOL    HW138540   2.024   0.887  16.520  0.6566 -0.1633  0.4781
 9027SOL    HW238541   1.969   1.000  16.596  0.5153 -1.1551 -0.2971
 9028SOL     OW38542   1.891   3.711   5.147  0.5979 -0.3451  0.4132
 9028SOL    HW138543   1.951   3.645   5.112  0.5048  0.8451 -2.0150
 9028SOL    HW238544   1.901   3.712   5.242  0.4561  0.4634  0.4149
 9029SOL     OW38545   1.153   2.676   8.663 -0.3384 -0.1435 -0.0909
 9029SOL    HW138546   1.206   2.653   8.586  1.5068 -0.5497  1.3147
 9029SOL    HW238547   1.198   2.619   8.726 -0.9119 -1.1180 -0.5633
 9030SOL     OW38548   0.145   4.212  10.351 -0.0036  0.1694 -0.0885
 9030SOL    HW138549   0.139   4.117  10.365  1.1941 -0.0982 -1.4735
 9030SOL    HW238550   0.053   4.236  10.362  0.4250  1.4335  0.7357
 9031SOL     OW38551   4.535   0.467   5.059  0.4614 -0.3554 -0.0290
 9031SOL    HW138552   4.472   0.484   4.990 -0.3938 -0.1237  0.8136
 9031SOL    HW238553   4.604   0.530   5.035  0.3247 -0.0631  0.3450
 9032SOL     OW38554   3.024   4.442   1.672 -0.7081 -0.1723 -0.3135
 9032SOL    HW138555   3.025   4.347   1.677 -1.5986 -0.1314  0.8053
 9032SOL    HW238556   2.935   4.467   1.698 -1.1900 -1.6756 -0.5548
 9033SOL     OW38557   1.504   1.673   4.064 -0.1835  0.5526  0.1057
 9033SOL    HW138558   1.539   1.679   4.153  2.0336 -2.2090 -0.5677
 9033SOL    HW238559   1.409   1.684   4.065 -0.1157  1.2467 -0.7900
 9034SOL     OW38560   0.274   0.577   2.300  1.1396 -0.3760 -0.5512
 9034SOL    HW138561   0.328   0.502   2.325  1.3807  0.6779  2.0736
 9034SOL    HW238562   0.189   0.535   2.290  0.0240  1.3680  1.5713
 9035SOL     OW38563   2.467   0.531   5.723  0.6462 -0.5179 -0.2137
 9035SOL    HW138564   2.540   0.503   5.778 -0.7266 -1.8617  0.9201
 9035SOL    HW238565   2.494   0.550   5.633 -0.3541 -1.1997 -0.6628
 9036SOL     OW38566   1.320   3.928  12.475 -0.2874  0.3294 -0.1406
 9036SOL    HW138567   1.341   4.012  12.515  0.2280  0.7360 -1.2731
 9036SOL    HW238568   1.408   3.897  12.452 -1.6191 -1.8975 -2.2237
 9037SOL     OW38569   4.177   1.119   8.777 -0.1328  0.0657 -0.0756
 9037SOL    HW138570   4.191   1.149   8.866 -1.4438 -0.9752  0.4903
 9037SOL    HW238571   4.225   1.185   8.727 -0.2330  0.1597 -0.0472
 9038SOL     OW38572   4.026   1.475   8.698  0.0256 -0.9292 -0.1111
 9038SOL    HW138573   3.949   1.529   8.711  1.6864  1.5873 -0.6373
 9038SOL    HW238574   3.988   1.390   8.720  0.4629 -0.9996  0.3862
 9039SOL     OW38575   3.031   1.107   1.925  0.4979  0.0003 -0.2101
 9039SOL    HW138576   3.108   1.162   1.911  0.4153  0.3505  0.7143
 9039SOL    HW238577   2.983   1.132   1.846  0.3265  0.0879 -0.0774
 9040SOL     OW38578   0.513   2.799   7.723  0.6519  0.1033 -0.1046
 9040SOL    HW138579   0.607   2.793   7.743  0.5771 -1.6223 -0.2462
 9040SOL    HW238580   0.497   2.704   7.716 -0.0019  0.1511  0.7643
 9041SOL     OW38581   3.062   4.374   5.438 -0.3473  0.1506  0.0712
 9041SOL    HW138582   3.086   4.289   5.401  2.7897  0.8375  0.5244
 9041SOL    HW238583   3.061   4.422   5.355 -1.8584 -2.3610 -1.3655
 9042SOL     OW38584   1.019   1.051   6.182  0.1940  0.4740 -0.0169
 9042SOL    HW138585   1.105   1.029   6.216 -0.4191 -0.9975  0.5801
 9042SOL    HW238586   1.037   1.096   6.099 -0.5101  3.3745  1.4097
 9043SOL     OW38587   3.159   0.697   3.832 -0.2541  0.4690 -0.5222
 9043SOL    HW138588   3.132   0.678   3.742 -2.3376 -0.2157  0.2405
 9043SOL    HW238589   3.231   0.638   3.851 -0.8446 -0.5107 -1.3220
 9044SOL     OW38590   0.411   1.099  11.569 -0.1767 -0.0814  0.2705
 9044SOL    HW138591   0.427   1.016  11.526 -1.7541  0.3156 -1.1016
 9044SOL    HW238592   0.364   1.132  11.492 -2.2260 -1.5116  0.9179
 9045SOL     OW38593   4.536   2.447   4.503 -0.0934 -0.3931  0.0810
 9045SOL    HW138594   4.615   2.451   4.449 -0.5745 -0.1997 -0.5987
 9045SOL    HW238595   4.555   2.502   4.579  1.0948 -1.6178  0.6797
 9046SOL     OW38596   1.637   1.693   8.602 -0.3948  0.0630  0.3313
 9046SOL    HW138597   1.651   1.762   8.666 -1.7200 -0.6259  1.3739
 9046SOL    HW238598   1.693   1.622   8.634  1.5808  1.0336 -0.9672
 9047SOL     OW38599   3.555   2.191  15.989 -0.1388 -0.0632  0.3104
 9047SOL    HW138600   3.518   2.261  15.935 -0.8821 -0.7593 -0.0692
 9047SOL    HW238601   3.586   2.144  15.912  2.8036  0.8538  0.9278
 9048SOL     OW38602   0.245   3.739   6.764 -0.3173  0.2751  0.1370
 9048SOL    HW138603   0.336   3.738   6.794  0.1099 -1.8901 -1.2019
 9048SOL    HW238604   0.252   3.815   6.706 -0.3446 -0.8787 -1.3800
 9049SOL     OW38605   0.831   4.047  14.998  0.3077 -0.0021 -0.1501
 9049SOL    HW138606   0.885   4.127  15.000  0.3377 -0.0448  1.0155
 9049SOL    HW238607   0.894   3.986  14.961 -0.0008 -1.1805  1.2598
 9050SOL     OW38608   3.378   4.295  13.596  0.0701 -0.1042  0.3632
 9050SOL    HW138609   3.450   4.282  13.535  1.3205  0.2099  1.7634
 9050SOL    HW238610   3.339   4.208  13.593 -0.1535  0.0351 -0.6242
 9051SOL     OW38611   2.317   3.288   8.890 -1.0861 -0.4595 -0.4760
 9051SOL    HW138612   2.347   3.256   8.975 -3.5266 -0.8123  0.2360
 9051SOL    HW238613   2.261   3.356   8.928  0.6501  0.5951  0.2226
 9052SOL     OW38614   3.403   3.725   1.855  0.6481  0.7505 -0.3464
 9052SOL    HW138615   3.407   3.684   1.942  3.1651 -2.2766 -1.8679
 9052SOL    HW238616   3.431   3.660   1.790 -2.1637 -0.3886 -0.4198
 9053SOL     OW38617   0.395   2.557   2.132 -0.2881 -0.5250  0.2530
 9053SOL    HW138618   0.317   2.589   2.087 -1.2933 -0.4103  2.0928
 9053SOL    HW238619   0.399   2.466   2.103  1.1205 -0.1395 -0.7731
 9054SOL     OW38620   0.848   4.131  11.494 -0.7216  0.0269 -0.2637
 9054SOL    HW138621   0.801   4.047  11.500 -1.3023  0.4050  0.4337
 9054SOL    HW238622   0.860   4.155  11.585 -0.4396  1.3276 -0.6515
 9055SOL     OW38623   3.418   0.819   1.599  0.1318 -1.0354 -0.4398
 9055SOL    HW138624   3.424   0.771   1.517  0.3924  0.0269 -1.0503
 9055SOL    HW238625   3.508   0.807   1.629  1.0286  0.3130 -2.5860
 9056SOL     OW38626   2.583   1.415   1.928  0.3575 -0.0274  0.4257
 9056SOL    HW138627   2.591   1.439   1.835  0.8513 -1.6741  0.0467
 9056SOL    HW238628   2.561   1.322   1.923  1.4524 -0.3922  2.6926
 9057SOL     OW38629   1.110   4.077  11.824 -0.3920  0.4878 -0.0069
 9057SOL    HW138630   1.016   4.093  11.817 -0.0308  2.0657 -1.3196
 9057SOL    HW238631   1.148   4.161  11.798 -0.7556  1.5013  2.8225
 9058SOL     OW38632   0.878   0.849   6.576 -0.3741 -0.2136 -0.0070
 9058SOL    HW138633   0.814   0.920   6.568  0.5112  0.3848 -1.7249
 9058SOL    HW238634   0.898   0.851   6.670 -1.7401 -0.3025  0.2797
 9059SOL     OW38635   3.866   4.014  13.622  0.0893 -0.5796  0.2595
 9059SOL    HW138636   3.892   4.052  13.538 -0.8267  0.7389  0.5864
 9059SOL    HW238637   3.804   4.079  13.655  1.4702  0.8675  0.0244
 9060SOL     OW38638   1.791   4.549   1.719 -0.1669 -0.2354  0.6019
 9060SOL    HW138639   1.744   4.624   1.681  1.2721  0.8093  0.8799
 9060SOL    HW238640   1.864   4.583   1.772 -1.7766  0.9174  2.0723
 9061SOL     OW38641   4.082   1.295   1.933  0.1280 -0.5441 -0.4739
 9061SOL    HW138642   4.094   1.371   1.990  2.2093 -1.7522  0.7056
 9061SOL    HW238643   3.992   1.269   1.955 -0.1077  0.4257 -0.2857
 9062SOL     OW38644   1.024   2.862  10.445  0.2688 -0.6583 -0.2701
 9062SOL    HW138645   1.010   2.895  10.533 -0.2396  0.6123 -0.8269
 9062SOL    HW238646   0.993   2.940  10.399 -2.2727 -0.6207  1.5702
 9063SOL     OW38647   1.292   3.801   9.772 -0.1185 -0.1524 -0.1005
 9063SOL    HW138648   1.201   3.831   9.782 -0.5123 -1.2590 -0.3931
 9063SOL    HW238649   1.337   3.859   9.834 -0.3872 -0.0858  0.0385
 9064SOL     OW38650   2.600   4.107   3.781  0.1166  0.4735  0.2020
 9064SOL    HW138651   2.601   4.013   3.800  2.8475  0.2099 -1.2750
 9064SOL    HW238652   2.685   4.129   3.818  1.5514 -0.4270 -2.5397
 9065SOL     OW38653   1.864   1.988   3.183  0.7230 -0.2342  0.0578
 9065SOL    HW138654   1.815   2.053   3.232 -1.2801  0.7145 -3.1747
 9065SOL    HW238655   1.916   1.946   3.252  3.4640  0.4601 -1.5502
 9066SOL     OW38656   1.993   0.740   4.797 -0.1271  0.0522 -0.3126
 9066SOL    HW138657   2.027   0.697   4.875 -0.3963 -1.8532 -1.2429
 9066SOL    HW238658   2.013   0.672   4.733  1.1318 -0.2797  0.4362
 9067SOL     OW38659   1.229   1.257  13.365 -0.0429  0.2488 -0.5720
 9067SOL    HW138660   1.318   1.274  13.332 -0.1689 -0.2243 -1.1555
 9067SOL    HW238661   1.176   1.269  13.286 -3.7273  0.9794  2.0588
 9068SOL     OW38662   2.072   1.970  10.965 -0.1413 -0.3602 -0.1865
 9068SOL    HW138663   2.160   1.994  10.935  0.5905  0.4688  2.6400
 9068SOL    HW238664   2.038   2.056  10.991 -1.6654 -1.3833  1.2301
 9069SOL     OW38665   1.883   2.710   3.613 -0.1705 -0.2090  0.7355
 9069SOL    HW138666   1.853   2.627   3.576 -2.0747  1.6236 -1.7960
 9069SOL    HW238667   1.858   2.784   3.558  1.9396  0.1755  0.2950
 9070SOL     OW38668   0.426   3.085   2.579 -0.1103  0.5308  0.1452
 9070SOL    HW138669   0.367   3.034   2.524 -1.1156  0.8038  0.9564
 9070SOL    HW238670   0.498   3.100   2.518 -1.2934  0.8103 -1.1814
 9071SOL     OW38671   0.791   1.732   1.589  0.2785  0.1640 -0.2324
 9071SOL    HW138672   0.817   1.647   1.625  2.1760  2.4030  3.6458
 9071SOL    HW238673   0.874   1.764   1.554  0.2526 -0.4289 -0.8272
 9072SOL     OW38674   1.614   2.908   2.285  0.2819 -0.0887 -0.2684
 9072SOL    HW138675   1.664   2.971   2.337 -0.0773 -0.4908  0.5598
 9072SOL    HW238676   1.663   2.826   2.292  0.5144  0.2010  1.5279
 9073SOL     OW38677   1.564   2.656  10.867 -0.1367  0.5775  0.4161
 9073SOL    HW138678   1.659   2.666  10.863 -0.2302  0.8550 -1.1830
 9073SOL    HW238679   1.530   2.737  10.830  1.4626  0.9896 -0.1649
 9074SOL     OW38680   3.374   0.481   1.704  0.0597 -0.1409  0.3544
 9074SOL    HW138681   3.446   0.428   1.740 -0.1311 -0.7740 -0.1840
 9074SOL    HW238682   3.418   0.500   1.621 -0.6632  3.3898  0.7933
 9075SOL     OW38683   2.870   3.478   6.338 -0.2635 -0.1869 -0.4040
 9075SOL    HW138684   2.850   3.443   6.424  0.4201  0.3221 -0.0321
 9075SOL    HW238685   2.930   3.549   6.360  1.1563 -0.4700 -3.2122
 9076SOL     OW38686   0.299   0.424  11.012  0.2644 -0.0355 -0.3007
 9076SOL    HW138687   0.218   0.392  10.973 -1.5725  3.7105  0.4616
 9076SOL    HW238688   0.368   0.398  10.951 -1.0798  1.1838 -2.3679
 9077SOL     OW38689   1.902   4.110  10.282  0.6372  0.2870  0.5623
 9077SOL    HW138690   1.939   4.138  10.199  1.2868  1.1083  1.1231
 9077SOL    HW238691   1.884   4.185  10.338 -1.8007  0.0826  0.0286
 9078SOL     OW38692   3.548   0.010   4.638  1.1116 -0.0822 -0.0098
 9078SOL    HW138693   3.607   4.658   4.648  1.4073 -0.1100 -1.8799
 9078SOL    HW238694   3.611   0.082   4.633  0.9781  0.1689  2.0442
 9079SOL     OW38695   1.412   1.924   9.693 -0.4295  0.3087  0.4883
 9079SOL    HW138696   1.418   1.888   9.782  0.9785 -0.3155  0.1350
 9079SOL    HW238697   1.506   1.927   9.679 -0.4049 -3.8111 -0.3290
 9080SOL     OW38698   3.069   2.620  15.081  0.1134  0.1416 -0.1181
 9080SOL    HW138699   3.158   2.634  15.113  0.6825 -1.5148 -0.9988
 9080SOL    HW238700   3.074   2.638  14.987  1.0670 -3.3728 -0.7502
 9081SOL     OW38701   3.698   0.356   7.146 -0.2270 -0.0193 -0.8444
 9081SOL    HW138702   3.651   0.288   7.097 -0.0042 -0.4942 -0.4028
 9081SOL    HW238703   3.624   0.417   7.152 -0.2363 -0.3841  2.8091
 9082SOL     OW38704   2.778   0.891   6.938  0.1616 -0.1593 -0.0065
 9082SOL    HW138705   2.789   0.906   6.844 -0.2284  0.2358  0.0115
 9082SOL    HW238706   2.733   0.972   6.962  0.5129  0.1832 -0.5066
 9083SOL     OW38707   2.639   2.703   6.310  0.7462 -0.2580 -0.2395
 9083SOL    HW138708   2.679   2.635   6.365 -0.8681 -2.3393 -1.6687
 9083SOL    HW238709   2.717   2.739   6.268  1.7569 -0.5855  1.3369
 9084SOL     OW38710   1.492   2.866   7.113 -0.3552 -0.2350  0.1593
 9084SOL    HW138711   1.498   2.906   7.200 -1.0133 -0.2442  0.2041
 9084SOL    HW238712   1.399   2.883   7.103 -0.0669 -0.6089 -2.8999
 9085SOL     OW38713   2.154   3.695   4.267 -0.5867  0.6439  0.5801
 9085SOL    HW138714   2.160   3.682   4.172 -1.1852 -1.0890  0.7908
 9085SOL    HW238715   2.110   3.613   4.288  0.9515 -0.1611  0.7310
 9086SOL     OW38716   0.155   0.541   8.552 -0.3463  0.2415  0.0866
 9086SOL    HW138717   0.184   0.584   8.472  0.4715 -0.4113  0.0322
 9086SOL    HW238718   0.242   0.523   8.587  0.2049  2.4727 -0.1197
 9087SOL     OW38719   3.459   2.410   5.794 -0.4377  0.1441 -0.1877
 9087SOL    HW138720   3.515   2.333   5.785 -0.4828  0.0515  0.3063
 9087SOL    HW238721   3.440   2.406   5.888 -0.2123  0.5396 -0.1274
 9088SOL     OW38722   3.848   2.994   0.813  0.1729 -0.5153 -0.0502
 9088SOL    HW138723   3.892   2.913   0.839  2.5881  1.2088  1.2921
 9088SOL    HW238724   3.920   3.042   0.772 -0.1757  1.7940  2.0286
 9089SOL     OW38725   1.473   3.189   8.516  0.5172 -0.6668  0.4615
 9089SOL    HW138726   1.550   3.236   8.546 -0.8797  0.3311  2.4316
 9089SOL    HW238727   1.401   3.241   8.551  0.3691  0.1953 -1.1056
 9090SOL     OW38728   1.802   1.816   2.649 -0.6146 -0.5509 -0.3623
 9090SOL    HW138729   1.833   1.906   2.646 -0.2030 -0.6679  0.2912
 9090SOL    HW238730   1.887   1.774   2.646  0.9176  2.6827 -1.7472
 9091SOL     OW38731   0.441   3.507  13.142  0.0891  0.0293 -0.1292
 9091SOL    HW138732   0.388   3.450  13.086  2.6559 -1.2135 -1.2678
 9091SOL    HW238733   0.444   3.581  13.082  1.3081 -0.4030 -0.5885
 9092SOL     OW38734   1.392   1.984  12.522 -0.2785 -0.0661 -0.0601
 9092SOL    HW138735   1.416   2.003  12.612  0.1604 -1.7644  0.1731
 9092SOL    HW238736   1.462   1.928  12.490  0.9954  2.0503 -0.9903
 9093SOL     OW38737   1.575   2.274   9.620  0.5746  0.5847 -0.1877
 9093SOL    HW138738   1.531   2.257   9.537 -1.5066  0.0061  1.0058
 9093SOL    HW238739   1.660   2.237   9.599  0.6528  0.2280  0.7276
 9094SOL     OW38740   2.770   0.397   0.651 -0.2322  0.0604  0.8322
 9094SOL    HW138741   2.695   0.344   0.680 -0.0468 -1.4625 -1.4511
 9094SOL    HW238742   2.794   0.445   0.731 -1.1375 -0.7454  1.5884
 9095SOL     OW38743   0.589   2.820   7.436  0.1605 -0.5941  0.3985
 9095SOL    HW138744   0.555   2.766   7.364 -0.3945  0.0763  0.1554
 9095SOL    HW238745   0.551   2.768   7.506 -0.9906  1.1836  1.0888
 9096SOL     OW38746   0.575   1.398   3.988  0.2281  0.5753 -0.2948
 9096SOL    HW138747   0.530   1.346   4.055 -1.4036  0.4836 -1.4357
 9096SOL    HW238748   0.666   1.373   4.004  0.1468 -0.0413 -0.8220
 9097SOL     OW38749   0.447   1.480   0.247  0.2021 -0.5437 -0.5195
 9097SOL    HW138750   0.488   1.563   0.272  0.5964 -0.9024 -0.0005
 9097SOL    HW238751   0.358   1.499   0.277  0.1287  1.2975 -1.8950
 9098SOL     OW38752   2.041   0.275   2.593 -0.5275 -0.3431 -0.2574
 9098SOL    HW138753   2.083   0.189   2.587  0.0945  0.0545 -1.5830
 9098SOL    HW238754   2.116   0.334   2.584  0.5098 -1.9185 -2.0509
 9099SOL     OW38755   3.103   3.407  14.939  0.9700 -0.0596  0.4157
 9099SOL    HW138756   3.145   3.344  14.997  1.2411 -3.3139 -3.3272
 9099SOL    HW238757   3.093   3.476  15.005 -0.1957  1.5759 -1.4503
 9100SOL     OW38758   0.927   0.862   9.941 -0.2283  0.0256  0.3002
 9100SOL    HW138759   0.897   0.899  10.023 -2.9683 -1.0297 -0.2312
 9100SOL    HW238760   0.999   0.816   9.984 -0.3163 -0.2280  0.1756
 9101SOL     OW38761   2.677   2.535  11.622  0.2155  0.2246  0.5299
 9101SOL    HW138762   2.696   2.609  11.679 -1.1971  0.6835  0.3924
 9101SOL    HW238763   2.764   2.509  11.591  0.4126  0.3352  0.9923
 9102SOL     OW38764   1.989   4.060   2.778 -0.1686 -0.0085  0.0032
 9102SOL    HW138765   2.073   4.093   2.747 -0.4537  0.5767 -0.1343
 9102SOL    HW238766   1.939   4.137   2.806 -1.3637 -0.8894  0.2920
 9103SOL     OW38767   2.822   1.183   7.543  0.0623  0.5034  0.3176
 9103SOL    HW138768   2.747   1.169   7.485  0.9099  1.8582 -1.1128
 9103SOL    HW238769   2.807   1.112   7.605  2.2504  0.0343  0.3273
 9104SOL     OW38770   1.859   4.059   6.670 -0.4933  0.2651  0.5649
 9104SOL    HW138771   1.816   4.130   6.623  0.9687  1.0160  0.3471
 9104SOL    HW238772   1.921   4.035   6.600 -0.8128  1.2368 -0.0616
 9105SOL     OW38773   2.211   2.931   2.303  0.2497 -0.7487  0.2278
 9105SOL    HW138774   2.193   3.025   2.307 -0.6418 -0.9397  0.7561
 9105SOL    HW238775   2.233   2.921   2.396  0.4711 -0.7458  0.1754
 9106SOL     OW38776   4.272   0.405  13.669  0.0128  0.3690 -0.2804
 9106SOL    HW138777   4.321   0.380  13.591 -0.2885 -0.1573 -0.3056
 9106SOL    HW238778   4.193   0.440  13.627 -0.3482 -0.9622 -0.7074
 9107SOL     OW38779   4.352   3.574   2.441  0.1369 -0.0438  1.0151
 9107SOL    HW138780   4.390   3.549   2.357 -0.8207 -2.5055  1.3062
 9107SOL    HW238781   4.316   3.655   2.404  2.1668 -0.5047 -1.9783
 9108SOL     OW38782   1.280   0.745   8.423 -0.1689  0.4699 -0.5495
 9108SOL    HW138783   1.229   0.686   8.367 -2.1775  1.6472  0.0612
 9108SOL    HW238784   1.213   0.780   8.482 -2.0017 -0.2309 -2.2317
 9109SOL     OW38785   2.178   2.580   8.460 -0.1530 -0.8730  1.0354
 9109SOL    HW138786   2.192   2.567   8.366 -1.2052 -1.1931  0.9188
 9109SOL    HW238787   2.249   2.643   8.472 -1.0641  0.4272 -0.2961
 9110SOL     OW38788   3.890   4.172   5.857 -0.1187 -0.4103 -0.0691
 9110SOL    HW138789   3.966   4.114   5.854 -0.2192 -0.6828  2.0297
 9110SOL    HW238790   3.838   4.129   5.926 -0.4774  1.6858  0.9723
 9111SOL     OW38791   4.490   0.118   4.549  0.2936  0.2653  0.0596
 9111SOL    HW138792   4.557   0.120   4.617 -0.9128  1.7331  1.1965
 9111SOL    HW238793   4.488   0.207   4.514 -1.3562  0.7728  1.4607
 9112SOL     OW38794   0.779   0.971   1.006  0.9673  0.2163  0.1530
 9112SOL    HW138795   0.760   1.056   1.046  3.0010  0.7826 -0.1015
 9112SOL    HW238796   0.738   0.905   1.063 -1.2339  0.1803 -1.4745
 9113SOL     OW38797   3.554   3.133   8.789  0.0502  0.0800  0.3389
 9113SOL    HW138798   3.537   3.068   8.857 -0.8104 -0.0126  0.0340
 9113SOL    HW238799   3.481   3.194   8.799  0.6526  0.8883 -0.2143
 9114SOL     OW38800   1.731   0.752   8.101 -0.0842 -0.1288  0.2793
 9114SOL    HW138801   1.826   0.743   8.100 -0.2937 -2.2833  2.1763
 9114SOL    HW238802   1.699   0.673   8.144  0.1788 -0.6063 -0.4043
 9115SOL     OW38803   1.713   1.760  17.558 -0.1567 -0.0251  0.0979
 9115SOL    HW138804   1.701   1.708  17.638 -0.2673  1.1791  0.8721
 9115SOL    HW238805   1.623   1.785  17.537  0.0181 -0.6314 -1.3812
 9116SOL     OW38806   0.929   0.497   2.892 -0.3951  0.0242  0.0031
 9116SOL    HW138807   0.954   0.404   2.896  0.0209  0.0799 -1.3272
 9116SOL    HW238808   1.000   0.546   2.851 -1.9751  0.6415 -1.9784
 9117SOL     OW38809   4.324   4.111   7.984 -0.4861 -0.1131 -0.1428
 9117SOL    HW138810   4.397   4.171   8.001  1.3749 -1.6592 -2.5163
 9117SOL    HW238811   4.370   4.027   7.990 -0.3561  0.0236  0.7700
 9118SOL     OW38812   3.726   2.224   6.649  0.0182 -0.2639  0.0270
 9118SOL    HW138813   3.712   2.141   6.695  2.1096 -2.3194 -3.0504
 9118SOL    HW238814   3.803   2.254   6.698 -1.9194  1.2276  2.1606
 9119SOL     OW38815   1.607   3.283   0.476  0.4493 -0.5389  0.3162
 9119SOL    HW138816   1.653   3.364   0.453 -0.7243  0.1899  0.5248
 9119SOL    HW238817   1.539   3.281   0.410  1.3311 -1.4259 -0.5577
 9120SOL     OW38818   0.981   2.258   2.274  0.2827 -0.1223  0.3042
 9120SOL    HW138819   1.073   2.230   2.271 -0.0579 -1.2088  0.2168
 9120SOL    HW238820   0.936   2.179   2.305  0.3891  0.4668  1.9592
 9121SOL     OW38821   4.719   3.705   7.781 -0.2782  0.0334 -0.5425
 9121SOL    HW138822   0.092   3.706   7.778 -0.2012 -2.6141  0.1315
 9121SOL    HW238823   4.714   3.661   7.866  0.2716  1.3238  0.1622
 9122SOL     OW38824   2.045   3.887  10.347 -0.0684  0.1007 -0.1076
 9122SOL    HW138825   1.974   3.948  10.325  0.4235  0.4676 -0.6541
 9122SOL    HW238826   2.091   3.859  10.269  4.1341 -1.3836  2.9145
 9123SOL     OW38827   3.119   2.079  10.229 -0.3858  0.6194  0.4410
 9123SOL    HW138828   3.158   1.991  10.231  0.1574  0.8116 -2.3240
 9123SOL    HW238829   3.030   2.052  10.253 -0.2068  0.5820  1.0618
 9124SOL     OW38830   2.103   2.921   9.917 -0.0977  0.1529 -0.4699
 9124SOL    HW138831   2.125   2.980   9.845  0.4341  1.3742  0.6937
 9124SOL    HW238832   2.187   2.879   9.934 -0.3335  0.0720  0.5098
 9125SOL     OW38833   3.662   3.965  11.368  0.1998 -0.3946  0.2192
 9125SOL    HW138834   3.599   4.010  11.424 -0.7462 -2.8855  1.1424
 9125SOL    HW238835   3.598   3.941  11.301  1.0818 -1.2371 -0.3295
 9126SOL     OW38836   0.149   0.153   0.724  0.0759  0.5864 -0.8844
 9126SOL    HW138837   0.238   0.124   0.748  0.0013  0.9549 -0.1462
 9126SOL    HW238838   0.133   0.086   0.658 -0.4278  1.1771 -1.3508
 9127SOL     OW38839   1.075   3.289  10.560 -0.1635 -0.2865 -0.6107
 9127SOL    HW138840   1.058   3.307  10.468 -3.6355  0.2261  0.1160
 9127SOL    HW238841   1.133   3.363  10.579 -1.1556 -0.4144  2.9571
 9128SOL     OW38842   4.102   0.110   2.257  0.0246 -0.3567 -0.1483
 9128SOL    HW138843   4.115   0.158   2.175  0.4478  0.1881  0.2383
 9128SOL    HW238844   4.043   0.172   2.300 -0.4577 -1.5349  0.8955
 9129SOL     OW38845   3.556   3.006  15.079  0.1639  0.5384 -0.1679
 9129SOL    HW138846   3.627   3.031  15.021  0.2749  0.2389 -0.1590
 9129SOL    HW238847   3.556   2.912  15.059 -1.3270  1.2393 -3.4800
 9130SOL     OW38848   3.929   3.511   8.132 -0.8749 -0.0573  0.6753
 9130SOL    HW138849   4.009   3.491   8.180 -2.0653 -1.8473  1.9145
 9130SOL    HW238850   3.894   3.428   8.101 -0.4895 -0.2591  0.7817
 9131SOL     OW38851   0.149   1.139   2.641  0.0197  0.5692 -0.0586
 9131SOL    HW138852   0.135   1.215   2.585 -1.0552  0.1749 -0.3281
 9131SOL    HW238853   0.232   1.106   2.607  1.0268  1.2494  1.6872
 9132SOL     OW38854   0.917   1.396  15.986 -0.3521  0.1233  0.5629
 9132SOL    HW138855   0.912   1.346  16.067  0.6921  0.3489  0.7787
 9132SOL    HW238856   1.010   1.420  15.989 -0.3274 -0.0875  1.4781
 9133SOL     OW38857   1.666   0.300   7.095  0.0749  0.0091  0.0691
 9133SOL    HW138858   1.617   0.333   7.171 -1.6425  3.3946 -2.5014
 9133SOL    HW238859   1.607   0.231   7.065  0.1949  0.0150 -0.1755
 9134SOL     OW38860   3.074   2.169   3.104  0.0057 -0.7069 -0.5676
 9134SOL    HW138861   3.138   2.191   3.172 -0.7467 -2.5585  0.7217
 9134SOL    HW238862   3.087   2.075   3.093  1.6279 -0.4516 -0.9093
 9135SOL     OW38863   3.752   4.407  12.120  0.2345 -0.1117  0.4803
 9135SOL    HW138864   3.787   4.357  12.047 -0.1521 -1.9795  1.5716
 9135SOL    HW238865   3.672   4.445  12.083  1.5193  1.8540 -0.2387
 9136SOL     OW38866   4.717   2.497  15.270 -0.0297  0.1210  0.3887
 9136SOL    HW138867   4.712   2.516  15.176  0.3177 -2.3688 -0.1168
 9136SOL    HW238868   0.028   2.408  15.270  1.1392  0.5597  1.7189
 9137SOL     OW38869   3.411   1.296  15.850  0.0593  0.1387  0.1906
 9137SOL    HW138870   3.488   1.274  15.797  0.7028  3.3708 -0.2133
 9137SOL    HW238871   3.436   1.385  15.874 -3.3807  0.9140  0.8966
 9138SOL     OW38872   4.707   2.292   3.554 -0.6786 -0.0235  0.3637
 9138SOL    HW138873   0.052   2.227   3.576  1.3155  1.4054 -1.5662
 9138SOL    HW238874   4.686   2.266   3.465 -0.7497 -1.0369  0.6715
 9139SOL     OW38875   2.212   4.124   5.083  0.1686 -0.2223  0.1479
 9139SOL    HW138876   2.278   4.166   5.028 -3.5546  5.3036 -0.1493
 9139SOL    HW238877   2.165   4.094   5.005  1.2006  0.3583 -0.7108
 9140SOL     OW38878   2.277   1.670   1.933 -0.2068  0.1477  0.0901
 9140SOL    HW138879   2.360   1.713   1.911  0.5557 -2.4293 -2.1340
 9140SOL    HW238880   2.282   1.661   2.028 -1.4309 -2.1287 -0.0639
 9141SOL     OW38881   4.478   0.576   8.520  0.0822 -0.0947  0.6011
 9141SOL    HW138882   4.493   0.534   8.604 -1.1951 -1.3961  0.1622
 9141SOL    HW238883   4.393   0.540   8.497 -1.0702  1.7264  1.9797
 9142SOL     OW38884   3.343   0.489   3.860  0.5305 -0.0154  0.3653
 9142SOL    HW138885   3.311   0.416   3.808 -0.5348  1.8902 -1.6501
 9142SOL    HW238886   3.418   0.446   3.900  0.4365  1.2501  1.9155
 9143SOL     OW38887   2.067   2.929   4.804  0.0501  0.0128 -0.4137
 9143SOL    HW138888   2.073   2.956   4.895  0.4151  0.9969 -0.7315
 9143SOL    HW238889   2.143   2.965   4.759 -1.4610  2.2319 -1.1942
 9144SOL     OW38890   1.811   4.722   4.902  0.4459 -0.2802 -0.1870
 9144SOL    HW138891   1.762   0.078   4.878  0.7414  0.5728  2.0522
 9144SOL    HW238892   1.758   4.695   4.976 -0.5417  0.6405 -0.5586
 9145SOL     OW38893   2.422   4.235   1.366  0.6332  0.0327  0.7457
 9145SOL    HW138894   2.470   4.169   1.416 -0.4189 -0.9669  0.4424
 9145SOL    HW238895   2.411   4.193   1.281  0.4818  0.9039  0.3353
 9146SOL     OW38896   1.637   0.397   1.589  0.3537 -0.2215 -0.2102
 9146SOL    HW138897   1.707   0.390   1.524  0.3837 -1.7173 -0.0225
 9146SOL    HW238898   1.571   0.338   1.552 -0.2160  1.0847 -1.2555
 9147SOL     OW38899   0.083   4.689   5.918  0.0692 -0.4363 -0.2649
 9147SOL    HW138900   0.056   0.055   5.895 -0.2337  0.0100  1.8271
 9147SOL    HW238901   4.722   4.649   5.936 -0.8794  2.0961  0.9725
 9148SOL     OW38902   1.566   4.313   0.755 -0.3203 -0.7915  0.5706
 9148SOL    HW138903   1.515   4.368   0.815 -0.5734  0.8103 -1.1144
 9148SOL    HW238904   1.525   4.227   0.765  0.8810 -1.4975 -0.5295
 9149SOL     OW38905   3.865   3.805   6.713 -0.1272 -0.3958 -0.0521
 9149SOL    HW138906   3.839   3.894   6.734  2.7447  0.3385  0.5092
 9149SOL    HW238907   3.810   3.786   6.638 -0.2516  1.2188 -0.3597
 9150SOL     OW38908   3.922   2.376  10.548 -0.5381  0.0615  0.3029
 9150SOL    HW138909   3.938   2.288  10.515  0.2389  0.1882  0.3271
 9150SOL    HW238910   3.853   2.397  10.485  1.0758  2.7958 -0.5472
 9151SOL     OW38911   1.602   0.539  10.311  0.1084 -0.2484  0.2599
 9151SOL    HW138912   1.682   0.593  10.313 -0.3883  0.4720  0.8221
 9151SOL    HW238913   1.618   0.493  10.393  0.1626  1.7064  1.3483
 9152SOL     OW38914   3.760   2.527   3.678  0.7770 -0.3646  0.1313
 9152SOL    HW138915   3.699   2.545   3.607 -1.0327 -0.2369  1.7148
 9152SOL    HW238916   3.837   2.584   3.668  0.0887  0.4805 -0.3144
 9153SOL     OW38917   4.574   4.623  11.903  0.5304 -0.0143  0.0116
 9153SOL    HW138918   4.619   4.570  11.837 -2.2837 -0.5405 -1.4946
 9153SOL    HW238919   4.528   4.550  11.946  0.0632  0.2904  0.0300
 9154SOL     OW38920   1.223   0.359   4.293 -0.5697 -0.2784  0.3426
 9154SOL    HW138921   1.309   0.344   4.253  0.0461  0.5859  1.3340
 9154SOL    HW238922   1.227   0.306   4.372 -1.0452  0.8788  1.1418
 9155SOL     OW38923   2.975   2.409   5.947 -0.3378  0.2242  0.1273
 9155SOL    HW138924   2.928   2.471   6.003  0.1712  0.9186 -0.2215
 9155SOL    HW238925   3.057   2.459   5.938 -0.9448  1.2536  0.3222
 9156SOL     OW38926   0.123   2.736   9.311  0.2146  0.0744  0.3514
 9156SOL    HW138927   0.061   2.808   9.322  0.1478 -0.1252  1.3379
 9156SOL    HW238928   0.089   2.702   9.229 -0.0846  0.3510  0.3613
 9157SOL     OW38929   0.097   4.428   4.123  0.0161 -0.0049  0.2916
 9157SOL    HW138930   0.004   4.427   4.102  0.0460  1.6007  0.1058
 9157SOL    HW238931   0.114   4.338   4.150  1.3584  0.4207  0.8928
 9158SOL     OW38932   2.142   0.039   7.009  0.2069  0.3156  0.2647
 9158SOL    HW138933   2.057   0.035   7.052 -0.2156  2.7895 -0.3262
 9158SOL    HW238934   2.190   4.709   7.072 -2.5609 -3.0351 -0.4392
 9159SOL     OW38935   3.460   1.595  11.599 -0.1837  0.4423 -0.0492
 9159SOL    HW138936   3.414   1.637  11.671 -2.8004 -2.0946 -0.2446
 9159SOL    HW238937   3.541   1.570  11.643  0.8178  1.0395 -1.5520
 9160SOL     OW38938   1.249   3.827  10.296  0.0322  0.4109 -0.1660
 9160SOL    HW138939   1.211   3.784  10.219 -1.9111  1.8515 -0.0101
 9160SOL    HW238940   1.182   3.887  10.330 -0.2845 -0.6143  1.0119
 9161SOL     OW38941   0.083   1.645  13.929 -0.4591 -0.7401  0.5117
 9161SOL    HW138942   0.140   1.577  13.893 -2.1864 -2.3243  0.7140
 9161SOL    HW238943   0.148   1.714  13.920 -0.6974 -0.7393 -1.1949
 9162SOL     OW38944   3.779   2.388   1.774  0.3341  0.9091  0.4906
 9162SOL    HW138945   3.789   2.294   1.791 -1.1820  0.6298 -0.1354
 9162SOL    HW238946   3.781   2.382   1.679 -0.3681  0.2099  0.5125
 9163SOL     OW38947   4.675   2.752   2.770 -0.0467  0.3207 -0.0718
 9163SOL    HW138948   4.699   2.730   2.860  0.3480  0.4504 -0.1428
 9163SOL    HW238949   4.716   2.836   2.748 -1.6421  0.7165 -1.4733
 9164SOL     OW38950   1.306   4.625  17.469 -0.7154 -0.2300  0.0004
 9164SOL    HW138951   1.237   4.649  17.532 -0.7520  2.3968 -1.0296
 9164SOL    HW238952   1.259   4.631  17.386  2.3503  1.0429 -1.6049
 9165SOL     OW38953   0.432   0.560   8.556 -0.5898 -0.4612  0.0988
 9165SOL    HW138954   0.454   0.653   8.567 -1.4741 -0.1874 -0.4259
 9165SOL    HW238955   0.485   0.532   8.631  0.2030  0.3851 -0.1516
 9166SOL     OW38956   0.450   2.806   7.990 -0.2107 -0.3438  0.4316
 9166SOL    HW138957   0.473   2.795   7.898  2.4908 -0.9236  1.1616
 9166SOL    HW238958   0.491   2.891   8.005 -3.6936  0.9132  2.7199
 9167SOL     OW38959   3.115   0.695   3.274 -0.1033 -0.5248  0.3724
 9167SOL    HW138960   3.148   0.783   3.261 -0.5141 -0.6304 -1.4508
 9167SOL    HW238961   3.097   0.688   3.368  1.1278 -0.7334  0.5928
 9168SOL     OW38962   4.386   0.593  16.585  0.1945 -0.8597  0.0979
 9168SOL    HW138963   4.317   0.539  16.546 -0.8356  0.7296 -0.2481
 9168SOL    HW238964   4.448   0.603  16.513  0.2604  1.8364  0.5585
 9169SOL     OW38965   2.612   3.589   3.060  0.5130  0.3748 -0.6440
 9169SOL    HW138966   2.661   3.671   3.062  3.3554 -1.2903 -1.8882
 9169SOL    HW238967   2.541   3.625   3.113  0.8710  1.1345 -0.6831
 9170SOL     OW38968   4.506   3.367  12.226  0.1669  0.4424 -0.5864
 9170SOL    HW138969   4.448   3.333  12.294  0.1263  1.6715 -0.0248
 9170SOL    HW238970   4.509   3.293  12.165 -1.3121  1.4825 -1.9305
 9171SOL     OW38971   0.364   1.247   8.117  0.1905 -0.3830 -0.5724
 9171SOL    HW138972   0.389   1.293   8.037  0.6775  0.8279  0.2918
 9171SOL    HW238973   0.298   1.188   8.080 -0.3572 -0.6957  0.9154
 9172SOL     OW38974   2.450   0.912   7.274  0.6976 -0.3473  0.6071
 9172SOL    HW138975   2.528   0.950   7.316  1.1724 -0.1675 -0.4233
 9172SOL    HW238976   2.484   0.825   7.255 -1.0939 -1.3142  1.9197
 9173SOL     OW38977   2.770   1.031   2.248 -0.5873  0.1428 -0.1276
 9173SOL    HW138978   2.728   1.113   2.275  0.1463 -0.4456  2.8202
 9173SOL    HW238979   2.700   0.977   2.211 -0.8433 -1.4715  2.7102
 9174SOL     OW38980   4.135   3.165   2.703  0.3186 -0.0547  0.4146
 9174SOL    HW138981   4.183   3.230   2.652  1.5383 -0.9803  0.3900
 9174SOL    HW238982   4.042   3.181   2.686  0.4592  0.1874 -0.1208
 9175SOL     OW38983   0.137   1.226   3.920  0.4073 -0.1625 -0.2624
 9175SOL    HW138984   0.101   1.303   3.964  0.0353  0.4398 -1.6322
 9175SOL    HW238985   0.228   1.226   3.950  0.1494 -0.0359  0.5414
 9176SOL     OW38986   0.291   0.256   2.170 -0.1408 -0.0773  0.3329
 9176SOL    HW138987   0.334   0.179   2.209  1.0806 -0.3125 -1.4852
 9176SOL    HW238988   0.356   0.324   2.191 -2.7991  1.7908  2.4952
 9177SOL     OW38989   3.552   2.916   9.006  0.1188 -0.8286 -0.1851
 9177SOL    HW138990   3.593   2.942   9.088  0.4640  2.7399 -1.4860
 9177SOL    HW238991   3.604   2.838   8.988 -1.1178 -1.3677 -1.4424
 9178SOL     OW38992   4.530   0.464  16.747  0.8229  1.1162  0.1526
 9178SOL    HW138993   4.458   0.400  16.751  2.7098 -0.9860  0.9508
 9178SOL    HW238994   4.477   0.532  16.706 -2.4005 -1.1873  0.4167
 9179SOL     OW38995   3.551   0.772  10.438  0.1608 -0.2585  0.5825
 9179SOL    HW138996   3.488   0.800  10.372  0.7442  1.3381  0.7173
 9179SOL    HW238997   3.582   0.859  10.463  0.6151 -0.9835  2.5527
 9180SOL     OW38998   1.539   3.624   1.163 -0.2959 -0.5789  0.0405
 9180SOL    HW138999   1.450   3.592   1.176 -0.2326 -0.8836 -0.2901
 9180SOL    HW239000   1.583   3.597   1.244  0.7339 -0.8200 -0.5993
 9181SOL     OW39001   2.450   1.649  12.040  0.3211  0.1006 -0.7191
 9181SOL    HW139002   2.359   1.678  12.039  1.2164  2.9241  0.1023
 9181SOL    HW239003   2.452   1.573  11.981 -0.0920  0.7471 -1.5521
 9182SOL     OW39004   2.498   1.518   7.948  0.3941 -0.3299  0.3305
 9182SOL    HW139005   2.452   1.521   7.864  1.6535  1.7680 -0.2812
 9182SOL    HW239006   2.526   1.610   7.952 -0.2098 -0.1220 -0.2228
 9183SOL     OW39007   1.596   3.896   7.396  0.3637  0.0831  0.1867
 9183SOL    HW139008   1.588   3.991   7.383 -2.3808 -0.5209 -2.6086
 9183SOL    HW239009   1.691   3.885   7.390  0.9568  3.7176  3.0825
 9184SOL     OW39010   4.592   1.704  13.784  0.0174  0.5373 -0.1369
 9184SOL    HW139011   4.664   1.687  13.844  0.0447 -0.8069 -0.5336
 9184SOL    HW239012   4.572   1.611  13.770  0.6000  0.4172 -0.1545
 9185SOL     OW39013   2.663   0.004   0.982 -0.0047 -0.4541 -0.3234
 9185SOL    HW139014   2.585   0.009   1.037  0.5467  0.5935  0.3822
 9185SOL    HW239015   2.713   0.070   1.031 -1.5558  1.8548 -1.8304
 9186SOL     OW39016   0.444   1.232   7.604  0.3045 -0.0159  0.7002
 9186SOL    HW139017   0.465   1.320   7.574 -1.0200 -0.7035 -2.2361
 9186SOL    HW239018   0.349   1.227   7.596  0.1466  1.2393  1.8296
 9187SOL     OW39019   3.200   2.272   5.596  0.0023 -0.2691 -0.0755
 9187SOL    HW139020   3.138   2.211   5.555  0.1720 -1.1644  0.9695
 9187SOL    HW239021   3.287   2.259   5.560  0.6230 -0.3193  1.4533
 9188SOL     OW39022   1.543   4.021  17.172  0.1805 -0.1677 -0.0315
 9188SOL    HW139023   1.537   4.092  17.236  3.0633  1.7270 -1.8713
 9188SOL    HW239024   1.487   3.961  17.222  2.3983 -0.0286  2.6139
 9189SOL     OW39025   0.379   3.922   5.217 -0.0602  0.7843 -0.2965
 9189SOL    HW139026   0.396   3.937   5.310  0.1179 -0.1678 -0.1787
 9189SOL    HW239027   0.369   3.827   5.216 -1.0344  0.8827  0.6182
 9190SOL     OW39028   1.264   4.507   7.753  0.0782 -0.1711 -0.2844
 9190SOL    HW139029   1.216   4.496   7.671 -1.7997  3.3866  0.3151
 9190SOL    HW239030   1.318   4.581   7.728  0.8063 -0.0449  1.6924
 9191SOL     OW39031   3.292   2.400   2.078 -0.6563  0.0409  0.4147
 9191SOL    HW139032   3.293   2.320   2.025 -0.8153 -1.0593  2.1051
 9191SOL    HW239033   3.384   2.425   2.064 -0.0490 -0.2292  3.9203
 9192SOL     OW39034   2.127   1.780   4.022 -0.2322 -0.9963 -0.0637
 9192SOL    HW139035   2.071   1.777   4.100  1.0127 -2.5808  0.7660
 9192SOL    HW239036   2.212   1.754   4.057 -0.0261  0.0869  0.2493
 9193SOL     OW39037   1.292   3.038   0.185 -0.4880 -0.8513  0.1430
 9193SOL    HW139038   1.225   3.098   0.152  1.7670  2.0428  0.8844
 9193SOL    HW239039   1.336   3.100   0.244 -0.4050  1.4952 -2.3963
 9194SOL     OW39040   3.796   0.899  15.175 -0.7826  0.4332 -0.3966
 9194SOL    HW139041   3.754   0.856  15.249 -1.5864  1.0559 -0.4872
 9194SOL    HW239042   3.767   0.843  15.103  1.9032 -0.6888 -0.5998
 9195SOL     OW39043   1.675   4.303  14.637 -0.2395 -0.2361 -0.5805
 9195SOL    HW139044   1.735   4.374  14.660 -0.1023 -1.0490  1.4948
 9195SOL    HW239045   1.596   4.322  14.687  0.6901 -0.3714  0.9384
 9196SOL     OW39046   0.798   0.172  10.413 -0.0040 -0.1732 -0.0414
 9196SOL    HW139047   0.725   0.194  10.354  0.4217 -0.2809 -0.6087
 9196SOL    HW239048   0.865   0.236  10.390 -0.5797  0.2812 -0.4746
 9197SOL     OW39049   2.590   2.259   4.450 -0.1593 -0.6990  0.5088
 9197SOL    HW139050   2.512   2.209   4.427 -0.0316 -0.7503  0.1913
 9197SOL    HW239051   2.609   2.296   4.364 -2.3194 -1.5883 -0.3680
 9198SOL     OW39052   3.853   0.351  13.486 -0.7742  0.6684  0.0102
 9198SOL    HW139053   3.766   0.386  13.468 -1.1237 -0.4435 -0.4861
 9198SOL    HW239054   3.866   0.304  13.404  1.0864 -1.5229  1.5257
 9199SOL     OW39055   4.212   2.445   7.145 -0.1205  0.1041  0.0507
 9199SOL    HW139056   4.264   2.512   7.189  0.0580 -0.8707  1.3254
 9199SOL    HW239057   4.225   2.372   7.206 -0.6979 -0.2520 -0.2496
 9200SOL     OW39058   3.879   4.291   4.029  0.4701  0.4653 -0.0539
 9200SOL    HW139059   3.946   4.287   4.098  0.8040 -0.6773 -0.4438
 9200SOL    HW239060   3.849   4.201   4.024 -0.4382  0.8799 -2.2373
 9201SOL     OW39061   1.544   2.268   2.821  0.2919 -0.4850  0.4936
 9201SOL    HW139062   1.473   2.287   2.760  1.3252  0.9118 -0.2880
 9201SOL    HW239063   1.619   2.245   2.766  0.2863 -0.0071  0.2899
 9202SOL     OW39064   0.910   3.525   8.512 -0.6217  0.4471 -0.1268
 9202SOL    HW139065   0.825   3.485   8.533 -0.0959  0.5399  2.2020
 9202SOL    HW239066   0.972   3.489   8.576  0.5661  1.8417 -0.4849
 9203SOL     OW39067   1.829   3.302   1.186 -0.0134 -0.0055 -0.1109
 9203SOL    HW139068   1.860   3.391   1.203  0.0773 -0.5030  2.3096
 9203SOL    HW239069   1.864   3.258   1.263  0.1609  1.9306  0.9285
 9204SOL     OW39070   2.850   2.968   2.281 -0.3710  0.0246  0.0017
 9204SOL    HW139071   2.878   3.015   2.202  2.1392 -1.3645  0.0607
 9204SOL    HW239072   2.921   2.982   2.343  0.9135 -0.9535 -1.2565
 9205SOL     OW39073   3.278   0.058   2.200  0.4463  0.0042 -0.6154
 9205SOL    HW139074   3.320   0.040   2.116 -0.1194  2.1515 -1.3609
 9205SOL    HW239075   3.343   0.118   2.237 -0.3952  0.7689 -0.3709
 9206SOL     OW39076   1.534   0.290   9.825  0.3871 -0.1388 -0.4247
 9206SOL    HW139077   1.517   0.375   9.866 -0.6757 -1.1363  1.1956
 9206SOL    HW239078   1.588   0.325   9.754  0.9021  2.7458  1.3910
 9207SOL     OW39079   3.107   0.802  12.963  0.1913 -0.6679  0.4999
 9207SOL    HW139080   3.066   0.851  13.034 -1.0956 -1.3846  0.2595
 9207SOL    HW239081   3.119   0.871  12.898 -1.4253 -1.4604 -0.6288
 9208SOL     OW39082   0.882   2.350   5.823  0.1755  0.2679  0.0721
 9208SOL    HW139083   0.938   2.286   5.778 -2.9542 -0.9039 -2.2084
 9208SOL    HW239084   0.947   2.414   5.852 -0.2833  1.8023 -2.3162
 9209SOL     OW39085   4.384   3.423   5.675 -0.1441  0.0884 -0.1596
 9209SOL    HW139086   4.471   3.396   5.647 -0.7103 -0.2397 -1.6230
 9209SOL    HW239087   4.402   3.515   5.696  0.9692 -0.1509 -0.0737
 9210SOL     OW39088   0.355   3.502  11.839  0.0488 -0.1659 -0.4657
 9210SOL    HW139089   0.280   3.495  11.779  0.4967 -1.5879 -0.8650
 9210SOL    HW239090   0.331   3.566  11.906 -1.1980 -1.1194 -0.0070
 9211SOL     OW39091   0.030   1.484   9.755 -0.2595 -0.6642 -0.1573
 9211SOL    HW139092   4.666   1.462   9.790  0.2539 -1.4644  0.5932
 9211SOL    HW239093   0.083   1.429   9.812  0.3846  0.7999  0.6623
 9212SOL     OW39094   1.501   3.127   7.863  0.4975 -0.2059  0.0406
 9212SOL    HW139095   1.544   3.064   7.921  0.5514  1.5950  1.9737
 9212SOL    HW239096   1.487   3.200   7.924  0.3233 -0.9855  0.9463
 9213SOL     OW39097   0.397   0.753  12.419  0.2975  1.2788 -0.5211
 9213SOL    HW139098   0.435   0.683  12.367 -0.3958 -0.3339  1.1509
 9213SOL    HW239099   0.394   0.824  12.355 -2.1388  0.4213 -1.3415
 9214SOL     OW39100   1.229   3.120   7.542  0.6655 -0.1450 -0.2123
 9214SOL    HW139101   1.228   3.161   7.456  2.3262  0.0667 -0.1287
 9214SOL    HW239102   1.142   3.150   7.569  0.4574 -3.1020  2.4315
 9215SOL     OW39103   1.400   2.734   3.042  0.3111 -0.2476  0.4536
 9215SOL    HW139104   1.321   2.701   2.999  1.4576 -0.3107 -1.5962
 9215SOL    HW239105   1.371   2.805   3.099  1.8944  1.7072 -1.1702
 9216SOL     OW39106   0.118   1.522   4.044  0.1440  0.4921 -0.0589
 9216SOL    HW139107   0.149   1.566   3.965  1.3294 -2.1781 -1.0624
 9216SOL    HW239108   0.163   1.570   4.113  0.7512  1.8719 -1.4078
 9217SOL     OW39109   4.141   0.148   3.994 -0.6218 -0.1680 -0.1073
 9217SOL    HW139110   4.130   0.087   4.067  1.5247 -0.2478  0.1519
 9217SOL    HW239111   4.226   0.123   3.960 -1.4096 -1.4846 -1.0834
 9218SOL     OW39112   2.705   0.218   4.350  0.1228  0.5016  0.3569
 9218SOL    HW139113   2.682   0.125   4.359 -1.0206  0.5989 -1.5446
 9218SOL    HW239114   2.643   0.259   4.411  1.5525  0.6015  1.7311
 9219SOL     OW39115   1.537   3.228   4.331 -0.4376  0.1367 -0.1069
 9219SOL    HW139116   1.541   3.295   4.262  0.2517  0.3375  0.1320
 9219SOL    HW239117   1.459   3.177   4.309  0.6210  0.2542 -4.2310
 9220SOL     OW39118   0.644   4.341   6.238  0.1112  0.3898  0.3596
 9220SOL    HW139119   0.708   4.377   6.299  1.2869  1.1641 -1.3287
 9220SOL    HW239120   0.591   4.420   6.231  1.9727  1.5686 -0.4561
 9221SOL     OW39121   3.437   1.322   6.727  0.5660  0.3000  0.0660
 9221SOL    HW139122   3.476   1.237   6.750 -0.5525 -0.4904 -0.9762
 9221SOL    HW239123   3.515   1.369   6.698  2.1916 -1.0550  2.2210
 9222SOL     OW39124   4.657   3.335  16.172 -0.2026 -0.3656 -0.5632
 9222SOL    HW139125   4.670   3.320  16.266 -2.1621 -0.7692 -0.3489
 9222SOL    HW239126   4.681   3.247  16.145  0.1898 -0.6837  0.8573
 9223SOL     OW39127   4.287   3.315   2.507  0.2431  0.0211  0.0656
 9223SOL    HW139128   4.380   3.295   2.491 -0.3474 -0.0977 -3.2678
 9223SOL    HW239129   4.284   3.409   2.489 -2.0058 -0.4917 -2.2801
 9224SOL     OW39130   0.736   0.735   6.889 -0.2009  0.1032 -0.2952
 9224SOL    HW139131   0.769   0.794   6.957 -0.1116 -0.1602 -0.1088
 9224SOL    HW239132   0.810   0.675   6.879 -1.6431 -1.6377 -0.4526
 9225SOL     OW39133   1.057   0.010   4.665  0.5818  0.3016 -0.1678
 9225SOL    HW139134   1.123   4.678   4.707 -0.4468 -0.1199  0.9169
 9225SOL    HW239135   0.998   0.039   4.735 -0.1397 -0.2743 -0.5361
 9226SOL     OW39136   0.682   2.528   1.823 -0.3640 -0.9781 -0.0895
 9226SOL    HW139137   0.755   2.554   1.767 -0.2550  0.4390  0.7355
 9226SOL    HW239138   0.653   2.616   1.846 -0.3723 -1.3116  1.1712
 9227SOL     OW39139   0.378   3.314   0.149  0.3330 -0.9555 -0.1060
 9227SOL    HW139140   0.400   3.275   0.234  0.0471  1.5728  1.1162
 9227SOL    HW239141   0.461   3.318   0.101  1.8689  0.9855  2.7019
 9228SOL     OW39142   0.731   2.452   2.953  0.1270 -0.3090 -0.1055
 9228SOL    HW139143   0.669   2.379   2.947  0.0277 -0.3363  1.3911
 9228SOL    HW239144   0.677   2.529   2.972 -0.8306 -0.3448 -2.6180
 9229SOL     OW39145   0.657   2.307   7.037  0.2753 -0.3404  0.0315
 9229SOL    HW139146   0.619   2.387   7.073 -0.9938 -0.4181 -1.1541
 9229SOL    HW239147   0.726   2.297   7.103  1.3063 -0.1523 -1.0145
 9230SOL     OW39148   4.409   2.521   3.145  0.2860  0.0218 -0.1504
 9230SOL    HW139149   4.372   2.461   3.209  1.2823  0.2403  0.6309
 9230SOL    HW239150   4.502   2.502   3.135 -0.0409 -1.6434  0.0508
 9231SOL     OW39151   0.147   3.209  12.109  0.4040 -0.3623  0.0196
 9231SOL    HW139152   0.171   3.293  12.150 -1.1506  0.4651 -0.7815
 9231SOL    HW239153   0.214   3.153  12.147  0.5998  0.3751  0.7741
 9232SOL     OW39154   0.791   3.048   6.868  0.0169 -0.4813 -0.3681
 9232SOL    HW139155   0.784   2.958   6.835 -0.1141 -0.8822  0.7562
 9232SOL    HW239156   0.823   3.091   6.788  1.4818  2.1238  1.6377
 9233SOL     OW39157   1.665   3.968  14.399 -0.0982  0.5227  0.3420
 9233SOL    HW139158   1.661   4.037  14.332 -1.3689  0.0154 -0.1085
 9233SOL    HW239159   1.747   3.926  14.376  0.4827  1.9207 -0.1691
 9234SOL     OW39160   0.599   2.074  10.526 -0.3489  0.2782  0.2283
 9234SOL    HW139161   0.588   2.154  10.476 -1.5921 -0.1626 -0.2110
 9234SOL    HW239162   0.603   2.012  10.453 -3.1534 -0.4362  0.6701
 9235SOL     OW39163   3.822   4.442   8.628  0.7002 -0.3067 -0.4129
 9235SOL    HW139164   3.830   4.533   8.600  0.6018 -0.4494 -0.9084
 9235SOL    HW239165   3.867   4.449   8.712 -0.8088  1.3582  0.2442
 9236SOL     OW39166   3.952   0.042   3.005  0.4061 -0.0057  0.1900
 9236SOL    HW139167   3.928   4.674   2.987 -0.2073 -0.0337  1.1692
 9236SOL    HW239168   4.027   0.026   3.062  0.8559  0.4162 -0.2825
 9237SOL     OW39169   4.457   2.175   5.641 -0.1202  0.0385 -0.0637
 9237SOL    HW139170   4.538   2.219   5.616  0.4618 -0.5819  0.7380
 9237SOL    HW239171   4.483   2.123   5.717 -2.2205 -0.2740  0.4431
 9238SOL     OW39172   0.004   0.724   5.198 -0.1012  0.7588 -0.3473
 9238SOL    HW139173   4.666   0.795   5.177  0.2559  0.8183 -1.2026
 9238SOL    HW239174   0.073   0.754   5.140  1.7049 -1.2484  0.7718
 9239SOL     OW39175   2.584   3.555   7.559 -0.1168  0.7433  0.0736
 9239SOL    HW139176   2.508   3.608   7.585 -1.0600 -1.2730  1.4158
 9239SOL    HW239177   2.597   3.572   7.465  0.3173  0.8791  0.1632
 9240SOL     OW39178   2.866   4.418  11.532 -0.2247  0.7267  0.2538
 9240SOL    HW139179   2.931   4.475  11.492  0.0309  0.8505  0.8431
 9240SOL    HW239180   2.921   4.368  11.592 -1.4075 -1.1431 -0.2166
 9241SOL     OW39181   3.014   4.518  12.340  0.1089  0.1433  0.1680
 9241SOL    HW139182   3.040   4.444  12.286 -0.0331 -1.0111  1.6923
 9241SOL    HW239183   2.922   4.530  12.314 -0.1456 -2.2621  0.0048
 9242SOL     OW39184   1.597   2.268   5.882  0.1829 -0.5475 -0.2201
 9242SOL    HW139185   1.537   2.236   5.814 -1.5389 -0.2165  1.1434
 9242SOL    HW239186   1.552   2.236   5.959  0.2171 -1.2916 -0.5122
 9243SOL     OW39187   0.229   4.541   9.154  0.7262  0.3414  0.3480
 9243SOL    HW139188   0.216   4.633   9.129 -1.5336 -0.2771 -0.7380
 9243SOL    HW239189   0.325   4.537   9.157  0.8734  3.0477 -0.4170
 9244SOL     OW39190   2.177   2.026  15.970 -0.2078  0.1027  0.3751
 9244SOL    HW139191   2.187   2.053  16.061 -1.7019  1.9174 -0.0015
 9244SOL    HW239192   2.167   2.109  15.923 -0.5214 -0.7178 -1.0066
 9245SOL     OW39193   2.701   3.519  16.386  0.2752 -0.2478  0.5076
 9245SOL    HW139194   2.747   3.498  16.304  0.6141  0.0802  0.6120
 9245SOL    HW239195   2.770   3.570  16.427 -0.3993  2.1255 -1.2996
 9246SOL     OW39196   0.762   3.356   1.195 -0.0140 -0.3531 -1.0694
 9246SOL    HW139197   0.799   3.444   1.203 -2.0167  0.3328  0.5795
 9246SOL    HW239198   0.732   3.356   1.105  0.1342  0.3370 -1.1155
 9247SOL     OW39199   1.010   2.325   6.380 -0.0999 -0.2342 -0.1421
 9247SOL    HW139200   1.009   2.387   6.453  0.7056 -2.4892  1.7949
 9247SOL    HW239201   0.918   2.299   6.376  0.2237 -1.1700 -1.4479
 9248SOL     OW39202   3.291   0.739   7.683 -0.2508 -0.2585 -0.0563
 9248SOL    HW139203   3.265   0.664   7.629  1.2132 -1.7397  1.2899
 9248SOL    HW239204   3.339   0.785   7.615 -1.1409  0.0693 -0.4720
 9249SOL     OW39205   1.970   3.006   7.164  0.3085 -0.1352  0.3069
 9249SOL    HW139206   1.923   2.993   7.246 -0.9881 -1.2494 -0.6277
 9249SOL    HW239207   1.894   3.026   7.109  1.2378 -1.0131 -1.2777
 9250SOL     OW39208   2.120   4.311   1.095  1.0256 -0.1752  0.2313
 9250SOL    HW139209   2.083   4.394   1.064 -1.0836 -1.6403 -1.2530
 9250SOL    HW239210   2.208   4.316   1.060  0.2028  0.7796 -1.7208
 9251SOL     OW39211   3.635   2.016  14.375  0.1007  0.1806 -0.2957
 9251SOL    HW139212   3.600   1.966  14.302 -0.9713 -0.8099  0.8915
 9251SOL    HW239213   3.726   1.987  14.382  0.0201  0.5044  2.0999
 9252SOL     OW39214   1.289   4.564  12.610 -0.2798 -0.4639 -0.1860
 9252SOL    HW139215   1.379   4.584  12.587 -0.6516 -1.1455 -2.1994
 9252SOL    HW239216   1.242   4.613  12.542  1.2797  0.6012 -0.4829
 9253SOL     OW39217   3.400   2.624  15.515  0.1263 -0.0698 -0.4836
 9253SOL    HW139218   3.339   2.627  15.589  0.6497  0.5292 -0.0742
 9253SOL    HW239219   3.350   2.572  15.453 -0.2095  1.5965 -1.6174
 9254SOL     OW39220   2.098   3.289  13.636 -0.4919  0.3940  0.5049
 9254SOL    HW139221   2.057   3.244  13.710  2.3533 -1.9445  0.6510
 9254SOL    HW239222   2.175   3.323  13.682  1.2107 -1.1242 -1.2082
 9255SOL     OW39223   1.358   4.083   4.256  0.5934  0.2769  0.0227
 9255SOL    HW139224   1.357   4.172   4.222  0.9403  0.1166 -0.4028
 9255SOL    HW239225   1.326   4.040   4.177 -2.9429 -0.0580  1.5963
 9256SOL     OW39226   3.378   2.117   2.937  0.1836  0.9515 -0.4177
 9256SOL    HW139227   3.379   2.202   2.981  1.0116  2.0044 -2.4706
 9256SOL    HW239228   3.471   2.097   2.926 -0.0254  1.3607 -2.9741
 9257SOL     OW39229   1.943   2.456   5.213  0.2995  0.2129  0.0219
 9257SOL    HW139230   1.947   2.377   5.267  0.6202  1.8526  2.4039
 9257SOL    HW239231   2.025   2.500   5.235  0.4463 -0.3145  0.5328
 9258SOL     OW39232   1.577   2.658   3.442 -0.3336 -0.0213  0.5268
 9258SOL    HW139233   1.494   2.701   3.420 -0.7140 -0.5420  0.9469
 9258SOL    HW239234   1.574   2.630   3.533  2.2087  1.0568  0.9277
 9259SOL     OW39235   1.992   1.583  13.271 -0.4950 -0.2000 -0.1963
 9259SOL    HW139236   2.006   1.506  13.215 -1.0394  0.1482 -0.8065
 9259SOL    HW239237   1.950   1.638  13.205  3.6428  2.3286 -0.7387
 9260SOL     OW39238   2.818   1.748   5.552  0.0515  0.2069 -0.4873
 9260SOL    HW139239   2.881   1.683   5.582  0.0520 -0.0039 -0.9458
 9260SOL    HW239240   2.846   1.818   5.612  0.4287  0.1309 -0.5731
 9261SOL     OW39241   3.817   4.022   0.027 -0.0821  0.0230  0.0296
 9261SOL    HW139242   3.840   3.932   0.004  1.9910  0.4631  0.3120
 9261SOL    HW239243   3.907   4.052   0.043 -0.0928 -0.1819  0.4809
 9262SOL     OW39244   0.824   4.081  16.421  0.3383  0.3918  0.6879
 9262SOL    HW139245   0.767   4.151  16.387  1.0516  0.1634 -0.9506
 9262SOL    HW239246   0.911   4.121  16.421  1.4849 -2.1394  0.5733
 9263SOL     OW39247   3.174   0.126   6.763 -0.3462 -0.4633  0.1825
 9263SOL    HW139248   3.212   0.195   6.817  2.4173 -2.0278  0.2489
 9263SOL    HW239249   3.155   0.175   6.684 -2.3492  0.7594  1.4055
 9264SOL     OW39250   1.984   1.756   6.627  0.1346  0.4508  0.0069
 9264SOL    HW139251   2.006   1.667   6.655 -2.0559  0.4306  1.6702
 9264SOL    HW239252   1.961   1.810   6.703 -1.6070 -1.0099  0.5033
 9265SOL     OW39253   4.345   0.232  16.773  0.3177  0.3356  1.1977
 9265SOL    HW139254   4.260   0.195  16.798 -0.8960  0.3341 -2.9112
 9265SOL    HW239255   4.394   0.149  16.774 -0.1534  0.0306 -2.7855
 9266SOL     OW39256   2.315   3.185   0.924 -0.0338  0.4737 -0.2257
 9266SOL    HW139257   2.324   3.157   1.015 -1.4114 -0.2092 -0.2935
 9266SOL    HW239258   2.222   3.209   0.925 -0.9222 -3.0974  0.5644
 9267SOL     OW39259   0.413   1.193  15.154 -0.3370  0.4238  0.8930
 9267SOL    HW139260   0.508   1.204  15.167 -0.0743 -0.5549 -0.2017
 9267SOL    HW239261   0.390   1.284  15.137 -0.0849  0.5065  0.9785
 9268SOL     OW39262   4.685   4.242  11.524 -0.2150  0.2540  0.2198
 9268SOL    HW139263   4.688   4.213  11.433  0.4238 -0.7099  0.5428
 9268SOL    HW239264   0.055   4.264  11.531 -0.3819  1.4174 -1.4088
 9269SOL     OW39265   3.096   2.577   3.082  0.2240  0.2208 -0.5704
 9269SOL    HW139266   3.039   2.503   3.061 -0.1513  0.0540  1.0348
 9269SOL    HW239267   3.077   2.634   3.007 -1.1222  0.6373  0.0908
 9270SOL     OW39268   1.481   2.182   6.513 -0.5589 -0.0291  0.2195
 9270SOL    HW139269   1.474   2.215   6.602 -0.2834 -0.8167  0.5332
 9270SOL    HW239270   1.402   2.129   6.504  0.3138 -0.7339 -3.5374
 9271SOL     OW39271   2.983   0.377   5.079  0.5416 -0.4605 -0.3549
 9271SOL    HW139272   3.021   0.447   5.026  0.6987  1.5650  2.4114
 9271SOL    HW239273   3.056   0.362   5.139  0.5054 -3.0018 -0.9379
 9272SOL     OW39274   3.318   3.094  16.181 -0.0849 -0.3197  0.8737
 9272SOL    HW139275   3.243   3.083  16.239  0.4898  2.5464  2.1506
 9272SOL    HW239276   3.368   3.160  16.229  0.0982  0.4114 -0.3215
 9273SOL     OW39277   0.898   1.105   8.727  0.5042  0.9123 -0.2946
 9273SOL    HW139278   0.875   1.198   8.723  0.2956  0.8751  0.0829
 9273SOL    HW239279   0.949   1.089   8.648 -1.4126 -0.0788 -1.3410
 9274SOL     OW39280   1.909   2.077   2.675 -0.0839  1.0111 -0.4026
 9274SOL    HW139281   1.989   2.130   2.665  0.7240 -0.0790  0.3138
 9274SOL    HW239282   1.902   2.068   2.770 -0.1326  0.7438 -0.4313
 9275SOL     OW39283   1.535   3.675  10.170  0.0180 -0.5286  0.1879
 9275SOL    HW139284   1.521   3.766  10.196  4.3810  0.0015  0.5953
 9275SOL    HW239285   1.473   3.627  10.225 -0.0321 -0.4087  0.2361
 9276SOL     OW39286   0.379   0.976   6.310 -0.3247  0.1508  0.2769
 9276SOL    HW139287   0.289   0.966   6.340  0.2199 -0.1214  1.8655
 9276SOL    HW239288   0.369   1.067   6.283  0.9035 -0.6086 -2.7187
 9277SOL     OW39289   3.681   3.922   2.921  0.0185 -0.2953  0.3871
 9277SOL    HW139290   3.684   3.827   2.916  0.0532 -0.0734 -3.7363
 9277SOL    HW239291   3.753   3.937   2.983 -1.1540  2.3458  1.1123
 9278SOL     OW39292   0.476   4.323  11.481 -0.0993  0.1726 -0.2017
 9278SOL    HW139293   0.487   4.279  11.397 -0.5121 -1.1011  0.4085
 9278SOL    HW239294   0.548   4.289  11.534  0.8837  0.3299 -1.4347
 9279SOL     OW39295   0.429   0.451  17.138 -0.1513  0.0967  0.3554
 9279SOL    HW139296   0.444   0.458  17.044 -3.1147  0.2231 -0.1182
 9279SOL    HW239297   0.498   0.387  17.154 -0.1146 -0.3798 -1.8130
 9280SOL     OW39298   2.621   0.537   5.021 -0.0597  0.0372 -0.0773
 9280SOL    HW139299   2.707   0.547   4.979  0.5199  0.0351  1.1103
 9280SOL    HW239300   2.619   0.611   5.082  0.0204 -1.4733  1.7460
 9281SOL     OW39301   1.269   3.006   9.945 -0.1401  0.2970 -0.3050
 9281SOL    HW139302   1.363   3.013   9.958 -0.4241 -2.9901  3.4382
 9281SOL    HW239303   1.255   2.912   9.938  0.0425  0.2239  0.2718
 9282SOL     OW39304   2.249   2.067  10.031 -0.6702  0.1025 -0.2428
 9282SOL    HW139305   2.242   2.114  10.115 -1.5421 -2.2569  1.0141
 9282SOL    HW239306   2.168   2.020  10.053 -0.3087 -0.2607  0.3261
 9283SOL     OW39307   3.327   2.693   3.582 -0.2809  0.3801  0.4271
 9283SOL    HW139308   3.345   2.664   3.671  1.3138  1.9786  0.6266
 9283SOL    HW239309   3.404   2.748   3.566  0.5325 -0.4652  1.4647
 9284SOL     OW39310   4.134   1.005   6.865  0.4136  0.4625  0.8287
 9284SOL    HW139311   4.214   0.953   6.872  0.5609  0.8319  2.0218
 9284SOL    HW239312   4.171   1.088   6.834 -1.4411  0.1828 -2.1068
 9285SOL     OW39313   2.129   2.909   0.674 -0.5366 -0.0803 -0.3267
 9285SOL    HW139314   2.220   2.911   0.642 -1.0276  2.2146 -1.5111
 9285SOL    HW239315   2.127   2.818   0.704  1.3422  0.3176  1.0232
 9286SOL     OW39316   1.635   2.257   8.446  0.1680  0.7503  0.0256
 9286SOL    HW139317   1.729   2.247   8.462  0.1328  1.2738  0.5741
 9286SOL    HW239318   1.629   2.352   8.432 -0.7012  0.7266  0.2429
 9287SOL     OW39319   1.494   4.417   9.924 -0.8060  0.1660 -0.3072
 9287SOL    HW139320   1.546   4.409  10.004  0.0158  1.6538 -0.6882
 9287SOL    HW239321   1.555   4.452   9.859 -1.0568 -0.5118 -0.9027
 9288SOL     OW39322   1.068   4.124   2.182 -0.2546 -1.0903 -0.4058
 9288SOL    HW139323   1.156   4.120   2.220 -0.6396 -1.2794  0.4796
 9288SOL    HW239324   1.072   4.213   2.146 -1.5530 -0.5726  0.7080
 9289SOL     OW39325   1.674   3.143   5.781  0.3319  0.3847 -0.1878
 9289SOL    HW139326   1.669   3.054   5.815  0.0300  0.0143 -1.2160
 9289SOL    HW239327   1.585   3.178   5.777 -0.0618 -0.6989 -0.9580
 9290SOL     OW39328   2.327   1.284  12.738  0.0773  0.5576 -0.3010
 9290SOL    HW139329   2.365   1.262  12.824  1.5985  3.4568 -0.2265
 9290SOL    HW239330   2.386   1.352  12.704  1.1048 -0.9066 -1.4209
 9291SOL     OW39331   4.048   2.412   8.250  0.0941 -0.1275 -0.0337
 9291SOL    HW139332   4.004   2.357   8.316 -2.0184  0.6266 -0.8047
 9291SOL    HW239333   4.004   2.495   8.270 -0.3990 -0.4601  0.2849
 9292SOL     OW39334   2.993   2.654   7.203  0.5374 -0.5002 -0.4504
 9292SOL    HW139335   2.983   2.594   7.277  0.2181 -0.3285 -0.3525
 9292SOL    HW239336   2.991   2.740   7.245 -0.8146  0.3349 -2.2063
 9293SOL     OW39337   1.497   3.494   4.710  0.7780  0.7579  0.4315
 9293SOL    HW139338   1.422   3.460   4.759  0.5240 -0.8584 -1.0678
 9293SOL    HW239339   1.471   3.578   4.672 -2.2514 -1.0529 -1.4625
 9294SOL     OW39340   3.170   0.765   2.823 -0.6647  0.1539 -0.0902
 9294SOL    HW139341   3.152   0.673   2.843  0.9107 -0.1143  0.0944
 9294SOL    HW239342   3.266   0.770   2.825 -0.5242 -2.4055  0.1252
 9295SOL     OW39343   3.740   3.776   0.829  0.6376  0.3808  0.1504
 9295SOL    HW139344   3.750   3.684   0.852  0.9293  0.4881  0.4644
 9295SOL    HW239345   3.717   3.784   0.736 -1.4087  0.6391  0.6772
 9296SOL     OW39346   1.840   2.804   2.735  0.8022  0.0226 -0.0422
 9296SOL    HW139347   1.891   2.760   2.803  0.1558  1.2884  1.2562
 9296SOL    HW239348   1.755   2.781   2.772 -0.5963  2.5813 -1.7018
 9297SOL     OW39349   2.084   2.310  10.187 -0.6513  0.2392 -0.2694
 9297SOL    HW139350   2.018   2.254  10.229 -0.0042  1.5925  2.5707
 9297SOL    HW239351   2.053   2.324  10.098  0.2857 -0.0177 -0.6357
 9298SOL     OW39352   0.992   3.296   7.522  0.6375  0.4391  0.4785
 9298SOL    HW139353   0.944   3.282   7.441  0.9256  1.7612  0.0739
 9298SOL    HW239354   0.942   3.365   7.567 -1.9646 -1.4296  0.4107
 9299SOL     OW39355   4.556   1.236  17.249  0.4902  0.2763  0.0562
 9299SOL    HW139356   4.590   1.286  17.323  2.3126  0.8023 -1.1459
 9299SOL    HW239357   4.566   1.147  17.284  1.2709 -0.3025 -1.6632
 9300SOL     OW39358   0.956   1.318   6.678 -0.0829  0.1731  0.0234
 9300SOL    HW139359   0.931   1.345   6.590 -0.6582 -0.3682  0.0191
 9300SOL    HW239360   1.012   1.393   6.696 -0.3583  0.3865  0.0031
 9301SOL     OW39361   2.064   2.241   2.050  0.3090  0.0536 -0.0858
 9301SOL    HW139362   1.974   2.233   2.020  0.6205 -1.8929 -0.5134
 9301SOL    HW239363   2.061   2.207   2.140  2.4355 -1.6201 -0.6466
 9302SOL     OW39364   3.503   3.322  10.688 -0.2523  0.5546 -0.3759
 9302SOL    HW139365   3.411   3.347  10.701 -0.3984 -0.4263  0.5046
 9302SOL    HW239366   3.502   3.262  10.763  2.5034 -0.3504 -1.0957
 9303SOL     OW39367   2.518   1.843   1.341  0.0194  0.1460 -0.4890
 9303SOL    HW139368   2.610   1.856   1.317  0.2523 -0.0537  0.2955
 9303SOL    HW239369   2.480   1.917   1.294 -1.2901 -0.8562 -1.0102
 9304SOL     OW39370   1.120   1.849   2.395 -0.5897  0.2746 -0.8978
 9304SOL    HW139371   1.132   1.916   2.328 -0.6766  2.5866  1.3946
 9304SOL    HW239372   1.071   1.904   2.456  0.5049 -0.2846  0.5042
 9305SOL     OW39373   1.076   0.930   7.583  0.3890 -0.1146  0.2618
 9305SOL    HW139374   1.009   0.971   7.639 -1.4236 -1.1091 -1.1842
 9305SOL    HW239375   1.062   0.969   7.497  2.7914  1.5480  0.6256
 9306SOL     OW39376   1.056   2.339  11.347 -0.0746 -0.0190 -0.1228
 9306SOL    HW139377   1.131   2.303  11.300 -0.3057 -1.1977  0.3957
 9306SOL    HW239378   0.980   2.301  11.303  1.3097 -1.6880 -1.0739
 9307SOL     OW39379   1.292   1.863   5.116  0.1057  0.7975  0.1460
 9307SOL    HW139380   1.366   1.809   5.091  0.4268  1.6539 -0.7525
 9307SOL    HW239381   1.255   1.810   5.187 -0.5331 -0.7709 -1.3769
 9308SOL     OW39382   0.807   3.196   1.436 -0.0609  0.2965 -0.2192
 9308SOL    HW139383   0.799   3.271   1.377 -1.1248  0.7261  0.4671
 9308SOL    HW239384   0.848   3.137   1.373  0.3919  0.3312  0.0417
 9309SOL     OW39385   2.543   3.281  15.350  0.2579  0.6593  0.0041
 9309SOL    HW139386   2.570   3.370  15.328 -0.1631  1.1653  1.5117
 9309SOL    HW239387   2.508   3.298  15.438  2.4909 -1.7793  1.3826
 9310SOL     OW39388   1.856   3.270   1.627  0.2031 -0.3537 -0.0257
 9310SOL    HW139389   1.897   3.324   1.695  4.1843 -1.4691 -1.5749
 9310SOL    HW239390   1.775   3.320   1.621  0.1944 -0.6179 -2.2118
 9311SOL     OW39391   0.325   1.352  13.226 -0.4848  0.4431 -0.3637
 9311SOL    HW139392   0.277   1.344  13.144 -0.6067  1.8554 -0.4395
 9311SOL    HW239393   0.338   1.262  13.255 -1.1615  1.0490  1.8241
 9312SOL     OW39394   3.037   4.313   4.996  0.6771 -0.3879  0.1208
 9312SOL    HW139395   3.041   4.241   4.933 -3.0785 -1.0696  0.6810
 9312SOL    HW239396   2.957   4.351   4.960  0.0033 -0.6117  1.3761
 9313SOL     OW39397   2.270   2.638   6.762  0.1679 -0.1201 -0.0821
 9313SOL    HW139398   2.201   2.662   6.823  2.0752  1.3316  1.4823
 9313SOL    HW239399   2.313   2.719   6.736 -0.8629  0.9524  1.6417
 9314SOL     OW39400   0.322   1.826  10.418 -0.1668 -0.8761 -0.2580
 9314SOL    HW139401   0.389   1.757  10.420 -0.4734 -1.1641  0.0752
 9314SOL    HW239402   0.345   1.872  10.500  0.4166 -1.8635  0.1349
 9315SOL     OW39403   4.300   3.846   3.633  0.3053 -0.7901 -0.3658
 9315SOL    HW139404   4.327   3.762   3.669  3.1265 -0.2090 -1.0724
 9315SOL    HW239405   4.329   3.842   3.542  3.3451  1.2794  0.5249
 9316SOL     OW39406   0.016   1.712   8.299  0.3032 -0.0248 -0.1331
 9316SOL    HW139407   0.038   1.789   8.353 -1.7368  0.2513  0.2941
 9316SOL    HW239408   0.059   1.733   8.216 -0.8404  1.2229 -0.4031
 9317SOL     OW39409   0.652   4.287   7.746 -0.3191  0.3860 -0.1014
 9317SOL    HW139410   0.745   4.308   7.758 -0.0321 -1.3654  0.7039
 9317SOL    HW239411   0.641   4.296   7.652 -0.8244  0.1879 -0.0558
 9318SOL     OW39412   1.837   3.696   2.397  0.0099 -0.5463  0.3314
 9318SOL    HW139413   1.851   3.762   2.465  1.7313  0.2537 -0.8059
 9318SOL    HW239414   1.836   3.614   2.447  0.2514  0.3836  1.8289
 9319SOL     OW39415   3.583   0.201   6.904 -0.2511 -0.0375 -0.4164
 9319SOL    HW139416   3.671   0.231   6.884 -0.8374  1.8645 -0.1650
 9319SOL    HW239417   3.584   0.107   6.917  0.5176  0.3806  2.4636
 9320SOL     OW39418   3.918   4.465   2.604  0.3171 -0.1423  0.0663
 9320SOL    HW139419   3.908   4.553   2.570 -0.4161 -1.1577 -2.3459
 9320SOL    HW239420   3.963   4.415   2.536  1.3301  1.0589 -0.1527
 9321SOL     OW39421   2.110   3.271   7.885 -0.4271 -0.0265  0.0655
 9321SOL    HW139422   2.174   3.266   7.814  1.6584 -2.0406  2.1105
 9321SOL    HW239423   2.167   3.258   7.960  0.3952  0.1320 -0.5274
 9322SOL     OW39424   2.643   1.857   4.534  0.3185 -0.3180 -0.2349
 9322SOL    HW139425   2.670   1.807   4.456 -1.2289 -2.1219  0.3998
 9322SOL    HW239426   2.701   1.823   4.602 -1.8167 -0.7094  1.3726
 9323SOL     OW39427   4.546   3.941   7.980 -0.2992  0.1095  0.6864
 9323SOL    HW139428   4.590   4.023   8.003 -0.7274  0.3875  0.5103
 9323SOL    HW239429   4.579   3.878   8.045 -1.5838 -0.7233  0.5285
 9324SOL     OW39430   4.605   1.229  13.081 -0.3778 -0.1050  0.3501
 9324SOL    HW139431   4.549   1.222  13.004 -0.7986 -0.4444  0.6861
 9324SOL    HW239432   4.539   1.227  13.151  0.1299 -0.5379  0.8150
 9325SOL     OW39433   0.045   2.735  10.815  0.6890 -0.5216 -0.2335
 9325SOL    HW139434   0.116   2.759  10.756  1.7466  0.9756  1.6624
 9325SOL    HW239435   0.022   2.818  10.856  2.3870  0.5465 -1.4570
 9326SOL     OW39436   2.646   2.003  10.124  0.5583 -0.1888 -0.5863
 9326SOL    HW139437   2.562   2.039  10.153  1.0066 -0.4979  1.1311
 9326SOL    HW239438   2.624   2.001  10.031  0.8943  0.9575 -0.6870
 9327SOL     OW39439   2.671   0.134   7.289  0.0962 -0.3429  0.1652
 9327SOL    HW139440   2.596   0.165   7.340 -0.2805  0.3456 -0.8132
 9327SOL    HW239441   2.746   0.135   7.348  0.0638 -1.9978  0.2335
 9328SOL     OW39442   2.755   4.482   1.756 -0.6237  0.1656 -0.0679
 9328SOL    HW139443   2.716   4.422   1.819  0.7013 -1.1150 -0.4677
 9328SOL    HW239444   2.731   4.565   1.797  1.8996  0.1615  1.4164
 9329SOL     OW39445   4.398   3.012   8.791 -0.4299  0.3978  0.4782
 9329SOL    HW139446   4.460   2.963   8.845 -0.1549 -0.3053 -0.5020
 9329SOL    HW239447   4.443   3.042   8.713 -0.8276 -0.6355 -0.1489
 9330SOL     OW39448   1.955   4.660   6.190  0.4752  0.4622  0.2884
 9330SOL    HW139449   1.916   4.616   6.114  1.2431  2.5533 -1.3216
 9330SOL    HW239450   1.899   4.632   6.262  0.3206  0.4407  0.1596
 9331SOL     OW39451   0.285   4.341   5.288 -0.8627 -0.1772  0.2399
 9331SOL    HW139452   0.356   4.314   5.345  1.7010  0.0458 -2.8663
 9331SOL    HW239453   0.220   4.278   5.320  1.4622 -1.1104  3.1587
 9332SOL     OW39454   1.474   3.883   5.245  0.5427 -0.3175  0.2900
 9332SOL    HW139455   1.441   3.947   5.182  1.2566  1.5493  1.8427
 9332SOL    HW239456   1.528   3.821   5.196 -1.0075 -0.0745 -1.7161
 9333SOL     OW39457   3.234   1.439   3.703 -0.1223  0.0765  0.1533
 9333SOL    HW139458   3.315   1.487   3.719 -1.3223  2.3014 -0.4489
 9333SOL    HW239459   3.210   1.474   3.617 -1.6818  1.0335  0.9637
 9334SOL     OW39460   4.699   1.751  10.354  0.0179 -0.2961  0.0977
 9334SOL    HW139461   4.720   1.779  10.443 -1.1754  2.1745 -0.4145
 9334SOL    HW239462   0.062   1.715  10.328  0.8150  0.9506  1.0216
 9335SOL     OW39463   3.947   0.429   4.822  0.0798  0.1087  0.0047
 9335SOL    HW139464   4.012   0.372   4.865 -0.7124 -1.0551 -0.3408
 9335SOL    HW239465   3.876   0.425   4.885  1.2164  1.2547  1.3399
 9336SOL     OW39466   2.759   2.219  14.013 -0.0842 -0.4625  0.4936
 9336SOL    HW139467   2.826   2.249  14.075 -1.3548  0.0123  1.6372
 9336SOL    HW239468   2.691   2.280  14.042 -0.9260 -0.6259 -1.1537
 9337SOL     OW39469   4.244   3.839   7.437 -0.0149 -0.1481  0.1789
 9337SOL    HW139470   4.159   3.880   7.456  0.9884  1.3903  1.3246
 9337SOL    HW239471   4.299   3.894   7.493  0.2784  0.4378 -0.6955
 9338SOL     OW39472   3.426   3.155   2.994 -0.0857  0.5496  0.5788
 9338SOL    HW139473   3.414   3.213   2.918 -3.8537  0.0258  0.7736
 9338SOL    HW239474   3.520   3.141   2.982 -0.4570 -1.6456  0.2803
 9339SOL     OW39475   3.330   0.094   9.111  0.3041  0.4160  0.5321
 9339SOL    HW139476   3.236   0.093   9.128  0.4644 -0.2888  1.3728
 9339SOL    HW239477   3.333   0.111   9.017 -1.8872 -0.6853  0.2676
 9340SOL     OW39478   3.952   0.936   9.342  0.0706 -0.1535  0.4290
 9340SOL    HW139479   3.906   0.965   9.263 -1.6232 -0.9069  1.1372
 9340SOL    HW239480   3.977   1.023   9.373 -1.1340  0.3237  0.0371
 9341SOL     OW39481   4.397   1.690   7.471  0.2240 -0.5620  0.5193
 9341SOL    HW139482   4.348   1.627   7.419 -2.6974  0.5019  1.9925
 9341SOL    HW239483   4.411   1.629   7.544 -0.6884  0.7327  1.7669
 9342SOL     OW39484   0.338   1.624  13.866  0.3401 -0.2225  0.4500
 9342SOL    HW139485   0.370   1.705  13.827  1.8596  0.1194  2.4259
 9342SOL    HW239486   0.408   1.613  13.931  0.4825  0.1199  0.3523
 9343SOL     OW39487   2.890   3.063   5.629  0.0289  0.0636  0.2313
 9343SOL    HW139488   2.919   3.140   5.580 -0.4007 -0.1332 -0.3265
 9343SOL    HW239489   2.979   3.030   5.639  0.0646  0.5622  1.6857
 9344SOL     OW39490   0.697   3.674   9.095 -0.1259  0.0479 -0.0662
 9344SOL    HW139491   0.709   3.620   9.173 -2.5038  0.4188  0.5811
 9344SOL    HW239492   0.605   3.697   9.111 -0.1964 -1.4862  1.7517
 9345SOL     OW39493   0.455   2.550   8.299 -0.0544  0.2973 -0.1245
 9345SOL    HW139494   0.529   2.611   8.289 -0.5148  1.1934  1.9883
 9345SOL    HW239495   0.391   2.621   8.292  0.6474  0.9559  0.0745
 9346SOL     OW39496   0.215   2.109   5.045  0.0630  0.0526 -0.2003
 9346SOL    HW139497   0.147   2.114   4.978 -0.3104 -0.4708  0.1331
 9346SOL    HW239498   0.174   2.075   5.125  2.4080 -1.6650  0.2971
 9347SOL     OW39499   3.869   0.323   6.316  0.2647  0.5800  0.2572
 9347SOL    HW139500   3.961   0.344   6.299  0.4479  0.9053  1.6915
 9347SOL    HW239501   3.847   0.282   6.232  1.4343 -1.1176  0.7617
 9348SOL     OW39502   2.731   3.347   5.809 -0.4614  0.0383 -0.1052
 9348SOL    HW139503   2.741   3.317   5.899 -0.2679 -1.1865 -0.5396
 9348SOL    HW239504   2.804   3.408   5.805  0.6838 -1.4017 -1.0278
 9349SOL     OW39505   2.657   3.760  11.192 -0.3006 -0.1202 -0.8642
 9349SOL    HW139506   2.596   3.770  11.264  0.2247  1.7699 -0.6887
 9349SOL    HW239507   2.653   3.665  11.178 -1.5799 -0.0671 -0.8207
 9350SOL     OW39508   0.301   4.260   5.661 -0.4858 -0.1906 -0.1056
 9350SOL    HW139509   0.360   4.216   5.600 -0.3904 -1.6759  1.0559
 9350SOL    HW239510   0.210   4.238   5.644 -1.2171  1.6381  1.4001
 9351SOL     OW39511   1.008   2.672   7.488  0.4183 -0.8733  0.4866
 9351SOL    HW139512   0.995   2.699   7.579  2.8782  0.4215  0.4614
 9351SOL    HW239513   0.945   2.602   7.472 -1.3112  0.8021  0.0908
 9352SOL     OW39514   0.405   3.660   8.645  0.6301  0.4315 -0.0385
 9352SOL    HW139515   0.430   3.580   8.599 -0.7973 -0.8520  1.4334
 9352SOL    HW239516   0.485   3.712   8.639 -0.3307  2.0003  0.7593
 9353SOL     OW39517   0.169   0.355  13.904 -0.0289  0.4837  0.1725
 9353SOL    HW139518   0.166   0.435  13.957 -0.6217  0.3908  0.2854
 9353SOL    HW239519   0.078   0.351  13.872 -0.8650  2.0202  2.3319
 9354SOL     OW39520   0.429   3.008   4.848  0.2891  0.3791  0.4591
 9354SOL    HW139521   0.334   3.014   4.850  0.3441  1.0177  1.1269
 9354SOL    HW239522   0.462   3.097   4.862  0.7271  0.4265 -0.8311
 9355SOL     OW39523   4.576   4.385   6.204 -0.3561 -0.2274  0.4702
 9355SOL    HW139524   4.625   4.398   6.285  0.2788  0.4700 -0.0150
 9355SOL    HW239525   4.485   4.391   6.234 -0.8978 -0.2348 -1.1939
 9356SOL     OW39526   3.145   3.588   5.268  0.3630  0.1623  0.1956
 9356SOL    HW139527   3.113   3.512   5.220  0.1624 -0.2709  1.0258
 9356SOL    HW239528   3.173   3.637   5.190 -0.0763  0.0844 -0.0158
 9357SOL     OW39529   4.723   1.478   5.912 -0.6709  0.3357 -0.1173
 9357SOL    HW139530   4.644   1.425   5.902 -0.0092 -0.6603 -0.0215
 9357SOL    HW239531   0.053   1.411   5.870  2.6993  1.7458  1.9227
 9358SOL     OW39532   3.324   2.190   3.723  0.2237 -0.1581  0.7149
 9358SOL    HW139533   3.292   2.257   3.784  0.7215  0.2249  0.5592
 9358SOL    HW239534   3.289   2.110   3.762  2.1436 -1.3075  0.0735
 9359SOL     OW39535   3.603   3.699  12.034 -0.1870  0.3091 -0.7040
 9359SOL    HW139536   3.607   3.721  12.127  0.0735  0.2703 -0.7035
 9359SOL    HW239537   3.652   3.616  12.038  2.1828  1.7940  0.9753
 9360SOL     OW39538   2.894   3.249   0.757  0.4757 -0.6016  0.1698
 9360SOL    HW139539   2.882   3.195   0.678 -1.8219 -0.7525  0.6226
 9360SOL    HW239540   2.889   3.184   0.828 -0.4515  1.5384  2.0510
 9361SOL     OW39541   4.331   4.580   6.723 -0.0749  0.3176 -0.1793
 9361SOL    HW139542   4.301   4.670   6.732 -1.4551 -0.1313 -0.3145
 9361SOL    HW239543   4.346   4.557   6.815  0.1251  2.1895  0.2560
 9362SOL     OW39544   1.759   2.272  15.140  0.3791  0.1577 -0.1793
 9362SOL    HW139545   1.755   2.220  15.220  0.4551  0.6488  0.1467
 9362SOL    HW239546   1.724   2.351  15.183 -0.3994  0.7506 -1.8986
 9363SOL     OW39547   4.110   0.450   6.317  0.8655 -0.1696  0.5317
 9363SOL    HW139548   4.062   0.523   6.278  2.4333  0.8195  0.4522
 9363SOL    HW239549   4.160   0.504   6.378  2.5261 -1.1830  0.0802
 9364SOL     OW39550   3.373   4.381   6.990  0.6903  0.3255  0.0071
 9364SOL    HW139551   3.393   4.418   7.076  0.5065 -0.1793  0.2646
 9364SOL    HW239552   3.332   4.455   6.944  0.2346 -1.4109 -2.4169
 9365SOL     OW39553   0.055   3.128   3.659  1.1004 -0.6230 -0.1086
 9365SOL    HW139554   4.714   3.077   3.609 -2.3540  0.8694  2.8570
 9365SOL    HW239555   0.109   3.163   3.589  1.0074 -0.0775  0.0968
 9366SOL     OW39556   0.700   3.066   1.894  0.6093  0.5183 -0.1074
 9366SOL    HW139557   0.642   3.139   1.872  0.3607  0.7669  1.3692
 9366SOL    HW239558   0.784   3.112   1.893  0.6482  0.4619  0.4317
 9367SOL     OW39559   3.658   0.578   1.985 -0.1826 -0.2746  0.5024
 9367SOL    HW139560   3.652   0.623   1.901  0.4063  0.3543  0.8024
 9367SOL    HW239561   3.564   0.575   2.004 -0.7502  1.3352 -2.1222
 9368SOL     OW39562   4.688   0.700   7.968  0.1057 -0.2918  0.4779
 9368SOL    HW139563   4.715   0.619   8.012  1.0159  0.5121  1.3736
 9368SOL    HW239564   4.662   0.752   8.044  2.3026  1.1130  0.2417
 9369SOL     OW39565   3.586   0.706  17.221  0.6959 -0.1530  0.0129
 9369SOL    HW139566   3.646   0.641  17.182  0.1024 -0.6126 -0.1438
 9369SOL    HW239567   3.579   0.770  17.150  0.0097  0.6512  0.8185
 9370SOL     OW39568   3.424   0.761  10.693  0.4369 -0.4311 -0.4072
 9370SOL    HW139569   3.518   0.752  10.711  0.6575 -0.0801 -1.3812
 9370SOL    HW239570   3.427   0.763  10.597 -0.9003 -0.3133 -0.4454
 9371SOL     OW39571   2.662   4.475   2.828 -0.3692 -1.0048  0.3595
 9371SOL    HW139572   2.709   4.511   2.904 -0.9770  0.7129 -0.0797
 9371SOL    HW239573   2.727   4.478   2.758 -1.2816 -2.2690 -0.5211
 9372SOL     OW39574   0.626   3.455   4.064  0.6712  0.2674 -0.1258
 9372SOL    HW139575   0.540   3.488   4.091  0.3943  0.0150 -0.6975
 9372SOL    HW239576   0.608   3.362   4.052  2.8314  0.0526 -1.7479
 9373SOL     OW39577   3.658   4.536   8.071 -0.1799  0.1281  0.5216
 9373SOL    HW139578   3.701   4.555   7.988  1.4403 -2.5248  0.7691
 9373SOL    HW239579   3.714   4.567   8.142  0.4326 -0.9480  0.4987
 9374SOL     OW39580   2.494   4.585   6.899 -0.6493  0.3824  0.0760
 9374SOL    HW139581   2.460   4.656   6.846 -0.8823  0.4774  0.3524
 9374SOL    HW239582   2.539   4.639   6.963 -1.4702  0.7999  0.2964
 9375SOL     OW39583   1.957   3.782   0.808 -0.0762 -0.0191 -0.1804
 9375SOL    HW139584   1.887   3.846   0.817 -0.6988  0.0855 -5.7100
 9375SOL    HW239585   1.934   3.710   0.866 -0.8858 -0.4754 -1.0723
 9376SOL     OW39586   2.537   0.048   8.978 -0.0394 -0.7231 -0.0481
 9376SOL    HW139587   2.492   4.697   8.937  0.0647 -1.1198  0.5490
 9376SOL    HW239588   2.568   0.096   8.901 -1.1496  0.5015  0.2748
 9377SOL     OW39589   3.361   4.219   4.226  0.1960 -0.3209 -0.2101
 9377SOL    HW139590   3.444   4.203   4.270 -0.7927 -0.2261  1.6947
 9377SOL    HW239591   3.328   4.295   4.274  1.0166  0.9999 -1.7226
 9378SOL     OW39592   0.062   1.525  17.158 -0.2219  0.3813 -0.1199
 9378SOL    HW139593   0.104   1.444  17.186 -1.5857 -0.7786 -1.5234
 9378SOL    HW239594   0.026   1.551  17.243 -1.3393 -1.5786  0.0031
 9379SOL     OW39595   3.717   1.620   8.349 -0.2173  0.1393  0.0856
 9379SOL    HW139596   3.669   1.660   8.422  1.5925 -0.0870  1.3829
 9379SOL    HW239597   3.805   1.653   8.366  0.1842 -1.0672  0.3108
 9380SOL     OW39598   1.430   2.560   7.083  0.1265  0.3258  0.1227
 9380SOL    HW139599   1.419   2.654   7.068  0.2356  0.0419 -1.7818
 9380SOL    HW239600   1.343   2.526   7.103  0.1900  0.9408  1.4102
 9381SOL     OW39601   2.617   3.814  11.745 -0.6706 -0.0618 -0.0882
 9381SOL    HW139602   2.572   3.862  11.815 -1.1948 -1.2534  0.3864
 9381SOL    HW239603   2.696   3.868  11.734  0.2981 -1.0710  1.7704
 9382SOL     OW39604   2.067   2.625   9.391 -0.6256  0.0674 -0.2544
 9382SOL    HW139605   1.984   2.674   9.391 -0.3219  0.5805 -0.8721
 9382SOL    HW239606   2.082   2.610   9.484  0.9013  1.8105 -0.2132
 9383SOL     OW39607   3.925   3.303  12.263 -0.0500 -0.3928 -0.3383
 9383SOL    HW139608   4.011   3.345  12.264 -0.4062  0.2438  2.4533
 9383SOL    HW239609   3.945   3.251  12.341  1.8070  0.3180 -0.3450
 9384SOL     OW39610   0.748   2.985   5.299  0.2871  0.0073  0.2175
 9384SOL    HW139611   0.841   2.962   5.303 -0.1314 -1.5788  0.5281
 9384SOL    HW239612   0.713   2.919   5.240 -0.6174  0.2850  0.4392
 9385SOL     OW39613   2.586   0.432   4.004 -0.8671 -0.9111 -0.1931
 9385SOL    HW139614   2.611   0.467   3.919 -0.0618 -1.5812 -0.2311
 9385SOL    HW239615   2.518   0.372   3.973  0.0199 -0.4130 -3.0966
 9386SOL     OW39616   0.016   3.685   6.137 -0.8376  0.0925 -0.0941
 9386SOL    HW139617   0.046   3.606   6.092  0.5548  1.3726 -1.4288
 9386SOL    HW239618   0.083   3.751   6.117 -1.0516  0.5648  0.7249
 9387SOL     OW39619   2.754   2.466   3.699  0.0776 -0.0231  0.0063
 9387SOL    HW139620   2.765   2.503   3.611  0.5897  1.7110  0.8089
 9387SOL    HW239621   2.662   2.481   3.722  0.0521  0.2634 -0.2734
 9388SOL     OW39622   4.264   3.489  15.115 -0.3239  0.2059 -0.3017
 9388SOL    HW139623   4.177   3.457  15.089  0.1339 -0.8757 -0.4923
 9388SOL    HW239624   4.322   3.413  15.120 -0.2541  0.3667  1.2428
 9389SOL     OW39625   2.041   4.590   8.470  0.2212 -0.2013  0.0653
 9389SOL    HW139626   2.039   4.598   8.375 -1.3182 -0.6735  0.0552
 9389SOL    HW239627   2.130   4.561   8.492  0.3392  0.1119  0.0054
 9390SOL     OW39628   0.998   3.041   1.260 -0.6071  0.0474 -0.2768
 9390SOL    HW139629   1.037   3.118   1.218 -3.1230  0.3994 -1.9300
 9390SOL    HW239630   1.078   2.992   1.280 -2.0682 -2.4359 -0.6474
 9391SOL     OW39631   1.012   1.081   8.477 -0.1270  0.5897  0.1979
 9391SOL    HW139632   0.961   1.062   8.399  0.1145 -0.2640  0.2462
 9391SOL    HW239633   1.090   1.122   8.438 -0.3747 -0.3149 -1.2457
 9392SOL     OW39634   2.278   3.833   5.995 -0.1225  0.0932 -0.4864
 9392SOL    HW139635   2.355   3.807   5.944  0.8939  2.1899 -0.0148
 9392SOL    HW239636   2.229   3.755   5.971  1.9049 -0.9307 -1.3132
 9393SOL     OW39637   2.166   4.401   5.506  0.0321  0.1337 -0.3933
 9393SOL    HW139638   2.156   4.320   5.556 -0.5094 -1.1377 -2.5440
 9393SOL    HW239639   2.166   4.368   5.416 -1.0253 -2.9023  0.7286
 9394SOL     OW39640   2.135   0.852   4.514 -0.0447 -0.1628 -0.5617
 9394SOL    HW139641   2.159   0.823   4.602  0.9039  0.5483 -0.5913
 9394SOL    HW239642   2.045   0.885   4.524 -0.1944  0.0697 -2.8312
 9395SOL     OW39643   2.288   4.722   4.026  0.4310  0.7400  0.1695
 9395SOL    HW139644   2.348   4.648   4.036 -2.2944 -1.5819 -0.7465
 9395SOL    HW239645   2.211   4.693   4.075  0.1667  0.2018 -0.5541
 9396SOL     OW39646   1.875   3.199  17.597  0.1083  0.1117 -0.8175
 9396SOL    HW139647   1.883   3.118  17.646  2.4011  0.1560 -1.1224
 9396SOL    HW239648   1.958   3.211  17.551 -0.2569  0.8374 -1.2989
 9397SOL     OW39649   0.097   1.842   3.245 -0.4901  0.2937  0.1050
 9397SOL    HW139650   0.061   1.755   3.266 -2.4583  1.0414 -0.1422
 9397SOL    HW239651   0.141   1.816   3.164  2.3547  3.1964  0.7403
 9398SOL     OW39652   0.050   0.107   7.969  0.3119 -0.0133 -0.0308
 9398SOL    HW139653   0.022   0.117   8.059 -0.4408  0.7099 -0.3496
 9398SOL    HW239654   0.143   0.120   7.988  0.1763  1.0397 -0.0742
 9399SOL     OW39655   3.602   1.398  10.736  0.7508 -0.0464 -0.7044
 9399SOL    HW139656   3.635   1.310  10.755 -1.2700 -0.6683 -0.0624
 9399SOL    HW239657   3.515   1.377  10.703  0.9224 -1.5441 -0.2046
 9400SOL     OW39658   2.296   3.951   7.014  0.4424 -0.1463  0.0759
 9400SOL    HW139659   2.269   3.863   6.986  0.6952 -0.4721  0.8659
 9400SOL    HW239660   2.322   3.991   6.931  1.3458  0.8347  0.8363
 9401SOL     OW39661   0.448   4.617  14.981 -0.4647 -0.8263 -0.3142
 9401SOL    HW139662   0.417   4.706  14.970 -2.1590 -1.5155 -1.0902
 9401SOL    HW239663   0.369   4.564  14.967 -1.5404  0.9751 -0.9940
 9402SOL     OW39664   4.578   3.075   8.558 -0.1101 -0.2017 -0.1084
 9402SOL    HW139665   4.673   3.080   8.555 -0.1370 -0.3432 -1.0004
 9402SOL    HW239666   4.542   3.164   8.560 -3.3611 -1.5180  1.0542
 9403SOL     OW39667   2.544   0.015  13.227  0.0823  0.3126  0.4802
 9403SOL    HW139668   2.617   0.045  13.282  1.2468 -1.3366 -0.1738
 9403SOL    HW239669   2.530   4.653  13.270 -0.6938  0.9068  1.4131
 9404SOL     OW39670   4.373   2.620   2.285  0.5331 -0.0612  0.1594
 9404SOL    HW139671   4.388   2.565   2.209  1.0051  1.9286 -1.1796
 9404SOL    HW239672   4.394   2.561   2.358 -1.3439 -0.2067  0.5840
 9405SOL     OW39673   0.356   3.358  11.018 -0.4237 -0.3863  0.3574
 9405SOL    HW139674   0.324   3.439  10.978  1.5382  0.2434  0.0174
 9405SOL    HW239675   0.310   3.366  11.102 -1.0817  3.2431 -0.3176
 9406SOL     OW39676   1.464   3.014   0.830 -0.2389  0.0508 -0.3999
 9406SOL    HW139677   1.457   2.945   0.765 -0.3635 -0.1544 -0.1677
 9406SOL    HW239678   1.535   3.069   0.794  1.1292 -1.1880  0.4006
 9407SOL     OW39679   2.597   0.581   5.461 -0.2637  0.0508  0.2669
 9407SOL    HW139680   2.648   0.549   5.387 -0.0782  1.7404 -0.3515
 9407SOL    HW239681   2.570   0.669   5.434 -0.1392 -0.3258 -1.0955
 9408SOL     OW39682   4.493   3.562   6.200  0.5583  0.8113  0.3440
 9408SOL    HW139683   4.511   3.471   6.220  2.2289  1.1053  0.1545
 9408SOL    HW239684   4.582   3.595   6.209  0.9579 -0.6243  1.4168
 9409SOL     OW39685   1.090   3.233   1.060  0.1810 -0.4276 -0.4755
 9409SOL    HW139686   1.180   3.233   1.029  0.0677  1.3099 -0.8055
 9409SOL    HW239687   1.059   3.308   1.009 -1.2407  0.0618  1.1056
 9410SOL     OW39688   1.555   1.921   0.277 -0.0201 -0.1805  0.2392
 9410SOL    HW139689   1.578   1.882   0.193 -0.6119 -2.8747  1.3359
 9410SOL    HW239690   1.630   1.978   0.297  0.0669  0.0525 -0.7408
 9411SOL     OW39691   0.820   1.096  11.882  0.2564 -0.1141  0.2344
 9411SOL    HW139692   0.810   1.001  11.880  1.6663 -0.3026  2.0055
 9411SOL    HW239693   0.777   1.112  11.798  3.1869  1.7494 -0.8908
 9412SOL     OW39694   2.244   3.276   6.316  0.6984 -0.4697 -0.4769
 9412SOL    HW139695   2.289   3.309   6.394  1.3296 -1.8067 -0.2657
 9412SOL    HW239696   2.243   3.355   6.263 -0.8098 -1.4458 -1.9195
 9413SOL     OW39697   3.468   2.735   9.236 -0.4024 -0.3198 -0.3557
 9413SOL    HW139698   3.538   2.745   9.172 -1.3162  1.6581 -1.0373
 9413SOL    HW239699   3.402   2.785   9.187  0.2708  0.3825 -0.5427
 9414SOL     OW39700   3.462   4.246   6.530  0.2122  0.3971  0.1067
 9414SOL    HW139701   3.461   4.212   6.620 -3.4349  0.0412 -0.0917
 9414SOL    HW239702   3.550   4.233   6.494  0.3386  0.5920  0.3384
 9415SOL     OW39703   1.164   2.282   5.364 -0.2554 -0.1062  0.0391
 9415SOL    HW139704   1.080   2.263   5.406 -0.8159 -0.6150 -1.2975
 9415SOL    HW239705   1.195   2.192   5.370  1.4500  0.2176 -3.9783
 9416SOL     OW39706   2.405   1.185   2.435 -0.4092 -0.4230  0.3462
 9416SOL    HW139707   2.407   1.133   2.516 -1.4286 -1.5875 -0.3792
 9416SOL    HW239708   2.495   1.217   2.430  0.2053 -2.1386  0.3613
 9417SOL     OW39709   4.394   0.652   1.019 -0.2830  0.1709  0.2361
 9417SOL    HW139710   4.400   0.588   0.948 -1.2358  0.0419  0.2780
 9417SOL    HW239711   4.312   0.699   1.006 -0.3886 -0.2743 -0.6862
 9418SOL     OW39712   0.386   1.995   9.112 -0.6330 -0.2272  1.1532
 9418SOL    HW139713   0.359   1.904   9.117 -0.7276 -0.3040 -1.2158
 9418SOL    HW239714   0.414   2.005   9.204 -1.5654  2.0957  1.1775
 9419SOL     OW39715   1.920   4.444   6.567 -0.4337  0.1973 -0.0756
 9419SOL    HW139716   2.008   4.452   6.606 -0.3743  1.0873 -0.3997
 9419SOL    HW239717   1.910   4.536   6.545  0.5346  0.7904  1.9570
 9420SOL     OW39718   4.358   1.170   5.206  0.4522  0.0952 -0.0998
 9420SOL    HW139719   4.389   1.253   5.172  0.5206  0.8167  1.7221
 9420SOL    HW239720   4.264   1.181   5.224  0.5784  0.7401  0.1679
 9421SOL     OW39721   2.557   2.962   2.987 -0.0976 -0.0127 -0.8170
 9421SOL    HW139722   2.567   2.904   2.912 -1.9680 -0.5271 -0.6621
 9421SOL    HW239723   2.509   3.031   2.942  1.3113  0.7619 -1.1421
 9422SOL     OW39724   0.671   1.497  16.856  0.9640  0.2039 -0.4190
 9422SOL    HW139725   0.586   1.509  16.815  0.0733 -1.9058  0.8003
 9422SOL    HW239726   0.631   1.477  16.941 -0.9450 -2.5156 -1.9604
 9423SOL     OW39727   4.311   1.928   8.108 -0.0634  0.5594 -0.2891
 9423SOL    HW139728   4.374   1.903   8.175 -0.8849 -1.1674 -0.1635
 9423SOL    HW239729   4.273   2.005   8.150  0.4089  0.2334  0.7298
 9424SOL     OW39730   0.788   3.078   7.676  0.4228  0.5470  0.0471
 9424SOL    HW139731   0.853   3.147   7.669 -0.8932  2.0091  2.3196
 9424SOL    HW239732   0.736   3.097   7.598 -2.5575 -1.3158  1.5654
 9425SOL     OW39733   2.927   4.236  16.407 -0.6209 -0.2187 -0.0415
 9425SOL    HW139734   2.854   4.263  16.462 -1.5887 -1.1647 -0.8609
 9425SOL    HW239735   2.909   4.149  16.371  0.6397 -0.6491  0.3525
 9426SOL     OW39736   2.121   3.277   6.783  0.2761 -0.4230  0.4903
 9426SOL    HW139737   2.052   3.223   6.744 -0.1581  1.0140 -0.7692
 9426SOL    HW239738   2.201   3.241   6.745  1.5537 -0.7002  3.4681
 9427SOL     OW39739   1.826   4.213   3.603 -0.1480  0.7491 -0.1617
 9427SOL    HW139740   1.896   4.171   3.554 -1.1980 -0.9312 -0.2296
 9427SOL    HW239741   1.765   4.140   3.608  2.2492 -1.3738 -1.9633
 9428SOL     OW39742   2.169   1.707   7.640  0.5341  0.1783  0.6849
 9428SOL    HW139743   2.236   1.747   7.584 -1.1598  1.9301 -0.0799
 9428SOL    HW239744   2.165   1.622   7.598  1.2406  0.6847 -0.4045
 9429SOL     OW39745   3.819   1.912   7.724  0.3850 -0.4045  0.7863
 9429SOL    HW139746   3.733   1.893   7.762 -0.1294 -1.4442 -0.9005
 9429SOL    HW239747   3.869   1.910   7.805 -2.8633 -2.8861  2.7678
 9430SOL     OW39748   3.138   1.113   1.499 -0.4325  0.3474 -0.4393
 9430SOL    HW139749   3.078   1.086   1.430  1.0850 -0.3757 -1.4652
 9430SOL    HW239750   3.078   1.166   1.552  0.6629  0.1529  0.9781
 9431SOL     OW39751   2.611   2.786  16.523 -0.0428  0.3030 -0.6588
 9431SOL    HW139752   2.702   2.764  16.502  0.6317  2.4196  0.0243
 9431SOL    HW239753   2.573   2.772  16.436 -3.8933  0.1273  1.0250
 9432SOL     OW39754   0.116   1.440  13.419  0.1349  0.1130 -0.2680
 9432SOL    HW139755   0.169   1.429  13.498 -1.6293 -1.8087  0.6647
 9432SOL    HW239756   0.162   1.394  13.349  1.0842  1.9642 -0.8591
 9433SOL     OW39757   1.538   2.559   3.681  0.2622  0.0262 -0.0668
 9433SOL    HW139758   1.469   2.606   3.729  0.0027  2.3166 -2.6940
 9433SOL    HW239759   1.485   2.490   3.640 -0.9694  0.0679  1.4418
 9434SOL     OW39760   0.865   2.674   7.203  0.6409 -0.6018 -0.4330
 9434SOL    HW139761   0.946   2.623   7.198  0.4367 -0.8211 -1.5973
 9434SOL    HW239762   0.821   2.623   7.271  0.7075 -0.2173 -0.1011
 9435SOL     OW39763   4.048   0.187   5.179 -0.3536 -0.0899  0.7993
 9435SOL    HW139764   4.012   0.165   5.265  0.5132 -2.1477  0.6210
 9435SOL    HW239765   3.994   0.127   5.127 -0.3307  0.4356  0.1599
 9436SOL     OW39766   2.943   0.616  14.626 -0.7307  0.3089  0.6265
 9436SOL    HW139767   2.929   0.527  14.594 -2.8894  1.1481 -0.7502
 9436SOL    HW239768   3.038   0.630  14.628 -0.5928 -0.9812  3.2030
 9437SOL     OW39769   0.397   3.572  13.416 -0.1435 -0.2090  0.3259
 9437SOL    HW139770   0.429   3.565  13.326 -3.9009 -2.5861 -0.8259
 9437SOL    HW239771   0.408   3.480  13.439 -0.8208 -0.7532 -1.4911
 9438SOL     OW39772   0.837   1.531  16.670 -0.2663 -0.3401 -0.8027
 9438SOL    HW139773   0.788   1.491  16.742  0.7933 -1.1878 -0.5578
 9438SOL    HW239774   0.886   1.598  16.717 -1.7327  0.2667 -0.1343
 9439SOL     OW39775   1.404   3.182   5.901  0.0537 -0.3491 -0.0081
 9439SOL    HW139776   1.349   3.106   5.883 -0.9157  0.0442  1.3130
 9439SOL    HW239777   1.446   3.141   5.977 -0.2793 -1.1152 -0.2400
 9440SOL     OW39778   0.878   1.474   1.705 -0.2633  0.3871 -0.0409
 9440SOL    HW139779   0.902   1.411   1.773  1.3347  0.1299 -0.8535
 9440SOL    HW239780   0.964   1.513   1.692 -1.5706  3.3444  0.1742
 9441SOL     OW39781   4.434   3.483   1.583 -0.4087 -0.8172 -0.1696
 9441SOL    HW139782   4.479   3.413   1.631 -1.3320 -1.0389  0.3737
 9441SOL    HW239783   4.345   3.463   1.612 -0.0707 -2.5744 -0.3374
 9442SOL     OW39784   0.690   4.703   8.314 -0.2282 -0.5445  0.1738
 9442SOL    HW139785   0.613   0.027   8.345  0.4437  1.3184 -0.9817
 9442SOL    HW239786   0.741   0.058   8.291  0.7173 -0.6805  1.8313
 9443SOL     OW39787   4.045   3.664   4.593  0.0107  0.3478  0.6506
 9443SOL    HW139788   4.025   3.572   4.612 -1.6946  0.7234  0.6678
 9443SOL    HW239789   4.088   3.652   4.509  3.4283 -0.6541  2.5639
 9444SOL     OW39790   0.828   4.626   0.782 -0.0990  0.6334  0.5337
 9444SOL    HW139791   0.773   4.638   0.859 -2.2522 -2.0793 -0.6053
 9444SOL    HW239792   0.877   4.546   0.801  0.3860  0.7599 -0.1437
 9445SOL     OW39793   4.086   4.438   5.247  0.6027  0.1292  0.1706
 9445SOL    HW139794   4.140   4.517   5.245  2.8483 -1.4247 -3.3331
 9445SOL    HW239795   4.012   4.458   5.189  0.1897  0.4376  0.8111
 9446SOL     OW39796   3.601   0.513   5.876 -0.8917 -0.8487  0.1108
 9446SOL    HW139797   3.605   0.424   5.911 -0.5641 -0.7805  0.2545
 9446SOL    HW239798   3.508   0.535   5.869 -0.5648 -0.4520 -2.7900
 9447SOL     OW39799   2.575   2.466   3.229  0.2967 -0.4659  0.2578
 9447SOL    HW139800   2.581   2.494   3.320  1.1918  2.7603 -0.7947
 9447SOL    HW239801   2.663   2.490   3.199 -0.6043  1.6466 -0.7274
 9448SOL     OW39802   0.524   2.945   3.624  0.1409 -0.2670 -0.6138
 9448SOL    HW139803   0.478   3.019   3.584  1.0276  0.9116  0.5446
 9448SOL    HW239804   0.573   2.992   3.691 -0.6325 -2.0680  1.2471
 9449SOL     OW39805   2.528   1.414   6.973 -0.1039  0.1299 -0.1389
 9449SOL    HW139806   2.544   1.370   7.056 -2.1609 -0.1090  0.1254
 9449SOL    HW239807   2.541   1.507   6.993  0.4656  0.4982 -2.1987
 9450SOL     OW39808   0.704   1.408   2.449 -0.0340 -0.2270 -0.3620
 9450SOL    HW139809   0.646   1.463   2.501  1.3733  1.2022 -0.3105
 9450SOL    HW239810   0.725   1.464   2.374 -0.0082  0.0911 -0.1141
 9451SOL     OW39811   3.276   0.529   5.673 -0.4794  0.3709  0.3143
 9451SOL    HW139812   3.191   0.490   5.695  0.2463  0.7211  3.6628
 9451SOL    HW239813   3.305   0.582   5.747  1.3144 -2.5444  1.7165
 9452SOL     OW39814   0.759   2.783   7.901 -0.1673  0.1929 -0.0786
 9452SOL    HW139815   0.730   2.706   7.951 -0.1389 -1.3042 -2.3411
 9452SOL    HW239816   0.787   2.826   7.981 -1.8680  1.2200 -0.0294
 9453SOL     OW39817   2.273   3.131   1.205 -0.6099 -0.4206  0.2539
 9453SOL    HW139818   2.205   3.091   1.259 -0.7257 -1.4048 -0.6241
 9453SOL    HW239819   2.285   3.218   1.242  0.5489 -0.8284  0.8470
 9454SOL     OW39820   0.661   0.011   2.943 -0.0938 -0.0102  0.0968
 9454SOL    HW139821   0.650   4.715   2.850 -1.0659  2.2290 -0.2440
 9454SOL    HW239822   0.574   4.715   2.978 -0.1454 -2.0842 -1.1776
 9455SOL     OW39823   1.807   3.763   1.545 -0.5061 -0.1774  0.5423
 9455SOL    HW139824   1.845   3.684   1.583 -2.0334 -1.0227  0.3360
 9455SOL    HW239825   1.730   3.778   1.600  0.4318 -1.1261  2.1054
 9456SOL     OW39826   3.356   1.281  10.653  0.0101 -0.6470  0.2393
 9456SOL    HW139827   3.264   1.273  10.628  0.4402 -1.4857 -1.1251
 9456SOL    HW239828   3.351   1.212  10.719 -1.9338  0.3260  1.0965
 9457SOL     OW39829   2.888   0.956  14.212 -0.5421  0.1371 -0.8530
 9457SOL    HW139830   2.924   0.898  14.279 -1.1221  0.1431 -0.5439
 9457SOL    HW239831   2.897   0.899  14.135  0.5185 -2.3490  1.1380
 9458SOL     OW39832   3.014   0.018   8.607 -0.7855 -0.1640  1.0001
 9458SOL    HW139833   3.046   4.651   8.597 -0.0772  0.3960 -1.8754
 9458SOL    HW239834   3.035   0.032   8.699 -1.8006  0.6420  1.1100
 9459SOL     OW39835   0.600   0.014   9.522 -0.2789 -0.5334  0.1772
 9459SOL    HW139836   0.661   0.081   9.491  0.4009 -1.2410 -0.0003
 9459SOL    HW239837   0.526   0.059   9.480 -1.1938 -0.1619  2.1798
 9460SOL     OW39838   4.571   3.062   6.955 -0.6420 -0.0421 -0.1034
 9460SOL    HW139839   4.526   2.980   6.935  0.8733 -0.9900  0.3862
 9460SOL    HW239840   4.646   3.057   6.896 -0.2290  2.2952  0.2206
 9461SOL     OW39841   3.692   3.560   2.566  0.0542  0.6882 -0.0514
 9461SOL    HW139842   3.688   3.559   2.661 -2.2643  1.0266 -0.1645
 9461SOL    HW239843   3.786   3.544   2.557  0.1573 -0.3884  3.0088
 9462SOL     OW39844   2.525   0.669   1.003 -0.0056 -0.6001 -0.1551
 9462SOL    HW139845   2.461   0.600   0.987 -2.3902  1.3159  1.1754
 9462SOL    HW239846   2.544   0.716   0.922  0.1241 -1.8719 -0.8551
 9463SOL     OW39847   2.555   0.441  12.067  0.1862  0.5019 -0.1451
 9463SOL    HW139848   2.470   0.469  12.032 -0.4469 -0.7103  0.3966
 9463SOL    HW239849   2.607   0.471  11.993 -0.6309  0.2195 -0.8353
 9464SOL     OW39850   1.416   0.238   1.503  0.0979 -0.2730  0.1505
 9464SOL    HW139851   1.330   0.275   1.525 -1.1150 -3.1587  0.2837
 9464SOL    HW239852   1.394   0.148   1.478 -1.4147 -0.7271  3.0470
 9465SOL     OW39853   0.761   0.615  14.671 -0.6067 -0.0517  0.0572
 9465SOL    HW139854   0.819   0.539  14.671 -0.3654  0.1255  0.9143
 9465SOL    HW239855   0.816   0.680  14.716  0.9017 -1.0225 -0.3790
 9466SOL     OW39856   0.363   0.843   6.709  0.5197 -0.2681 -0.8391
 9466SOL    HW139857   0.404   0.774   6.761 -2.0061  0.7200  2.4917
 9466SOL    HW239858   0.333   0.793   6.633  0.6943 -0.3122 -0.8786
 9467SOL     OW39859   4.347   3.595   3.424 -0.2112  0.2654  0.3637
 9467SOL    HW139860   4.360   3.586   3.518 -1.6864 -0.4626  0.5087
 9467SOL    HW239861   4.412   3.660   3.399 -0.3167  0.3737  0.3686
 9468SOL     OW39862   1.256   0.961  17.172 -0.0220  0.2545 -0.0134
 9468SOL    HW139863   1.279   1.027  17.106 -2.1898  1.2010  0.1773
 9468SOL    HW239864   1.283   1.012  17.249  0.1967 -0.4982  0.4064
 9469SOL     OW39865   0.526   1.575   6.556  0.7139  0.1258  0.1779
 9469SOL    HW139866   0.511   1.584   6.651 -0.3696  0.0915  0.0110
 9469SOL    HW239867   0.508   1.483   6.538  1.7320 -0.3122  1.4087
 9470SOL     OW39868   1.246   4.279   6.818 -0.7001 -0.2071 -0.6377
 9470SOL    HW139869   1.254   4.338   6.893  1.6318 -1.0612 -0.2241
 9470SOL    HW239870   1.297   4.333   6.758 -0.5171  1.2509  0.8240
 9471SOL     OW39871   1.207   3.179   7.255  0.1934 -0.5899 -0.2913
 9471SOL    HW139872   1.127   3.228   7.236 -0.5092 -1.4030  0.6108
 9471SOL    HW239873   1.279   3.237   7.230  0.0871  0.1147  1.0298
 9472SOL     OW39874   4.256   2.532   8.740 -0.1211 -0.1826 -0.0802
 9472SOL    HW139875   4.333   2.553   8.792 -0.8957 -1.6421  1.6646
 9472SOL    HW239876   4.206   2.606   8.774 -1.4087 -0.8860 -0.4523
 9473SOL     OW39877   1.075   4.503   2.385  0.5567  0.1148 -0.3313
 9473SOL    HW139878   1.041   4.517   2.296  1.4853  0.3578 -0.6501
 9473SOL    HW239879   1.044   4.577   2.437 -0.7982  1.2492 -2.7657
 9474SOL     OW39880   2.704   1.669   1.656  0.0528 -0.0057 -0.0644
 9474SOL    HW139881   2.645   1.595   1.639 -1.6506  1.5141 -0.7850
 9474SOL    HW239882   2.761   1.660   1.580 -0.5220  0.2032 -0.5170
 9475SOL     OW39883   2.078   0.614   6.095  0.4729  0.2130 -0.0663
 9475SOL    HW139884   2.067   0.707   6.076 -1.5387  0.2013  1.0384
 9475SOL    HW239885   2.170   0.606   6.120  1.1866  1.4940 -2.3867
 9476SOL     OW39886   2.837   0.321   1.657 -0.0860 -0.1041  0.4825
 9476SOL    HW139887   2.900   0.387   1.626 -3.7968  3.3925  0.3120
 9476SOL    HW239888   2.779   0.367   1.717 -0.3605  0.1916 -0.0071
 9477SOL     OW39889   1.716   3.387   8.105 -0.1434  0.3119 -0.2306
 9477SOL    HW139890   1.702   3.480   8.119  0.1085  0.3992 -0.5676
 9477SOL    HW239891   1.781   3.391   8.035 -0.3387  0.0572 -0.4274
 9478SOL     OW39892   4.575   3.485  12.513 -0.0384 -0.0994 -0.2437
 9478SOL    HW139893   4.529   3.406  12.486 -0.2539 -1.3298  3.6339
 9478SOL    HW239894   4.595   3.464  12.605 -0.5307  0.0812 -0.0939
 9479SOL     OW39895   2.816   3.034   7.168  0.0453 -0.0549 -0.0182
 9479SOL    HW139896   2.817   3.010   7.075  0.0694 -2.5502  0.6448
 9479SOL    HW239897   2.876   2.971   7.208  0.3020  0.7085  0.8086
 9480SOL     OW39898   4.265   1.252   6.067  0.0937 -0.4547  0.2092
 9480SOL    HW139899   4.344   1.224   6.112  1.9704  2.4473 -1.2164
 9480SOL    HW239900   4.198   1.190   6.095 -0.3099  0.0302  0.3285
 9481SOL     OW39901   2.714   3.809   2.629  0.5377  1.0207  0.1415
 9481SOL    HW139902   2.649   3.876   2.651 -0.0755  0.0470  1.3188
 9481SOL    HW239903   2.677   3.746   2.691  0.0344  0.5545 -0.6268
 9482SOL     OW39904   3.467   4.359   1.585 -0.3211  0.0767  0.2715
 9482SOL    HW139905   3.388   4.337   1.536  1.1341  2.5638 -3.2284
 9482SOL    HW239906   3.506   4.272   1.590  1.0192  0.6553  0.0453
 9483SOL     OW39907   4.037   3.387  16.212 -0.1006  0.4128 -0.1040
 9483SOL    HW139908   4.103   3.407  16.146  0.4898 -0.1089  0.3356
 9483SOL    HW239909   3.965   3.371  16.150 -1.2376 -0.1216  1.3665
 9484SOL     OW39910   2.430   4.011   7.270  0.1263  0.2172 -0.0556
 9484SOL    HW139911   2.360   4.050   7.322 -1.2020 -0.0052 -1.6590
 9484SOL    HW239912   2.383   4.007   7.186 -2.5634 -0.1392  1.4730
 9485SOL     OW39913   2.178   3.093  12.730  0.1289  0.4996  0.4700
 9485SOL    HW139914   2.270   3.067  12.738  0.2031  0.1960 -1.4784
 9485SOL    HW239915   2.196   3.165  12.669 -4.0294  0.2078 -1.0971
 9486SOL     OW39916   1.816   1.546   7.690 -0.1299  0.0677 -0.1500
 9486SOL    HW139917   1.829   1.637   7.719  0.2079 -0.3020  0.8802
 9486SOL    HW239918   1.767   1.505   7.761 -2.2623  0.8933 -1.1572
 9487SOL     OW39919   0.526   0.626   3.193 -0.1657 -0.2924  0.6199
 9487SOL    HW139920   0.478   0.611   3.112  0.2603  1.1148  0.1048
 9487SOL    HW239921   0.615   0.617   3.161 -0.0090 -0.2517  1.0470
 9488SOL     OW39922   1.930   2.446   6.789  0.7034  1.4189 -0.5424
 9488SOL    HW139923   1.842   2.450   6.827  0.7038 -0.5478 -0.3041
 9488SOL    HW239924   1.915   2.399   6.707  2.1869 -0.7066  0.3828
 9489SOL     OW39925   2.490   3.256   8.066 -0.5967 -0.0608  0.9508
 9489SOL    HW139926   2.416   3.196   8.054 -0.1418 -0.5031  0.3688
 9489SOL    HW239927   2.484   3.294   8.153  0.7190  1.5858  0.3090
 9490SOL     OW39928   1.131   3.693  10.083 -0.5723 -0.5568 -0.3822
 9490SOL    HW139929   1.139   3.677   9.989 -0.4151 -0.8778 -0.3142
 9490SOL    HW239930   1.150   3.607  10.119 -0.9950 -0.2991  0.4609
 9491SOL     OW39931   0.218   1.214  15.837  0.5504 -0.2664  0.3837
 9491SOL    HW139932   0.289   1.150  15.833 -0.6929 -1.5390 -1.2356
 9491SOL    HW239933   0.174   1.177  15.913 -2.1580 -0.0502 -1.1078
 9492SOL     OW39934   2.295   4.549   3.243  0.1102  0.1540 -0.4423
 9492SOL    HW139935   2.248   4.576   3.165  0.8159  3.2092  0.1513
 9492SOL    HW239936   2.254   4.466   3.267  0.9627  0.0360  0.6246
 9493SOL     OW39937   4.409   3.358   4.215 -0.4118  0.0143  0.6205
 9493SOL    HW139938   4.364   3.288   4.262  0.3610 -1.3451 -0.6709
 9493SOL    HW239939   4.330   3.407   4.191 -0.6309 -1.5514 -1.8559
 9494SOL     OW39940   0.674   2.365   0.435  0.3105  0.4713 -0.2558
 9494SOL    HW139941   0.730   2.441   0.453  1.6716 -0.0686 -2.2168
 9494SOL    HW239942   0.675   2.316   0.518  0.5238 -0.8126 -1.0188
 9495SOL     OW39943   3.278   1.159   9.211 -0.5825 -0.4708  0.3166
 9495SOL    HW139944   3.311   1.234   9.260  0.3619  0.4038 -1.6518
 9495SOL    HW239945   3.361   1.114   9.198 -0.9443 -0.9646 -0.2700
 9496SOL     OW39946   1.678   4.021   5.857 -0.1512 -0.5064  0.3609
 9496SOL    HW139947   1.766   4.009   5.823  0.3363  0.4707  1.2851
 9496SOL    HW239948   1.658   4.098   5.805  1.8926  0.1089  0.5054
 9497SOL     OW39949   0.969   4.380   8.263  0.3219  0.0944  0.0888
 9497SOL    HW139950   1.060   4.378   8.231  0.4806  3.6375  0.3532
 9497SOL    HW239951   0.951   4.293   8.299 -0.4157  0.6889  1.1523
 9498SOL     OW39952   1.562   1.665   3.496 -0.4011  0.1280 -0.8145
 9498SOL    HW139953   1.547   1.713   3.577  0.3610 -0.6227 -0.2270
 9498SOL    HW239954   1.600   1.590   3.542  1.5909  0.8743 -1.2644
 9499SOL     OW39955   2.269   1.919  11.489 -0.2880  0.1749  0.0828
 9499SOL    HW139956   2.308   1.999  11.523 -0.7015  0.8062 -0.9352
 9499SOL    HW239957   2.245   1.949  11.401  1.7722 -0.3711 -0.6681
 9500SOL     OW39958   1.607   2.037   5.068  0.1973 -0.4839  0.0439
 9500SOL    HW139959   1.538   2.103   5.074  0.4270 -0.1475 -0.9688
 9500SOL    HW239960   1.667   2.053   5.141 -0.8718 -0.7037  0.9736
 9501SOL     OW39961   0.551   4.078   3.746  0.0517 -0.5084 -0.1921
 9501SOL    HW139962   0.613   4.151   3.741  0.3461 -0.6975  0.7884
 9501SOL    HW239963   0.582   4.017   3.679  1.0917  1.3620 -1.4076
 9502SOL     OW39964   1.272   4.435   2.672  0.2307  0.0678  0.3537
 9502SOL    HW139965   1.263   4.355   2.723 -0.9260 -0.6547 -0.9891
 9502SOL    HW239966   1.336   4.415   2.603 -1.1123 -1.3119 -0.4703
 9503SOL     OW39967   4.319   3.787   9.514  0.4938 -0.0390 -0.1409
 9503SOL    HW139968   4.367   3.850   9.567 -0.4915 -0.7631  1.5906
 9503SOL    HW239969   4.381   3.717   9.494  0.3440 -0.1654 -0.1639
 9504SOL     OW39970   4.000   2.164   7.488 -0.4042  0.2017 -0.5537
 9504SOL    HW139971   4.059   2.090   7.486 -0.5494  0.0734 -0.2023
 9504SOL    HW239972   3.951   2.139   7.567 -3.4574  1.1128 -2.1590
 9505SOL     OW39973   1.695   4.575   5.103  0.3852 -0.0900  0.6288
 9505SOL    HW139974   1.692   4.495   5.156  2.3217 -1.2860 -1.0726
 9505SOL    HW239975   1.673   4.638   5.171 -0.9336 -0.5234  0.5965
 9506SOL     OW39976   0.571   2.615   3.296 -0.3209  0.4948  0.0028
 9506SOL    HW139977   0.634   2.546   3.318 -1.7552 -0.0937  2.2622
 9506SOL    HW239978   0.594   2.676   3.365 -2.2878 -1.1033  2.0646
 9507SOL     OW39979   3.132   4.528  11.467 -0.0055  0.3132 -0.8908
 9507SOL    HW139980   3.123   4.570  11.381  2.1848 -0.2968 -1.4091
 9507SOL    HW239981   3.189   4.455  11.443  0.1052 -0.3128  1.2570
 9508SOL     OW39982   3.616   2.110   3.753  0.6136 -0.0229  0.1961
 9508SOL    HW139983   3.522   2.125   3.745  0.6990  1.1519  1.2135
 9508SOL    HW239984   3.648   2.104   3.663  0.0485  0.7173 -0.0570
 9509SOL     OW39985   3.031   4.513   5.674  0.1153  0.2352  0.1112
 9509SOL    HW139986   2.970   4.585   5.657 -0.9263 -1.0349 -1.5121
 9509SOL    HW239987   3.028   4.462   5.593  1.2445 -0.0823  0.2680
 9510SOL     OW39988   0.912   0.321  17.337 -0.1071 -0.3795  0.4905
 9510SOL    HW139989   0.889   0.371  17.415 -1.1365 -2.3110  1.4322
 9510SOL    HW239990   1.006   0.342  17.333 -0.2607  0.2535  0.3082
 9511SOL     OW39991   3.477   3.987   3.141 -0.2942  0.8132  0.5858
 9511SOL    HW139992   3.472   4.057   3.206 -0.0595  1.9550 -0.6378
 9511SOL    HW239993   3.568   3.962   3.156 -1.0967 -2.3953  0.2339
 9512SOL     OW39994   2.675   4.714   3.851  0.1396  0.2024 -0.5148
 9512SOL    HW139995   2.686   0.032   3.938 -1.6590  3.7778 -1.9915
 9512SOL    HW239996   2.766   4.721   3.821  0.9626 -0.1555  1.8366
 9513SOL     OW39997   3.678   1.129   6.459  0.0020  0.2274  0.3809
 9513SOL    HW139998   3.614   1.103   6.526  1.6174 -2.5178  0.8635
 9513SOL    HW239999   3.697   1.215   6.495  1.6807 -0.9619  2.3342
 9514SOL     OW40000   0.021   1.157  11.380 -0.0803 -0.1492 -0.1861
 9514SOL    HW140001   0.040   1.083  11.438 -1.6228 -0.7821 -0.4901
 9514SOL    HW240002   0.063   1.225  11.433 -0.5423  0.2266 -0.3072
 9515SOL     OW40003   4.417   2.621   7.606 -0.0158  0.2120 -1.1332
 9515SOL    HW140004   4.333   2.662   7.626  0.5202  1.1897 -0.9038
 9515SOL    HW240005   4.450   2.680   7.538  1.7140  0.3446 -0.1681
 9516SOL     OW40006   0.113   3.271  15.598  0.2893  0.3484 -0.5838
 9516SOL    HW140007   0.059   3.210  15.547  2.0603 -1.4034 -0.3332
 9516SOL    HW240008   0.042   3.301  15.656  0.1597 -1.9721  0.4393
 9517SOL     OW40009   1.993   2.073   1.644 -0.3443 -0.4717  0.2806
 9517SOL    HW140010   2.069   2.022   1.673  1.8993  2.2485 -0.8944
 9517SOL    HW240011   1.996   2.059   1.550 -0.8510 -0.9328  0.3340
 9518SOL     OW40012   2.431   4.476   4.015 -1.0657 -0.1117  0.1972
 9518SOL    HW140013   2.475   4.409   4.067  0.5282  1.9460  1.4573
 9518SOL    HW240014   2.408   4.422   3.939 -2.0840 -1.3988  1.4234
 9519SOL     OW40015   0.847   4.383   8.922  0.6347  0.3941  0.4474
 9519SOL    HW140016   0.766   4.433   8.912  0.0912 -0.3812  0.9667
 9519SOL    HW240017   0.913   4.446   8.952  0.8460 -0.7611  2.4556
 9520SOL     OW40018   0.252   2.745   8.185  0.2712 -0.4055  0.1117
 9520SOL    HW140019   0.297   2.790   8.113  0.5467 -1.2001 -0.2149
 9520SOL    HW240020   0.200   2.804   8.240  0.7785 -0.6511  0.8602
 9521SOL     OW40021   3.460   2.858   4.396 -0.3800  0.1327  0.2152
 9521SOL    HW140022   3.481   2.798   4.468 -0.1350  0.8253  0.7189
 9521SOL    HW240023   3.535   2.833   4.342 -0.8661 -1.4184  0.2798
 9522SOL     OW40024   4.522   0.975   6.660  0.4024 -0.1850 -0.0771
 9522SOL    HW140025   4.606   0.933   6.678  0.4211  0.5111  1.4205
 9522SOL    HW240026   4.470   0.934   6.728  0.5964 -0.9287 -0.3787
 9523SOL     OW40027   2.895   2.571  15.755  0.3032  0.1232  0.2715
 9523SOL    HW140028   2.950   2.542  15.828  1.9407 -2.1076 -1.8800
 9523SOL    HW240029   2.909   2.509  15.684  1.9131 -1.5160  2.0251
 9524SOL     OW40030   4.337   0.698   9.811 -0.1276  0.4567 -0.0911
 9524SOL    HW140031   4.370   0.611   9.789  0.3323  0.5376  0.2613
 9524SOL    HW240032   4.416   0.753   9.810  1.4898 -1.8641  0.7077
 9525SOL     OW40033   0.450   3.322  13.425 -0.2469 -0.0797  0.0836
 9525SOL    HW140034   0.532   3.275  13.406  0.2507  0.2261  1.5123
 9525SOL    HW240035   0.431   3.271  13.503 -2.4519  1.1052  0.3198
 9526SOL     OW40036   1.091   2.290  17.232 -0.5345 -0.0859  0.3567
 9526SOL    HW140037   1.100   2.317  17.140  0.8560 -3.9313 -0.6472
 9526SOL    HW240038   1.078   2.377  17.270 -0.5469  0.2095 -0.3184
 9527SOL     OW40039   3.886   4.557   2.153 -0.9115  0.6505 -0.4056
 9527SOL    HW140040   3.843   4.510   2.082 -1.9728  0.3752  0.4318
 9527SOL    HW240041   3.946   4.611   2.100  0.5012 -1.5927 -1.1092
 9528SOL     OW40042   3.591   1.506   5.703 -0.3968  0.3713 -0.3043
 9528SOL    HW140043   3.535   1.576   5.671 -0.7314  0.3147  0.1617
 9528SOL    HW240044   3.675   1.546   5.679 -0.2646  0.3278  0.0812
 9529SOL     OW40045   2.418   2.909   5.359 -0.0681 -0.0926 -0.7018
 9529SOL    HW140046   2.449   2.825   5.392 -1.0758 -0.6501 -1.1584
 9529SOL    HW240047   2.481   2.919   5.287  1.1943 -0.3436  0.3604
 9530SOL     OW40048   1.215   0.057   0.268 -0.0257  0.1453 -0.3228
 9530SOL    HW140049   1.122   0.077   0.278 -0.2166 -0.8791 -0.0710
 9530SOL    HW240050   1.252   0.136   0.307  0.0171 -0.5646  1.0817
 9531SOL     OW40051   3.213   3.530   5.520  0.4634  0.0634  0.2632
 9531SOL    HW140052   3.239   3.439   5.502 -1.9095 -0.2365 -1.6463
 9531SOL    HW240053   3.177   3.561   5.437  0.6398  3.0436  1.3227
 9532SOL     OW40054   0.760   3.734   0.545 -0.5839  0.9139  0.1049
 9532SOL    HW140055   0.701   3.748   0.471  1.3181  4.2141 -0.7965
 9532SOL    HW240056   0.700   3.711   0.616  1.3403 -1.0839  1.0824
 9533SOL     OW40057   2.836   1.729   6.722  0.2136 -0.1377  0.2381
 9533SOL    HW140058   2.773   1.800   6.710  1.1078  0.2152 -2.2059
 9533SOL    HW240059   2.784   1.668   6.774  0.5074  0.7937  1.6493
 9534SOL     OW40060   3.084   0.373   5.818  0.2170  0.6545 -0.0310
 9534SOL    HW140061   2.991   0.351   5.811 -0.0175  0.2253  4.4185
 9534SOL    HW240062   3.130   0.292   5.795 -1.7096 -0.4375 -0.1216
 9535SOL     OW40063   1.212   1.936  10.843  0.2258 -0.0404 -0.7271
 9535SOL    HW140064   1.241   1.883  10.769  1.9477 -1.5623  1.0582
 9535SOL    HW240065   1.294   1.962  10.886  0.1333 -1.6761  0.4106
 9536SOL     OW40066   1.795   4.684   6.473 -0.2611 -0.0153  0.6176
 9536SOL    HW140067   1.775   0.053   6.489 -2.2703 -0.3120 -0.1745
 9536SOL    HW240068   1.706   4.651   6.489 -0.1973  0.2925  1.6002
 9537SOL     OW40069   2.830   4.623   0.571  0.1435  0.0346  0.2975
 9537SOL    HW140070   2.875   4.642   0.489 -0.9891 -1.1309 -0.5884
 9537SOL    HW240071   2.841   4.528   0.580 -1.6499 -0.1241  0.8788
 9538SOL     OW40072   4.374   0.565   5.685  0.3550 -0.1141 -0.1547
 9538SOL    HW140073   4.366   0.660   5.695  1.0569 -0.2095  1.2656
 9538SOL    HW240074   4.412   0.558   5.772 -0.1724  1.1567  0.1716
 9539SOL     OW40075   1.712   3.996  12.702  0.3156 -0.0478  0.0429
 9539SOL    HW140076   1.782   3.977  12.765  0.8281  1.9021  0.0457
 9539SOL    HW240077   1.674   3.911  12.680  0.4280 -0.2900  0.7884
 9540SOL     OW40078   2.605   2.546   9.793  0.5342  0.2156 -0.2896
 9540SOL    HW140079   2.661   2.606   9.843 -0.1905 -0.0039  0.7744
 9540SOL    HW240080   2.622   2.456   9.820 -2.9959 -0.9507 -1.9167
 9541SOL     OW40081   3.580   3.543  15.909 -0.4661  0.3190  0.3596
 9541SOL    HW140082   3.491   3.549  15.874 -0.1048 -2.2004 -0.9654
 9541SOL    HW240083   3.569   3.490  15.988 -0.1938  0.0343  0.2065
 9542SOL     OW40084   1.147   0.098   7.045 -0.4364 -0.3297  0.7552
 9542SOL    HW140085   1.098   0.125   7.123 -1.7502  1.2955 -0.6115
 9542SOL    HW240086   1.235   0.072   7.072 -0.5141  0.0395  1.3741
 9543SOL     OW40087   4.372   2.295   2.765  0.2451  0.1753  0.5475
 9543SOL    HW140088   4.466   2.276   2.774 -0.1646 -2.2289 -0.3229
 9543SOL    HW240089   4.366   2.379   2.719  0.4045 -0.5534 -0.7904
 9544SOL     OW40090   2.859   3.504   7.800  0.3236 -0.5792  0.0844
 9544SOL    HW140091   2.868   3.425   7.854 -1.0402  0.3854  1.7143
 9544SOL    HW240092   2.947   3.506   7.762  0.2065  1.5607 -0.0490
 9545SOL     OW40093   3.022   4.416   2.908  0.0376  0.6406  0.3087
 9545SOL    HW140094   2.986   4.369   2.983  1.0969  0.6755  0.8360
 9545SOL    HW240095   3.070   4.487   2.949  0.3801  2.8502 -3.9042
 9546SOL     OW40096   1.926   0.408   5.874  0.5141 -0.0042 -0.3750
 9546SOL    HW140097   2.009   0.445   5.905  0.9581  1.3899 -3.2130
 9546SOL    HW240098   1.878   0.479   5.832  0.6971 -0.2860 -1.0637
 9547SOL     OW40099   4.656   3.390  11.011  0.2434  0.5320  0.3392
 9547SOL    HW140100   0.021   3.424  10.992  1.3404 -1.9144  1.0719
 9547SOL    HW240101   4.672   3.357  11.099  3.1825 -0.2903 -0.5130
 9548SOL     OW40102   1.374   2.265   7.344  0.0294  0.3695  0.6309
 9548SOL    HW140103   1.299   2.212   7.370  0.2751  0.4605  1.5073
 9548SOL    HW240104   1.426   2.199   7.299 -2.4438 -1.4320  0.3711
 9549SOL     OW40105   4.067   4.422  10.173  0.2715  0.1568  0.2512
 9549SOL    HW140106   4.007   4.422  10.098 -0.0322 -1.3302  0.4889
 9549SOL    HW240107   4.010   4.389  10.243 -3.3398 -0.4989 -2.9662
 9550SOL     OW40108   3.622   4.519   4.307 -0.1775  0.9363 -0.1621
 9550SOL    HW140109   3.681   4.578   4.354 -0.8805  1.3063  0.2688
 9550SOL    HW240110   3.534   4.551   4.328 -0.7211  0.4047 -1.6266
 9551SOL     OW40111   1.910   1.745   2.928 -0.0085 -0.0476 -0.7446
 9551SOL    HW140112   1.843   1.812   2.938  0.2123  0.3207 -1.7706
 9551SOL    HW240113   1.870   1.699   2.854 -0.4773  0.3892 -0.7588
 9552SOL     OW40114   1.253   2.121  12.956 -0.0184 -0.1957 -0.3197
 9552SOL    HW140115   1.295   2.072  12.885  0.1876  1.4828 -1.3591
 9552SOL    HW240116   1.304   2.202  12.956  1.1755 -0.9410  0.8125
 9553SOL     OW40117   3.127   2.083   8.395 -0.1281  0.2365  0.1359
 9553SOL    HW140118   3.120   1.988   8.387 -1.1651  0.4581 -1.4624
 9553SOL    HW240119   3.139   2.097   8.489 -2.8476  0.3042  0.4567
 9554SOL     OW40120   3.083   4.545   0.724  0.0777 -0.1632  0.3914
 9554SOL    HW140121   3.037   4.610   0.777  0.2884  0.4653 -0.1997
 9554SOL    HW240122   3.005   4.507   0.684 -0.4782 -1.1903  2.4403
 9555SOL     OW40123   0.606   4.156  12.103 -0.2903  0.1551  0.4482
 9555SOL    HW140124   0.563   4.071  12.102 -0.5859  0.3022  2.1250
 9555SOL    HW240125   0.690   4.133  12.144  0.8595 -1.5997 -2.8269
 9556SOL     OW40126   2.989   0.304   3.901 -0.6414  0.1103 -0.6022
 9556SOL    HW140127   2.955   0.371   3.841  1.3061  0.2803 -1.5194
 9556SOL    HW240128   2.970   0.338   3.989 -0.4053  0.6471 -0.7602
 9557SOL     OW40129   1.774   2.093   5.262 -0.0332  0.7052  0.0909
 9557SOL    HW140130   1.784   2.022   5.326  1.9807 -0.3621 -1.4120
 9557SOL    HW240131   1.862   2.095   5.224 -0.1645 -2.8791 -0.4036
 9558SOL     OW40132   0.281   4.706   7.486  0.0122  0.2511 -0.0659
 9558SOL    HW140133   0.365   0.016   7.518  0.2148 -0.3346  0.0015
 9558SOL    HW240134   0.233   4.679   7.564  0.4343  0.0050  0.1075
 9559SOL     OW40135   2.209   4.594  17.485  0.0442  0.2337 -0.6496
 9559SOL    HW140136   2.213   4.675  17.434 -2.1943  0.1287 -0.9824
 9559SOL    HW240137   2.146   4.626  17.549 -1.7956 -1.9272 -1.3554
 9560SOL     OW40138   4.720   4.204   6.077 -0.0250 -0.4058 -0.0658
 9560SOL    HW140139   4.680   4.266   6.137 -0.8710 -0.5166 -0.5241
 9560SOL    HW240140   4.667   4.223   6.000 -0.0917 -0.0356  0.0706
 9561SOL     OW40141   1.406   3.675   7.327  0.0246  0.3079 -0.4038
 9561SOL    HW140142   1.335   3.740   7.333 -0.9854 -0.9080  0.8368
 9561SOL    HW240143   1.478   3.733   7.350  1.0516 -0.8783 -0.6229
 9562SOL     OW40144   2.854   3.380   6.091 -0.2160 -0.4428  0.0525
 9562SOL    HW140145   2.865   3.415   6.180  2.3807 -1.9734  0.3454
 9562SOL    HW240146   2.942   3.342   6.084 -0.7370 -1.0959 -2.7334
 9563SOL     OW40147   4.488   0.443   4.618  0.0391 -0.1630 -0.4834
 9563SOL    HW140148   4.545   0.516   4.594 -1.2628  1.2405  0.6695
 9563SOL    HW240149   4.556   0.394   4.665 -1.1433 -3.3039 -2.0586
 9564SOL     OW40150   3.536   2.974  16.531  0.6580  0.0065 -0.0887
 9564SOL    HW140151   3.615   2.988  16.582  0.1857 -1.0999  0.9409
 9564SOL    HW240152   3.531   2.879  16.526  0.3898  0.0802 -1.2420
 9565SOL     OW40153   2.346   3.262  14.454 -0.0495  0.3376  0.5102
 9565SOL    HW140154   2.439   3.256  14.476  0.2291 -3.5508 -1.6680
 9565SOL    HW240155   2.332   3.168  14.443  1.2665  0.0815  1.0057
   4.72300   4.72300  17.69392
