Membrane in water
40155
    1TCq1    O1    1   4.690   1.084  12.119 -0.2779 -0.4679 -0.7627
    1TCq1    C1    2   4.570   1.040  12.157 -0.5679  0.6343  0.4182
    1TCq1    O2    3   4.463   1.087  12.121  0.1086  0.3855 -0.0692
    1TCq1    C2    4   4.584   0.893  12.193 -0.1925  0.3108  0.4414
    1TCq1    C3    5   4.697   0.845  12.245  0.2987  0.3967  0.1845
    1TCq1    C4    6   4.706   0.714  12.285 -0.2989  0.3056  0.4764
    1TCq1    C5    7   4.603   0.625  12.267  0.1061 -0.1205  0.2420
    1TCq1    C6    8   4.487   0.683  12.220  0.5454  0.1427  0.0677
    1TCq1    C7    9   4.479   0.815  12.189 -0.7697  0.1208 -0.6696
    1TCq1    C8   10   4.377   0.599  12.175 -0.0424  0.1520 -0.7061
    1TCq1    O4   11   4.267   0.648  12.146  0.1790 -0.7725  0.0307
    1TCq1    C9   12   0.103   0.653  12.337 -0.6910  0.2412  0.0144
    1TCq1    O5   13   0.182   0.724  12.395  0.1375  0.3439 -0.4329
    1TCq1    O6   14   0.114   0.530  12.311 -0.0699 -0.4689 -0.2006
    1TCq1    H1   15   0.042   1.020  12.108 -0.7304 -1.7234  3.4990
    1TCq1    H2   16   0.068   0.902  12.253  1.6452 -1.7625 -0.1482
    1TCq1    H3   17   4.605   0.525  12.308 -0.2751 -0.7484 -1.2704
    1TCq1    H4   18   4.380   0.855  12.167 -0.5896  1.1060  0.2924
    2MPD2     C   19   4.177   0.136  12.133 -0.8577  0.3763  0.0467
    2MPD2    C1   20   4.117   0.254  12.148 -0.4668 -0.0035 -0.1499
    2MPD2    C2   21   4.198   0.366  12.156  0.2335  0.5557 -0.5554
    2MPD2    C3   22   4.333   0.355  12.156 -1.3943  0.1383 -0.1386
    2MPD2    C4   23   4.390   0.237  12.139  0.5963 -0.4668 -0.2107
    2MPD2    C5   24   4.310   0.123  12.132 -0.5903  0.0186  0.4903
    2MPD2     H   25   4.143   0.459  12.167 -0.4794  0.1540 -0.7214
    2MPD2    H1   26   4.496   0.217  12.140  0.9647  1.4983 -0.7554
    2MPD2    H2   27   4.132   0.039  12.114  1.2093 -0.5819 -0.0515
    2MPD2    H3   28   4.358   0.030  12.105 -2.0549  0.2332 -2.7894
    2MPD2     N   29   4.423   0.466  12.172 -0.3201 -0.1795  0.5423
    2MPD2    H5   30   4.523   0.450  12.169 -0.0897  1.0099  1.4580
    2MPD2    N1   31   3.975   0.261  12.149  0.4423  0.1739 -0.4122
    2MPD2    H7   32   3.938   0.356  12.153  0.0379  0.0595 -1.2986
    3TCq1    O1   33   3.597   0.457  11.227  0.2399  0.8921  0.1187
    3TCq1    C1   34   3.471   0.485  11.189  0.3857  0.2197  0.0878
    3TCq1    O2   35   3.395   0.425  11.116  0.0657 -1.0968 -0.2621
    3TCq1    C2   36   3.464   0.629  11.184 -0.0936 -0.2166 -0.9802
    3TCq1    C3   37   3.579   0.711  11.193  0.0027 -0.1584 -0.4905
    3TCq1    C4   38   3.555   0.848  11.200  0.0135  0.3692  0.1917
    3TCq1    C5   39   3.429   0.899  11.204 -0.6648  0.7284  0.4625
    3TCq1    C6   40   3.326   0.815  11.201  0.3933  0.7164  0.1622
    3TCq1    C7   41   3.337   0.681  11.187 -0.4446  0.0712  0.2872
    3TCq1    C8   42   3.199   0.855  11.261  0.2445  0.3781  0.1999
    3TCq1    O4   43   3.150   0.777  11.337  0.3712 -0.0890  0.0656
    3TCq1    C9   44   3.660   0.944  11.208 -1.2380  0.0193  0.1596
    3TCq1    O5   45   3.623   1.054  11.253 -0.1361 -0.2906  0.8792
    3TCq1    O6   46   3.779   0.902  11.184  0.0413 -0.1621 -0.1273
    3TCq1    H1   47   3.641   0.520  11.287 -0.9532  1.7310  0.1176
    3TCq1    H2   48   3.679   0.672  11.181 -0.0973  0.0454 -1.9831
    3TCq1    H3   49   3.410   1.006  11.203 -0.2797  0.8053  1.2821
    3TCq1    H4   50   3.248   0.620  11.183  1.2091 -2.3613  0.6178
    4MPD2     C   51   2.843   1.215  11.411  0.6001  0.9106 -0.0851
    4MPD2    C1   52   2.924   1.263  11.302 -0.2285  0.1505 -0.2139
    4MPD2    C2   53   3.020   1.183  11.238  0.2183  0.7118 -0.3208
    4MPD2    C3   54   3.054   1.062  11.288 -0.5591 -0.4535 -0.7087
    4MPD2    C4   55   2.983   1.015  11.396  0.0195  0.8579  0.0034
    4MPD2    C5   56   2.879   1.091  11.459 -0.0627  0.3931 -0.0725
    4MPD2     H   57   3.075   1.222  11.153  0.9802  0.6942  0.1640
    4MPD2    H1   58   2.993   0.914  11.434  1.0043  0.4274 -1.3784
    4MPD2    H2   59   2.753   1.260  11.453  0.6139  0.9472 -0.0947
    4MPD2    H3   60   2.808   1.043  11.525  0.3602 -1.7946 -1.2254
    4MPD2     N   61   3.157   0.985  11.225 -0.4354  0.1480 -0.4683
    4MPD2    H5   62   3.212   1.026  11.151  0.6223 -1.9856 -0.8698
    4MPD2    N1   63   2.877   1.387  11.244 -0.1721 -0.0918 -0.3173
    4MPD2    H7   64   2.893   1.403  11.145 -2.2143 -2.6267 -1.0654
    5TCq1    O1   65   0.139   3.303  11.465 -0.0705  0.0448  0.3662
    5TCq1    C1   66   0.030   3.311  11.389 -0.1022 -0.2768  0.3749
    5TCq1    O2   67   4.700   3.412  11.347  0.2894 -0.1395  0.0655
    5TCq1    C2   68   4.680   3.189  11.404 -0.1611  0.9357  0.1406
    5TCq1    C3   69   4.659   3.142  11.531  0.0851  0.5477  0.6084
    5TCq1    C4   70   4.537   3.079  11.557  0.4172 -0.3927 -0.8049
    5TCq1    C5   71   4.445   3.047  11.457 -0.2757 -0.1883 -0.4315
    5TCq1    C6   72   4.474   3.106  11.339 -0.7372 -0.4464  0.2690
    5TCq1    C7   73   4.588   3.175  11.304  0.5816  0.3645  0.3710
    5TCq1    C8   74   4.378   3.097  11.231  0.4270  0.8918 -0.5530
    5TCq1    O4   75   4.419   3.100  11.116  0.0470 -0.3786  0.1653
    5TCq1    C9   76   4.509   3.047  11.698 -0.5400  1.3195  0.4754
    5TCq1    O5   77   4.388   3.030  11.720  0.0414  0.5903  0.7609
    5TCq1    O6   78   4.600   3.063  11.786 -0.5343  0.4799 -0.0953
    5TCq1    H1   79   0.169   3.211  11.475  1.1611  0.4570  0.4263
    5TCq1    H2   80   0.001   3.172  11.614 -1.5038  2.5758  1.0786
    5TCq1    H3   81   4.354   2.991  11.472 -1.2252  1.7806  1.0663
    5TCq1    H4   82   4.610   3.223  11.210 -3.0362  2.2673  0.4794
    6MPD2     C   83   4.013   3.103  11.226  0.6084  0.2744  0.5065
    6MPD2    C1   84   4.138   3.083  11.182  0.2897 -0.1475 -0.5628
    6MPD2    C2   85   4.150   3.030  11.056  0.0806 -0.6710  0.6400
    6MPD2    C3   86   4.037   3.011  10.973  0.3702  0.2743 -0.5193
    6MPD2    C4   87   3.913   3.056  11.009 -0.3151  0.0547  0.4498
    6MPD2    C5   88   3.910   3.097  11.145 -0.2651  0.2875 -0.0866
    6MPD2     H   89   4.244   3.003  11.010  0.2189  0.6787  0.1295
    6MPD2    H1   90   3.820   3.043  10.955 -0.5702 -0.2446  0.9707
    6MPD2    H2   91   4.000   3.140  11.327 -2.2133  0.7472 -0.0191
    6MPD2    H3   92   3.810   3.128  11.174  0.1146  0.9359  0.5392
    6MPD2     N   93   4.051   2.942  10.850 -0.2850  0.2814 -0.6894
    6MPD2    H5   94   4.147   2.919  10.826 -0.8000 -1.4953 -1.0817
    6MPD2    N1   95   4.249   3.099  11.265  0.4070  0.2794  0.5116
    6MPD2    H7   96   4.218   3.110  11.361 -0.5931 -2.9994  0.5748
    7TCq1    O1   97   0.956   3.224  13.164 -0.2895  0.4557 -0.0972
    7TCq1    C1   98   0.912   3.207  13.040  0.3464  0.8659  0.7068
    7TCq1    O2   99   0.881   3.294  12.962 -0.3475 -0.6776 -0.2297
    7TCq1    C2  100   0.942   3.067  12.994 -0.8530 -0.3687 -0.4939
    7TCq1    C3  101   0.911   3.037  12.864 -0.5739 -0.0278 -0.5936
    7TCq1    C4  102   0.919   2.907  12.825 -1.0241  0.4244 -0.2624
    7TCq1    C5  103   0.978   2.813  12.901  0.7280 -0.0774  0.6094
    7TCq1    C6  104   1.012   2.844  13.028 -0.0365 -0.3263  0.1380
    7TCq1    C7  105   0.999   2.974  13.076 -0.7891  0.3486 -0.2157
    7TCq1    C8  106   1.058   2.734  13.114  0.0570 -0.1990 -0.5237
    7TCq1    O4  107   1.021   2.623  13.086 -0.1403  0.2796  0.0979
    7TCq1    C9  108   0.870   2.868  12.697  0.3547  0.2314  0.3522
    7TCq1    O5  109   0.921   2.765  12.641 -0.4457  0.1815  0.4142
    7TCq1    O6  110   0.759   2.916  12.656 -0.2431  0.2607  0.2296
    7TCq1    H1  111   0.980   3.147  13.219  2.9932 -0.0708 -2.2975
    7TCq1    H2  112   0.862   3.110  12.801 -1.9776 -2.2428 -2.0672
    7TCq1    H3  113   0.982   2.711  12.865  0.8969 -0.9785  3.1875
    7TCq1    H4  114   1.006   2.987  13.183  2.3633 -0.1743 -0.3468
    8MPD2     C  115   1.366   2.558  13.491 -0.0519 -0.1949  0.0463
    8MPD2    C1  116   1.263   2.490  13.424  0.0508 -0.1819  0.2789
    8MPD2    C2  117   1.194   2.559  13.332 -0.2827 -0.1153 -0.9136
    8MPD2    C3  118   1.228   2.690  13.289  0.1514 -0.5858  0.2217
    8MPD2    C4  119   1.343   2.743  13.349 -1.0981  0.2771  0.2908
    8MPD2    C5  120   1.412   2.677  13.445 -0.2991 -0.0757 -0.1292
    8MPD2     H  121   1.099   2.513  13.305 -0.9901 -0.0657  1.4163
    8MPD2    H1  122   1.374   2.844  13.326 -1.6970  1.1168  3.1751
    8MPD2    H2  123   1.431   2.501  13.556  0.9937 -0.4533 -1.2327
    8MPD2    H3  124   1.500   2.726  13.484 -0.8800  0.8600  0.0174
    8MPD2     N  125   1.150   2.776  13.211  0.1453 -0.3178  0.4866
    8MPD2    H5  126   1.177   2.874  13.205  1.7535 -0.7316  0.9739
    8MPD2    N1  127   1.236   2.352  13.458 -0.2208  0.2470 -0.3817
    8MPD2    H7  128   1.289   2.319  13.537  1.5313  1.6608 -0.9658
    9TCq1    O1  129   4.174   2.216  10.808  0.2392  0.1765  0.6580
    9TCq1    C1  130   4.130   2.244  10.932  0.1784 -0.4934 -0.4867
    9TCq1    O2  131   4.039   2.319  10.952 -0.1312 -0.0479  0.3486
    9TCq1    C2  132   4.107   2.118  10.999  0.2276 -0.2429 -0.2606
    9TCq1    C3  133   4.194   2.012  10.983  0.0220 -0.7115  0.3397
    9TCq1    C4  134   4.155   1.882  11.016  0.2030 -0.1396  0.2313
    9TCq1    C5  135   4.028   1.856  11.071  0.5578 -0.3491 -0.2592
    9TCq1    C6  136   3.937   1.962  11.083 -0.0904 -0.4089  0.3421
    9TCq1    C7  137   3.978   2.085  11.039  0.9069  0.3574 -0.1439
    9TCq1    C8  138   3.803   1.942  11.145 -0.0169 -0.0846 -0.4735
    9TCq1    O4  139   3.704   2.002  11.101 -0.6168  0.1276  0.1995
    9TCq1    C9  140   4.239   1.768  10.967  0.2387 -0.7720 -0.6356
    9TCq1    O5  141   4.331   1.795  10.888  0.5538 -0.2454 -0.1234
    9TCq1    O6  142   4.206   1.649  10.996  0.2349 -0.1816 -0.0112
    9TCq1    H1  143   4.226   2.133  10.813 -0.0613 -0.0626 -0.2318
    9TCq1    H2  144   4.297   2.031  10.954  0.1474  0.2241  1.4133
    9TCq1    H3  145   4.012   1.750  11.086  2.0503 -0.4713  0.4098
    9TCq1    H4  146   3.917   2.172  11.060  2.4137  1.5415 -0.6138
   10MPD2     C  147   3.564   1.799  11.260 -0.9528  0.0159  0.3620
   10MPD2    C1  148   3.691   1.779  11.303 -0.2889  0.1229  0.5333
   10MPD2    C2  149   3.705   1.695  11.397 -0.1191  0.6819 -0.1453
   10MPD2    C3  150   3.598   1.628  11.458 -0.1676  0.7368 -0.2892
   10MPD2    C4  151   3.470   1.660  11.419 -0.0212 -0.0670  0.0469
   10MPD2    C5  152   3.453   1.743  11.320 -0.0846 -0.2491 -0.2760
   10MPD2     H  153   3.808   1.676  11.424  0.0127  2.3052  0.5142
   10MPD2    H1  154   3.391   1.596  11.459 -0.9104  2.2365  1.9858
   10MPD2    H2  155   3.546   1.846  11.164 -0.3075 -2.4879 -0.9890
   10MPD2    H3  156   3.352   1.763  11.284  1.0107  1.6196 -2.3293
   10MPD2     N  157   3.616   1.528  11.549 -0.5338  0.6011  0.3204
   10MPD2    H5  158   3.533   1.475  11.575  1.3450 -2.0493  0.9892
   10MPD2    N1  159   3.808   1.845  11.239 -0.1089  0.0106 -0.4185
   10MPD2    H7  160   3.899   1.833  11.283  0.3915  0.8255 -1.2064
   11TCq1    O1  161   4.119   1.298  13.847 -0.1223  0.4087 -0.4654
   11TCq1    C1  162   4.236   1.322  13.914 -0.8414 -0.4691 -0.3459
   11TCq1    O2  163   4.251   1.411  13.998  0.2359 -0.2335 -0.0685
   11TCq1    C2  164   4.319   1.199  13.898 -0.4889 -0.9909  0.0562
   11TCq1    C3  165   4.452   1.215  13.884  0.5260  0.2485  0.8540
   11TCq1    C4  166   4.525   1.106  13.835 -0.0672  0.7610  0.2878
   11TCq1    C5  167   4.463   0.986  13.804 -0.1804  0.3250  0.6638
   11TCq1    C6  168   4.331   0.971  13.844 -0.1104  0.1386  0.4674
   11TCq1    C7  169   4.256   1.082  13.891 -0.0501  0.6006 -0.1884
   11TCq1    C8  170   4.261   0.849  13.807  0.2639  0.3262 -0.8365
   11TCq1    O4  171   4.310   0.771  13.726 -0.4970 -0.4728 -0.2299
   11TCq1    C9  172   4.665   1.125  13.807  0.0820 -0.3383 -0.4785
   11TCq1    O5  173   4.712   1.241  13.818  0.2555 -0.0652 -0.5356
   11TCq1    O6  174   0.012   1.023  13.779  0.2395 -0.5054  0.0563
   11TCq1    H1  175   4.146   1.245  13.769 -1.0720  1.9739 -1.8445
   11TCq1    H2  176   4.507   1.308  13.890  0.1649  0.5348 -0.2002
   11TCq1    H3  177   4.521   0.906  13.761 -0.6853  0.6378 -0.5886
   11TCq1    H4  178   4.151   1.074  13.918 -0.5772  0.4389 -2.2957
   12MPD2     C  179   3.942   0.718  13.923  0.5825  0.0608 -0.1013
   12MPD2    C1  180   4.048   0.730  13.838  0.0567 -0.1237 -0.3174
   12MPD2    C2  181   4.052   0.639  13.731 -0.3662 -0.0129 -0.2125
   12MPD2    C3  182   3.947   0.556  13.707 -0.7320  1.0160 -0.5161
   12MPD2    C4  183   3.844   0.544  13.801 -0.0692 -0.0358 -0.1521
   12MPD2    C5  184   3.847   0.619  13.912 -0.2524 -0.1140  0.0768
   12MPD2     H  185   4.140   0.634  13.668  0.5997  0.5143  1.0991
   12MPD2    H1  186   3.772   0.464  13.788  0.8929 -0.7745 -0.9063
   12MPD2    H2  187   3.929   0.784  14.008  0.8631 -0.6484  0.4919
   12MPD2    H3  188   3.757   0.613  13.972 -0.2813 -1.9366 -0.1549
   12MPD2     N  189   3.938   0.479  13.594 -0.5415 -0.4911 -0.3324
   12MPD2    H5  190   3.859   0.416  13.602 -0.9229 -0.0800 -0.8828
   12MPD2    N1  191   4.142   0.830  13.874 -0.4485  0.7404 -0.5852
   12MPD2    H7  192   4.122   0.891  13.952  0.2449  0.5512 -0.2644
   13TCq1    O1  193   4.199   4.433  11.758  0.8149 -0.1838  0.6498
   13TCq1    C1  194   4.176   4.545  11.831  0.1674 -0.1603 -0.2470
   13TCq1    O2  195   4.258   4.590  11.909  0.7885 -0.2199 -0.2835
   13TCq1    C2  196   4.045   4.605  11.798 -1.3806  0.2529  1.2218
   13TCq1    C3  197   3.956   4.516  11.749  0.2036  0.0488  0.1260
   13TCq1    C4  198   3.849   4.562  11.677 -0.2708  0.2359 -0.6533
   13TCq1    C5  199   3.818   4.703  11.680  0.0173  0.7338  0.5956
   13TCq1    C6  200   3.903   0.061  11.757  0.0627  1.4211 -0.2090
   13TCq1    C7  201   4.020   0.014  11.821  0.0055 -0.0960  0.4396
   13TCq1    C8  202   3.864   0.198  11.772  1.1395 -0.4444  0.4483
   13TCq1    O4  203   3.747   0.221  11.756 -0.2797  0.0583  0.0860
   13TCq1    C9  204   3.762   4.481  11.600 -0.8543 -0.5051  0.3694
   13TCq1    O5  205   3.678   4.543  11.537 -0.0547  0.1880 -0.2507
   13TCq1    O6  206   3.739   4.372  11.658 -0.0345  0.1667 -0.4211
   13TCq1    H1  207   4.130   4.421  11.690 -0.1207  0.5441  1.4803
   13TCq1    H2  208   3.972   4.408  11.746 -3.5582 -0.5526  1.7711
   13TCq1    H3  209   3.728   0.023  11.636 -0.9056 -2.0934 -0.1439
   13TCq1    H4  210   4.082   0.071  11.889  1.9681 -1.5558 -0.1351
   14MPD2     C  211   4.075   0.503  11.792 -0.0268  0.7149  0.1430
   14MPD2    C1  212   3.961   0.427  11.779  0.0693  0.3329 -0.8667
   14MPD2    C2  213   3.850   0.495  11.731  0.5446 -0.0199 -0.4156
   14MPD2    C3  214   3.839   0.624  11.707 -0.3217 -0.3565  0.1236
   14MPD2    C4  215   3.948   0.697  11.731 -0.8535 -0.2891 -0.7096
   14MPD2    C5  216   4.065   0.639  11.773  0.0953  0.5932  0.2631
   14MPD2     H  217   3.754   0.446  11.723  0.2038  0.5000  0.5716
   14MPD2    H1  218   3.954   0.805  11.735 -1.8115 -0.2375 -0.5022
   14MPD2    H2  219   4.170   0.469  11.831 -0.3815 -3.5350 -2.6539
   14MPD2    H3  220   4.144   0.713  11.785  0.7524 -0.2723  1.3411
   14MPD2     N  221   3.711   0.687  11.681 -0.5963  0.7463  0.2412
   14MPD2    H5  222   3.636   0.630  11.645 -0.3814  0.8641 -0.3826
   14MPD2    N1  223   3.971   0.281  11.796 -0.2424  0.2293  0.0379
   14MPD2    H7  224   4.062   0.239  11.809  0.1974  0.7590 -1.3235
   15TCq1    O1  225   1.050   0.669   2.486 -0.1365 -0.0662 -0.5559
   15TCq1    C1  226   0.914   0.674   2.482 -0.3263  0.7220  0.3667
   15TCq1    O2  227   0.843   0.703   2.578 -0.1907  0.2227  0.6299
   15TCq1    C2  228   0.873   0.702   2.342 -0.0974 -0.3771  0.2626
   15TCq1    C3  229   0.754   0.769   2.323  0.1135  0.4641  0.0816
   15TCq1    C4  230   0.707   0.781   2.195  0.4521 -0.6196  0.4751
   15TCq1    C5  231   0.773   0.730   2.088  0.3472  0.6765 -0.0518
   15TCq1    C6  232   0.886   0.658   2.109 -0.5731 -0.2162  0.3598
   15TCq1    C7  233   0.936   0.643   2.240  0.3401  0.4400 -0.4089
   15TCq1    C8  234   0.964   0.614   1.991 -0.3003 -0.4499  0.1939
   15TCq1    O4  235   1.081   0.579   2.005  0.2758 -0.1898 -0.0456
   15TCq1    C9  236   0.589   0.867   2.167  0.0541  0.6187  0.4995
   15TCq1    O5  237   0.555   0.884   2.048 -0.3361  0.1354 -0.4184
   15TCq1    O6  238   0.521   0.903   2.264 -0.3344  0.2864  0.0868
   15TCq1    H1  239   1.095   0.666   2.399 -0.5932 -0.1703 -0.7893
   15TCq1    H2  240   0.711   0.833   2.399  1.1922  1.8137 -0.4249
   15TCq1    H3  241   0.756   0.765   1.987 -0.4239 -1.2224 -0.5757
   15TCq1    H4  242   1.024   0.580   2.250 -0.3829 -0.5982 -0.5541
   16MPD2     C  243   0.845   0.552   1.648 -0.3165  0.5932 -0.5730
   16MPD2    C1  244   0.934   0.546   1.756 -0.4299 -0.2045  0.1754
   16MPD2    C2  245   1.062   0.495   1.730 -0.0870  0.2464 -0.2599
   16MPD2    C3  246   1.100   0.447   1.608 -0.1543 -0.0684 -0.7785
   16MPD2    C4  247   1.015   0.463   1.503 -0.1245  0.6087 -0.2866
   16MPD2    C5  248   0.892   0.522   1.528  0.2585 -0.1982 -1.0935
   16MPD2     H  249   1.134   0.473   1.807  0.0691  3.4284  0.4971
   16MPD2    H1  250   1.040   0.430   1.402 -1.1706  1.6955 -0.8985
   16MPD2    H2  251   0.743   0.590   1.653 -0.8979 -1.2626  1.5806
   16MPD2    H3  252   0.831   0.542   1.440  1.8018 -3.1459 -2.8288
   16MPD2     N  253   1.231   0.387   1.587  0.9204 -0.1641 -0.6970
   16MPD2    H5  254   1.290   0.391   1.670  0.5675  2.9060 -0.5667
   16MPD2    N1  255   0.891   0.604   1.878 -0.0397  0.3446  0.4043
   16MPD2    H7  256   0.792   0.628   1.880  0.0132  0.5829  0.2474
   17TCq1    O1  257   2.843   4.200  10.191 -0.7465  0.1463  0.3823
   17TCq1    C1  258   2.885   4.271  10.082  0.8901 -0.1212 -0.0558
   17TCq1    O2  259   2.816   4.306   9.990 -0.1889 -0.2633 -0.0725
   17TCq1    C2  260   3.029   4.249  10.080  0.0717  0.0154 -0.6800
   17TCq1    C3  261   3.078   4.232   9.950 -0.0103 -0.5135  0.5065
   17TCq1    C4  262   3.214   4.237   9.933  0.7462 -0.6998  0.5382
   17TCq1    C5  263   3.295   4.267  10.034 -0.1953  0.2163 -0.2036
   17TCq1    C6  264   3.244   4.301  10.161 -0.0516  0.1996 -0.2322
   17TCq1    C7  265   3.111   4.291  10.184  0.2758  0.1085 -0.2241
   17TCq1    C8  266   3.331   4.331  10.274  0.1496  0.2945 -0.0534
   17TCq1    O4  267   3.282   4.343  10.384 -0.5943  0.6765  0.1136
   17TCq1    C9  268   3.274   4.191   9.808  0.0502  0.2959 -0.2351
   17TCq1    O5  269   3.401   4.203   9.788 -0.2723 -0.0316 -0.3890
   17TCq1    O6  270   3.199   4.126   9.732 -0.0455 -0.5801 -0.0694
   17TCq1    H1  271   2.916   4.153  10.238  0.6061  1.4057 -0.4501
   17TCq1    H2  272   3.016   4.211   9.863  1.7685 -1.5844 -0.5011
   17TCq1    H3  273   3.402   4.258  10.020 -0.7336 -1.4514 -3.2639
   17TCq1    H4  274   3.066   4.323  10.277  0.4894  1.6107 -0.6459
   18MPD2     C  275   3.558   4.386  10.457 -0.0017  0.5866  0.2443
   18MPD2    C1  276   3.567   4.386  10.318  0.8074 -0.3922 -0.1114
   18MPD2    C2  277   3.685   4.410  10.255 -0.2894  0.8190  0.6729
   18MPD2    C3  278   3.792   4.446  10.333  0.1609  0.0669  0.2104
   18MPD2    C4  279   3.785   4.462  10.469 -0.1664  0.1966  0.0499
   18MPD2    C5  280   3.661   4.429  10.530  0.9703 -0.0863 -0.4878
   18MPD2     H  281   3.698   4.389  10.149  0.3673 -1.0221  1.1092
   18MPD2    H1  282   3.862   4.500  10.534 -0.0210 -1.6199  0.9181
   18MPD2    H2  283   3.469   4.356  10.511 -0.7691  2.7451  0.1968
   18MPD2    H3  284   3.651   4.427  10.638  0.2407 -0.8111 -0.5680
   18MPD2     N  285   3.916   4.485  10.282 -0.4691  0.2736  0.6440
   18MPD2    H5  286   3.987   4.518  10.347  0.8298  2.0511 -1.6766
   18MPD2    N1  287   3.461   4.353  10.231  0.3237 -0.0204 -0.1216
   18MPD2    H7  288   3.476   4.350  10.131 -0.3549  0.5275 -0.2332
   19TMC2    C1  289   0.356   0.832  13.691 -0.5591  0.0726 -0.1122
   19TMC2    C2  290   0.248   0.888  13.631 -0.5349 -0.4935  0.7580
   19TMC2    C3  291   0.163   0.800  13.569  0.2586 -0.1023 -0.1455
   19TMC2    C4  292   0.377   0.699  13.702  0.8008 -0.0157  0.3231
   19TMC2    C5  293   0.291   0.614  13.637 -0.6483  0.1012  0.5319
   19TMC2    C6  294   0.185   0.663  13.564  1.1705  0.7183  0.0419
   19TMC2     C  295   0.440   0.925  13.757 -0.5743  0.0163  0.0344
   19TMC2     O  296   0.463   1.036  13.714  0.3005 -0.3089  0.3165
   19TMC2     H  297   0.235   0.996  13.629  1.3232 -0.2954 -0.5935
   19TMC2    H1  298   0.478   0.667  13.725  1.2802  0.1599 -1.5030
   19TMC2    H2  299   0.109   0.593  13.530  0.4949  0.7040  1.6066
   19TMC2    C7  300   0.293   0.479  13.679 -0.9008  0.0534  0.7058
   19TMC2    C8  301   0.053   0.841  13.486 -0.6427  0.5468 -0.5571
   19TMC2    O1  302   0.253   0.393  13.606  0.1259  0.1123  0.9954
   19TMC2    O2  303   0.042   0.787  13.380 -0.2489 -0.1929 -0.1263
   19TMC2    O5  304   0.028   0.965  13.531  0.2539 -0.4751 -0.5897
   19TMC2    H5  305   0.039   0.975  13.628 -4.3805  1.2841 -0.2531
   20MPD2     C  306   0.650   1.044  13.928  0.1420 -0.0338  0.4856
   20MPD2    C1  307   0.575   0.932  13.963 -0.9203 -0.3367 -0.5026
   20MPD2    C2  308   0.589   0.887  14.093  0.3290  0.5269  0.6625
   20MPD2    C3  309   0.670   0.946  14.190 -0.2902 -0.2382 -0.1190
   20MPD2    C4  310   0.749   1.048  14.145  0.6116  0.6177 -0.3110
   20MPD2    C5  311   0.741   1.095  14.016  0.6618 -0.6972  0.7742
   20MPD2     H  312   0.525   0.806  14.125  0.6827 -0.6255 -1.5497
   20MPD2    H1  313   0.818   1.098  14.211 -1.1863  1.6703  0.7563
   20MPD2    H2  314   0.655   1.089  13.830  0.0729 -2.2251 -0.5229
   20MPD2    H3  315   0.800   1.184  13.994  2.2322 -1.8034  0.5090
   20MPD2     N  316   0.676   0.917  14.329  0.1959  0.5786 -0.2326
   20MPD2    H5  317   0.715   0.987  14.391  1.7525  1.5601 -2.3406
   20MPD2    N1  318   0.476   0.873  13.876 -0.0374 -0.5500 -0.1619
   20MPD2    H7  319   0.426   0.791  13.908 -1.8474 -0.1416 -1.9248
   21MPD2     C  320   3.166   1.126  14.653 -0.3570  0.2782  0.9407
   21MPD2    C1  321   3.197   0.990  14.656  0.4787 -0.1201  0.4680
   21MPD2    C2  322   3.102   0.898  14.666  0.3977 -0.0505 -0.0313
   21MPD2    C3  323   2.971   0.930  14.672 -0.4785 -0.0943 -0.4700
   21MPD2    C4  324   2.935   1.064  14.650  0.6069 -0.1384 -0.2891
   21MPD2    C5  325   3.030   1.164  14.650  0.2370  0.3243  0.4157
   21MPD2     H  326   3.133   0.794  14.670 -0.2304 -0.2589 -0.6065
   21MPD2    H1  327   2.833   1.098  14.659  0.6596 -0.1149  0.2232
   21MPD2    H2  328   3.246   1.199  14.657  1.1598 -1.2389 -1.5447
   21MPD2    H3  329   2.995   1.265  14.632  0.8135  0.3519 -0.5368
   21MPD2     N  330   2.869   0.833  14.683  0.1401 -0.5558 -0.0503
   21MPD2    H5  331   2.776   0.869  14.702  0.5224 -0.1794  1.1338
   21MPD2    N1  332   3.331   0.940  14.639  0.3524  0.2947  0.3793
   21MPD2    H7  333   3.345   0.840  14.636  2.4263  0.6880 -2.0894
   22TCq2    C1  334   2.886   0.694  14.681 -0.1169 -0.0392  0.4051
   22TCq2    O2  335   2.982   0.619  14.651  0.2160  0.3130 -0.1973
   22TCq2    C2  336   2.761   0.617  14.715  0.0051 -0.2071 -0.0743
   22TCq2    C3  337   2.783   0.511  14.793  0.4011 -0.4094  0.4184
   22TCq2    C4  338   2.679   0.444  14.856  0.3029 -0.8366  0.4235
   22TCq2    C5  339   2.554   0.509  14.856  0.3383 -0.1021 -0.3110
   22TCq2    C6  340   2.538   0.626  14.785 -0.2578  0.2429 -0.2369
   22TCq2    C7  341   2.642   0.686  14.715  0.2962 -0.6384 -0.6284
   22TCq2    C8  342   2.399   0.683  14.778 -0.4776  0.3027 -0.1474
   22TCq2    O4  343   2.309   0.628  14.842 -0.3820 -0.2584 -0.8965
   22TCq2    C9  344   2.709   0.330  14.949  0.1010  0.3866 -0.3886
   22TCq2    O5  345   2.639   0.317  15.052  0.1902  0.3001  0.3338
   22TCq2    O6  346   2.822   0.276  14.930  0.2614  0.0507 -0.6712
   22TCq2    H2  347   2.882   0.467  14.794  1.4478  1.9934  0.4828
   22TCq2    H3  348   2.468   0.475  14.914 -0.3512  2.9946  0.4677
   22TCq2    H4  349   2.630   0.775  14.654 -0.0890  0.8882  1.6681
   23MPD2     C  350   4.520   2.527  14.995  0.0771 -0.1486  0.0916
   23MPD2    C1  351   4.470   2.401  15.016 -0.3626 -0.4692 -0.0831
   23MPD2    C2  352   4.376   2.349  14.928 -0.2475  0.5401 -0.5252
   23MPD2    C3  353   4.332   2.424  14.817  0.8522  0.6263 -0.7976
   23MPD2    C4  354   4.379   2.554  14.801 -0.5180 -0.0664  0.7333
   23MPD2    C5  355   4.476   2.603  14.891 -0.5506  0.4117 -0.0787
   23MPD2     H  356   4.324   2.257  14.951  0.6147  0.2808  0.3665
   23MPD2    H1  357   4.362   2.623  14.719 -1.4597  0.4694  1.3911
   23MPD2    H2  358   4.606   2.563  15.050  1.1861  0.9598 -2.3972
   23MPD2    H3  359   4.518   2.699  14.863  0.0677  0.9544  2.7272
   23MPD2     N  360   4.235   2.373  14.727 -0.2579 -0.2777 -0.3372
   23MPD2    H5  361   4.205   2.443  14.660  1.5948  0.7167 -0.0987
   23MPD2    N1  362   4.499   2.334  15.138 -0.8817 -0.0429  0.4206
   23MPD2    H7  363   4.449   2.246  15.148 -1.9934  0.3003 -1.9896
   24TCq2    C1  364   4.173   2.247  14.725  1.0081 -0.2659 -0.1363
   24TCq2    O2  365   4.196   2.145  14.785 -0.2390  0.0957  0.3121
   24TCq2    C2  366   4.048   2.256  14.668  0.4402 -0.4469  0.4346
   24TCq2    C3  367   3.978   2.373  14.651 -0.5748  0.2733 -0.0887
   24TCq2    C4  368   3.887   2.385  14.548 -0.1534 -0.6724 -0.2834
   24TCq2    C5  369   3.847   2.280  14.475 -0.0711 -0.1748  0.2063
   24TCq2    C6  370   3.906   2.159  14.500 -0.3064  0.0147 -0.2559
   24TCq2    C7  371   4.007   2.145  14.595 -0.3625  0.2235  0.2314
   24TCq2    C8  372   3.837   2.039  14.468  0.9643 -0.3502 -0.0632
   24TCq2    O4  373   3.886   1.934  14.505 -0.5630 -0.2855  0.1529
   24TCq2    C9  374   3.837   2.517  14.520 -0.4267 -0.2176 -0.2379
   24TCq2    O5  375   3.756   2.532  14.423 -0.2613  1.0154 -0.1074
   24TCq2    O6  376   3.915   2.601  14.560  0.8203  0.0879  0.1910
   24TCq2    H2  377   4.007   2.461  14.707 -0.4188  0.7587 -0.9206
   24TCq2    H3  378   3.766   2.289  14.403  0.4686 -1.5566 -0.5712
   24TCq2    H4  379   4.046   2.046  14.618  2.0669  1.2422  0.3874
   25TMC2    C1  380   2.627   4.218  11.278 -0.3858  0.1320  0.3358
   25TMC2    C2  381   2.635   4.339  11.211  0.3968 -0.2996  0.2292
   25TMC2    C3  382   2.615   4.459  11.285 -0.5311  0.1214 -0.9604
   25TMC2    C4  383   2.611   4.208  11.409  1.0154 -0.2079 -0.2815
   25TMC2    C5  384   2.604   4.325  11.476  0.1735  0.7658 -0.9053
   25TMC2    C6  385   2.609   4.449  11.420  0.6009 -0.0098 -0.2957
   25TMC2     C  386   2.626   4.108  11.186  1.1134 -0.1368  0.5769
   25TMC2     O  387   2.651   4.133  11.067 -0.2350  0.0773  0.1929
   25TMC2     H  388   2.652   4.342  11.104  0.8806 -2.2937  0.2584
   25TMC2    H1  389   2.612   4.116  11.467 -1.0458 -0.4130 -0.5956
   25TMC2    H2  390   2.619   4.542  11.475  0.6515  2.0071 -3.7131
   25TMC2    C7  391   2.592   4.319  11.625  0.3552  0.3718  0.3373
   25TMC2    C8  392   2.684   4.574  11.244 -0.2132  0.2211  0.2657
   25TMC2    O1  393   2.617   4.204  11.670  0.3619  0.4987  0.7906
   25TMC2    O2  394   2.797   4.601  11.280  0.1055 -0.0205  0.5822
   25TMC2    O5  395   2.632   4.611  11.124  0.0586  0.1055 -0.0463
   25TMC2    H5  396   2.550   4.562  11.101 -0.6609  2.0116 -1.5508
   26MPD2     C  397   2.627   3.601  11.083 -0.4907 -0.0921  0.2731
   26MPD2    C1  398   2.616   3.617  11.220 -0.3893 -0.4405  0.1856
   26MPD2    C2  399   2.617   3.748  11.267 -0.1005 -0.2079  0.1411
   26MPD2    C3  400   2.625   3.858  11.187  0.5460  0.3015 -0.8696
   26MPD2    C4  401   2.626   3.839  11.053  1.4093  0.5731 -0.1328
   26MPD2    C5  402   2.632   3.710  11.004 -0.1677 -0.3561  0.4941
   26MPD2     H  403   2.606   3.765  11.373  0.6021 -0.0029  0.1825
   26MPD2    H1  404   2.631   3.924  10.986  1.6016  1.0525  0.4909
   26MPD2    H2  405   2.639   3.505  11.035  0.7814  0.9864 -1.5665
   26MPD2    H3  406   2.628   3.703  10.896 -0.6886 -2.5134  0.6555
   26MPD2     N  407   2.621   3.984  11.251 -0.5781 -0.1098 -0.2574
   26MPD2    H5  408   2.629   3.986  11.352  0.1279  0.5063 -0.3222
   26MPD2    N1  409   2.613   3.507  11.300 -0.4160 -0.3632 -0.0236
   26MPD2    H7  410   2.637   3.419  11.255 -1.2628 -0.9392  0.6633
   27TMC2    C1  411   2.017   1.490  11.806 -0.2515 -0.2473  0.4784
   27TMC2    C2  412   1.928   1.489  11.697 -0.4014 -0.1929  0.0741
   27TMC2    C3  413   1.841   1.593  11.686 -0.0057 -0.2989 -0.2737
   27TMC2    C4  414   2.028   1.600  11.886  0.0682 -0.0340 -0.4051
   27TMC2    C5  415   1.944   1.703  11.865  0.3222 -0.0718  0.0699
   27TMC2    C6  416   1.843   1.699  11.774 -0.1585 -0.1229 -0.1275
   27TMC2     C  417   1.985   1.375  11.880 -0.4542 -0.1539 -0.4001
   27TMC2     O  418   1.973   1.269  11.826 -1.0127 -0.0388  0.0479
   27TMC2     H  419   1.924   1.394  11.646 -0.2854 -0.7629  1.1387
   27TMC2    H1  420   2.120   1.607  11.944  0.4420 -0.7721 -0.9063
   27TMC2    H2  421   1.765   1.774  11.769  1.0644  0.9876 -2.5683
   27TMC2    C7  422   1.904   1.758  11.990 -0.3336 -0.0539  0.9214
   27TMC2    C8  423   1.732   1.602  11.592 -0.5779 -0.7899  0.8099
   27TMC2    O1  424   1.945   1.687  12.082 -0.2499 -0.0550  0.0696
   27TMC2    O2  425   1.646   1.683  11.612 -0.7192 -0.2797  0.1019
   27TMC2    O5  426   1.740   1.510  11.495 -0.1336 -0.4345  0.2341
   27TMC2    H5  427   1.803   1.438  11.513 -0.2578  0.1792  3.2105
   28MPD2     C  428   1.748   1.209  12.312  0.2929  0.3497  0.0001
   28MPD2    C1  429   1.747   1.347  12.308  0.0308  0.7070 -0.3617
   28MPD2    C2  430   1.812   1.412  12.203  0.5199 -0.0860  0.9813
   28MPD2    C3  431   1.884   1.343  12.111 -1.2601  0.9468  0.7676
   28MPD2    C4  432   1.891   1.207  12.126  0.4527  0.2384 -0.3120
   28MPD2    C5  433   1.822   1.139  12.220  0.1065  0.2827  0.1823
   28MPD2     H  434   1.807   1.519  12.194  2.4484  0.0455  1.4390
   28MPD2    H1  435   1.957   1.155  12.058 -1.8296 -2.6394 -0.3067
   28MPD2    H2  436   1.692   1.158  12.390  0.2474 -0.5194 -0.6031
   28MPD2    H3  437   1.816   1.032  12.228 -1.0079  0.1231 -2.5077
   28MPD2     N  438   1.938   1.418  12.003 -0.4544  0.1915 -0.4386
   28MPD2    H5  439   1.946   1.517  12.026  0.3673 -0.1801  0.8182
   28MPD2    N1  440   1.665   1.411  12.401  0.7760 -0.0509  0.3193
   28MPD2    H7  441   1.613   1.346  12.459 -0.2812  0.7957  0.3136
   29MPD2     C  442   1.264   3.993  13.865  0.1713 -0.3158 -0.3588
   29MPD2    C1  443   1.391   3.943  13.871 -0.1285 -0.2408 -0.0619
   29MPD2    C2  444   1.496   4.034  13.904 -0.4977 -0.0294 -0.2141
   29MPD2    C3  445   1.465   4.164  13.932  0.5342  0.3056 -0.4572
   29MPD2    C4  446   1.339   4.205  13.934  0.0031  0.7416 -0.6052
   29MPD2    C5  447   1.240   4.117  13.908 -0.2521 -0.2361  0.0259
   29MPD2     H  448   1.594   3.987  13.906 -0.2596  0.5605  1.4266
   29MPD2    H1  449   1.305   4.308  13.930 -0.9638  0.4168 -0.7536
   29MPD2    H2  450   1.177   3.933  13.843 -1.1924  1.5227 -0.0036
   29MPD2    H3  451   1.136   4.146  13.902 -0.1837  0.0407  0.1921
   29MPD2     N  452   1.566   4.254  13.959  0.1427  0.1798 -0.2937
   29MPD2    H5  453   1.548   4.341  14.008 -3.3917 -1.1698  0.7716
   29MPD2    N1  454   1.430   3.807  13.850 -0.1660  0.2139 -0.1646
   29MPD2    H7  455   1.529   3.783  13.851  0.0541  1.1175 -0.9014
   30TCq2    C1  456   1.700   4.244  13.926  0.4329  0.5807 -0.3998
   30TCq2    O2  457   1.749   4.160  13.850 -0.6263 -0.0462  0.0342
   30TCq2    C2  458   1.785   4.346  13.984  0.6184  0.5981 -0.7379
   30TCq2    C3  459   1.742   4.415  14.089  0.6313  0.0939 -0.2121
   30TCq2    C4  460   1.827   4.514  14.136 -0.1681 -0.0089  0.3066
   30TCq2    C5  461   1.950   4.529  14.086  0.0319 -0.2597  0.5820
   30TCq2    C6  462   1.994   4.442  13.985 -0.0726 -0.2618  0.4790
   30TCq2    C7  463   1.908   4.352  13.936  0.1947 -0.0130  0.4255
   30TCq2    C8  464   2.133   4.442  13.949  0.0402 -0.4663  0.1623
   30TCq2    O4  465   2.166   4.381  13.846 -0.5322  0.0631  0.1156
   30TCq2    C9  466   1.776   4.609  14.230  0.0742  0.3070 -0.3758
   30TCq2    O5  467   1.836   4.719  14.236 -0.7190 -0.1516  0.3060
   30TCq2    O6  468   1.673   4.584  14.291 -0.4700 -0.5922 -0.0776
   30TCq2    H2  469   1.639   4.416  14.121  0.8727  0.2743  0.5685
   30TCq2    H3  470   2.009   4.615  14.118  0.0520 -0.4511  1.0637
   30TCq2    H4  471   1.942   4.284  13.859  0.4800  0.5093  0.0919
   31MPD2     C  472   4.516   3.139  15.022 -0.0804 -0.5774 -0.2051
   31MPD2    C1  473   4.408   3.094  14.955 -0.6740 -0.2886 -0.0295
   31MPD2    C2  474   4.355   2.970  15.000 -0.1246  0.1223 -0.3871
   31MPD2    C3  475   4.399   2.915  15.115  0.3100 -0.6307 -0.1569
   31MPD2    C4  476   4.496   2.974  15.190  0.3248 -0.4864 -0.4385
   31MPD2    C5  477   4.560   3.084  15.136  0.3814  0.0760 -0.3480
   31MPD2     H  478   4.262   2.932  14.960  0.7405  0.1708 -2.4508
   31MPD2    H1  479   4.530   2.930  15.283  1.1428  0.5220 -0.2588
   31MPD2    H2  480   4.572   3.229  14.998 -2.4732  0.5206 -1.6780
   31MPD2    H3  481   4.641   3.131  15.190 -0.9189  1.1839  0.6380
   31MPD2     N  482   4.333   2.798  15.168  0.5336  0.0011  0.5998
   31MPD2    H5  483   4.377   2.754  15.249 -0.4366  1.3004  1.8336
   31MPD2    N1  484   4.354   3.170  14.846  0.1402  0.1418 -0.5457
   31MPD2    H7  485   4.410   3.252  14.826  0.2276 -0.1468 -1.4856
   32TCq2    C1  486   4.218   2.735  15.116 -0.0535 -0.4108  0.4184
   32TCq2    O2  487   4.134   2.776  15.038  0.3562 -0.8453 -0.8153
   32TCq2    C2  488   4.181   2.605  15.171 -0.5875 -0.4759 -0.1209
   32TCq2    C3  489   4.118   2.514  15.096 -0.4513 -0.6584  0.7080
   32TCq2    C4  490   4.107   2.387  15.140  0.2988  0.6948 -0.3131
   32TCq2    C5  491   4.172   2.347  15.261  0.6581  0.2857 -0.0091
   32TCq2    C6  492   4.242   2.448  15.336 -0.9263  0.2039  0.0727
   32TCq2    C7  493   4.240   2.573  15.290  0.8547 -0.3708 -0.0258
   32TCq2    C8  494   4.242   2.415  15.478 -0.4816  0.0044  0.1416
   32TCq2    O4  495   4.261   2.298  15.503 -0.0674  0.1535 -0.4021
   32TCq2    C9  496   4.038   2.292  15.057 -0.1713  0.5676  0.0960
   32TCq2    O5  497   4.069   2.178  15.083  0.3738 -0.2444 -0.3291
   32TCq2    O6  498   3.929   2.326  15.012 -0.3546 -0.2988  0.2632
   32TCq2    H2  499   4.077   2.539  14.999  2.0096 -0.5445 -0.2956
   32TCq2    H3  500   4.154   2.249  15.302 -0.5750  1.2301  1.7032
   32TCq2    H4  501   4.313   2.644  15.327 -0.4129  1.6610 -1.4418
   33MPD2     C  502   4.339   0.435  10.029  0.3260  0.3813 -0.3440
   33MPD2    C1  503   4.294   0.332   9.944 -1.5838 -0.0763  0.1690
   33MPD2    C2  504   4.258   0.362   9.816  0.8042  0.1981 -0.4448
   33MPD2    C3  505   4.278   0.492   9.758  0.8678  0.2626 -0.0625
   33MPD2    C4  506   4.328   0.592   9.844  0.4645  0.1691  0.1485
   33MPD2    C5  507   4.359   0.560   9.975 -0.7075 -0.3969 -0.5726
   33MPD2     H  508   4.244   0.284   9.741  0.2055 -1.9362  1.8994
   33MPD2    H1  509   4.340   0.693   9.808  0.9150  0.4316  1.0499
   33MPD2    H2  510   4.364   0.423  10.133  1.4504  0.4950 -0.5961
   33MPD2    H3  511   4.378   0.642  10.044 -0.5667 -1.1243  0.2378
   33MPD2     N  512   4.253   0.526   9.622 -0.3282 -0.4823 -0.7313
   33MPD2    H5  513   4.283   0.614   9.582  0.8069 -0.4586  0.1873
   33MPD2    N1  514   4.275   0.208  10.002 -0.2666 -0.3081 -0.5298
   33MPD2    H7  515   4.296   0.191  10.100  1.1408  3.2254 -0.2277
   34TCq2    C1  516   4.177   0.449   9.531  0.4139 -0.3261 -0.3068
   34TCq2    O2  517   4.109   0.351   9.553 -0.1132  0.3362  1.1111
   34TCq2    C2  518   4.185   0.495   9.390 -0.8094  0.3469 -0.2208
   34TCq2    C3  519   4.094   0.446   9.306 -0.6808  0.1437 -0.3498
   34TCq2    C4  520   4.097   0.480   9.171  0.3091  0.3075  1.1049
   34TCq2    C5  521   4.191   0.575   9.129 -0.2445  0.7824 -0.8247
   34TCq2    C6  522   4.294   0.611   9.204  0.9167 -0.5764  0.5573
   34TCq2    C7  523   4.293   0.570   9.341 -0.5107  0.6889 -0.0184
   34TCq2    C8  524   4.368   0.734   9.170  0.2548  0.4147  0.1139
   34TCq2    O4  525   4.481   0.749   9.219 -0.1435 -0.3385 -0.6227
   34TCq2    C9  526   3.973   0.456   9.097 -0.3839  0.2107  0.3733
   34TCq2    O5  527   3.946   0.528   8.999 -0.3871 -0.3493 -0.2891
   34TCq2    O6  528   3.900   0.363   9.135  0.0666  0.2720  0.4043
   34TCq2    H2  529   4.018   0.377   9.340 -0.9385  0.6223  0.0443
   34TCq2    H3  530   4.183   0.589   9.022 -0.2599  0.2262 -0.8972
   34TCq2    H4  531   4.379   0.599   9.400 -1.6180  0.2764  1.8112
   35MPD2     C  532   1.471   2.212  11.692  0.0824 -0.0579  0.1030
   35MPD2    C1  533   1.428   2.104  11.767  0.6853  0.4490 -0.4112
   35MPD2    C2  534   1.317   2.034  11.728 -0.0006 -0.0236 -0.1771
   35MPD2    C3  535   1.239   2.067  11.612 -0.9039  0.5046  0.2382
   35MPD2    C4  536   1.277   2.183  11.540  0.1765 -0.1139  1.1920
   35MPD2    C5  537   1.389   2.252  11.586  0.8919  0.0724  0.9636
   35MPD2     H  538   1.285   1.953  11.792 -0.1533 -0.2065 -0.4833
   35MPD2    H1  539   1.236   2.199  11.441 -1.5538 -0.7143  1.8150
   35MPD2    H2  540   1.560   2.272  11.703 -0.5586  1.2857 -1.9565
   35MPD2    H3  541   1.426   2.328  11.518 -0.9174  0.3426  0.2803
   35MPD2     N  542   1.119   1.994  11.593 -0.7774  0.0136 -0.1143
   35MPD2    H5  543   1.102   1.915  11.654  0.6852  2.2541  3.2203
   35MPD2    N1  544   1.499   2.069  11.882 -0.1894  0.2239  0.2127
   35MPD2    H7  545   1.520   2.143  11.948 -0.5766  1.9411 -1.5892
   36TCq2    C1  546   1.026   2.028  11.503 -1.0495 -0.0991  0.6660
   36TCq2    O2  547   1.018   2.133  11.441 -0.2451  0.0071 -0.1828
   36TCq2    C2  548   0.906   1.951  11.510 -0.1308 -0.2226 -0.1347
   36TCq2    C3  549   0.797   2.034  11.501 -0.0212  0.4416  0.0257
   36TCq2    C4  550   0.681   1.986  11.565  0.6410  0.6342  0.1363
   36TCq2    C5  551   0.675   1.860  11.626 -0.9979  0.3818  0.2394
   36TCq2    C6  552   0.787   1.780  11.614 -0.2743  0.2012  0.0070
   36TCq2    C7  553   0.902   1.824  11.567  0.0765 -0.9493  0.5030
   36TCq2    C8  554   0.754   1.642  11.573 -0.3348  0.6534 -0.6987
   36TCq2    O4  555   0.637   1.611  11.585  0.1994  0.4012  0.6805
   36TCq2    C9  556   0.563   2.069  11.570 -0.0609  0.2086  0.7466
   36TCq2    O5  557   0.569   2.180  11.508 -0.2714  0.6939  0.2234
   36TCq2    O6  558   0.482   2.039  11.664 -0.1730  0.3330  0.2895
   36TCq2    H2  559   0.804   2.137  11.469  0.1345  0.9768  1.7969
   36TCq2    H3  560   0.576   1.827  11.654 -0.4472  1.0114  2.9299
   36TCq2    H4  561   0.987   1.756  11.569 -0.2928 -1.4129  0.5482
   37TMC2    C1  562   3.428   2.111  11.430 -0.8429 -0.4835 -0.0674
   37TMC2    C2  563   3.501   2.144  11.318  0.0939  0.6225 -0.1043
   37TMC2    C3  564   3.622   2.207  11.338  0.1733  0.3216 -0.6215
   37TMC2    C4  565   3.491   2.113  11.551 -0.0614  0.3594  0.7745
   37TMC2    C5  566   3.610   2.176  11.568 -0.0095 -0.6068  0.1329
   37TMC2    C6  567   3.672   2.235  11.464 -0.2002 -0.6206 -0.1520
   37TMC2     C  568   3.299   2.051  11.411 -0.3045 -0.0199 -0.2828
   37TMC2     O  569   3.277   2.018  11.299  0.6195  0.0589 -0.0096
   37TMC2     H  570   3.450   2.140  11.223 -0.3189  2.0770  0.0512
   37TMC2    H1  571   3.451   2.061  11.637  1.7112 -1.0652  0.7446
   37TMC2    H2  572   3.770   2.281  11.467  0.9709 -3.0980 -0.5041
   37TMC2    C7  573   3.672   2.185  11.700  0.4590  0.2173 -0.1938
   37TMC2    C8  574   3.649   2.303  11.235 -0.5603  0.7414  0.3384
   37TMC2    O1  575   3.598   2.203  11.798 -0.3275  0.7420 -0.3945
   37TMC2    O2  576   3.646   2.419  11.264  0.3891 -0.3254  0.5285
   37TMC2    O5  577   3.631   2.247  11.112  0.0947  0.0901  0.8854
   37TMC2    H5  578   3.628   2.149  11.123 -2.6196  0.2039  1.1311
   38MPD2     C  579   2.902   1.773  11.571 -0.4291  0.8744  0.1309
   38MPD2    C1  580   2.938   1.858  11.676  0.0568  0.4302 -1.2866
   38MPD2    C2  581   3.046   1.936  11.652  0.0177  0.2614 -0.6499
   38MPD2    C3  582   3.120   1.938  11.537  0.9528 -0.0506  0.4836
   38MPD2    C4  583   3.086   1.849  11.436 -0.4719 -0.7374 -0.6012
   38MPD2    C5  584   2.966   1.781  11.450  0.7287  0.8140  0.5478
   38MPD2     H  585   3.073   2.010  11.727 -0.9857 -0.2711  0.2405
   38MPD2    H1  586   3.143   1.838  11.344 -1.5453 -2.2129 -1.0925
   38MPD2    H2  587   2.806   1.722  11.574 -1.0312  2.0379  0.7494
   38MPD2    H3  588   2.938   1.731  11.359  0.2384 -0.8761  1.6186
   38MPD2     N  589   3.230   2.020  11.530 -0.3226  0.0539 -0.3144
   38MPD2    H5  590   3.259   2.066  11.616  1.2276  1.8830 -1.8027
   38MPD2    N1  591   2.853   1.888  11.784  0.0171 -0.0913  0.5084
   38MPD2    H7  592   2.883   1.955  11.853 -3.5010  0.7084  1.2774
   39MPD2     C  593   1.544   4.553   1.887 -0.0338  0.0276 -0.2401
   39MPD2    C1  594   1.481   4.646   1.963  0.2105 -0.3666 -0.2064
   39MPD2    C2  595   1.373   4.717   1.911 -0.4683 -0.5842  0.2504
   39MPD2    C3  596   1.317   4.681   1.791  0.2021  0.6013 -0.2729
   39MPD2    C4  597   1.389   4.589   1.716 -0.4657  1.1039  0.1080
   39MPD2    C5  598   1.499   4.523   1.764  0.0980 -0.1774  0.5291
   39MPD2     H  599   1.326   0.078   1.963 -2.4768 -2.5228  1.4843
   39MPD2    H1  600   1.345   4.542   1.629  2.2267  0.1125 -0.7135
   39MPD2    H2  601   1.613   4.482   1.929  0.9647  1.3448  0.3353
   39MPD2    H3  602   1.534   4.436   1.709 -0.8245  0.0785 -0.4406
   39MPD2     N  603   1.194   0.001   1.737  0.9793  0.1844 -0.3423
   39MPD2    H5  604   1.163   4.669   1.656  2.6812 -0.9498 -0.2522
   39MPD2    N1  605   1.527   4.663   2.095 -0.0836  0.7811  0.3221
   39MPD2    H7  606   1.599   4.600   2.130 -1.3751  0.1615  1.8381
   40TCq2    C1  607   1.481   0.036   2.178  0.8169 -0.6167  0.2920
   40TCq2    O2  608   1.400   0.124   2.166  0.0416  0.0493 -0.0479
   40TCq2    C2  609   1.557   0.032   2.301 -0.0159 -0.6418  0.3084
   40TCq2    C3  610   1.511   0.111   2.409  0.5877  0.5669 -0.0158
   40TCq2    C4  611   1.597   0.164   2.495 -0.0427 -0.0748 -0.2733
   40TCq2    C5  612   1.725   0.114   2.501  0.0420  0.2554 -0.1712
   40TCq2    C6  613   1.781   0.038   2.397 -0.0619 -0.6043 -0.1253
   40TCq2    C7  614   1.697   0.003   2.295  0.6389 -0.5092  0.2194
   40TCq2    C8  615   1.913   0.080   2.346 -0.0917 -0.1372  0.0071
   40TCq2    O4  616   1.977   4.716   2.288 -0.2327  0.4667  0.3325
   40TCq2    C9  617   1.556   0.266   2.586 -0.0286  0.2125 -0.1179
   40TCq2    O5  618   1.652   0.302   2.661  0.0137 -0.0956 -0.0774
   40TCq2    O6  619   1.444   0.321   2.569 -0.3984  0.2653 -0.7049
   40TCq2    H2  620   1.412   0.156   2.407 -0.3940 -1.6203 -0.2000
   40TCq2    H3  621   1.791   0.161   2.572 -0.9820  0.5977  0.5514
   40TCq2    H4  622   1.744   4.691   2.203  0.6434  0.5684 -0.1636
   41TMC2    C1  623   0.255   2.379  13.654  0.6868 -0.1441  0.2144
   41TMC2    C2  624   0.312   2.291  13.744 -0.2009  0.0855 -0.1136
   41TMC2    C3  625   0.439   2.248  13.714 -1.1214 -0.1645  0.6578
   41TMC2    C4  626   0.322   2.424  13.538  0.2122 -0.0842 -0.2724
   41TMC2    C5  627   0.451   2.384  13.518  0.4675 -0.3610 -0.2590
   41TMC2    C6  628   0.517   2.301  13.611  0.0060 -0.2382 -0.1781
   41TMC2     C  629   0.126   2.439  13.667 -0.2068  0.1827  0.1890
   41TMC2     O  630   0.063   2.464  13.561 -0.0986  0.2718  0.3476
   41TMC2     H  631   0.265   2.260  13.836  1.0558 -1.1679  0.1037
   41TMC2    H1  632   0.274   2.494  13.471 -2.5941  0.1711  1.9939
   41TMC2    H2  633   0.619   2.267  13.595  0.4564  0.5656  1.0401
   41TMC2    C7  634   0.541   2.454  13.427  0.1654  0.3661  0.0997
   41TMC2    C8  635   0.516   2.170  13.805 -0.4795  0.1386 -0.1020
   41TMC2    O1  636   0.662   2.449  13.442  0.2487  0.4812 -0.0647
   41TMC2    O2  637   0.634   2.144  13.789 -0.3640  0.0296  0.0660
   41TMC2    O5  638   0.427   2.120  13.896  0.3053 -0.0853 -0.5489
   41TMC2    H5  639   0.461   2.042  13.943 -1.3402  0.4597  1.5392
   42MPD2     C  640   4.563   2.469  13.770 -0.0939 -0.1274  0.4510
   42MPD2    C1  641   4.675   2.463  13.847  0.0553  0.1494  0.2372
   42MPD2    C2  642   4.662   2.458  13.984 -0.1716  0.6643 -0.1921
   42MPD2    C3  643   4.535   2.455  14.046  0.2599 -0.9822 -0.3672
   42MPD2    C4  644   4.424   2.458  13.966  0.0396  0.6005  0.0214
   42MPD2    C5  645   4.440   2.460  13.829  0.1630  0.8164  0.3761
   42MPD2     H  646   0.034   2.456  14.039 -0.2847 -0.4335 -0.0403
   42MPD2    H1  647   4.321   2.449  14.000 -0.4840 -0.8953 -1.9579
   42MPD2    H2  648   4.560   2.472  13.662  1.1943  0.3288  0.4321
   42MPD2    H3  649   4.347   2.455  13.773 -0.1593  0.7494  0.9163
   42MPD2     N  650   4.525   2.441  14.186  0.2206  0.5788  0.3603
   42MPD2    H5  651   4.430   2.448  14.223 -0.1140  0.9813 -0.5536
   42MPD2    N1  652   0.088   2.459  13.797 -0.3981  0.3411 -0.7474
   42MPD2    H7  653   0.157   2.446  13.870  0.8047  1.3203 -1.7060
   43MPD2     C  654   1.666   0.651   0.558  0.7615 -0.0008 -0.8832
   43MPD2    C1  655   1.789   0.671   0.624 -0.2601 -0.2657  0.2518
   43MPD2    C2  656   1.793   0.709   0.756 -0.1973 -0.0469 -0.0358
   43MPD2    C3  657   1.673   0.726   0.827  0.0549  0.1954  0.5484
   43MPD2    C4  658   1.554   0.719   0.758  0.0856 -0.3875  0.5135
   43MPD2    C5  659   1.550   0.677   0.626 -0.4447  0.1271  0.4613
   43MPD2     H  660   1.886   0.726   0.808 -0.8049 -0.0690  1.0677
   43MPD2    H1  661   1.456   0.723   0.803  0.1820 -0.2313  0.7135
   43MPD2    H2  662   1.657   0.603   0.461  0.9811 -0.5267 -0.6420
   43MPD2    H3  663   1.452   0.649   0.589  0.1015 -3.4645  1.7902
   43MPD2     N  664   1.668   0.752   0.968 -0.4394  0.6733 -0.2803
   43MPD2    H5  665   1.577   0.752   1.013  1.0142 -0.7012  2.6668
   43MPD2    N1  666   1.915   0.647   0.560  0.0551  0.1970  0.2463
   43MPD2    H7  667   2.001   0.639   0.613 -0.6872  0.1702  1.4428
   44TCq2    C1  668   1.770   0.740   1.542  0.3237  0.5659  0.0313
   44TCq2    O2  669   1.863   0.665   1.528  0.2178  0.0901  0.3839
   44TCq2    C2  670   1.714   0.800   1.424  0.1592  0.1639  0.1506
   44TCq2    C3  671   1.604   0.877   1.422 -0.8379  0.7201 -0.7915
   44TCq2    C4  672   1.549   0.920   1.302 -0.2646  0.5059 -0.0160
   44TCq2    C5  673   1.606   0.894   1.183 -0.8861  0.0355  0.0609
   44TCq2    C6  674   1.719   0.818   1.183  0.8676 -0.5619 -0.3154
   44TCq2    C7  675   1.764   0.763   1.298  0.6033  0.1540 -0.2961
   44TCq2    C8  676   1.769   0.783   1.056  0.7479 -0.4900 -0.0718
   44TCq2    O4  677   1.891   0.758   1.042  0.0101 -0.6764  0.0241
   44TCq2    C9  678   1.415   0.980   1.315 -0.5647 -0.1599  0.3814
   44TCq2    O5  679   1.351   1.006   1.205  0.3240 -0.0181  0.2771
   44TCq2    O6  680   1.388   1.018   1.434  0.0721  0.0341 -0.0295
   44TCq2    H2  681   1.552   0.897   1.515  1.2249  1.8853  0.0870
   44TCq2    H3  682   1.556   0.930   1.093  0.2584  1.4974  0.0010
   44TCq2    H4  683   1.838   0.684   1.297  1.4510  0.9612 -1.7276
   45TMC2    C1  684   2.798   1.875   9.741  0.4132  0.0767 -0.2875
   45TMC2    C2  685   2.699   1.973   9.751  0.6489 -0.4159  0.2029
   45TMC2    C3  686   2.714   2.068   9.856  0.3885 -0.1147 -0.0304
   45TMC2    C4  687   2.902   1.873   9.833 -0.8169 -0.1665 -0.1601
   45TMC2    C5  688   2.911   1.975   9.929 -0.1791  0.9763 -0.1209
   45TMC2    C6  689   2.813   2.070   9.942  0.5832 -0.6877  0.0083
   45TMC2     C  690   2.762   1.747   9.680 -0.5113 -0.3656 -0.1962
   45TMC2     O  691   2.857   1.671   9.662 -0.0570 -0.2338  0.4352
   45TMC2     H  692   2.614   1.977   9.683  1.0368  1.5013 -0.1706
   45TMC2    H1  693   2.978   1.796   9.825 -0.4683  0.0189  1.3932
   45TMC2    H2  694   2.813   2.141  10.024  1.0423 -0.4383 -0.2077
   45TMC2    C7  695   3.002   1.957  10.041 -0.2808 -0.4907  0.2225
   45TMC2    C8  696   2.602   2.141   9.888 -0.3513 -0.2614 -0.0642
   45TMC2    O1  697   3.102   1.886  10.019  0.2048  0.0935  0.6305
   45TMC2    O2  698   2.486   2.115   9.856 -0.5738 -0.4977 -0.3192
   45TMC2    O5  699   2.639   2.267   9.913 -0.0864 -0.2681  0.0308
   45TMC2    H5  700   2.731   2.287   9.887  0.1703 -2.3575 -0.6539
   46MPD2     C  701   2.639   1.483   9.573  0.2187  0.0983 -0.1234
   46MPD2    C1  702   2.573   1.603   9.609 -0.3002 -0.6042 -1.2355
   46MPD2    C2  703   2.445   1.616   9.568  0.3692  0.0970 -0.0355
   46MPD2    C3  704   2.372   1.513   9.512  0.2760 -0.0469  0.0222
   46MPD2    C4  705   2.439   1.393   9.494  0.5410  0.0598  0.5693
   46MPD2    C5  706   2.569   1.380   9.513  0.2080 -0.3232 -0.1992
   46MPD2     H  707   2.395   1.712   9.581 -0.2894 -0.2067 -0.3150
   46MPD2    H1  708   2.382   1.311   9.451  1.7279 -0.1384 -0.6190
   46MPD2    H2  709   2.746   1.466   9.588  0.2109 -2.1631 -2.6915
   46MPD2    H3  710   2.606   1.285   9.479 -0.3283 -0.8736  0.7706
   46MPD2     N  711   2.245   1.540   9.486  0.1708  0.0685 -0.1724
   46MPD2    H5  712   2.215   1.631   9.519 -0.8954 -0.3144 -0.0954
   46MPD2    N1  713   2.628   1.722   9.668  0.3194 -0.2432 -0.3178
   46MPD2    H7  714   2.570   1.803   9.685 -2.4549 -2.1819 -0.5756
   47TMC2    C1  715   4.493   2.590   9.553  0.2104  0.1005 -0.4199
   47TMC2    C2  716   4.497   2.484   9.468 -0.6056 -0.1751  0.4080
   47TMC2    C3  717   4.390   2.408   9.447  0.6345 -0.6372  0.6039
   47TMC2    C4  718   4.374   2.623   9.618 -0.3833  0.2899  0.3874
   47TMC2    C5  719   4.262   2.556   9.579  0.2948 -0.2673 -0.1158
   47TMC2    C6  720   4.267   2.444   9.493 -0.5262 -0.0066  0.3088
   47TMC2     C  721   4.603   2.680   9.557 -0.4803  0.0526 -0.1355
   47TMC2     O  722   4.584   2.774   9.633 -0.2577 -0.2607 -0.8641
   47TMC2     H  723   4.590   2.451   9.423  0.6661  0.9734  2.2047
   47TMC2    H1  724   4.364   2.704   9.690  2.0698  1.8105 -0.9772
   47TMC2    H2  725   4.173   2.398   9.464  0.5010 -2.6373  1.1524
   47TMC2    C7  726   4.146   2.601   9.645  0.2328 -0.1697 -0.2604
   47TMC2    C8  727   4.401   2.317   9.345 -0.4139 -0.1754 -0.6037
   47TMC2    O1  728   4.150   2.662   9.755 -0.1779  0.0371 -0.0663
   47TMC2    O2  729   4.477   2.340   9.250  0.5343  0.0661 -0.3889
   47TMC2    O5  730   4.292   2.231   9.349 -0.0882  0.1596 -0.3041
   47TMC2    H5  731   4.263   2.210   9.440 -0.5849 -0.1899 -0.5410
   48MPD2     C  732   0.145   2.831   9.558 -0.2321 -0.0462 -0.1403
   48MPD2    C1  733   0.129   2.697   9.520 -0.2082  0.6931  0.0279
   48MPD2    C2  734   0.238   2.622   9.478 -0.4551 -0.3308 -0.5084
   48MPD2    C3  735   0.361   2.680   9.471  0.1971 -0.3586  0.5139
   48MPD2    C4  736   0.375   2.810   9.527 -0.0056 -1.1566  0.0629
   48MPD2    C5  737   0.272   2.884   9.567 -0.0469 -0.7678 -0.3674
   48MPD2     H  738   0.232   2.518   9.446 -0.1903 -0.4647 -0.1210
   48MPD2    H1  739   0.475   2.851   9.520 -1.1068  1.3330 -1.3401
   48MPD2    H2  740   0.067   2.905   9.575  0.0880  0.2770 -0.0739
   48MPD2    H3  741   0.290   2.987   9.596  0.2303 -1.4822  1.9255
   48MPD2     N  742   0.464   2.601   9.416 -0.3284 -0.2738  0.2622
   48MPD2    H5  743   0.425   2.524   9.362 -0.3164 -1.5895  2.1330
   48MPD2    N1  744   0.000   2.633   9.506 -0.8360  0.5333 -0.0388
   48MPD2    H7  745   4.718   2.537   9.476 -2.1368 -0.0022  1.7975
   49MPD2     C  746   3.675   0.035  10.167  0.4322 -0.0166 -0.2030
   49MPD2    C1  747   3.547   0.071  10.216 -0.8342 -0.3158  0.6894
   49MPD2    C2  748   3.530   0.131  10.337  0.1907 -0.3691 -0.2411
   49MPD2    C3  749   3.643   0.150  10.414 -1.2641  0.7279 -0.0148
   49MPD2    C4  750   3.768   0.115  10.368  0.4811 -0.5396 -0.8273
   49MPD2    C5  751   3.784   0.068  10.241  0.2414 -0.7165  0.0330
   49MPD2     H  752   3.430   0.160  10.366  1.0448  0.4811  1.8626
   49MPD2    H1  753   3.852   0.137  10.433  0.5056 -1.4857 -0.5411
   49MPD2    H2  754   3.697   4.706  10.074 -0.7122 -0.9974  0.0557
   49MPD2    H3  755   3.882   0.035  10.211  0.4341 -0.9384  0.9114
   49MPD2     N  756   3.643   0.217  10.540  0.9339 -0.4434 -0.6604
   49MPD2    H5  757   3.734   0.244  10.576 -0.1190 -0.5167  2.0802
   49MPD2    N1  758   3.430   0.031  10.144 -0.3309 -0.0970 -0.4724
   49MPD2    H7  759   3.341   0.073  10.167  1.0222  2.7451 -0.4384
   50TCq2    C1  760   3.428   4.690  10.021 -0.7944  0.4372  0.4562
   50TCq2    O2  761   3.522   4.636   9.960  0.2168 -0.3960  0.3149
   50TCq2    C2  762   3.291   4.673   9.975  0.4000 -0.5337  0.1958
   50TCq2    C3  763   3.268   4.629   9.851  0.4461 -0.2829  0.0220
   50TCq2    C4  764   3.140   4.611   9.809  0.0273  0.6490  0.7371
   50TCq2    C5  765   3.036   4.636   9.895 -0.2217  0.2824  0.1449
   50TCq2    C6  766   3.059   4.653  10.027  0.3900 -0.4460 -0.4233
   50TCq2    C7  767   3.189   4.669  10.072 -0.0958 -0.2705  0.4582
   50TCq2    C8  768   2.965   4.616  10.124  0.0740  0.3226  0.5039
   50TCq2    O4  769   3.007   4.591  10.235  0.3797 -0.1166  0.0664
   50TCq2    C9  770   3.109   4.557   9.678  0.0386  1.3512 -0.0823
   50TCq2    O5  771   3.191   4.572   9.589 -0.0012 -0.4778  0.1222
   50TCq2    O6  772   2.992   4.532   9.654 -0.7061  0.3053  0.2844
   50TCq2    H2  773   3.352   4.602   9.788 -0.4163  1.0523 -1.7154
   50TCq2    H3  774   2.934   4.624   9.861 -0.5772 -1.0960  1.7223
   50TCq2    H4  775   3.201   4.687  10.178  0.6261  1.5441  0.0640
   51MPD2     C  776   2.881   4.318   0.708  0.9242  0.7000 -0.9165
   51MPD2    C1  777   2.931   4.220   0.790  0.5000 -0.1334 -0.0101
   51MPD2    C2  778   2.985   4.248   0.916 -0.0547  0.1223  0.2341
   51MPD2    C3  779   2.968   4.371   0.976  0.1927 -0.1432  0.8493
   51MPD2    C4  780   2.909   4.467   0.901  0.4004 -0.1452 -0.8931
   51MPD2    C5  781   2.864   4.439   0.775  1.0186 -0.0449 -0.0175
   51MPD2     H  782   3.021   4.165   0.976  1.0990  0.1700 -0.4143
   51MPD2    H1  783   2.899   4.569   0.935 -1.0583 -0.2724 -0.9409
   51MPD2    H2  784   2.835   4.307   0.611  0.6721 -2.2216 -0.4547
   51MPD2    H3  785   2.820   4.524   0.724 -0.9624 -1.8487 -1.2379
   51MPD2     N  786   3.015   4.406   1.099  0.7956 -0.4074  0.1361
   51MPD2    H5  787   2.984   4.498   1.129 -1.5610 -1.6251  1.3528
   51MPD2    N1  788   2.933   4.081   0.759  0.6103 -0.0254 -0.1091
   51MPD2    H7  789   2.992   4.014   0.808 -1.3368  0.2436  2.6350
   52TCq2    C1  790   3.100   4.332   1.180 -0.0731  0.0443 -0.1654
   52TCq2    O2  791   3.127   4.215   1.173 -0.5523 -0.5435 -0.5568
   52TCq2    C2  792   3.126   4.393   1.312  0.0851 -0.0633 -0.7856
   52TCq2    C3  793   3.149   4.299   1.412 -0.7143 -1.0492  0.6104
   52TCq2    C4  794   3.180   4.355   1.536 -0.8575 -0.4346 -0.2191
   52TCq2    C5  795   3.190   4.492   1.537  0.1102  0.3624 -0.0339
   52TCq2    C6  796   3.148   4.582   1.441  0.0741 -0.3681  0.8152
   52TCq2    C7  797   3.118   4.526   1.317 -0.9589  0.1246  0.1354
   52TCq2    C8  798   3.174   0.006   1.459  0.4595  0.0841 -0.1981
   52TCq2    O4  799   3.210   0.039   1.576 -0.5224 -0.1732 -0.0597
   52TCq2    C9  800   3.227   4.274   1.647  0.7343 -0.3158  0.1048
   52TCq2    O5  801   3.259   4.323   1.759 -0.6435 -0.1344  0.0583
   52TCq2    O6  802   3.279   4.167   1.608  0.5636  0.2648 -0.1184
   52TCq2    H2  803   3.142   4.191   1.404  2.1807 -1.2238  0.6550
   52TCq2    H3  804   3.230   4.530   1.631  0.2573 -0.9911  0.4569
   52TCq2    H4  805   3.126   4.587   1.228 -1.7219 -0.4378 -0.3190
   53TMC2    C1  806   3.966   2.381  12.338  0.1193 -0.4049 -0.3414
   53TMC2    C2  807   4.049   2.451  12.426  0.0821  0.5093 -0.2116
   53TMC2    C3  808   3.983   2.523  12.521 -0.2649 -0.6011 -0.5072
   53TMC2    C4  809   3.833   2.360  12.359 -0.6946  0.0635  0.5544
   53TMC2    C5  810   3.781   2.444  12.450 -0.0419 -0.3034 -0.3254
   53TMC2    C6  811   3.849   2.514  12.539 -0.7338  0.3168 -0.0584
   53TMC2     C  812   4.035   2.309  12.231 -0.6834  1.2177  0.2262
   53TMC2     O  813   4.150   2.271  12.255  0.3301 -0.1235 -0.2967
   53TMC2     H  814   4.150   2.487  12.409  0.4227 -0.3959 -0.0913
   53TMC2    H1  815   3.768   2.302  12.293  1.0241  0.5114 -1.5533
   53TMC2    H2  816   3.794   2.586  12.598  1.8431  1.1246  1.3674
   53TMC2    C7  817   3.638   2.444  12.482 -0.6068 -0.5578 -0.8152
   53TMC2    C8  818   4.059   2.592  12.625  0.5050  0.1100 -0.3738
   53TMC2    O1  819   3.562   2.439  12.387 -0.1233 -0.1578  0.0640
   53TMC2    O2  820   4.168   2.642  12.609  0.1364  0.4130  0.0373
   53TMC2    O5  821   4.017   2.549  12.744 -0.0323  0.7574 -0.2937
   53TMC2    H5  822   3.939   2.492  12.728  0.0605  0.0923  1.6995
   54MPD2     C  823   4.106   2.145  11.986 -0.0233  0.1378 -0.0129
   54MPD2    C1  824   3.978   2.205  12.013 -0.3671  0.1302  0.0757
   54MPD2    C2  825   3.875   2.199  11.919 -0.7370  0.2392 -0.1034
   54MPD2    C3  826   3.901   2.142  11.796 -0.1390 -0.3540  0.5431
   54MPD2    C4  827   4.029   2.090  11.769  0.3331  0.4778 -0.9416
   54MPD2    C5  828   4.126   2.092  11.867 -0.0613  0.2833  0.3401
   54MPD2     H  829   3.780   2.249  11.938  0.1969  2.2867 -0.8497
   54MPD2    H1  830   4.053   2.048  11.673  0.5806  1.2499 -1.2224
   54MPD2    H2  831   4.187   2.151  12.058 -0.1739 -1.4549  0.2836
   54MPD2    H3  832   4.222   2.042  11.853 -0.0989 -0.2634  2.0038
   54MPD2     N  833   3.803   2.150  11.692 -0.0315  0.6106 -0.5057
   54MPD2    H5  834   3.838   2.134  11.598  1.2520 -2.5126  0.4962
   54MPD2    N1  835   3.945   2.286  12.126  0.2468  0.2703  0.5124
   54MPD2    H7  836   3.853   2.325  12.143  1.2139  3.8179 -2.2161
   55MPD2     C  837   4.173   0.556   0.811  0.4304  0.4188  0.3299
   55MPD2    C1  838   4.131   0.428   0.846  0.2978 -0.4278  0.7206
   55MPD2    C2  839   3.998   0.408   0.863  0.6523  0.0636  0.5367
   55MPD2    C3  840   3.911   0.514   0.876 -0.3014  0.1934 -0.3080
   55MPD2    C4  841   3.956   0.642   0.841  0.6902  0.0481 -0.7032
   55MPD2    C5  842   4.088   0.667   0.823 -0.2787  0.1562  0.6786
   55MPD2     H  843   3.946   0.315   0.884  0.9415 -0.1944  0.0892
   55MPD2    H1  844   3.892   0.728   0.858 -1.3024 -1.8347  1.2870
   55MPD2    H2  845   4.279   0.576   0.801  0.0412  2.0371 -0.4761
   55MPD2    H3  846   4.128   0.765   0.799  0.1555 -0.7251 -2.2299
   55MPD2     N  847   3.775   0.490   0.919  0.0676 -0.0089 -0.0793
   55MPD2    H5  848   3.748   0.408   0.973  4.5347 -0.9965  0.6722
   55MPD2    N1  849   4.232   0.334   0.847 -0.1639 -0.4098 -0.0543
   55MPD2    H7  850   4.324   0.367   0.820  0.0472 -0.0218  1.1474
   56TCq2    C1  851   4.209   0.200   0.876  0.4977  0.0722 -0.1488
   56TCq2    O2  852   4.102   0.143   0.892  0.0914  0.4589  0.2846
   56TCq2    C2  853   4.327   0.107   0.862  0.1073 -0.4301  0.9477
   56TCq2    C3  854   4.456   0.158   0.883  0.5487  0.2680 -0.6904
   56TCq2    C4  855   4.550   0.056   0.901 -0.1635  0.7273 -0.8276
   56TCq2    C5  856   4.519   4.644   0.903  0.1892 -0.0549 -0.4186
   56TCq2    C6  857   4.390   4.612   0.872  0.1575 -0.4142 -0.3746
   56TCq2    C7  858   4.283   4.694   0.861  0.0128 -0.2082 -0.6479
   56TCq2    C8  859   4.361   4.475   0.891 -0.2349  0.0243 -0.2863
   56TCq2    O4  860   4.453   4.416   0.942 -0.1652 -0.1914  0.4324
   56TCq2    C9  861   4.684   0.094   0.933 -1.0304  0.5679  0.3095
   56TCq2    O5  862   4.708   0.216   0.928  0.1765 -0.2396  0.2797
   56TCq2    O6  863   0.051   0.004   0.950  0.4155 -0.1190  0.0172
   56TCq2    H2  864   4.489   0.261   0.873  1.6708  0.1916  2.4531
   56TCq2    H3  865   4.601   4.574   0.914  0.8432  0.5262 -1.5619
   56TCq2    H4  866   4.182   4.663   0.841 -0.5828  1.1135  0.3470
   57TMC2    C1  867   3.276   0.760  13.460  1.0622  0.5105 -0.4618
   57TMC2    C2  868   3.164   0.744  13.378  0.5237 -1.1162  0.4959
   57TMC2    C3  869   3.180   0.764  13.243 -0.5840 -0.4018 -0.3331
   57TMC2    C4  870   3.400   0.778  13.414  0.1634  0.3754 -0.1571
   57TMC2    C5  871   3.414   0.786  13.281  0.0761  0.1333  0.0337
   57TMC2    C6  872   3.314   0.772  13.191  0.2938  1.1070  0.8384
   57TMC2     C  873   3.249   0.766  13.604 -0.5458 -0.4887  0.9120
   57TMC2     O  874   3.154   0.829  13.654  0.2471 -0.4554 -0.2640
   57TMC2     H  875   3.066   0.731  13.423  0.7238  0.1211  1.2923
   57TMC2    H1  876   3.479   0.779  13.487 -0.5966  1.8326  0.6453
   57TMC2    H2  877   3.340   0.773  13.086 -0.6332 -1.5702  0.5886
   57TMC2    C7  878   3.546   0.803  13.229  0.0718  0.0732  0.6495
   57TMC2    C8  879   3.066   0.752  13.153 -0.0884 -1.0045 -0.7772
   57TMC2    O1  880   3.621   0.879  13.294 -0.4330 -0.5267  0.3951
   57TMC2    O2  881   3.078   0.741  13.033  0.0935 -1.0695  0.6769
   57TMC2    O5  882   2.969   0.823  13.214 -0.1504 -0.4843  0.4446
   57TMC2    H5  883   2.983   0.840  13.309  2.7882 -0.7714  0.0729
   58MPD2     C  884   3.416   0.670  14.076 -0.3386 -1.1536 -0.4264
   58MPD2    C1  885   3.326   0.766  14.029  0.8857 -0.0281  0.6057
   58MPD2    C2  886   3.290   0.762  13.892 -0.7430 -0.1420 -0.1196
   58MPD2    C3  887   3.369   0.683  13.806  0.0953  0.0668 -0.1098
   58MPD2    C4  888   3.467   0.601  13.853  0.4389  0.6975 -0.1239
   58MPD2    C5  889   3.487   0.595  13.987 -0.2233  0.3530  1.0100
   58MPD2     H  890   3.204   0.825  13.873  1.2395  2.5262 -0.1868
   58MPD2    H1  891   3.524   0.546  13.779 -1.4816 -0.4104 -0.7978
   58MPD2    H2  892   3.436   0.666  14.182  0.3524 -0.3110 -0.5277
   58MPD2    H3  893   3.568   0.531  14.019 -0.5335 -0.2347  0.6054
   58MPD2     N  894   3.345   0.686  13.669  1.2402  0.5093 -0.3421
   58MPD2    H5  895   3.410   0.636  13.610  1.4955  1.9668 -1.2982
   58MPD2    N1  896   3.255   0.842  14.124 -0.5393  1.0107 -0.7052
   58MPD2    H7  897   3.193   0.916  14.093  1.1878  1.1896 -3.7478
   59MPD2     C  898   1.259   1.137  13.055  0.0376 -0.1826 -0.3662
   59MPD2    C1  899   1.370   1.081  12.991  0.4159 -0.7010 -0.3902
   59MPD2    C2  900   1.496   1.084  13.044 -0.1393 -0.1995 -0.4996
   59MPD2    C3  901   1.520   1.146  13.165 -0.8040 -0.1488  0.2097
   59MPD2    C4  902   1.409   1.203  13.228 -0.5238  0.1990 -0.0788
   59MPD2    C5  903   1.287   1.194  13.177 -0.0575 -0.3199 -0.0650
   59MPD2     H  904   1.580   1.057  12.982  0.6590  2.5089 -0.6092
   59MPD2    H1  905   1.423   1.257  13.321 -1.9909  0.3211  0.0651
   59MPD2    H2  906   1.160   1.144  13.013  0.5096 -1.6743 -1.7319
   59MPD2    H3  907   1.211   1.249  13.231 -0.0431 -0.6690  0.3096
   59MPD2     N  908   1.647   1.169  13.222  1.0168 -0.7524 -0.2576
   59MPD2    H5  909   1.640   1.221  13.309  0.1228  0.5440 -1.1099
   59MPD2    N1  910   1.350   1.024  12.863 -0.6579 -0.1958 -0.2207
   59MPD2    H7  911   1.428   0.995  12.806 -0.9772  0.6599 -1.0900
   60TCq2    C1  912   1.230   0.984  12.812  0.3387 -0.6147  0.3534
   60TCq2    O2  913   1.125   0.955  12.867 -0.3938 -0.0287 -0.3734
   60TCq2    C2  914   1.242   0.940  12.670 -0.0570  0.1456  0.3857
   60TCq2    C3  915   1.159   0.835  12.636  0.4141  0.0858 -0.1078
   60TCq2    C4  916   1.180   0.771  12.515 -0.2640  0.0383 -0.9421
   60TCq2    C5  917   1.265   0.826  12.424  0.2730 -0.1442 -0.3711
   60TCq2    C6  918   1.326   0.940  12.455  0.2295 -0.0313 -0.0976
   60TCq2    C7  919   1.319   0.994  12.576 -0.7852  0.4058 -0.5228
   60TCq2    C8  920   1.387   1.004  12.339 -0.3667 -0.1297 -0.8287
   60TCq2    O4  921   1.448   0.929  12.261  0.6196 -0.6690 -0.1567
   60TCq2    C9  922   1.097   0.661  12.494 -1.1369 -0.3051  0.2460
   60TCq2    O5  923   1.080   0.632  12.377  0.0660  0.1185 -0.2489
   60TCq2    O6  924   1.054   0.596  12.596 -0.2695 -0.2090 -0.7443
   60TCq2    H2  925   1.095   0.789  12.710  0.0752 -0.1694 -0.5610
   60TCq2    H3  926   1.265   0.780  12.326  1.0839 -0.9461  0.0084
   60TCq2    H4  927   1.369   1.089  12.588 -1.0516  0.5471 -0.5291
   61MPD2     C  928   0.817   2.758  15.518  0.4019 -0.1803  0.7660
   61MPD2    C1  929   0.750   2.882  15.524  0.3159 -0.1118 -0.1757
   61MPD2    C2  930   0.706   2.936  15.407  0.2278  0.2115 -0.6595
   61MPD2    C3  931   0.719   2.879  15.279 -0.3189  0.3762 -0.0588
   61MPD2    C4  932   0.800   2.764  15.277  0.1284 -0.1942 -0.8584
   61MPD2    C5  933   0.834   2.699  15.396 -0.5435 -0.1986  0.0741
   61MPD2     H  934   0.650   3.027  15.427 -0.2558 -0.5046  1.2735
   61MPD2    H1  935   0.822   2.720  15.181 -0.2452  2.1823 -2.0151
   61MPD2    H2  936   0.852   2.701  15.604  1.2267 -0.5467  0.1844
   61MPD2    H3  937   0.881   2.601  15.391  0.2386  0.1395  0.8522
   61MPD2     N  938   0.674   2.942  15.166  0.3862 -0.1531  0.0489
   61MPD2    H5  939   0.706   2.908  15.076  0.5595  1.8307 -0.6373
   61MPD2    N1  940   0.711   2.950  15.645 -0.5615 -0.0466 -0.3664
   61MPD2    H7  941   0.659   3.038  15.642  1.8123  1.3820  0.3268
   62TCq2    C1  942   0.743   2.911  15.772  0.2659 -0.0189  0.5350
   62TCq2    O2  943   0.771   2.802  15.809 -0.3163  0.4704  0.3780
   62TCq2    C2  944   0.697   3.016  15.861  0.7215 -0.2418  0.3051
   62TCq2    C3  945   0.661   2.975  15.990  0.0393 -0.2760 -0.7866
   62TCq2    C4  946   0.615   3.061  16.082 -0.0488  0.6870  0.6264
   62TCq2    C5  947   0.599   3.188  16.046 -0.2890  0.1337 -0.4079
   62TCq2    C6  948   0.644   3.230  15.925 -0.5842 -0.0387 -0.1284
   62TCq2    C7  949   0.688   3.147  15.825 -0.2729  0.0107 -0.3950
   62TCq2    C8  950   0.635   3.367  15.888 -0.4446 -0.3855  0.6605
   62TCq2    O4  951   0.623   3.389  15.769  0.6386 -0.1736 -0.4259
   62TCq2    C9  952   0.583   3.023  16.215  0.2842 -0.1828  1.2376
   62TCq2    O5  953   0.530   2.911  16.224  0.3982 -0.2274  0.1532
   62TCq2    O6  954   0.553   3.118  16.290 -0.1627 -0.1052 -0.5793
   62TCq2    H2  955   0.664   2.869  16.013 -0.9152  0.4221  2.6654
   62TCq2    H3  956   0.537   3.247  16.112 -0.6793 -1.4656  0.6760
   62TCq2    H4  957   0.723   3.182  15.728  0.4664 -1.6465 -0.7288
   63TMC2    C1  958   0.753   2.546  10.899  0.6359 -0.4505 -0.1535
   63TMC2    C2  959   0.876   2.587  10.944  0.5579 -0.3099 -0.5477
   63TMC2    C3  960   0.961   2.643  10.847  0.1918 -0.1224  0.1197
   63TMC2    C4  961   0.714   2.550  10.766 -0.0735 -0.4709  0.4470
   63TMC2    C5  962   0.795   2.616  10.675 -0.7026 -0.2948 -0.0025
   63TMC2    C6  963   0.914   2.670  10.720 -0.4491  0.6900  0.4209
   63TMC2     C  964   0.671   2.472  10.995 -0.0487  0.3897 -0.3441
   63TMC2     O  965   0.708   2.480  11.110  0.0379  0.0919 -0.0219
   63TMC2     H  966   0.918   2.558  11.039  1.4680  0.3807 -0.7385
   63TMC2    H1  967   0.614   2.520  10.736 -0.6388  1.1372  0.6677
   63TMC2    H2  968   0.976   2.729  10.654  0.4189 -0.8962 -0.1792
   63TMC2    C7  969   0.748   2.658  10.544 -0.8492 -0.4781  0.4829
   63TMC2    C8  970   1.066   2.735  10.893 -0.1799 -0.0309 -0.2147
   63TMC2    O1  971   0.675   2.573  10.498 -0.1838  0.0005  0.5702
   63TMC2    O2  972   1.047   2.850  10.865 -0.1331  0.5141  0.1094
   63TMC2    O5  973   1.085   2.687  11.020  0.0388  0.5607 -0.1638
   63TMC2    H5  974   1.124   2.596  11.022 -0.7473  0.2071 -0.8895
   64MPD2     C  975   0.430   2.026  11.063 -0.1554  0.9180  0.4449
   64MPD2    C1  976   0.433   2.061  10.927 -0.7259 -0.0257 -0.4807
   64MPD2    C2  977   0.478   2.185  10.888 -0.9667  0.2662  0.1862
   64MPD2    C3  978   0.525   2.277  10.982  0.5487  0.5527  0.1546
   64MPD2    C4  979   0.525   2.242  11.114  0.1937 -0.0623  0.1086
   64MPD2    C5  980   0.475   2.121  11.149 -0.2415 -0.2200 -0.2947
   64MPD2     H  981   0.486   2.209  10.783 -0.1951 -0.9320 -0.0282
   64MPD2    H1  982   0.578   2.300  11.188  0.4397  1.0444 -0.9289
   64MPD2    H2  983   0.407   1.925  11.094 -0.0620  0.4225 -1.0657
   64MPD2    H3  984   0.492   2.104  11.254 -0.9211 -0.5776 -0.2479
   64MPD2     N  985   0.581   2.395  10.925  0.0236 -1.1287  0.2270
   64MPD2    H5  986   0.572   2.410  10.825  0.1609  0.9304  0.5041
   64MPD2    N1  987   0.389   1.968  10.824  0.6204 -0.4877  0.1960
   64MPD2    H7  988   0.415   1.979  10.726  1.9690 -1.9050  0.3858
   65MPD2     C  989   1.208   2.220  15.866  0.3302 -0.3570  0.6134
   65MPD2    C1  990   1.228   2.221  15.729  0.0196  0.1119 -0.1649
   65MPD2    C2  991   1.255   2.099  15.673  0.3139  0.8528 -0.1038
   65MPD2    C3  992   1.268   1.979  15.741  0.9993  0.2247 -0.4344
   65MPD2    C4  993   1.240   1.980  15.875  0.4081  0.6149  0.2380
   65MPD2    C5  994   1.207   2.099  15.933 -0.0765 -0.2383  0.9587
   65MPD2     H  995   1.266   2.104  15.565  1.7037 -1.0614 -0.0524
   65MPD2    H1  996   1.233   1.886  15.927  1.6542 -0.1262 -0.9347
   65MPD2    H2  997   1.180   2.308  15.924 -0.4481  0.5038 -1.0814
   65MPD2    H3  998   1.184   2.106  16.039 -0.1976  0.1374  0.9054
   65MPD2     N  999   1.277   1.854  15.671 -1.2968  0.1273  0.0301
   65MPD2    H5 1000   1.233   1.777  15.720  0.0140 -1.2065 -0.8946
   65MPD2    N1 1001   1.212   2.333  15.643  0.0706 -0.4315 -0.0791
   65MPD2    H7 1002   1.234   2.324  15.544 -1.0330 -0.4533 -0.3295
   66TCq2    C1 1003   1.182   2.461  15.679  0.4043 -0.8275  0.2962
   66TCq2    O2 1004   1.150   2.495  15.791 -0.4516 -0.0927 -0.6419
   66TCq2    C2 1005   1.173   2.539  15.558  0.1203  0.1987  0.3669
   66TCq2    C3 1006   1.199   2.487  15.434  0.2665  0.2265 -0.5236
   66TCq2    C4 1007   1.203   2.573  15.327  0.7391  0.2429 -0.3068
   66TCq2    C5 1008   1.184   2.707  15.345 -0.3406 -0.2693 -0.3459
   66TCq2    C6 1009   1.162   2.759  15.473  0.1858  0.5995  0.4199
   66TCq2    C7 1010   1.165   2.675  15.581  0.1210  0.2598  0.7344
   66TCq2    C8 1011   1.154   2.907  15.481  0.1127  0.0994  0.5561
   66TCq2    O4 1012   1.170   2.967  15.375 -0.5720  0.3238  0.2056
   66TCq2    C9 1013   1.236   2.522  15.198  0.0813  0.4378 -0.3889
   66TCq2    O5 1014   1.235   2.608  15.101  0.1576  0.5262 -0.3431
   66TCq2    O6 1015   1.262   2.398  15.195 -0.4549  0.3965 -0.7719
   66TCq2    H2 1016   1.207   2.384  15.402  1.0461  0.0867  0.1307
   66TCq2    H3 1017   1.176   2.770  15.258 -0.7574 -2.1238 -1.6524
   66TCq2    H4 1018   1.173   2.698  15.686  0.3148  0.0627  0.7640
   67MPD2     C 1019   1.507   1.431  14.013  0.1725  0.2925  0.4915
   67MPD2    C1 1020   1.466   1.512  14.117  0.6392 -0.5200 -0.0395
   67MPD2    C2 1021   1.334   1.563  14.117  0.5565 -1.0603  0.5649
   67MPD2    C3 1022   1.242   1.522  14.019 -0.0551 -1.2172  0.4167
   67MPD2    C4 1023   1.293   1.455  13.912 -0.6663 -0.2979 -0.9656
   67MPD2    C5 1024   1.428   1.408  13.903  0.1260  0.7561  0.0836
   67MPD2     H 1025   1.299   1.628  14.197  0.9364 -0.1623 -0.0121
   67MPD2    H1 1026   1.229   1.439  13.826 -0.4245 -0.3219 -1.1381
   67MPD2    H2 1027   1.609   1.393  14.002 -0.2577 -1.1731  1.5768
   67MPD2    H3 1028   1.468   1.340  13.829  1.6679  0.2211  1.4146
   67MPD2     N 1029   1.116   1.583  14.004  0.3932 -0.2434 -0.3856
   67MPD2    H5 1030   1.066   1.569  13.916  0.7992  3.5744 -1.2231
   67MPD2    N1 1031   1.551   1.551  14.223 -0.0410  0.9514 -0.3962
   67MPD2    H7 1032   1.511   1.610  14.295 -1.4142  0.6177 -0.8892
   68TCq2    C1 1033   1.678   1.509  14.239 -0.2855 -0.2602 -0.9112
   68TCq2    O2 1034   1.729   1.411  14.189  0.6575  0.5251 -0.0571
   68TCq2    C2 1035   1.754   1.583  14.337 -0.7877 -0.0702 -0.2673
   68TCq2    C3 1036   1.739   1.719  14.355  0.8795  0.3774 -0.0617
   68TCq2    C4 1037   1.806   1.776  14.458 -0.5298 -0.1616  0.1481
   68TCq2    C5 1038   1.878   1.696  14.542  0.3507  0.5778  0.3716
   68TCq2    C6 1039   1.901   1.566  14.517  0.0233  0.3303  0.0150
   68TCq2    C7 1040   1.840   1.511  14.410  0.5379  0.5643  0.2292
   68TCq2    C8 1041   1.934   1.469  14.623  0.2893 -0.1116  0.9381
   68TCq2    O4 1042   1.943   1.351  14.596  0.8870  0.2175  0.1588
   68TCq2    C9 1043   1.798   1.916  14.487 -0.1075 -0.1986  0.0826
   68TCq2    O5 1044   1.739   1.987  14.401 -0.5926 -0.2756  0.7614
   68TCq2    O6 1045   1.845   1.968  14.597  0.1443  0.2411 -0.4597
   68TCq2    H2 1046   1.684   1.778  14.282 -2.0007 -0.2608  1.5992
   68TCq2    H3 1047   1.928   1.752  14.621 -1.1376 -0.2667  1.8988
   68TCq2    H4 1048   1.852   1.405  14.390  2.6496  0.3472  2.6806
   69TMC2    C1 1049   2.977   2.769  12.128  0.3908  0.0298 -0.4456
   69TMC2    C2 1050   2.870   2.687  12.103  0.5324  0.3682 -0.4598
   69TMC2    C3 1051   2.850   2.632  11.976 -0.9092 -0.2216  0.7188
   69TMC2    C4 1052   3.064   2.780  12.025 -0.0653 -0.3626 -0.2946
   69TMC2    C5 1053   3.036   2.731  11.896  0.6379 -0.0087 -0.2991
   69TMC2    C6 1054   2.927   2.654  11.862 -0.2706  0.1949 -0.7451
   69TMC2     C 1055   3.030   2.763  12.265  0.2509  0.2557  0.6729
   69TMC2     O 1056   2.973   2.685  12.341 -0.4310  0.0015 -0.2586
   69TMC2     H 1057   2.808   2.652  12.185  1.4037 -0.9010 -0.3461
   69TMC2    H1 1058   3.146   2.848  12.041  1.0695 -1.9142  0.4373
   69TMC2    H2 1059   2.892   2.620  11.765  0.8875 -0.1619 -1.0325
   69TMC2    C7 1060   3.156   2.689  11.822  0.0763  0.1489 -0.0042
   69TMC2    C8 1061   2.731   2.562  11.946 -0.4065 -0.2987  0.0147
   69TMC2    O1 1062   3.257   2.717  11.881 -0.4005  0.3620  0.4636
   69TMC2    O2 1063   2.725   2.496  11.843 -0.1986 -0.1069  0.2585
   69TMC2    O5 1064   2.622   2.622  12.012  0.0887  0.0391  0.2030
   69TMC2    H5 1065   2.650   2.683  12.083 -0.0424 -0.2633  0.5151
   70MPD2     C 1066   3.365   2.859  12.387  0.5981 -0.4993  0.2911
   70MPD2    C1 1067   3.241   2.803  12.389  0.0696 -0.0373 -0.8391
   70MPD2    C2 1068   3.208   2.734  12.508  0.2543 -0.2834 -0.0058
   70MPD2    C3 1069   3.300   2.725  12.615 -0.0664 -0.5135  0.1008
   70MPD2    C4 1070   3.434   2.759  12.590 -0.0834 -0.1056  0.3803
   70MPD2    C5 1071   3.465   2.822  12.476  0.1889  0.0450 -0.5793
   70MPD2     H 1072   3.107   2.698  12.523 -0.4675  1.2663 -1.1970
   70MPD2    H1 1073   3.516   2.742  12.660 -0.5775  1.9856  1.4738
   70MPD2    H2 1074   3.404   2.911  12.301 -1.2068  0.2266 -0.0849
   70MPD2    H3 1075   3.563   2.859  12.448  0.3570 -1.3339 -1.7667
   70MPD2     N 1076   3.276   2.679  12.746  0.1517 -0.0321 -0.4290
   70MPD2    H5 1077   3.354   2.661  12.807  0.5417  1.7234 -0.3947
   70MPD2    N1 1078   3.160   2.819  12.278 -0.4952 -0.3506 -0.3756
   70MPD2    H7 1079   3.189   2.881  12.203 -1.0488  0.3458 -0.0156
   71TMC2    C1 1080   1.587   3.923   2.293  0.7434 -0.5154 -0.1311
   71TMC2    C2 1081   1.660   3.867   2.398 -0.0582  0.1334  0.0490
   71TMC2    C3 1082   1.612   3.892   2.530  0.7144 -0.6757  0.1841
   71TMC2    C4 1083   1.470   3.990   2.317  0.3403 -0.4579  0.0687
   71TMC2    C5 1084   1.431   4.009   2.447  0.2024  0.2749  0.7436
   71TMC2    C6 1085   1.498   3.959   2.552 -0.0448  0.2277 -0.2354
   71TMC2     C 1086   1.629   3.896   2.148  0.2760 -0.2456  0.1171
   71TMC2     O 1087   1.556   3.945   2.062  0.1539 -0.1298 -0.0918
   71TMC2     H 1088   1.757   3.819   2.389  0.0543  0.1976  0.9304
   71TMC2    H1 1089   1.425   4.038   2.231 -2.3933 -0.6727  1.3763
   71TMC2    H2 1090   1.465   3.982   2.653 -1.9959  0.9877 -1.0451
   71TMC2    C7 1091   1.317   4.093   2.474  0.1792  0.6142 -0.0623
   71TMC2    C8 1092   1.697   3.864   2.644 -0.1639 -0.0972  0.0167
   71TMC2    O1 1093   1.297   4.132   2.590  0.0866 -0.2632 -0.2144
   71TMC2    O2 1094   1.649   3.818   2.748 -0.1776  0.4317 -0.1392
   71TMC2    O5 1095   1.821   3.864   2.602  0.4227 -0.2346 -0.3686
   71TMC2    H5 1096   1.816   3.928   2.528  0.3244 -0.5719 -0.6526
   72MPD2     C 1097   1.907   3.642   1.781  0.4935  0.4806 -0.4703
   72MPD2    C1 1098   1.806   3.736   1.767  0.0204  0.2628 -0.7384
   72MPD2    C2 1099   1.755   3.800   1.884 -0.3258 -0.1792 -0.0299
   72MPD2    C3 1100   1.788   3.753   2.012  0.3662  1.0251  0.2848
   72MPD2    C4 1101   1.884   3.664   2.020  0.5821  0.3888  0.3081
   72MPD2    C5 1102   1.942   3.611   1.907 -0.7824  0.1223  0.1203
   72MPD2     H 1103   1.679   3.877   1.885 -1.0973 -0.9151 -1.1256
   72MPD2    H1 1104   1.912   3.620   2.115  1.1352  0.2891  0.1022
   72MPD2    H2 1105   1.947   3.588   1.696 -1.2640 -0.0742 -0.9440
   72MPD2    H3 1106   2.021   3.539   1.926 -0.7903  0.1283  0.1761
   72MPD2     N 1107   1.736   3.812   2.134  0.2550 -0.2724  0.3498
   72MPD2    H5 1108   1.778   3.779   2.221  1.0324 -2.1722 -0.7566
   72MPD2    N1 1109   1.755   3.786   1.642  0.4820 -0.2966  0.3155
   72MPD2    H7 1110   1.667   3.836   1.652 -0.3495 -1.2628 -2.2543
   73TMC2    C1 1111   0.930   0.285  13.911 -0.5800 -0.4334 -0.8383
   73TMC2    C2 1112   0.839   0.333  14.008 -0.0157  0.5735  0.1929
   73TMC2    C3 1113   0.884   0.394  14.120  0.4530  0.5731  0.1829
   73TMC2    C4 1114   1.064   0.283  13.936  0.5387 -0.0129 -0.1996
   73TMC2    C5 1115   1.102   0.337  14.055 -0.2776 -0.8510 -0.6781
   73TMC2    C6 1116   1.017   0.400  14.140  0.5244  0.0290 -0.0470
   73TMC2     C 1117   0.917   0.310  13.774  0.1071 -0.0312 -0.5281
   73TMC2     O 1118   1.013   0.372  13.732  0.4686  0.0804  0.7383
   73TMC2     H 1119   0.737   0.301  13.989  0.4845 -1.3580  0.7708
   73TMC2    H1 1120   1.129   0.244  13.859 -2.5020 -0.7275 -2.3820
   73TMC2    H2 1121   1.059   0.441  14.231 -1.6944 -0.1696  1.0745
   73TMC2    C7 1122   1.210   0.428  14.026 -0.0386  0.0249 -0.7503
   73TMC2    C8 1123   0.786   0.425  14.226  0.1554  1.0995  0.7263
   73TMC2    O1 1124   1.267   0.465  14.129 -0.3704 -0.0565  0.1004
   73TMC2    O2 1125   0.786   0.355  14.326 -0.3431 -0.4717  0.3081
   73TMC2    O5 1126   0.670   0.458  14.169 -0.4506  0.3508 -0.0156
   73TMC2    H5 1127   0.695   0.501  14.085  1.4932  1.7644  1.2923
   74MPD2     C 1128   0.637   0.478  13.379  0.2190  0.1926  0.3026
   74MPD2    C1 1129   0.761   0.515  13.417 -0.2331 -0.6961  0.5677
   74MPD2    C2 1130   0.821   0.448  13.525  0.3615  1.2327  0.1671
   74MPD2    C3 1131   0.749   0.357  13.598 -0.4308  0.2113  0.3376
   74MPD2    C4 1132   0.624   0.324  13.556 -0.1173  0.5127  0.1058
   74MPD2    C5 1133   0.569   0.381  13.445 -0.2703 -0.0270  0.5041
   74MPD2     H 1134   0.923   0.474  13.548  0.4393  0.6599  0.4838
   74MPD2    H1 1135   0.570   0.260  13.625 -1.9092  0.6310 -1.1993
   74MPD2    H2 1136   0.576   0.522  13.301  1.4538  2.0324  0.3703
   74MPD2    H3 1137   0.461   0.375  13.442 -0.2880  0.4155  0.3274
   74MPD2     N 1138   0.793   0.290  13.720  0.7556 -0.1393  0.1572
   74MPD2    H5 1139   0.724   0.231  13.765  0.3692 -1.1763 -1.8230
   74MPD2    N1 1140   0.834   0.616  13.346 -0.2528 -0.0776 -0.6671
   74MPD2    H7 1141   0.795   0.648  13.258  1.0746 -0.0304 -1.2343
   75TCq2    C1 1142   1.051   1.658  14.104 -0.1860  0.4884 -0.1485
   75TCq2    O2 1143   1.065   1.655  14.228  0.5160  0.1529  0.1828
   75TCq2    C2 1144   0.935   1.722  14.037  0.2892  0.9359 -0.0421
   75TCq2    C3 1145   0.840   1.790  14.107  0.2877 -0.1080 -0.0160
   75TCq2    C4 1146   0.738   1.850  14.045  0.0463  0.1666 -0.5912
   75TCq2    C5 1147   0.716   1.842  13.909 -0.3731 -0.1604 -0.1190
   75TCq2    C6 1148   0.813   1.776  13.842  0.0400 -0.3130 -1.0904
   75TCq2    C7 1149   0.915   1.711  13.905 -0.4767 -0.1900 -0.1592
   75TCq2    C8 1150   0.799   1.767  13.700 -0.8689  0.1305 -0.2046
   75TCq2    O4 1151   0.859   1.681  13.636  0.7761  0.0851 -0.5842
   75TCq2    C9 1152   0.637   1.911  14.129 -0.8185  0.5727 -0.2116
   75TCq2    O5 1153   0.651   1.881  14.249  0.2251 -0.1579 -0.1127
   75TCq2    O6 1154   0.545   1.971  14.065  0.2005  0.0076 -0.4601
   75TCq2    H2 1155   0.850   1.799  14.215 -1.4645 -0.2256  0.1570
   75TCq2    H3 1156   0.620   1.876  13.872  0.6061  2.1460 -0.5094
   75TCq2    H4 1157   0.989   1.680  13.832  0.8503 -1.0370  1.5420
   76MPD2     C 1158   4.313   2.412  12.044 -0.3329  0.1414  0.0292
   76MPD2    C1 1159   4.306   2.391  11.908  0.4013 -0.3235 -0.1085
   76MPD2    C2 1160   4.404   2.305  11.857 -0.2258  0.2946  0.5086
   76MPD2    C3 1161   4.497   2.248  11.934  0.1613 -0.6737  0.5848
   76MPD2    C4 1162   4.513   2.283  12.067  0.1781  0.8462  0.1908
   76MPD2    C5 1163   4.412   2.363  12.125  0.3177 -0.1218 -0.2318
   76MPD2     H 1164   4.390   2.260  11.759 -1.0740  0.6210  0.4783
   76MPD2    H1 1165   4.592   2.238  12.126 -0.5061  2.2945  2.2072
   76MPD2    H2 1166   4.250   2.491  12.083  3.0810  2.3752  1.0399
   76MPD2    H3 1167   4.416   2.378  12.232  2.3584  0.5197 -0.4019
   76MPD2     N 1168   4.573   2.138  11.890 -0.1047  0.2142  0.1325
   76MPD2    H5 1169   4.652   2.105  11.946  0.6761 -0.1945 -1.1993
   76MPD2    N1 1170   4.207   2.441  11.819 -0.1296  0.5814  0.1274
   76MPD2    H7 1171   4.214   2.427  11.719  1.2312  1.1460  0.1475
   77TCq2    C1 1172   4.544   2.052  11.781 -0.3819  0.3186 -0.1234
   77TCq2    O2 1173   4.445   2.048  11.713 -0.3437 -0.6638 -1.0345
   77TCq2    C2 1174   4.637   1.947  11.779  0.3892 -0.0692  0.1247
   77TCq2    C3 1175   4.639   1.870  11.667  1.2327 -0.2707 -0.0355
   77TCq2    C4 1176   4.700   1.748  11.667  0.4358 -0.0369 -0.2634
   77TCq2    C5 1177   0.046   1.708  11.775  0.9550 -0.2908 -0.3700
   77TCq2    C6 1178   0.040   1.785  11.888 -0.1140 -0.8310 -0.2441
   77TCq2    C7 1179   4.699   1.901  11.893 -0.4847  0.0686 -0.0986
   77TCq2    C8 1180   0.118   1.744  12.003  0.8232  0.3331  0.2950
   77TCq2    O4 1181   0.154   1.631  12.010  0.2178  0.0710 -0.0704
   77TCq2    C9 1182   4.699   1.654  11.559  0.7690  0.3427 -0.1931
   77TCq2    O5 1183   0.038   1.544  11.573 -0.3408  0.1899 -0.2789
   77TCq2    O6 1184   4.652   1.687  11.444  0.5058  0.5062  0.3595
   77TCq2    H2 1185   4.591   1.901  11.575  2.0809 -0.3172 -0.4997
   77TCq2    H3 1186   0.097   1.612  11.776 -1.0022 -1.3499 -1.7744
   77TCq2    H4 1187   4.665   1.945  11.987 -0.7149 -0.1222 -0.0928
   78MPD1     C 1188   0.414   3.834   1.785 -0.1640 -0.5006 -0.4929
   78MPD1    C1 1189   0.376   3.904   1.898  0.0220 -0.2647  0.2822
   78MPD1    C2 1190   0.462   3.905   2.003  0.8161 -0.8002 -0.1291
   78MPD1    C3 1191   0.587   3.853   1.991 -0.4668 -0.4502 -0.4174
   78MPD1    C4 1192   0.631   3.805   1.866  0.6494 -1.0707 -0.0519
   78MPD1    C5 1193   0.538   3.791   1.762  0.7944  0.1151 -0.3419
   78MPD1     H 1194   0.435   3.952   2.096 -2.8473 -2.2174 -0.4403
   78MPD1    H1 1195   0.730   3.761   1.865  1.8343  1.5833  0.1420
   78MPD1    H2 1196   0.349   3.829   1.698 -2.2361  2.0608  0.9449
   78MPD1    H3 1197   0.566   3.739   1.671 -3.8035  1.4357 -2.5299
   78MPD1     N 1198   0.682   3.856   2.095 -0.2053  0.1762 -0.1343
   78MPD1    H5 1199   0.774   3.819   2.076 -0.7266 -1.3188  0.2284
   78MPD1    N1 1200   0.239   3.933   1.917 -0.2311 -0.2835 -0.0573
   78MPD1    H6 1201   0.192   3.933   1.828  0.8303  0.4132 -0.6212
   78MPD1    H7 1202   0.202   4.008   1.975 -1.8133 -1.1218  0.0000
   79TCq2    C1 1203   0.659   3.903   2.219 -0.3019 -0.2885 -0.0417
   79TCq2    O2 1204   0.566   3.968   2.263  0.0113  0.3506 -0.1209
   79TCq2    C2 1205   0.765   3.878   2.315  0.5138  0.6955 -0.6510
   79TCq2    C3 1206   0.740   3.929   2.443 -0.0518 -0.3487 -0.0129
   79TCq2    C4 1207   0.846   3.934   2.530  0.6452 -0.2058 -0.0951
   79TCq2    C5 1208   0.961   3.869   2.509 -0.5312  0.3113 -0.1938
   79TCq2    C6 1209   0.970   3.803   2.394 -0.1660 -0.0120  0.4572
   79TCq2    C7 1210   0.881   3.817   2.289 -0.1341  0.1981  0.0059
   79TCq2    C8 1211   1.100   3.747   2.358 -0.7596  0.6307  0.2861
   79TCq2    O4 1212   1.124   3.719   2.243 -0.2380 -0.4565  0.0566
   79TCq2    C9 1213   0.845   4.002   2.658  0.0740 -0.4358 -0.1522
   79TCq2    O5 1214   0.925   3.968   2.746 -0.9453  0.1897  0.4536
   79TCq2    O6 1215   0.751   4.083   2.670 -0.5676 -0.0206  0.1289
   79TCq2    H2 1216   0.646   3.968   2.481 -0.5310 -0.8398 -0.6970
   79TCq2    H3 1217   1.042   3.878   2.581 -0.6044  0.8830 -0.1825
   79TCq2    H4 1218   0.898   3.767   2.195 -0.7122  1.6635 -0.8786
   80MPD2     C 1219   3.153   1.964  12.676 -0.5219 -0.8066 -0.3153
   80MPD2    C1 1220   3.185   1.984  12.541  0.7766  0.3849 -0.2588
   80MPD2    C2 1221   3.082   1.980  12.447 -0.0832  0.3332  0.6904
   80MPD2    C3 1222   2.956   1.948  12.487  0.5648  1.0181 -0.3770
   80MPD2    C4 1223   2.932   1.918  12.617  0.3472 -0.4890  0.4409
   80MPD2    C5 1224   3.029   1.939  12.706  0.1506  0.7068 -0.4982
   80MPD2     H 1225   3.113   2.000  12.345 -0.7594  2.8884  0.9945
   80MPD2    H1 1226   2.832   1.894  12.652  0.4053 -1.2213  0.1057
   80MPD2    H2 1227   3.233   1.955  12.748  0.2234  1.4534 -0.8676
   80MPD2    H3 1228   3.017   1.914  12.811 -0.1164  1.4434 -0.3578
   80MPD2     N 1229   2.851   1.925  12.388 -0.3305 -0.5146 -0.2998
   80MPD2    H5 1230   2.762   1.895  12.428 -0.1120  0.6594  1.0604
   80MPD2    N1 1231   3.318   2.009  12.493  0.4497 -0.3718  0.1870
   80MPD2    H7 1232   3.323   2.044  12.398  0.0433 -2.7020 -0.6886
   81TCq2    C1 1233   3.434   2.000  12.569 -0.6760 -0.4289  0.5033
   81TCq2    O2 1234   3.451   1.955  12.685 -0.7032 -0.3733  0.5048
   81TCq2    C2 1235   3.552   2.040  12.489  0.7231 -0.0721  0.0397
   81TCq2    C3 1236   3.669   2.065  12.559  0.3887  0.0147 -0.6625
   81TCq2    C4 1237   3.790   2.061  12.492  0.8714  0.0142  0.7564
   81TCq2    C5 1238   3.795   2.041  12.356  0.8458 -0.0881  0.0297
   81TCq2    C6 1239   3.678   2.015  12.289 -0.6480 -0.2311  0.0516
   81TCq2    C7 1240   3.555   2.032  12.347  0.0600  0.7295  0.0570
   81TCq2    C8 1241   3.669   1.941  12.165 -0.2761  0.1092  0.2101
   81TCq2    O4 1242   3.698   1.996  12.060 -1.0288 -0.0892  0.2021
   81TCq2    C9 1243   3.915   2.087  12.566 -0.0027 -0.4723  0.3929
   81TCq2    O5 1244   4.019   2.054  12.509  0.0690  0.5950 -0.0010
   81TCq2    O6 1245   3.908   2.125  12.681 -0.2498 -0.4953  0.0944
   81TCq2    H2 1246   3.668   2.091  12.664  0.3664 -1.1606 -0.3655
   81TCq2    H3 1247   3.891   2.045  12.305  0.4608 -2.7091 -0.8905
   81TCq2    H4 1248   3.468   2.010  12.286  0.4385 -1.4439  0.3330
   82MPD2     C 1249   1.937   1.353  10.564  0.9354 -0.0506  0.5706
   82MPD2    C1 1250   1.866   1.235  10.534  0.0058 -0.5555 -0.2405
   82MPD2    C2 1251   1.935   1.118  10.542  0.6442 -0.7732  0.6124
   82MPD2    C3 1252   2.069   1.111  10.576  0.6631 -0.2499 -1.3734
   82MPD2    C4 1253   2.135   1.232  10.598  0.2121 -0.4216 -0.1878
   82MPD2    C5 1254   2.071   1.354  10.594  0.1713 -0.0939  0.5984
   82MPD2     H 1255   1.873   1.030  10.532  1.0781 -0.9145 -0.8023
   82MPD2    H1 1256   2.236   1.231  10.639 -0.0317 -1.9184  0.4032
   82MPD2    H2 1257   1.884   1.447  10.572 -1.6211 -1.1745 -3.4766
   82MPD2    H3 1258   2.124   1.443  10.626  0.1938 -0.5158  1.7399
   82MPD2     N 1259   2.127   0.986  10.601  0.4236  0.6379 -0.5735
   82MPD2    H5 1260   2.072   0.902  10.616 -0.2294  1.2772  0.5964
   82MPD2    N1 1261   1.739   1.250  10.473  0.3338  0.1029  0.2415
   82MPD2    H7 1262   1.691   1.339  10.482 -2.8945 -1.4693 -1.4136
   83TCq2    C1 1263   2.260   0.967  10.623 -0.2888 -0.0798 -0.3011
   83TCq2    O2 1264   2.355   1.038  10.594  0.5082 -0.0770 -0.1071
   83TCq2    C2 1265   2.286   0.832  10.672 -0.3333 -0.5347  0.5486
   83TCq2    C3 1266   2.420   0.783  10.649 -0.3900 -0.5395 -0.1818
   83TCq2    C4 1267   2.435   0.645  10.648  0.5497  0.7920  0.5712
   83TCq2    C5 1268   2.331   0.563  10.663  0.0337 -0.1370 -0.4192
   83TCq2    C6 1269   2.206   0.611  10.682 -0.5012 -1.2308  0.4151
   83TCq2    C7 1270   2.182   0.752  10.692 -0.2651  0.2641 -0.5996
   83TCq2    C8 1271   2.115   0.530  10.759  0.7082  0.7305  0.4025
   83TCq2    O4 1272   2.098   0.565  10.874  0.5120  0.1662  0.1980
   83TCq2    C9 1273   2.567   0.592  10.631  1.1018  0.1241 -0.1218
   83TCq2    O5 1274   2.662   0.676  10.618 -0.3377 -0.0120  0.2885
   83TCq2    O6 1275   2.593   0.481  10.682  0.1957 -0.4518  0.2688
   83TCq2    H2 1276   2.512   0.841  10.647 -0.8693  0.2091 -0.3188
   83TCq2    H3 1277   2.351   0.458  10.649  1.4773  0.1915 -0.8712
   83TCq2    H4 1278   2.080   0.781  10.715  0.6141  2.7684  0.0276
   84TCq2    C1 1279   3.532   0.266  10.609 -0.3324 -0.3361 -0.5233
   84TCq2    O2 1280   3.414   0.254  10.583  0.1350 -0.0236  0.6790
   84TCq2    C2 1281   3.572   0.353  10.717 -0.3693  0.1507  0.0842
   84TCq2    C3 1282   3.700   0.390  10.724 -0.0898  0.4108  0.4141
   84TCq2    C4 1283   3.729   0.515  10.771 -0.9133 -0.5528  0.2587
   84TCq2    C5 1284   3.630   0.600  10.801  0.5525  0.1418 -0.7553
   84TCq2    C6 1285   3.499   0.564  10.788 -0.1141 -0.3011 -0.3486
   84TCq2    C7 1286   3.467   0.439  10.745  0.3004  0.1407  0.3613
   84TCq2    C8 1287   3.391   0.660  10.796  0.1597 -0.1437  0.2112
   84TCq2    O4 1288   3.276   0.618  10.792  0.2435  0.3161  0.2134
   84TCq2    C9 1289   3.869   0.550  10.797 -0.1540  0.0879 -0.1639
   84TCq2    O5 1290   3.965   0.482  10.746  0.5775  0.3103  0.3124
   84TCq2    O6 1291   3.893   0.664  10.847  0.2505  0.2748 -0.0772
   84TCq2    H2 1292   3.779   0.319  10.702  1.0671  1.2301  1.9767
   84TCq2    H3 1293   3.664   0.688  10.855 -1.0341  0.8039 -0.8217
   84TCq2    H4 1294   3.366   0.404  10.729  1.4213 -2.9360 -0.0891
   85MPD2     C 1295   3.260   3.284  16.157  0.0805  0.2865  0.1262
   85MPD2    C1 1296   3.293   3.181  16.065  0.0860 -0.1894  0.1586
   85MPD2    C2 1297   3.388   3.214  15.970 -0.1901  0.0605 -0.3198
   85MPD2    C3 1298   3.453   3.343  15.968  0.0855  0.0119  0.6999
   85MPD2    C4 1299   3.415   3.434  16.064  0.4337  0.5428 -0.1607
   85MPD2    C5 1300   3.319   3.401  16.156  0.0829 -0.0918 -0.2592
   85MPD2     H 1301   3.421   3.142  15.896  1.2098 -1.0062  1.3444
   85MPD2    H1 1302   3.459   3.533  16.068  2.1656 -0.1378 -2.5327
   85MPD2    H2 1303   3.176   3.269  16.223 -2.3364  3.0946 -2.3093
   85MPD2    H3 1304   3.281   3.478  16.223  1.1909  0.6893 -0.5337
   85MPD2     N 1305   3.544   3.373  15.863  0.2971 -0.5610  0.0988
   85MPD2    H5 1306   3.567   3.299  15.797 -0.2451  0.9823 -1.8477
   85MPD2    N1 1307   3.237   3.052  16.079  0.1130  0.5191  0.1849
   85MPD2    H7 1308   3.232   2.993  15.996 -0.1530  0.8893 -0.0613
   86TCq2    C1 1309   3.610   3.492  15.843 -0.5884 -0.7536  0.3933
   86TCq2    O2 1310   3.601   3.594  15.907 -0.4602  0.0367  0.1707
   86TCq2    C2 1311   3.716   3.477  15.755 -0.4509 -0.1553  0.0933
   86TCq2    C3 1312   3.783   3.592  15.731 -0.4979 -0.1836  0.6144
   86TCq2    C4 1313   3.864   3.607  15.617 -0.7924 -0.1151  0.3717
   86TCq2    C5 1314   3.869   3.511  15.530 -0.4076 -0.5360  0.0766
   86TCq2    C6 1315   3.810   3.390  15.561  0.2846 -0.5691  0.0631
   86TCq2    C7 1316   3.730   3.369  15.671  0.4452  0.2097 -0.5497
   86TCq2    C8 1317   3.833   3.282  15.462  1.0160 -0.3941 -0.5788
   86TCq2    O4 1318   3.828   3.170  15.506 -0.3403 -0.4691  0.2879
   86TCq2    C9 1319   3.928   3.733  15.582  0.3595 -0.1215 -1.4135
   86TCq2    O5 1320   3.915   3.825  15.660 -0.2773  0.1701  0.3928
   86TCq2    O6 1321   3.999   3.740  15.476 -0.2604  0.2318  0.3534
   86TCq2    H2 1322   3.775   3.678  15.797 -0.9766  0.6670 -0.5595
   86TCq2    H3 1323   3.940   3.520  15.448  2.0548  1.1180  2.3588
   86TCq2    H4 1324   3.685   3.273  15.693 -2.0265  0.9661 -2.3246
   87MPD2     C 1325   1.100   2.047   0.857  0.6666 -0.3388  0.4337
   87MPD2    C1 1326   1.164   2.163   0.903 -0.1558 -0.2197 -0.3084
   87MPD2    C2 1327   1.090   2.258   0.967  0.3473 -0.0245 -0.5584
   87MPD2    C3 1328   0.952   2.247   0.976  0.5275 -1.2825 -0.0728
   87MPD2    C4 1329   0.889   2.147   0.916 -0.0993  0.1276  0.0277
   87MPD2    C5 1330   0.963   2.045   0.851 -0.1449 -0.2193 -0.0505
   87MPD2     H 1331   1.143   2.348   0.994  2.4056 -0.2514 -3.8844
   87MPD2    H1 1332   0.781   2.138   0.913  0.1728 -3.0925 -0.0320
   87MPD2    H2 1333   1.153   1.968   0.807 -0.3202 -0.2167 -0.8201
   87MPD2    H3 1334   0.919   1.960   0.801  0.3587 -0.3922 -0.2060
   87MPD2     N 1335   0.875   2.358   1.025 -0.3248  0.3251  0.6244
   87MPD2    H5 1336   0.777   2.355   0.999 -0.3180 -1.2889  0.7529
   87MPD2    N1 1337   1.302   2.184   0.893  1.5256  0.0706 -0.1942
   87MPD2    H7 1338   1.333   2.278   0.915 -1.1281  1.0308 -0.4871
   88TCq2    C1 1339   1.388   2.110   0.819  0.2545 -0.7115 -0.1735
   88TCq2    O2 1340   1.372   2.014   0.747  0.0140  0.1769 -0.2967
   88TCq2    C2 1341   1.517   2.174   0.809  0.0231  0.2645 -0.0948
   88TCq2    C3 1342   1.575   2.242   0.910 -0.2922 -0.4403 -0.6832
   88TCq2    C4 1343   1.688   2.314   0.891  0.3364 -0.0758  0.1042
   88TCq2    C5 1344   1.739   2.323   0.762 -0.4854 -0.6688 -0.1213
   88TCq2    C6 1345   1.673   2.257   0.662  0.6708  0.4477 -0.0274
   88TCq2    C7 1346   1.566   2.178   0.680  0.1625  0.0693  0.2795
   88TCq2    C8 1347   1.677   2.317   0.531 -0.3599  0.0741  0.2503
   88TCq2    O4 1348   1.635   2.247   0.440  0.2461 -0.2095 -0.0376
   88TCq2    C9 1349   1.731   2.401   0.992 -0.3743 -0.3559 -0.1094
   88TCq2    O5 1350   1.824   2.474   0.960 -0.3291 -0.2617  0.3462
   88TCq2    O6 1351   1.651   2.429   1.084  0.7680 -0.3928 -0.2748
   88TCq2    H2 1352   1.531   2.231   1.008  0.8653  0.4024 -0.0757
   88TCq2    H3 1353   1.825   2.385   0.741 -0.5094 -0.5046  0.2679
   88TCq2    H4 1354   1.511   2.130   0.600 -0.2702 -0.5551  0.9556
   89MPD2     C 1355   2.143   0.220   2.255 -0.0885  0.2542 -0.1120
   89MPD2    C1 1356   2.029   0.278   2.286 -0.1676  0.5203  0.2071
   89MPD2    C2 1357   2.020   0.414   2.259  0.0721 -0.5053 -0.3491
   89MPD2    C3 1358   2.114   0.485   2.186  0.6910  0.4306 -0.8174
   89MPD2    C4 1359   2.224   0.412   2.137 -0.6853 -0.7091 -0.3914
   89MPD2    C5 1360   2.236   0.279   2.169  0.8389  0.3017 -0.0792
   89MPD2     H 1361   1.926   0.462   2.285  2.0408  2.3254  1.4381
   89MPD2    H1 1362   2.301   0.451   2.072 -0.4257  0.0370  0.3497
   89MPD2    H2 1363   2.160   0.114   2.265  0.8490  0.3770 -0.4012
   89MPD2    H3 1364   2.309   0.213   2.124 -1.3481 -0.0453 -3.0948
   89MPD2     N 1365   2.092   0.623   2.161 -0.1468 -0.0994 -0.1229
   89MPD2    H5 1366   2.021   0.672   2.214 -0.8548 -1.3712  0.0962
   89MPD2    N1 1367   1.933   0.217   2.358  0.3962  0.0013  0.0272
   89MPD2    H7 1368   1.852   0.270   2.388  0.3359  0.7283 -1.4353
   90TCq2    C1 1369   2.138   0.696   2.053 -0.1566 -0.1575 -0.6447
   90TCq2    O2 1370   2.177   0.653   1.942 -0.2087  0.4065 -0.1705
   90TCq2    C2 1371   2.085   0.829   2.056  0.1036 -0.0968  0.7469
   90TCq2    C3 1372   2.043   0.877   2.179 -0.3052  0.1574  0.2556
   90TCq2    C4 1373   1.959   0.980   2.187 -0.7357 -0.2690 -0.0383
   90TCq2    C5 1374   1.913   1.036   2.076  1.0510  0.0006 -0.0795
   90TCq2    C6 1375   1.955   0.993   1.954  0.3126 -0.3948  0.0690
   90TCq2    C7 1376   2.032   0.876   1.942 -1.0295  0.3092 -0.1208
   90TCq2    C8 1377   1.900   1.066   1.844 -0.2254  0.1967  0.6421
   90TCq2    O4 1378   1.810   1.147   1.863 -0.1586  0.5018 -0.5492
   90TCq2    C9 1379   1.899   1.025   2.311  0.2004 -0.4959  0.3050
   90TCq2    O5 1380   1.950   0.973   2.413  0.1603  0.5210 -0.4437
   90TCq2    O6 1381   1.825   1.128   2.303  0.5741 -0.6497 -0.1551
   90TCq2    H2 1382   2.068   0.820   2.268 -0.8187  1.1701  1.0398
   90TCq2    H3 1383   1.846   1.122   2.077  2.0683  0.7987 -0.3420
   90TCq2    H4 1384   2.071   0.845   1.846  1.1030 -0.7637  1.1128
   91TMC2    C1 1385   3.463   4.104  16.677 -0.1327 -0.1644  0.2081
   91TMC2    C2 1386   3.500   4.145  16.808 -1.0000  1.0587 -0.2059
   91TMC2    C3 1387   3.402   4.200  16.886  0.0422 -0.3004 -0.4711
   91TMC2    C4 1388   3.331   4.108  16.641  0.4314  0.6269  0.2231
   91TMC2    C5 1389   3.240   4.157  16.731 -0.1609  0.4666  0.3040
   91TMC2    C6 1390   3.271   4.200  16.854 -0.1433  0.4674  0.1051
   91TMC2     C 1391   3.561   4.051  16.587  0.7322  0.1442 -0.0738
   91TMC2     O 1392   3.527   3.970  16.503  0.5098 -0.0888 -0.3195
   91TMC2     H 1393   3.605   4.137  16.837 -1.0118 -0.4910 -0.6223
   91TMC2    H1 1394   3.301   4.074  16.542  2.1656  0.9914 -0.4393
   91TMC2    H2 1395   3.198   4.247  16.919 -0.6965  1.3937 -1.1607
   91TMC2    C7 1396   3.098   4.126  16.713  0.3352 -1.1887  0.0465
   91TMC2    C8 1397   3.430   4.255  17.013  0.9266  0.2929  0.3159
   91TMC2    O1 1398   3.031   4.124  16.813 -0.8696 -0.2234  0.5170
   91TMC2    O2 1399   3.347   4.256  17.100  0.1561 -0.3060  0.4110
   91TMC2    O5 1400   3.548   4.319  17.014 -0.1097  0.4720  0.0452
   91TMC2    H5 1401   3.584   4.315  16.922 -0.3019 -1.1457  0.0470
   92MPD2     C 1402   3.821   3.979  16.437  0.0652  0.7465  0.8906
   92MPD2    C1 1403   3.813   4.061  16.550  0.0462 -0.7708 -0.7132
   92MPD2    C2 1404   3.936   4.086  16.608 -0.1734 -0.7767  0.0526
   92MPD2    C3 1405   4.059   4.048  16.555  0.0732  0.0767  0.4908
   92MPD2    C4 1406   4.059   3.974  16.438 -0.0509  0.3596 -0.0153
   92MPD2    C5 1407   3.940   3.942  16.379 -0.2907 -0.3293  0.9366
   92MPD2     H 1408   3.944   4.131  16.706  0.8249  1.4053 -1.0222
   92MPD2    H1 1409   4.149   3.943  16.387  1.7767  1.7442  2.4209
   92MPD2    H2 1410   3.732   3.966  16.376  0.0919 -0.0233  1.0199
   92MPD2    H3 1411   3.924   3.874  16.296  0.0544 -0.1774  0.7461
   92MPD2     N 1412   4.181   4.079  16.621 -0.1023 -0.1699  0.0602
   92MPD2    H5 1413   4.170   4.140  16.701 -0.1672  1.4953 -1.2139
   92MPD2    N1 1414   3.688   4.094  16.614 -0.2568  0.0406 -0.4929
   92MPD2    H7 1415   3.698   4.167  16.684 -0.4938 -0.4683  0.0686
   93MPD2     C 1416   0.843   3.730  13.481  0.6682 -0.7770  0.7107
   93MPD2    C1 1417   0.780   3.842  13.532  0.1936  0.2835  0.0486
   93MPD2    C2 1418   0.640   3.845  13.551  0.3713  0.3057 -0.7503
   93MPD2    C3 1419   0.569   3.734  13.511  0.8255 -0.5021  0.2690
   93MPD2    C4 1420   0.629   3.633  13.443  0.3033  0.3606  0.0255
   93MPD2    C5 1421   0.766   3.625  13.446 -0.1321 -0.6617  0.0064
   93MPD2     H 1422   0.593   3.934  13.590  0.5769  0.6727 -1.3442
   93MPD2    H1 1423   0.563   3.548  13.431 -2.1645  1.9266  2.2444
   93MPD2    H2 1424   0.950   3.716  13.474  0.7758 -0.4411  1.7234
   93MPD2    H3 1425   0.814   3.532  13.420 -0.1814 -1.3916  2.5160
   93MPD2     N 1426   0.425   3.732  13.517 -0.1765 -0.3785 -0.8144
   93MPD2    H5 1427   0.375   3.662  13.463 -2.5026  0.2641  0.4692
   93MPD2    N1 1428   0.848   3.953  13.582 -0.2149  0.3913  0.2715
   93MPD2    H7 1429   0.788   4.027  13.618  0.0726 -0.0610  1.6876
   94TCq2    C1 1430   0.983   3.968  13.608  0.3928  0.1605  0.5341
   94TCq2    O2 1431   1.079   3.894  13.582  0.1634 -0.1069 -0.2991
   94TCq2    C2 1432   1.012   4.104  13.653  0.0794 -0.4278 -0.0665
   94TCq2    C3 1433   0.910   4.191  13.699  0.2239 -0.2131 -0.7346
   94TCq2    C4 1434   0.941   4.318  13.721 -0.1901 -0.0794 -0.1534
   94TCq2    C5 1435   1.063   4.369  13.696  0.4836 -0.2484  0.5282
   94TCq2    C6 1436   1.153   4.287  13.635 -0.3234  0.3645 -0.4041
   94TCq2    C7 1437   1.129   4.160  13.611 -0.7340 -0.0351  0.0115
   94TCq2    C8 1438   1.294   4.328  13.617 -0.1910  0.0225  0.2178
   94TCq2    O4 1439   1.355   4.258  13.535 -0.7021 -0.7833 -0.0848
   94TCq2    C9 1440   0.846   4.407  13.785 -0.2379 -0.2421 -0.3410
   94TCq2    O5 1441   0.726   4.371  13.793 -0.2076 -0.4935 -0.3023
   94TCq2    O6 1442   0.894   4.502  13.854  0.2409 -0.2234  0.1594
   94TCq2    H2 1443   0.815   4.151  13.732 -0.0799  1.5066  0.4723
   94TCq2    H3 1444   1.078   4.473  13.722  0.1758  0.2793 -1.3783
   94TCq2    H4 1445   1.213   4.100  13.576 -0.1856  0.0210  1.2111
   95TMC2    C1 1446   0.562   1.025  15.645 -0.6193  0.5890  0.2255
   95TMC2    C2 1447   0.488   0.969  15.544 -0.4305 -0.3082  0.0666
   95TMC2    C3 1448   0.384   0.890  15.584  0.3934 -0.8541 -0.3828
   95TMC2    C4 1449   0.540   1.004  15.782 -0.1815  0.1468  0.3766
   95TMC2    C5 1450   0.435   0.924  15.813  0.5468  0.3237 -0.7138
   95TMC2    C6 1451   0.359   0.864  15.714 -0.0946 -0.5522 -0.6015
   95TMC2     C 1452   0.684   1.087  15.613  0.4302 -0.2463  0.0192
   95TMC2     O 1453   0.737   1.153  15.702 -0.0034 -0.0315  0.1842
   95TMC2     H 1454   0.492   0.991  15.438 -2.0910  1.0075  0.2751
   95TMC2    H1 1455   0.604   1.054  15.855 -1.6762  0.6295  1.3583
   95TMC2    H2 1456   0.278   0.796  15.735 -1.0393  0.7761  0.0494
   95TMC2    C7 1457   0.380   0.930  15.945  0.5124  1.1916  0.5757
   95TMC2    C8 1458   0.338   0.792  15.491  0.7868 -0.7793  0.2146
   95TMC2    O1 1459   0.272   0.876  15.967  0.2638 -0.5319 -0.1333
   95TMC2    O2 1460   0.420   0.751  15.405 -0.5803  0.6451  0.1636
   95TMC2    O5 1461   0.203   0.816  15.484  0.1957  0.1004 -0.3543
   95TMC2    H5 1462   0.168   0.867  15.560  2.2339  0.5647  0.2643
   96MPD2     C 1463   1.131   1.061  15.370  0.2024 -0.1056 -0.1837
   96MPD2    C1 1464   1.075   1.159  15.439  0.0078  0.0356 -0.0183
   96MPD2    C2 1465   0.941   1.155  15.482  0.3617  1.1817  0.8310
   96MPD2    C3 1466   0.875   1.034  15.462  0.1015 -1.0142  0.6307
   96MPD2    C4 1467   0.930   0.940  15.381 -0.6327  0.7490  0.1149
   96MPD2    C5 1468   1.063   0.948  15.345 -0.4905 -0.5509  0.1239
   96MPD2     H 1469   0.892   1.242  15.525  0.2597  1.4174  0.2312
   96MPD2    H1 1470   0.879   0.850  15.351  0.1907  0.6792 -1.0778
   96MPD2    H2 1471   1.237   1.065  15.351  0.0086  1.1341 -0.9939
   96MPD2    H3 1472   1.115   0.866  15.297  1.8339  0.1806  1.3997
   96MPD2     N 1473   0.745   1.011  15.514 -0.6992  0.0966  0.7325
   96MPD2    H5 1474   0.697   0.928  15.482 -2.8467  1.6535 -0.0813
   96MPD2    N1 1475   1.160   1.269  15.460 -0.2509  0.5445  0.0826
   96MPD2    H7 1476   1.255   1.254  15.425  0.1866 -1.4854  2.1143
   97MPD2     C 1477   2.177   3.820   0.882 -0.2082 -0.0079  0.1278
   97MPD2    C1 1478   2.309   3.844   0.848  0.3390  0.4401  0.0830
   97MPD2    C2 1479   2.335   3.875   0.714  0.1959  0.0105 -0.0250
   97MPD2    C3 1480   2.229   3.886   0.625  0.0751 -0.2111 -0.1813
   97MPD2    C4 1481   2.097   3.859   0.665 -0.4449  0.0052  0.1108
   97MPD2    C5 1482   2.070   3.829   0.795 -0.8402 -0.0472  0.2199
   97MPD2     H 1483   2.440   3.878   0.687 -0.1077  1.1320 -1.0693
   97MPD2    H1 1484   2.013   3.875   0.598 -1.9099  1.1067  2.2289
   97MPD2    H2 1485   2.154   3.799   0.986  0.3962 -3.1735 -0.3803
   97MPD2    H3 1486   1.973   3.813   0.840  0.2775 -0.6553  2.4629
   97MPD2     N 1487   2.252   3.938   0.501 -0.1818  0.2483  0.3266
   97MPD2    H5 1488   2.170   3.968   0.450  1.7905 -1.5437 -3.8678
   97MPD2    N1 1489   2.414   3.829   0.941 -0.3612  0.0973  0.2030
   97MPD2    H7 1490   2.384   3.789   1.029 -0.0509  1.6227  0.9998
   98TCq2    C1 1491   2.374   3.980   0.450 -0.4179 -0.0279  0.1959
   98TCq2    O2 1492   2.478   4.014   0.514  0.1384  0.7322  0.5829
   98TCq2    C2 1493   2.357   4.034   0.310 -0.0822 -0.4547 -0.3689
   98TCq2    C3 1494   2.267   3.977   0.228  0.1825 -0.5809  0.3539
   98TCq2    C4 1495   2.274   3.992   0.095  0.1124  0.2299 -0.0151
   98TCq2    C5 1496   2.384   4.049   0.033  0.1193 -0.1911 -0.0858
   98TCq2    C6 1497   2.482   4.097   0.119 -0.2464  0.4690  0.3394
   98TCq2    C7 1498   2.473   4.081   0.252 -0.6066 -0.8607  0.2634
   98TCq2    C8 1499   2.598   4.166   0.070  0.0668 -0.3276  1.2830
   98TCq2    O4 1500   2.679   4.194   0.155 -0.0890  0.2554 -0.1489
   98TCq2    C9 1501   2.173   3.938   0.005 -1.2308  0.3663  0.3553
   98TCq2    O5 1502   2.185   3.971  17.567 -0.3981 -0.4700  0.0403
   98TCq2    O6 1503   2.085   3.858   0.048  0.2097 -0.2377  0.5917
   98TCq2    H2 1504   2.188   3.916   0.270 -1.1888 -1.0319 -2.8877
   98TCq2    H3 1505   2.391   4.032  17.613  2.1223  0.1248 -0.0190
   98TCq2    H4 1506   2.553   4.116   0.317 -1.8539  1.1131  0.7251
   99MPD2     C 1507   1.779   0.635   2.046 -0.2365  0.7622  0.0470
   99MPD2    C1 1508   1.703   0.751   2.035 -0.3078 -0.0118  0.8971
   99MPD2    C2 1509   1.681   0.800   1.900 -0.1199  0.4340 -0.2956
   99MPD2    C3 1510   1.735   0.735   1.788  0.8890  0.1461 -0.3932
   99MPD2    C4 1511   1.802   0.618   1.812 -0.4357  0.0150 -0.2356
   99MPD2    C5 1512   1.817   0.565   1.935  0.4830  0.1134 -0.4803
   99MPD2     H 1513   1.619   0.888   1.883  0.3344  1.2281  2.0800
   99MPD2    H1 1514   1.846   0.557   1.733  2.5605 -0.4855  1.8206
   99MPD2    H2 1515   1.800   0.593   2.144 -1.4802  1.0327  0.4325
   99MPD2    H3 1516   1.868   0.469   1.939  0.3224  0.1632  3.0675
   99MPD2     N 1517   1.709   0.781   1.660  0.3038 -0.1704 -0.1536
   99MPD2    H5 1518   1.638   0.853   1.654  0.2274 -0.2711 -0.4267
   99MPD2    N1 1519   1.638   0.813   2.140 -0.4285 -0.3083  0.6205
   99MPD2    H7 1520   1.564   0.878   2.118 -0.4940  0.4256  2.9518
  100TCq2    C1 1521   1.650   0.777   2.276 -0.5302  0.4212  0.2641
  100TCq2    O2 1522   1.725   0.693   2.326 -0.2352  0.4201  0.5437
  100TCq2    C2 1523   1.562   0.851   2.368  0.3559  0.4299 -0.4006
  100TCq2    C3 1524   1.605   0.882   2.495 -0.3290  0.2381 -0.2298
  100TCq2    C4 1525   1.517   0.955   2.575  0.9944  0.5375 -0.3998
  100TCq2    C5 1526   1.402   0.998   2.529 -0.0431 -0.7932 -0.2259
  100TCq2    C6 1527   1.355   0.952   2.411  0.5068 -0.1516 -0.4740
  100TCq2    C7 1528   1.432   0.881   2.326 -0.4129  0.3526 -0.5693
  100TCq2    C8 1529   1.240   1.021   2.353  0.7666 -0.2829 -0.1561
  100TCq2    O4 1530   1.185   1.104   2.423  0.3141  0.0637 -0.1707
  100TCq2    C9 1531   1.571   0.989   2.706  0.2542  0.1757  0.6988
  100TCq2    O5 1532   1.506   1.073   2.764 -0.0849  0.0447  0.3369
  100TCq2    O6 1533   1.678   0.931   2.738  0.1387  0.0793  0.1516
  100TCq2    H2 1534   1.699   0.848   2.535  0.0508  2.7566  1.0217
  100TCq2    H3 1535   1.333   1.057   2.589  0.0536 -1.2846  0.3651
  100TCq2    H4 1536   1.396   0.844   2.231 -0.4219 -0.2616 -0.3316
  101MPD2     C 1537   2.190   1.801  12.833  0.2469  0.7570 -0.5024
  101MPD2    C1 1538   2.107   1.822  12.939 -0.0941  0.4898 -0.0625
  101MPD2    C2 1539   2.091   1.722  13.030  0.3535  0.3008  0.4453
  101MPD2    C3 1540   2.150   1.596  13.018  0.3313  0.3707  0.0782
  101MPD2    C4 1541   2.223   1.578  12.907 -0.7266 -0.2785  0.2191
  101MPD2    C5 1542   2.251   1.678  12.819 -0.5517  0.1847  0.0679
  101MPD2     H 1543   2.033   1.739  13.120 -2.0604 -1.0403 -0.8604
  101MPD2    H1 1544   2.273   1.485  12.884 -0.3993  0.5303 -2.3007
  101MPD2    H2 1545   2.222   1.878  12.763 -0.5076  1.9392  0.4582
  101MPD2    H3 1546   2.327   1.678  12.742  0.7926 -2.3434  1.3833
  101MPD2     N 1547   2.128   1.500  13.112 -0.2576 -0.1688  0.1233
  101MPD2    H5 1548   2.067   1.532  13.186  0.9570 -0.0710  1.0953
  101MPD2    N1 1549   2.055   1.955  12.956  0.7546 -0.3105 -0.4934
  101MPD2    H7 1550   2.094   2.024  12.893  2.2648 -0.2687  0.4928
  102TCq2    C1 1551   2.061   2.277  12.741  0.4913  0.9575 -0.0217
  102TCq2    O2 1552   2.139   2.180  12.748  0.6446  0.2280  0.3972
  102TCq2    C2 1553   1.970   2.297  12.856  0.5728  0.2074 -0.1350
  102TCq2    C3 1554   1.840   2.326  12.838  0.4320 -0.6714 -0.4699
  102TCq2    C4 1555   1.756   2.244  12.901  0.4545 -0.7279 -0.5794
  102TCq2    C5 1556   1.785   2.152  12.991 -0.3413 -0.1469 -0.5516
  102TCq2    C6 1557   1.923   2.134  13.024 -0.1079  0.1595 -0.6600
  102TCq2    C7 1558   2.012   2.208  12.951  0.5277  0.0384  0.5425
  102TCq2    C8 1559   1.968   1.995  13.053 -0.5573 -0.1463  0.6911
  102TCq2    O4 1560   1.893   1.924  13.119 -0.7081 -0.5622  0.7747
  102TCq2    C9 1561   1.617   2.261  12.867 -0.2133 -0.2236  0.0767
  102TCq2    O5 1562   1.584   2.357  12.794 -0.4262 -0.1142 -0.1769
  102TCq2    O6 1563   1.537   2.169  12.910  0.0983  0.1929 -0.3755
  102TCq2    H2 1564   1.802   2.398  12.766  0.5761  1.2362  1.3573
  102TCq2    H3 1565   1.710   2.085  13.031 -0.6938 -0.3753 -1.5768
  102TCq2    H4 1566   2.115   2.183  12.970  0.3978 -0.4704  0.5649
  103TMC2    C1 1567   0.369   2.354  12.450  0.3752  0.2594  0.0911
  103TMC2    C2 1568   0.358   2.480  12.386 -0.1522  0.1272 -0.9331
  103TMC2    C3 1569   0.360   2.594  12.458 -0.3388 -0.4056 -0.3435
  103TMC2    C4 1570   0.354   2.351  12.587  0.6510  0.2051  0.8953
  103TMC2    C5 1571   0.373   2.462  12.652  0.3377  0.6129 -0.0010
  103TMC2    C6 1572   0.369   2.588  12.593 -0.0269 -0.2035 -0.0082
  103TMC2     C 1573   0.348   2.242  12.365 -0.4176 -0.3009 -0.5231
  103TMC2     O 1574   0.328   2.259  12.244  0.7635 -0.3731  0.0288
  103TMC2     H 1575   0.358   2.481  12.277  1.7613 -0.4286 -0.9383
  103TMC2    H1 1576   0.347   2.260  12.644 -1.2634 -0.5513 -0.5256
  103TMC2    H2 1577   0.365   2.671  12.662  2.2529 -2.0081  2.2873
  103TMC2    C7 1578   0.412   2.448  12.793  0.0726  0.4391 -0.8304
  103TMC2    C8 1579   0.267   2.697  12.414  0.4111  0.2745  0.0525
  103TMC2    O1 1580   0.393   2.343  12.853  0.2298 -0.1373 -0.7314
  103TMC2    O2 1581   0.208   2.755  12.501 -0.1354  0.1013 -0.4133
  103TMC2    O5 1582   0.330   2.750  12.309 -0.1096 -0.6591  0.3678
  103TMC2    H5 1583   0.377   2.680  12.259  1.0352 -0.4622  1.1800
  104MPD2     C 1584   0.381   1.881  12.434  0.2896  0.2743  0.4309
  104MPD2    C1 1585   0.340   1.996  12.372 -0.1123  0.0408 -0.3512
  104MPD2    C2 1586   0.260   1.982  12.256  0.3399  0.3122  0.2513
  104MPD2    C3 1587   0.232   1.857  12.202 -0.6885 -0.7831  0.2033
  104MPD2    C4 1588   0.274   1.748  12.269 -0.1713 -0.3948 -0.0501
  104MPD2    C5 1589   0.356   1.766  12.377 -0.3338 -0.2432  0.5249
  104MPD2     H 1590   0.220   2.070  12.208 -1.5130 -1.7390 -1.9763
  104MPD2    H1 1591   0.243   1.651  12.232  0.4225  0.5025 -2.9089
  104MPD2    H2 1592   0.450   1.875  12.518 -0.2730  0.8549  0.9276
  104MPD2    H3 1593   0.386   1.675  12.427 -0.1982 -1.0399 -1.0008
  104MPD2     N 1594   0.152   1.852  12.085  0.2569 -0.3710 -0.0264
  104MPD2    H5 1595   0.147   1.944  12.041  0.3924 -0.5587 -0.4292
  104MPD2    N1 1596   0.372   2.119  12.427  0.1796 -0.5457  0.1059
  104MPD2    H7 1597   0.419   2.124  12.517 -1.1020 -2.2555  0.8555
  105MPD2     C 1598   2.066   2.163  16.791 -0.0375 -0.1786 -0.5445
  105MPD2    C1 1599   1.943   2.124  16.826 -0.7444 -0.1818  0.2085
  105MPD2    C2 1600   1.885   2.167  16.945 -0.1963 -0.2468  0.1091
  105MPD2    C3 1601   1.953   2.251  17.031  0.0238 -0.3124  0.0410
  105MPD2    C4 1602   2.079   2.303  16.994 -0.9497 -0.1146  0.4465
  105MPD2    C5 1603   2.131   2.260  16.869 -0.0181  0.0598 -0.0491
  105MPD2     H 1604   1.781   2.140  16.958  0.1593 -0.2816  2.9280
  105MPD2    H1 1605   2.130   2.365  17.066 -0.6133  1.0127 -0.7751
  105MPD2    H2 1606   2.117   2.139  16.698 -1.3003 -1.1769 -0.9749
  105MPD2    H3 1607   2.230   2.298  16.848  0.3582 -0.2346  1.1691
  105MPD2     N 1608   1.873   2.286  17.142  0.0205  0.1520  0.1011
  105MPD2    H5 1609   1.778   2.253  17.137 -0.2987  0.8349  1.4713
  105MPD2    N1 1610   1.855   2.051  16.740 -0.0619  0.6677  0.3719
  105MPD2    H7 1611   1.768   2.026  16.785 -1.1125 -1.1805 -2.6185
  106TCq2    C1 1612   1.903   2.378  17.240 -0.1877  0.5253 -0.5310
  106TCq2    O2 1613   2.008   2.439  17.255 -0.0178  0.0809 -0.0035
  106TCq2    C2 1614   1.790   2.417  17.330  0.3215 -0.4057 -0.2318
  106TCq2    C3 1615   1.686   2.331  17.339 -0.3909 -0.8806  0.3915
  106TCq2    C4 1616   1.582   2.364  17.417 -0.1467 -0.1828  0.4021
  106TCq2    C5 1617   1.592   2.466  17.509  0.4526  0.4491  0.3062
  106TCq2    C6 1618   1.695   2.550  17.497 -0.1734 -0.1685 -0.2636
  106TCq2    C7 1619   1.796   2.536  17.400 -0.3494 -0.3585 -0.0318
  106TCq2    C8 1620   1.722   2.629  17.614 -0.3302  0.1061  0.0688
  106TCq2    O4 1621   1.759   2.745  17.598  0.5972  0.3454  0.2177
  106TCq2    C9 1622   1.478   2.265  17.441 -0.0778 -0.4185  0.1678
  106TCq2    O5 1623   1.479   2.162  17.368 -0.2007 -0.1457 -0.3833
  106TCq2    O6 1624   1.393   2.287  17.533  0.2114 -0.6445  0.3187
  106TCq2    H2 1625   1.687   2.232  17.294  0.5091 -1.6213  2.0477
  106TCq2    H3 1626   1.520   2.487  17.587  0.5239  0.3525  0.3977
  106TCq2    H4 1627   1.884   2.598  17.409  0.1200 -0.9981 -0.2228
  107TMC2    C1 1628   2.659   1.032  11.071 -0.0799  0.5650  0.0673
  107TMC2    C2 1629   2.556   1.101  11.009  0.2277  0.2990 -0.1264
  107TMC2    C3 1630   2.593   1.189  10.912 -0.1184  0.0004 -0.4913
  107TMC2    C4 1631   2.788   1.043  11.034 -0.0353 -0.6109  0.3780
  107TMC2    C5 1632   2.817   1.111  10.916  0.7191 -0.2614 -0.0963
  107TMC2    C6 1633   2.726   1.198  10.865 -0.1410  0.2995 -0.1339
  107TMC2     C 1634   2.630   0.969  11.197  0.7229  0.1640 -0.6461
  107TMC2     O 1635   2.527   1.008  11.253  0.1859 -0.9142 -0.0288
  107TMC2     H 1636   2.450   1.092  11.029  0.1751 -0.7156 -0.8969
  107TMC2    H1 1637   2.865   1.004  11.099  1.1948  0.1394 -0.6105
  107TMC2    H2 1638   2.767   1.257  10.784 -0.6089  0.3859 -0.3085
  107TMC2    C7 1639   2.958   1.149  10.909 -0.2090  0.1335 -0.1305
  107TMC2    C8 1640   2.491   1.241  10.826  0.6239 -0.1791 -0.2630
  107TMC2    O1 1641   2.985   1.269  10.913  0.2328 -0.4857 -0.1708
  107TMC2    O2 1642   2.370   1.221  10.849  0.3683 -0.4916  0.4140
  107TMC2    O5 1643   2.536   1.363  10.781  0.0917  0.3713 -0.2945
  107TMC2    H5 1644   2.631   1.386  10.794  0.0165  0.8502 -0.5968
  108MPD2     C 1645   2.803   0.683  11.341  0.0211 -0.3260  0.6998
  108MPD2    C1 1646   2.728   0.800  11.347  0.5482 -0.6758  0.6572
  108MPD2    C2 1647   2.643   0.823  11.458 -0.0235 -0.4531  0.5668
  108MPD2    C3 1648   2.635   0.728  11.563 -0.6469  0.2511 -0.6882
  108MPD2    C4 1649   2.716   0.614  11.543 -0.1124  0.1129 -1.0134
  108MPD2    C5 1650   2.799   0.599  11.441  0.3752  0.5239 -0.4213
  108MPD2     H 1651   2.573   0.906  11.465 -0.6059 -0.7963 -1.1175
  108MPD2    H1 1652   2.715   0.537  11.620 -1.8402  1.9257  0.7950
  108MPD2    H2 1653   2.872   0.669  11.258  1.3587  3.4925  1.1552
  108MPD2    H3 1654   2.866   0.513  11.433 -1.8760 -1.4405  1.7168
  108MPD2     N 1655   2.540   0.739  11.667 -1.0803 -0.5575  0.4361
  108MPD2    H5 1656   2.515   0.648  11.704 -1.7455 -0.4857  0.1588
  108MPD2    N1 1657   2.725   0.875  11.227 -0.3741  0.1545  0.3097
  108MPD2    H7 1658   2.780   0.847  11.146  0.6234  0.9127  0.7210
  109MPD2     C 1659   1.998   3.082   2.342  0.6080 -0.4927 -0.3985
  109MPD2    C1 1660   2.004   3.133   2.217  0.0765 -0.0595  0.3206
  109MPD2    C2 1661   2.131   3.165   2.167  0.9277  0.3513  0.9289
  109MPD2    C3 1662   2.250   3.148   2.237 -0.4204  0.1552  0.0319
  109MPD2    C4 1663   2.240   3.088   2.359 -0.4440  0.3009  0.1245
  109MPD2    C5 1664   2.109   3.049   2.411  0.6995  0.4544 -0.4707
  109MPD2     H 1665   2.135   3.206   2.067  0.0932 -1.0116  0.3312
  109MPD2    H1 1666   2.325   3.078   2.426 -1.0504  1.5553  1.0837
  109MPD2    H2 1667   1.901   3.059   2.386 -0.0962  2.7528 -0.3097
  109MPD2    H3 1668   2.110   2.992   2.503  1.3633  0.7133 -0.3183
  109MPD2     N 1669   2.366   3.185   2.168  0.0779  0.0037 -0.1419
  109MPD2    H5 1670   2.358   3.224   2.075  1.7054  0.8819  0.0848
  109MPD2    N1 1671   1.883   3.145   2.148 -0.1950  0.1752  0.6002
  109MPD2    H7 1672   1.795   3.130   2.198 -0.8567  0.0086 -0.6211
  110TCq2    C1 1673   2.491   3.174   2.224 -0.7022  0.4255  0.2600
  110TCq2    O2 1674   2.529   3.136   2.335 -0.1217 -0.1469 -0.8897
  110TCq2    C2 1675   2.590   3.216   2.130  0.1330  0.2274  0.6678
  110TCq2    C3 1676   2.723   3.197   2.156 -0.0391 -0.8767 -0.0799
  110TCq2    C4 1677   2.823   3.260   2.087  0.0187  0.0472 -0.0974
  110TCq2    C5 1678   2.794   3.303   1.964  0.5384 -0.1831 -0.1531
  110TCq2    C6 1679   2.663   3.317   1.929 -0.4729 -0.4938 -0.4429
  110TCq2    C7 1680   2.559   3.278   2.010 -0.6877  0.7398 -0.2063
  110TCq2    C8 1681   2.632   3.363   1.795 -0.2258 -0.0256  0.0311
  110TCq2    O4 1682   2.721   3.429   1.745  0.1737 -0.0791 -0.6625
  110TCq2    C9 1683   2.956   3.249   2.133 -0.0110  0.0776 -0.7591
  110TCq2    O5 1684   3.047   3.250   2.046  0.4037 -0.5621 -0.6254
  110TCq2    O6 1685   2.955   3.202   2.249  0.2823 -0.2500 -0.1063
  110TCq2    H2 1686   2.750   3.149   2.249  0.7690 -0.1706  0.0493
  110TCq2    H3 1687   2.871   3.337   1.896 -0.9218 -1.6972 -2.5656
  110TCq2    H4 1688   2.456   3.308   1.997 -0.8431  0.1409 -0.3556
  111TMC2    C1 1689   2.586   2.250  11.290  0.0537 -0.0011  0.0740
  111TMC2    C2 1690   2.667   2.191  11.197 -0.3977 -0.1820  0.1769
  111TMC2    C3 1691   2.789   2.153  11.245  0.0059  0.1057  0.1223
  111TMC2    C4 1692   2.625   2.265  11.426  0.3975  0.3946  0.0467
  111TMC2    C5 1693   2.748   2.215  11.468 -0.4441 -0.7041 -0.3109
  111TMC2    C6 1694   2.826   2.151  11.380 -0.4585  0.7050 -0.2080
  111TMC2     C 1695   2.473   2.325  11.246  0.3221  0.0806 -0.4623
  111TMC2     O 1696   2.455   2.331  11.124 -0.3984  0.2233  0.5028
  111TMC2     H 1697   2.647   2.197  11.091  0.6854 -0.8825 -0.0745
  111TMC2    H1 1698   2.578   2.328  11.501  0.9654  0.0157  0.7291
  111TMC2    H2 1699   2.928   2.123  11.403 -0.6022  0.2450 -0.1131
  111TMC2    C7 1700   2.783   2.207  11.612 -0.9434 -0.2365 -0.4649
  111TMC2    C8 1701   2.884   2.106  11.142 -0.3082  0.2552  0.2643
  111TMC2    O1 1702   2.697   2.204  11.699  0.3013 -0.2402 -0.1226
  111TMC2    O2 1703   2.845   2.071  11.030 -0.0389  0.3381 -0.5516
  111TMC2    O5 1704   2.997   2.174  11.166  0.0953 -0.6861  0.3565
  111TMC2    H5 1705   3.013   2.201  11.259 -2.2971  0.1707  0.5291
  112MPD2     C 1706   2.053   2.607  11.340  0.3679  0.1039  0.0661
  112MPD2    C1 1707   2.107   2.558  11.220  0.8513 -0.2949 -0.0181
  112MPD2    C2 1708   2.219   2.486  11.215 -0.1048 -0.2053  0.0775
  112MPD2    C3 1709   2.288   2.467  11.336 -0.7135 -0.3444  0.3961
  112MPD2    C4 1710   2.237   2.508  11.448 -0.5302  0.0323 -0.4223
  112MPD2    C5 1711   2.122   2.575  11.455  0.0296 -0.0298  0.1919
  112MPD2     H 1712   2.244   2.443  11.119 -1.5645 -0.0121 -0.3974
  112MPD2    H1 1713   2.277   2.475  11.543  0.5776  1.7925 -0.2745
  112MPD2    H2 1714   1.957   2.655  11.346 -0.3957 -1.3739 -0.3925
  112MPD2    H3 1715   2.071   2.603  11.546  1.9521  1.4913  0.8001
  112MPD2     N 1716   2.406   2.387  11.348 -0.7950  0.5819 -0.0592
  112MPD2    H5 1717   2.449   2.382  11.440 -0.3261  0.7227 -0.2729
  112MPD2    N1 1718   2.039   2.580  11.101  0.0796  0.4520 -0.3691
  112MPD2    H7 1719   2.068   2.525  11.021 -0.2901 -0.3093  0.0192
  113MPD2     C 1720   0.465   0.700   1.103 -0.3746 -0.1410 -0.6098
  113MPD2    C1 1721   0.432   0.755   0.987  0.3296  0.3765 -0.2734
  113MPD2    C2 1722   0.299   0.766   0.942  0.1327  0.4703  0.7109
  113MPD2    C3 1723   0.199   0.718   1.028  0.3071  0.0435  0.6496
  113MPD2    C4 1724   0.233   0.672   1.152  0.0352  0.2461  0.6556
  113MPD2    C5 1725   0.361   0.654   1.187 -0.5855  0.1022 -0.0159
  113MPD2     H 1726   0.277   0.804   0.842 -0.7685 -0.5235  0.5286
  113MPD2    H1 1727   0.160   0.647   1.227  0.1801 -0.6011  0.5138
  113MPD2    H2 1728   0.565   0.695   1.143 -0.9069  1.5362  0.9732
  113MPD2    H3 1729   0.386   0.609   1.282  0.5155 -2.0163 -1.3173
  113MPD2     N 1730   0.057   0.732   1.002  0.3519 -0.2284  0.2563
  113MPD2    H5 1731   4.720   0.724   1.084 -1.6572  1.1218 -1.0252
  113MPD2    N1 1732   0.535   0.809   0.904 -0.3386 -0.3573 -0.3456
  113MPD2    H7 1733   0.507   0.827   0.808  0.2638  1.0936 -0.2543
  114TCq2    C1 1734   0.001   0.787   0.890  0.5562 -0.4506 -0.0403
  114TCq2    O2 1735   0.053   0.822   0.786 -0.4476 -0.0723  0.5121
  114TCq2    C2 1736   4.577   0.824   0.911 -0.1188 -0.8028 -0.1720
  114TCq2    C3 1737   4.530   0.938   0.847  0.3323 -0.0525 -0.0630
  114TCq2    C4 1738   4.399   0.974   0.866  0.6706 -0.3178 -0.0145
  114TCq2    C5 1739   4.332   0.918   0.970  1.0744  0.4445  0.2527
  114TCq2    C6 1740   4.368   0.804   1.036 -0.1814  0.0291 -0.3362
  114TCq2    C7 1741   4.493   0.756   1.004 -0.0519  0.3398 -0.2771
  114TCq2    C8 1742   4.280   0.735   1.131  0.7560 -0.4044 -0.5530
  114TCq2    O4 1743   4.160   0.746   1.118  0.5694  0.1667  0.3847
  114TCq2    C9 1744   4.351   1.091   0.805 -0.0095 -0.6841  0.4306
  114TCq2    O5 1745   4.250   1.143   0.861 -0.3962  0.5270  0.0959
  114TCq2    O6 1746   4.395   1.122   0.691 -0.0839  0.1301 -0.0122
  114TCq2    H2 1747   4.590   0.992   0.774  1.5039 -1.1086  0.1195
  114TCq2    H3 1748   4.234   0.960   0.995  0.9201 -0.9056  1.9186
  114TCq2    H4 1749   4.525   0.656   1.033  0.7869  1.3881  2.3594
  115TMC2    C1 1750   0.986   3.624   0.288  0.5350 -0.3845 -0.2736
  115TMC2    C2 1751   0.912   3.613   0.398 -0.0258  0.8618 -0.1101
  115TMC2    C3 1752   0.920   3.723   0.488 -0.1587  0.3652 -0.3122
  115TMC2    C4 1753   1.071   3.740   0.272  0.1679  0.1607  0.4611
  115TMC2    C5 1754   1.069   3.845   0.365  0.1875  0.2786  0.1751
  115TMC2    C6 1755   0.993   3.834   0.480 -0.1440 -0.1484  0.5413
  115TMC2     C 1756   1.019   3.510   0.199  0.1987 -0.1834 -0.2186
  115TMC2     O 1757   0.935   3.420   0.193 -0.3553  0.3322  0.5503
  115TMC2     H 1758   0.867   3.521   0.431  0.6402  1.1111  1.5246
  115TMC2    H1 1759   1.128   3.756   0.181  0.7901  2.7202  1.2799
  115TMC2    H2 1760   0.972   3.913   0.552  1.6236  2.0067 -1.2914
  115TMC2    C7 1761   1.159   3.967   0.356 -0.2304 -0.1999 -0.9832
  115TMC2    C8 1762   0.830   3.728   0.608  0.6896 -0.2578  0.1023
  115TMC2    O1 1763   1.181   4.024   0.460 -0.1246 -0.5829 -0.3433
  115TMC2    O2 1764   0.855   3.781   0.715  0.2953  0.9149  0.2893
  115TMC2    O5 1765   0.716   3.670   0.568  0.3934 -0.0214  0.0203
  115TMC2    H5 1766   0.711   3.660   0.470 -1.3162 -1.2848  0.2358
  116MPD2     C 1767   1.396   3.239  17.643  0.3866 -0.4358 -0.3103
  116MPD2    C1 1768   1.256   3.224  17.641 -0.2103  0.2408 -0.1122
  116MPD2    C2 1769   1.178   3.313   0.032 -0.7515 -0.2107 -0.2567
  116MPD2    C3 1770   1.236   3.422   0.094 -0.0323 -0.3617 -0.1671
  116MPD2    C4 1771   1.369   3.442   0.075 -0.0957  0.2099  0.5542
  116MPD2    C5 1772   1.456   3.349   0.013  0.2515 -0.3346 -0.4075
  116MPD2     H 1773   1.070   3.309   0.041 -0.9254  0.0872 -2.3086
  116MPD2    H1 1774   1.418   3.530   0.115 -2.5917  1.2190  1.3796
  116MPD2    H2 1775   1.467   3.168  17.602 -0.8990 -1.6024 -0.5110
  116MPD2    H3 1776   1.563   3.362   0.011 -0.0192  1.6483 -2.5709
  116MPD2     N 1777   1.153   3.516   0.165  0.3248  0.5267 -0.3262
  116MPD2    H5 1778   1.200   3.598   0.202  1.4554 -0.9216  1.4961
  116MPD2    N1 1779   1.210   3.107  17.578 -0.0219 -0.1552 -0.1440
  116MPD2    H7 1780   1.275   3.051  17.523  1.8405  0.3317  1.5711
  117TMC2    C1 1781   0.059   4.516  13.507  0.1476  0.5376  0.0274
  117TMC2    C2 1782   0.165   4.432  13.497  0.3138  0.3868  0.3900
  117TMC2    C3 1783   0.233   4.399  13.613 -0.4456 -0.2870  0.1430
  117TMC2    C4 1784   0.035   4.588  13.625 -0.9854  0.1036 -0.1193
  117TMC2    C5 1785   0.122   4.572  13.728 -0.1838  0.3320 -0.1314
  117TMC2    C6 1786   0.209   4.467  13.730  0.0943  0.2945 -0.7441
  117TMC2     C 1787   4.719   4.558  13.378  0.1938  0.5027  0.0006
  117TMC2     O 1788   0.068   4.540  13.278  0.2457 -1.0490 -0.0470
  117TMC2     H 1789   0.202   4.398  13.400 -0.5198  1.2352 -0.2216
  117TMC2    H1 1790   4.694   4.677  13.631 -0.9370  0.2077 -1.1471
  117TMC2    H2 1791   0.255   4.439  13.824  1.5049  1.7663 -0.9929
  117TMC2    C7 1792   0.159   4.696  13.799 -0.0992 -0.0491 -0.4550
  117TMC2    C8 1793   0.277   4.262  13.633 -0.0437 -0.4471  0.1239
  117TMC2    O1 1794   0.069   0.055  13.803 -0.0026 -0.0726 -0.5371
  117TMC2    O2 1795   0.253   4.204  13.740  0.0779 -0.6080 -0.1135
  117TMC2    O5 1796   0.326   4.214  13.508 -0.7733  0.0124  0.1420
  117TMC2    H5 1797   0.340   4.281  13.438 -1.1146 -0.0258  0.0353
  118MPD2     C 1798   0.406   0.108  14.028  0.4858  0.0950 -0.3569
  118MPD2    C1 1799   0.331   0.099  13.914 -0.8931  0.1149 -0.4983
  118MPD2    C2 1800   0.304   0.216  13.847  0.0763 -0.5840 -0.1031
  118MPD2    C3 1801   0.363   0.342  13.881 -0.3960 -0.2577 -0.1172
  118MPD2    C4 1802   0.443   0.338  13.985  0.2508  0.2189 -0.3395
  118MPD2    C5 1803   0.456   0.222  14.061 -0.3487  0.4770  0.4209
  118MPD2     H 1804   0.243   0.203  13.758  0.2442 -0.9308 -0.1686
  118MPD2    H1 1805   0.492   0.429  14.019  1.8238 -0.7978  0.1050
  118MPD2    H2 1806   0.422   0.028  14.100  2.5496  0.4925 -0.3926
  118MPD2    H3 1807   0.502   0.225  14.159  1.3468  0.5926 -0.3851
  118MPD2     N 1808   0.349   0.465  13.805  0.4044 -0.0233  0.2512
  118MPD2    H5 1809   0.386   0.545  13.854 -0.0771 -0.5921  1.5423
  118MPD2    N1 1810   0.277   4.692  13.870 -0.7054 -0.3330 -0.6913
  118MPD2    H7 1811   0.306   4.603  13.909 -0.3868  0.0471 -0.0528
  119MPD2     C 1812   3.499   1.543  14.179  0.1200 -0.5088 -0.3901
  119MPD2    C1 1813   3.419   1.453  14.115  0.6840 -1.2925 -0.1377
  119MPD2    C2 1814   3.399   1.453  13.983 -0.3688 -0.6155  0.1636
  119MPD2    C3 1815   3.462   1.559  13.910  0.1036 -0.0697  0.7065
  119MPD2    C4 1816   3.544   1.654  13.971 -0.6341 -0.0671  0.2345
  119MPD2    C5 1817   3.563   1.639  14.103 -0.1847 -0.6466 -0.2164
  119MPD2     H 1818   3.330   1.385  13.936 -0.9950 -0.2786  0.5904
  119MPD2    H1 1819   3.597   1.729  13.913 -0.7594 -0.1415  0.0233
  119MPD2    H2 1820   3.517   1.534  14.286  0.8869 -1.5466 -0.6085
  119MPD2    H3 1821   3.620   1.717  14.153 -0.3648  0.8537 -2.3730
  119MPD2     N 1822   3.439   1.578  13.769  0.3990 -0.4671  0.2284
  119MPD2    H5 1823   3.483   1.660  13.729 -1.6476  1.1008  1.1724
  119MPD2    N1 1824   3.348   1.345  14.178 -0.0332  0.0588 -0.7142
  119MPD2    H7 1825   3.307   1.275  14.117 -0.2893  1.5371 -2.2318
  120TCq2    C1 1826   3.379   1.489  13.683  0.4668 -0.6186  0.2059
  120TCq2    O2 1827   3.327   1.383  13.711 -0.2139 -0.0521  0.2933
  120TCq2    C2 1828   3.358   1.544  13.553  0.1146  0.0950  0.0952
  120TCq2    C3 1829   3.353   1.679  13.521 -0.5763  0.2437 -0.6685
  120TCq2    C4 1830   3.296   1.724  13.406 -0.0944  0.1905 -0.0939
  120TCq2    C5 1831   3.230   1.640  13.328 -0.1810  0.0729 -0.6390
  120TCq2    C6 1832   3.237   1.503  13.351 -0.7408  0.5921 -0.0172
  120TCq2    C7 1833   3.299   1.453  13.463 -0.3173 -0.0344 -0.2980
  120TCq2    C8 1834   3.116   1.430  13.313  0.3750  0.4352 -0.8161
  120TCq2    O4 1835   3.070   1.470  13.206  0.2989  0.3249  0.0883
  120TCq2    C9 1836   3.302   1.863  13.367  0.5744  0.5165  0.1301
  120TCq2    O5 1837   3.345   1.949  13.450  0.4293 -0.5515 -0.5103
  120TCq2    O6 1838   3.296   1.887  13.243 -0.1099  0.0672  0.0806
  120TCq2    H2 1839   3.408   1.753  13.577  0.6810  0.2992 -1.9891
  120TCq2    H3 1840   3.174   1.669  13.239  0.5385 -0.6093 -1.3123
  120TCq2    H4 1841   3.309   1.345  13.473 -1.2477 -0.0627  0.3086
  121TMC2    C1 1842   4.374   2.822  14.121 -0.2202 -0.4329  0.6001
  121TMC2    C2 1843   4.351   2.878  14.243  0.1559  0.2533 -0.1772
  121TMC2    C3 1844   4.224   2.864  14.292  0.6288  0.8346 -0.2376
  121TMC2    C4 1845   4.283   2.754  14.047  0.1679 -0.4365 -0.0844
  121TMC2    C5 1846   4.161   2.740  14.099 -0.3736  0.1096  0.9990
  121TMC2    C6 1847   4.131   2.790  14.219 -0.1056 -0.4869 -0.8501
  121TMC2     C 1848   4.511   2.862  14.075 -0.0223  0.1955  0.1608
  121TMC2     O 1849   4.605   2.861  14.155 -0.8211 -0.5331  0.6332
  121TMC2     H 1850   4.428   2.940  14.286 -0.2280 -1.5199  3.1457
  121TMC2    H1 1851   4.309   2.718  13.948  0.4028  1.6430 -0.7974
  121TMC2    H2 1852   4.037   2.757  14.263  0.1205 -0.7268 -0.5491
  121TMC2    C7 1853   4.058   2.723  13.997 -0.2768 -0.1594 -0.7758
  121TMC2    C8 1854   4.189   2.896  14.428 -0.8030 -0.1482 -0.3858
  121TMC2    O1 1855   4.087   2.655  13.896  0.2655  0.1008  0.0007
  121TMC2    O2 1856   4.082   2.874  14.472 -0.0008  0.5173  0.4065
  121TMC2    O5 1857   4.309   2.899  14.491  0.0952  0.6638  0.2283
  121TMC2    H5 1858   4.389   2.894  14.434 -0.9148  0.5803 -1.2073
  122MPD2     C 1859   0.043   2.917  13.933  0.1622  0.4467 -0.6520
  122MPD2    C1 1860   4.636   2.940  13.878 -0.7732  0.8898 -0.2910
  122MPD2    C2 1861   4.623   3.001  13.754  0.1551  0.2747 -0.2122
  122MPD2    C3 1862   0.008   3.058  13.693 -0.0025  0.1764 -0.3081
  122MPD2    C4 1863   0.135   3.032  13.745 -0.6696 -0.2041  0.1736
  122MPD2    C5 1864   0.152   2.976  13.871 -0.0138  0.2114  0.1140
  122MPD2     H 1865   4.521   3.013  13.718 -0.3805 -1.2323  0.7735
  122MPD2    H1 1866   0.225   3.077  13.704 -1.2523  1.8211  1.1477
  122MPD2    H2 1867   0.061   2.858  14.022 -0.9211  0.0840 -0.6717
  122MPD2    H3 1868   0.252   2.964  13.911 -0.1733 -0.0505  0.4339
  122MPD2     N 1869   0.003   3.146  13.587 -0.3550 -0.1640 -0.4518
  122MPD2    H5 1870   0.092   3.178  13.550 -1.1875  1.4816 -1.0180
  122MPD2    N1 1871   4.517   2.900  13.943  0.2994 -0.4147 -0.5194
  122MPD2    H7 1872   4.427   2.895  13.895  0.7687  1.4741 -1.5984
  123MPD2     C 1873   1.660   0.453   9.568 -0.8353  0.3132 -0.2065
  123MPD2    C1 1874   1.759   0.534   9.512  0.0852  0.6335 -0.2494
  123MPD2    C2 1875   1.881   0.481   9.477 -0.4906 -0.0468  0.1185
  123MPD2    C3 1876   1.913   0.345   9.501  0.1083  0.0802  0.0155
  123MPD2    C4 1877   1.814   0.267   9.554  0.9242 -0.0385 -0.7454
  123MPD2    C5 1878   1.693   0.318   9.590 -0.2670 -0.0005 -0.1855
  123MPD2     H 1879   1.957   0.546   9.434 -0.4298 -0.3364 -0.2160
  123MPD2    H1 1880   1.814   0.162   9.582 -0.0884  0.1962  0.1221
  123MPD2    H2 1881   1.564   0.494   9.598 -0.0815  0.6996  1.7048
  123MPD2    H3 1882   1.616   0.258   9.637 -1.1935  0.2641 -1.3810
  123MPD2     N 1883   2.040   0.298   9.451 -0.1900 -0.0072 -0.3483
  123MPD2    H5 1884   2.099   0.363   9.401  1.5011 -0.3608  1.1858
  123MPD2    N1 1885   1.726   0.667   9.491 -0.4327 -0.1127  0.3731
  123MPD2    H7 1886   1.630   0.688   9.518 -0.6637  0.0652 -0.5892
  124TCq2    C1 1887   2.099   0.176   9.485  0.1765  0.1372  0.5040
  124TCq2    O2 1888   2.054   0.089   9.561  0.1059 -0.2538  0.0804
  124TCq2    C2 1889   2.238   0.187   9.456 -0.5942  0.2977 -0.1486
  124TCq2    C3 1890   2.328   0.188   9.553 -0.1082  0.4691 -0.8252
  124TCq2    C4 1891   2.457   0.237   9.539 -0.3884  0.1093  0.9476
  124TCq2    C5 1892   2.491   0.285   9.415  0.0632  0.1020  0.2133
  124TCq2    C6 1893   2.405   0.279   9.306  0.1395 -0.5089  0.4123
  124TCq2    C7 1894   2.277   0.224   9.334 -0.5875  0.2717 -0.1534
  124TCq2    C8 1895   2.410   0.368   9.191  0.1049 -0.0230 -0.0375
  124TCq2    O4 1896   2.324   0.361   9.104  0.1670 -0.2555 -0.0746
  124TCq2    C9 1897   2.558   0.231   9.645  0.5200  0.7918 -0.5289
  124TCq2    O5 1898   2.664   0.298   9.627 -0.3750  0.2973  0.5355
  124TCq2    O6 1899   2.523   0.159   9.748 -0.5910 -0.5566 -0.3860
  124TCq2    H2 1900   2.298   0.164   9.654  0.0167  0.8312 -0.7009
  124TCq2    H3 1901   2.596   0.311   9.403  0.0787  1.4357  3.0846
  124TCq2    H4 1902   2.203   0.222   9.255  0.6350 -1.1488 -1.2737
  125TMC2    C1 1903   3.605   2.858  10.277 -0.0320 -0.3639 -0.4999
  125TMC2    C2 1904   3.489   2.813  10.342  0.5149 -0.5969  0.3072
  125TMC2    C3 1905   3.414   2.720  10.278  0.0940 -0.2223 -0.1519
  125TMC2    C4 1906   3.640   2.810  10.154 -0.4701 -0.2721 -0.5356
  125TMC2    C5 1907   3.550   2.731  10.089 -0.2725 -0.9499  0.4556
  125TMC2    C6 1908   3.431   2.686  10.146  0.9500  0.1538 -0.1135
  125TMC2     C 1909   3.689   2.942  10.355  0.3388  0.0463  0.9104
  125TMC2     O 1910   3.634   3.011  10.444 -0.3505 -0.3358  0.5851
  125TMC2     H 1911   3.462   2.864  10.433 -1.1277 -5.1892  2.3606
  125TMC2    H1 1912   3.721   2.841  10.090 -0.8009  2.5892  0.4170
  125TMC2    H2 1913   3.353   2.631  10.095  0.3683  0.6486  0.2491
  125TMC2    C7 1914   3.560   2.695   9.947 -0.7317 -0.4412  0.6892
  125TMC2    C8 1915   3.279   2.705  10.327  0.3651  0.3955  0.6505
  125TMC2    O1 1916   3.461   2.669   9.883  0.3682 -0.3640  0.2975
  125TMC2    O2 1917   3.179   2.692  10.258  0.6440 -0.1329  0.0079
  125TMC2    O5 1918   3.287   2.718  10.460  0.0825  0.0726  0.0607
  125TMC2    H5 1919   3.374   2.683  10.489  0.9042  2.1232  0.0606
  126MPD1     C 1920   4.111   3.136  10.580 -0.7949 -0.1404  0.0605
  126MPD1    C1 1921   4.152   3.035  10.497  0.2675  0.1238  0.2996
  126MPD1    C2 1922   4.058   2.973  10.411  0.0447  0.8204  0.0186
  126MPD1    C3 1923   3.925   3.010  10.409 -0.7413 -0.3827 -0.2808
  126MPD1    C4 1924   3.885   3.121  10.485  0.0178  0.6605 -0.0326
  126MPD1    C5 1925   3.983   3.184  10.566 -1.5629 -0.7146 -0.7907
  126MPD1     H 1926   4.078   2.880  10.360 -1.0290 -0.2171  1.4643
  126MPD1    H1 1927   3.789   3.170  10.471  0.1444  1.0505  0.4708
  126MPD1    H2 1928   4.176   3.178  10.656 -0.9805  1.1232 -0.4746
  126MPD1    H3 1929   3.949   3.274  10.616 -1.3796 -0.7222 -0.6560
  126MPD1     N 1930   3.826   2.934  10.339 -0.3139 -0.4832  0.1518
  126MPD1    H5 1931   3.852   2.859  10.276 -0.5669  0.1832 -0.7523
  126MPD1    N1 1932   4.277   2.969  10.525 -0.6009  0.7660  0.0821
  126MPD1    H6 1933   4.352   3.021  10.570  1.6520 -1.9201 -0.6176
  126MPD1    H7 1934   4.303   2.911  10.446  1.1561  0.1135  1.1526
  127MPD2     C 1935   0.062   1.960   9.062 -1.1991 -0.1121 -0.7318
  127MPD2    C1 1936   0.175   1.886   9.094  0.4138  0.6115  0.4410
  127MPD2    C2 1937   0.287   1.944   9.150 -0.1620  0.1898  0.4112
  127MPD2    C3 1938   0.292   2.079   9.178 -0.4615  0.2675  0.2381
  127MPD2    C4 1939   0.179   2.146   9.159  1.2098 -0.4656  0.2593
  127MPD2    C5 1940   0.066   2.091   9.099 -0.3081  0.0993  0.8897
  127MPD2     H 1941   0.370   1.891   9.196 -0.9869 -3.2033 -2.0350
  127MPD2    H1 1942   0.173   2.251   9.183  2.3862 -0.4757  0.6008
  127MPD2    H2 1943   4.700   1.902   9.024  0.8469 -2.9089 -0.8763
  127MPD2    H3 1944   4.703   2.153   9.071 -0.9395 -0.2395  2.0472
  127MPD2     N 1945   0.399   2.142   9.231 -0.4453 -0.0427 -0.4267
  127MPD2    H5 1946   0.486   2.090   9.236  1.4808  3.3156  0.8015
  127MPD2    N1 1947   0.165   1.748   9.073 -0.1187  0.3561 -0.2826
  127MPD2    H7 1948   0.082   1.706   9.032 -1.6051  0.8835  2.2081
  128TCq2    C1 1949   0.261   1.656   9.080  0.0405 -0.1560  0.6963
  128TCq2    O2 1950   0.377   1.665   9.117 -0.1273 -0.4764 -0.1216
  128TCq2    C2 1951   0.216   1.519   9.052 -0.4728  0.2536 -0.0724
  128TCq2    C3 1952   0.307   1.417   9.060  0.0213  0.5850  0.1343
  128TCq2    C4 1953   0.262   1.292   9.087  0.0860 -0.7033  0.1444
  128TCq2    C5 1954   0.127   1.258   9.079 -0.1170  0.0876 -0.1097
  128TCq2    C6 1955   0.041   1.364   9.055  0.3584  0.5093 -0.1796
  128TCq2    C7 1956   0.081   1.494   9.051  0.0037  0.7067 -0.2978
  128TCq2    C8 1957   4.622   1.337   9.034 -0.3443  0.2963 -0.5852
  128TCq2    O4 1958   4.549   1.419   8.980  0.3611  0.4330  0.0336
  128TCq2    C9 1959   0.364   1.190   9.095 -0.5667 -0.2001 -0.7904
  128TCq2    O5 1960   0.323   1.074   9.110 -0.0992  0.3183 -1.0346
  128TCq2    O6 1961   0.479   1.226   9.076  0.3564 -0.1848  0.3894
  128TCq2    H2 1962   0.412   1.439   9.048 -0.1107  1.6667  0.9510
  128TCq2    H3 1963   0.107   1.153   9.096 -2.7078  0.8021  1.1989
  128TCq2    H4 1964   0.003   1.569   9.050 -0.4078  0.2709 -0.9015
  129MPD2     C 1965   2.412   3.401   1.086 -0.3217 -0.2131 -0.8580
  129MPD2    C1 1966   2.547   3.378   1.102  0.5415  0.4075  0.8432
  129MPD2    C2 1967   2.641   3.428   1.015 -0.0586 -0.3331  0.1159
  129MPD2    C3 1968   2.591   3.504   0.908 -0.7636 -0.0798  0.6864
  129MPD2    C4 1969   2.457   3.514   0.884 -0.6895  0.3752 -0.1014
  129MPD2    C5 1970   2.372   3.468   0.975 -0.5388 -0.3085 -0.6218
  129MPD2     H 1971   2.747   3.416   1.034  0.1174 -0.3908 -0.9253
  129MPD2    H1 1972   2.416   3.563   0.797 -0.0882  0.1509 -0.5093
  129MPD2    H2 1973   2.334   3.358   1.148  1.4217  0.4161  1.7822
  129MPD2    H3 1974   2.270   3.504   0.971 -0.5397 -0.5095 -2.1211
  129MPD2     N 1975   2.689   3.566   0.827  0.8972 -0.4937 -0.3891
  129MPD2    H5 1976   2.786   3.542   0.846  0.7095 -1.2026 -0.3330
  129MPD2    N1 1977   2.599   3.308   1.211  0.3401  0.4094 -0.9672
  129MPD2    H7 1978   2.697   3.284   1.219 -0.0219 -0.8311 -0.3269
  130TCq2    C1 1979   2.527   3.240   1.305  0.0908 -0.2236  0.0615
  130TCq2    O2 1980   2.405   3.206   1.301  0.1143 -0.1681 -0.2385
  130TCq2    C2 1981   2.604   3.190   1.420  0.1144  0.9173 -0.0644
  130TCq2    C3 1982   2.731   3.230   1.417  0.0748 -0.3305 -0.5749
  130TCq2    C4 1983   2.817   3.140   1.468 -0.2212  0.2992 -0.9898
  130TCq2    C5 1984   2.772   3.025   1.526  0.6364  0.3146  0.4876
  130TCq2    C6 1985   2.641   2.997   1.530  0.0470 -0.3057  0.0963
  130TCq2    C7 1986   2.552   3.079   1.471  0.9329 -1.1101  0.5364
  130TCq2    C8 1987   2.586   2.874   1.583  0.1729 -0.4122 -0.0122
  130TCq2    O4 1988   2.471   2.877   1.618  0.3352  0.4598 -0.0344
  130TCq2    C9 1989   2.956   3.163   1.466 -0.0109 -0.0423 -0.3956
  130TCq2    O5 1990   2.996   3.279   1.439 -0.5424 -0.4057  0.4951
  130TCq2    O6 1991   3.033   3.066   1.478 -0.3166  0.0053  0.5094
  130TCq2    H2 1992   2.774   3.315   1.365 -1.0327 -1.2835 -3.0982
  130TCq2    H3 1993   2.846   2.961   1.573 -0.0790  0.2948  1.5767
  130TCq2    H4 1994   2.452   3.048   1.446 -0.1311  1.9227  1.0697
  131MPD2     C 1995   2.134   1.435   8.906 -0.8074  0.0084 -0.1492
  131MPD2    C1 1996   2.191   1.377   9.020  0.8931 -0.6764  0.2221
  131MPD2    C2 1997   2.117   1.290   9.101 -0.1573 -0.5480  0.2694
  131MPD2    C3 1998   1.985   1.253   9.064 -0.3393 -0.0894 -0.3662
  131MPD2    C4 1999   1.941   1.306   8.948  0.3600 -1.0696 -0.6381
  131MPD2    C5 2000   2.011   1.395   8.870  0.2372 -0.0267 -0.5515
  131MPD2     H 2001   2.150   1.245   9.194  0.6683 -1.3760 -0.4247
  131MPD2    H1 2002   1.842   1.282   8.910 -1.5567  0.0336  3.7880
  131MPD2    H2 2003   2.182   1.507   8.841 -2.5280 -0.5571 -2.0456
  131MPD2    H3 2004   1.962   1.424   8.779  1.0619  3.8890  0.2516
  131MPD2     N 2005   1.903   1.178   9.150 -0.3073 -0.3703 -0.1141
  131MPD2    H5 2006   1.946   1.152   9.239 -0.0869  0.3886  0.0009
  131MPD2    N1 2007   2.326   1.421   9.047 -0.0839  0.1778  0.7877
  131MPD2    H7 2008   2.352   1.512   9.009 -0.8554 -0.3028 -0.8802
  132TCq2    C1 2009   2.582   1.785   9.274  0.3570  0.0507  0.1515
  132TCq2    O2 2010   2.465   1.821   9.275  0.0446 -0.2860  0.0510
  132TCq2    C2 2011   2.606   1.651   9.236 -0.2795 -0.1632 -0.9987
  132TCq2    C3 2012   2.728   1.597   9.257 -0.0716  0.6794  0.2780
  132TCq2    C4 2013   2.748   1.466   9.225  0.2191 -0.1760 -0.4058
  132TCq2    C5 2014   2.641   1.381   9.198  0.2503  0.4098 -0.2048
  132TCq2    C6 2015   2.521   1.446   9.175 -0.7313  0.3640 -0.1721
  132TCq2    C7 2016   2.501   1.580   9.182  0.4989  0.0626  0.2053
  132TCq2    C8 2017   2.406   1.365   9.147  0.0432 -0.2359 -0.3757
  132TCq2    O4 2018   2.402   1.252   9.196 -0.2878 -0.0027  0.0745
  132TCq2    C9 2019   2.873   1.408   9.246 -0.4119 -0.4497  0.2105
  132TCq2    O5 2020   2.885   1.286   9.235 -0.4058  0.1782  0.3597
  132TCq2    O6 2021   2.969   1.483   9.278  0.2680  0.2061  0.3926
  132TCq2    H2 2022   2.814   1.649   9.297 -0.3319  1.1270  0.2533
  132TCq2    H3 2023   2.661   1.277   9.177  2.6500  1.0695 -1.2666
  132TCq2    H4 2024   2.403   1.622   9.161  0.1409 -0.2500  1.2274
  133MPD2     C 2025   1.972   1.819   8.594  0.7438 -0.1080 -0.3153
  133MPD2    C1 2026   2.077   1.835   8.679 -0.3613  0.1122  0.2133
  133MPD2    C2 2027   2.062   1.794   8.812 -0.1966 -0.8104  0.1711
  133MPD2    C3 2028   1.943   1.738   8.854  0.2884 -0.6768 -0.2687
  133MPD2    C4 2029   1.842   1.736   8.761 -0.2803  0.4871  0.0820
  133MPD2    C5 2030   1.852   1.768   8.630 -0.4301 -0.2137 -0.3053
  133MPD2     H 2031   2.149   1.801   8.876  1.1619 -1.6637 -1.5747
  133MPD2    H1 2032   1.744   1.697   8.783 -0.0865  0.2430  0.5122
  133MPD2    H2 2033   1.991   1.847   8.491  0.4632 -0.0791 -0.3582
  133MPD2    H3 2034   1.766   1.776   8.564 -0.5524 -0.3212 -0.1571
  133MPD2     N 2035   1.916   1.703   8.984  0.2765  0.2879 -0.1631
  133MPD2    H5 2036   1.832   1.650   9.005  0.1104  0.5348 -0.2064
  133MPD2    N1 2037   2.193   1.878   8.615  0.3609  0.1849  0.3694
  133MPD2    H7 2038   2.186   1.905   8.518 -1.3918 -1.2138  0.1096
  134TCq2    C1 2039   2.313   1.900   8.673 -0.0187  0.5894  0.5712
  134TCq2    O2 2040   2.352   1.895   8.791 -0.0838 -0.3975  0.0668
  134TCq2    C2 2041   2.411   1.951   8.580 -0.4963 -0.2767  0.0466
  134TCq2    C3 2042   2.401   1.926   8.447 -0.1207  0.0550 -0.2846
  134TCq2    C4 2043   2.495   1.990   8.367 -0.4381 -0.0065  0.1126
  134TCq2    C5 2044   2.595   2.067   8.418 -0.1906  0.4408  0.0072
  134TCq2    C6 2045   2.591   2.088   8.555 -0.7962 -0.5330  0.8216
  134TCq2    C7 2046   2.502   2.029   8.640  0.1090  0.2999  0.2709
  134TCq2    C8 2047   2.685   2.178   8.617  0.5034  0.9650  0.3751
  134TCq2    O4 2048   2.655   2.228   8.726  0.2607 -0.1784  0.0633
  134TCq2    C9 2049   2.482   1.974   8.221  0.0040 -0.0477 -0.2334
  134TCq2    O5 2050   2.561   2.038   8.152 -0.4611  0.2209  0.7553
  134TCq2    O6 2051   2.396   1.891   8.180  0.3136  0.0771  0.1475
  134TCq2    H2 2052   2.340   1.850   8.400 -0.4732 -0.4613  1.0107
  134TCq2    H3 2053   2.662   2.114   8.347  0.7602  0.1832  0.7315
  134TCq2    H4 2054   2.505   2.045   8.748  1.1227  0.0306  0.2822
  135MPD2     C 2055   4.092   2.931   9.374 -0.5526  0.5769  0.0524
  135MPD2    C1 2056   4.215   2.957   9.442 -0.7454 -0.2353  0.0868
  135MPD2    C2 2057   4.330   2.909   9.383  0.3730  0.2050  0.1882
  135MPD2    C3 2058   4.337   2.854   9.255 -0.4952 -0.0667  0.1797
  135MPD2    C4 2059   4.215   2.855   9.185  0.0995 -0.3049 -0.2386
  135MPD2    C5 2060   4.097   2.889   9.244  0.0652 -0.5603 -0.0370
  135MPD2     H 2061   4.415   2.909   9.450 -0.1020 -0.6081  0.7975
  135MPD2    H1 2062   4.230   2.811   9.087 -2.4434  1.1768 -1.2859
  135MPD2    H2 2063   3.995   2.967   9.407  0.4379  1.3703  2.1191
  135MPD2    H3 2064   4.002   2.876   9.194 -0.3931  2.4054  0.1022
  135MPD2     N 2065   4.444   2.789   9.199 -0.3504 -0.7674  1.0548
  135MPD2    H5 2066   4.429   2.737   9.113  0.1305  0.0113  0.4971
  135MPD2    N1 2067   4.221   3.021   9.571  0.3754  0.0733 -0.4966
  135MPD2    H7 2068   4.313   3.025   9.615  0.2012  1.5108 -0.2593
  136TCq2    C1 2069   4.114   3.084   9.632 -0.2123  0.3725 -0.3039
  136TCq2    O2 2070   4.002   3.114   9.589 -0.1031  0.0487  0.5036
  136TCq2    C2 2071   4.151   3.161   9.749  0.8711  0.2651  0.2831
  136TCq2    C3 2072   4.102   3.287   9.761 -0.7083 -0.3081  0.2426
  136TCq2    C4 2073   4.127   3.359   9.874 -0.1051 -0.4308  0.0744
  136TCq2    C5 2074   4.187   3.297   9.984 -0.3427 -0.4921 -0.3493
  136TCq2    C6 2075   4.230   3.165   9.970 -0.4543 -0.5069  0.5233
  136TCq2    C7 2076   4.221   3.099   9.851  0.5559 -0.0924 -0.0567
  136TCq2    C8 2077   4.303   3.102  10.072  0.0041 -0.6562 -0.6358
  136TCq2    O4 2078   4.352   3.170  10.163  0.2510 -0.2124 -0.6151
  136TCq2    C9 2079   4.086   3.499   9.887 -0.1318  0.1054  0.3947
  136TCq2    O5 2080   4.060   3.563   9.784  0.2886  0.3491 -0.3036
  136TCq2    O6 2081   4.102   3.551  10.000  0.3233 -0.7104 -1.1476
  136TCq2    H2 2082   4.049   3.334   9.678 -1.0361 -1.0881  0.0132
  136TCq2    H3 2083   4.197   3.348  10.079 -2.1358 -3.1631  1.2364
  136TCq2    H4 2084   4.265   3.002   9.831 -0.4401 -0.8859  1.6184
  137MPD2     C 2085   4.570   1.304   9.699 -0.2642 -0.3739  0.4123
  137MPD2    C1 2086   4.590   1.436   9.727  0.0490  0.5963 -0.7567
  137MPD2    C2 2087   4.685   1.471   9.821  0.3824 -0.1527  0.4388
  137MPD2    C3 2088   0.028   1.369   9.889  0.1244 -0.4867 -0.6278
  137MPD2    C4 2089   0.010   1.234   9.866  0.4276 -0.1128 -0.7212
  137MPD2    C5 2090   4.637   1.206   9.772 -0.2972 -0.4253 -0.3331
  137MPD2     H 2091   4.701   1.573   9.855 -5.7503  1.0307 -0.1681
  137MPD2    H1 2092   0.062   1.149   9.907  2.6658  0.8465 -1.5693
  137MPD2    H2 2093   4.498   1.266   9.628  0.3998  2.6674 -1.8784
  137MPD2    H3 2094   4.617   1.101   9.758 -0.0688 -0.4099 -0.7679
  137MPD2     N 2095   0.102   1.413   9.995 -0.2637  0.1915  0.6541
  137MPD2    H5 2096   0.111   1.514   9.997  1.8066  0.0294 -0.9228
  137MPD2    N1 2097   4.504   1.521   9.656  0.0599  0.2094 -0.6097
  137MPD2    H7 2098   4.438   1.476   9.594 -2.2338  0.2278  1.8300
  138TCq2    C1 2099   4.509   1.659   9.674  0.4861  0.0788 -0.3159
  138TCq2    O2 2100   4.575   1.722   9.759  0.5076 -0.2298 -0.3073
  138TCq2    C2 2101   4.411   1.742   9.607 -0.5799 -0.6492  0.9526
  138TCq2    C3 2102   4.422   1.877   9.635 -0.3397  0.8468 -0.4609
  138TCq2    C4 2103   4.316   1.961   9.607  0.2143 -0.2564  0.2052
  138TCq2    C5 2104   4.200   1.909   9.561  0.2028  0.2563 -0.4721
  138TCq2    C6 2105   4.194   1.779   9.532 -0.2345  0.2881  0.0658
  138TCq2    C7 2106   4.300   1.688   9.557  0.4205  0.2773 -0.4096
  138TCq2    C8 2107   4.076   1.715   9.480  0.3438  0.2103 -0.1131
  138TCq2    O4 2108   4.086   1.596   9.448  0.1229 -0.0218 -0.2949
  138TCq2    C9 2109   4.327   2.107   9.644  0.1867 -0.2704  0.0497
  138TCq2    O5 2110   4.239   2.188   9.595 -0.3450 -0.1841  0.6247
  138TCq2    O6 2111   4.440   2.142   9.689 -0.0552 -0.3783 -0.2172
  138TCq2    H2 2112   4.518   1.923   9.657 -0.2711  1.0011 -1.0700
  138TCq2    H3 2113   4.123   1.981   9.537 -0.2668  0.4532  1.5930
  138TCq2    H4 2114   4.287   1.580   9.554 -2.2675  0.6160 -1.5634
  139TMC2    C1 2115   4.380   0.873  13.375 -0.6274  0.2655 -0.7381
  139TMC2    C2 2116   4.464   0.975  13.350 -0.1397  0.1622  0.3840
  139TMC2    C3 2117   4.427   1.099  13.393  0.3650  0.0450  0.2457
  139TMC2    C4 2118   4.263   0.892  13.440  0.1434 -0.6263 -0.4953
  139TMC2    C5 2119   4.229   1.019  13.482 -0.3428  0.0574  0.0073
  139TMC2    C6 2120   4.314   1.124  13.463 -0.3559 -0.6976 -0.2553
  139TMC2     C 2121   4.434   0.743  13.336 -0.3414  0.1241 -0.0223
  139TMC2     O 2122   4.523   0.743  13.252  0.1983 -0.1283  0.1200
  139TMC2     H 2123   4.556   0.960  13.295  0.2720  1.2758  0.7754
  139TMC2    H1 2124   4.200   0.806  13.457  1.1355 -1.5467 -1.5290
  139TMC2    H2 2125   4.298   1.222  13.505  0.8257 -0.0701 -1.2716
  139TMC2    C7 2126   4.118   1.045  13.572  0.3873  0.5689  0.2024
  139TMC2    C8 2127   4.521   1.209  13.375  0.3742 -0.1950  0.7828
  139TMC2    O1 2128   4.118   1.143  13.644 -0.2368  0.6901 -0.1541
  139TMC2    O2 2129   4.642   1.190  13.370 -0.0375 -0.3828 -0.2192
  139TMC2    O5 2130   4.453   1.329  13.387 -0.0260  0.2318 -0.1116
  139TMC2    H5 2131   4.364   1.320  13.346 -0.4526  0.6323  0.7301
  140MPD2     C 2132   4.406   0.424  13.522 -0.4571  0.1084  0.3966
  140MPD2    C1 2133   4.459   0.512  13.429 -0.0858 -0.1907 -0.3309
  140MPD2    C2 2134   4.572   0.475  13.359 -0.3672 -0.5147 -0.4886
  140MPD2    C3 2135   4.635   0.355  13.381  0.6019  0.5305  0.0587
  140MPD2    C4 2136   4.578   0.262  13.465  0.1532  0.0931 -0.1962
  140MPD2    C5 2137   4.464   0.299  13.533  0.1189 -0.0306 -0.1781
  140MPD2     H 2138   4.613   0.533  13.276 -0.8548  0.4233 -0.0797
  140MPD2    H1 2139   4.611   0.159  13.469 -0.7235 -0.1844 -0.1921
  140MPD2    H2 2140   4.313   0.443  13.575 -1.2618 -0.5605 -0.7897
  140MPD2    H3 2141   4.421   0.233  13.608  0.0166  0.1692 -0.0626
  140MPD2     N 2142   0.026   0.330  13.299  0.5460 -0.2194  0.3683
  140MPD2    H5 2143   0.053   0.408  13.239 -1.7980  1.0297  0.9545
  140MPD2    N1 2144   4.392   0.636  13.415  0.0235  0.0984  0.2912
  140MPD2    H7 2145   4.309   0.651  13.471  0.0812  0.2661  0.3319
  141TCq2    C1 2146   4.626   2.397  14.264  0.2803  0.1403  0.0203
  141TCq2    O2 2147   0.008   2.340  14.235 -0.4376  0.2776  0.8305
  141TCq2    C2 2148   4.609   2.436  14.403 -0.3045  0.6964  0.3270
  141TCq2    C3 2149   4.686   2.371  14.490 -0.6003 -0.5975 -0.9579
  141TCq2    C4 2150   0.001   2.441  14.606 -0.2623  0.8965  0.6492
  141TCq2    C5 2151   4.694   2.572  14.633  0.5667  0.1416  0.3120
  141TCq2    C6 2152   4.629   2.640  14.533 -0.1538 -0.5811 -0.2032
  141TCq2    C7 2153   4.591   2.574  14.424  0.5782 -0.4800  0.3047
  141TCq2    C8 2154   4.629   2.784  14.542  0.9182  0.0574  0.6749
  141TCq2    O4 2155   4.563   2.843  14.453 -0.0992 -0.3475  0.0337
  141TCq2    C9 2156   0.082   2.378  14.710 -0.4536  0.9505  0.3101
  141TCq2    O5 2157   0.139   2.269  14.681 -0.1360  0.0120 -0.4163
  141TCq2    O6 2158   0.105   2.433  14.824  0.5162 -0.0646  0.1829
  141TCq2    H2 2159   4.713   2.266  14.484  0.1118 -0.4608 -0.1779
  141TCq2    H3 2160   4.713   2.621  14.727  1.3029 -2.2670  1.4256
  141TCq2    H4 2161   4.534   2.626  14.347 -0.6733 -0.3560  1.3080
  142MPD2     C 2162   1.216   0.970   9.098 -0.1423 -0.0067  0.0593
  142MPD2    C1 2163   1.295   0.863   9.125  0.3004 -0.3452 -0.0283
  142MPD2    C2 2164   1.419   0.865   9.065  0.4767  1.1603 -0.3257
  142MPD2    C3 2165   1.463   0.961   8.981 -0.6975  0.8964 -0.0736
  142MPD2    C4 2166   1.380   1.065   8.958  0.0137  0.5513  1.4375
  142MPD2    C5 2167   1.252   1.065   9.003  0.5274 -0.4892  0.4897
  142MPD2     H 2168   1.487   0.781   9.074  0.0284  1.0217  1.7944
  142MPD2    H1 2169   1.410   1.151   8.898  0.9702 -0.3923  0.5845
  142MPD2    H2 2170   1.116   0.973   9.140 -1.1073  0.5422 -2.2666
  142MPD2    H3 2171   1.182   1.143   8.974 -0.0689 -1.0781  0.3404
  142MPD2     N 2172   1.588   0.967   8.920  0.3041 -0.0509  0.0632
  142MPD2    H5 2173   1.620   1.051   8.872 -0.0965 -0.2698 -0.5770
  142MPD2    N1 2174   1.245   0.764   9.218  0.1179 -0.3563  0.4676
  142MPD2    H7 2175   1.145   0.762   9.238  0.1345  1.2049  0.7137
  143TCq2    C1 2176   1.691   0.864   8.932  0.1420  0.6527  0.6622
  143TCq2    O2 2177   1.683   0.752   8.975  0.2509  0.6444  0.1667
  143TCq2    C2 2178   1.822   0.892   8.871 -0.0834 -0.0438  0.5410
  143TCq2    C3 2179   1.841   0.994   8.780  0.3050  0.2776  0.3261
  143TCq2    C4 2180   1.965   1.043   8.757 -0.0687 -0.0784  0.2078
  143TCq2    C5 2181   2.075   0.984   8.828  0.2865 -0.7808 -0.1646
  143TCq2    C6 2182   2.052   0.892   8.923  0.8778 -0.2946 -0.3707
  143TCq2    C7 2183   1.929   0.833   8.940 -0.2042  0.6987  0.7912
  143TCq2    C8 2184   2.157   0.815   8.988 -0.5092  0.3073 -0.4649
  143TCq2    O4 2185   2.124   0.740   9.081 -0.0056  0.4111 -0.9650
  143TCq2    C9 2186   1.983   1.131   8.643 -0.4268  0.0269 -0.4581
  143TCq2    O5 2187   1.870   1.169   8.599 -0.1812  1.0382 -0.2772
  143TCq2    O6 2188   2.100   1.149   8.594 -0.6162 -0.0641  0.2211
  143TCq2    H2 2189   1.758   1.026   8.719  1.7959  3.9881  0.2318
  143TCq2    H3 2190   2.178   1.015   8.814  0.5747 -1.5745  0.1792
  143TCq2    H4 2191   1.919   0.750   9.007 -1.1672  0.2856  0.1377
  144MPD2     C 2192   0.750   0.652   0.513  0.6604  0.0976 -0.2627
  144MPD2    C1 2193   0.744   0.517   0.532  0.2560  0.2737 -0.3414
  144MPD2    C2 2194   0.860   0.449   0.559 -0.1551  0.2124  0.1742
  144MPD2    C3 2195   0.975   0.513   0.582 -0.0573  0.1022 -0.2280
  144MPD2    C4 2196   0.978   0.644   0.559 -0.6003 -0.1336  0.0017
  144MPD2    C5 2197   0.865   0.717   0.536  0.2764 -0.2083  0.1765
  144MPD2     H 2198   0.856   0.341   0.573  2.0413  0.3186  1.6436
  144MPD2    H1 2199   1.068   0.705   0.565  0.2220 -1.0516 -3.0127
  144MPD2    H2 2200   0.668   0.700   0.462  2.5130  2.5138 -0.9586
  144MPD2    H3 2201   0.869   0.818   0.499  0.0339 -1.3909 -3.0387
  144MPD2     N 2202   1.092   0.447   0.623 -0.0733 -0.4185 -0.6101
  144MPD2    H5 2203   1.171   0.504   0.652 -1.6518  1.0855  0.7345
  144MPD2    N1 2204   0.617   0.450   0.518 -0.6736 -0.3658 -0.5341
  144MPD2    H7 2205   0.541   0.512   0.489 -0.9813 -1.4805 -2.1074
  145TCq2    C1 2206   1.110   0.307   0.625 -0.8784 -0.3359 -0.3999
  145TCq2    O2 2207   1.043   0.216   0.581 -0.0784 -0.2951 -0.1562
  145TCq2    C2 2208   1.236   0.268   0.671 -0.2229  0.0938  0.3949
  145TCq2    C3 2209   1.286   0.147   0.628  0.4602 -0.3379 -0.1179
  145TCq2    C4 2210   1.417   0.118   0.669 -0.2602 -0.1067 -0.3286
  145TCq2    C5 2211   1.493   0.208   0.736 -0.1300 -0.1457  0.2064
  145TCq2    C6 2212   1.439   0.327   0.775 -0.6130  0.0651 -0.3347
  145TCq2    C7 2213   1.308   0.357   0.743 -0.2414  0.6351 -0.9133
  145TCq2    C8 2214   1.502   0.384   0.896 -0.1448 -0.6438  0.3841
  145TCq2    O4 2215   1.618   0.355   0.921  0.0064 -0.6324  0.3757
  145TCq2    C9 2216   1.475   4.718   0.631 -0.7343  0.0196  0.1978
  145TCq2    O5 2217   1.401   4.635   0.569  0.3549  0.2571  0.0602
  145TCq2    O6 2218   1.583   4.682   0.681  0.5295  0.1928  0.5554
  145TCq2    H2 2219   1.229   0.070   0.578  0.8149  1.6181 -3.4675
  145TCq2    H3 2220   1.594   0.177   0.762  0.4553  0.4025 -1.3792
  145TCq2    H4 2221   1.256   0.441   0.788 -0.3160 -1.1725  2.3962
  146TMC2    C1 2222   1.737   3.457  12.543 -0.0897  0.5026 -0.0223
  146TMC2    C2 2223   1.613   3.503  12.561  0.7707 -0.5629 -0.0705
  146TMC2    C3 2224   1.509   3.427  12.508  0.4007  0.3607 -0.0002
  146TMC2    C4 2225   1.772   3.337  12.483 -0.5681 -0.2160 -0.1583
  146TMC2    C5 2226   1.667   3.264  12.435  0.3335  0.4052 -0.1929
  146TMC2    C6 2227   1.537   3.313  12.447 -0.5171 -0.0570  0.9143
  146TMC2     C 2228   1.845   3.529  12.609 -0.4394  0.2788  0.2128
  146TMC2     O 2229   1.832   3.651  12.628  0.1797  0.1860  0.8483
  146TMC2     H 2230   1.600   3.600  12.607 -5.0576  0.2758 -3.4913
  146TMC2    H1 2231   1.873   3.310  12.455  0.2394  1.6559  0.9192
  146TMC2    H2 2232   1.461   3.247  12.405 -1.2295  2.5410 -1.8386
  146TMC2    C7 2233   1.690   3.159  12.339  0.3091 -0.2253  0.8557
  146TMC2    C8 2234   1.388   3.492  12.458  0.3784  1.0509 -0.0767
  146TMC2    O1 2235   1.606   3.135  12.253  0.0029  0.0394 -0.1477
  146TMC2    O2 2236   1.325   3.439  12.366 -0.0906 -0.0298 -0.2640
  146TMC2    O5 2237   1.347   3.590  12.543 -0.4388 -0.5410  0.1630
  146TMC2    H5 2238   1.414   3.619  12.609  1.1303 -0.1078 -1.6098
  147MPD2     C 2239   1.952   2.750  12.181 -0.5642  0.3415  0.0469
  147MPD2    C1 2240   1.986   2.788  12.308  0.2693 -0.3706  0.5943
  147MPD2    C2 2241   1.926   2.893  12.373 -0.7635 -0.1700  0.0623
  147MPD2    C3 2242   1.845   2.976  12.307 -0.0059  0.2792 -0.1504
  147MPD2    C4 2243   1.808   2.944  12.179  1.2119 -0.3821  0.8141
  147MPD2    C5 2244   1.865   2.838  12.118 -0.4649 -0.1451  0.1840
  147MPD2     H 2245   1.965   2.924  12.469  2.2134  1.1858 -1.5659
  147MPD2    H1 2246   1.752   3.000  12.105  1.3974  0.3260  1.2118
  147MPD2    H2 2247   2.002   2.666  12.134  0.6230  0.3853  1.2317
  147MPD2    H3 2248   1.837   2.825  12.014  0.4022  2.1805 -0.3350
  147MPD2     N 2249   1.796   3.085  12.376 -0.5911  0.3283 -0.1254
  147MPD2    H5 2250   1.834   3.096  12.469 -0.1678  0.8445 -0.3583
  147MPD2    N1 2251   2.095   2.711  12.365 -0.6783  0.4444 -0.0529
  147MPD2    H7 2252   2.147   2.653  12.300  0.9636  0.0958  1.5776
  148MPD2     C 2253   3.340   1.136  10.594  0.4721 -0.4882  0.2123
  148MPD2    C1 2254   3.289   1.025  10.534 -0.9767 -0.7668 -0.1379
  148MPD2    C2 2255   3.157   1.022  10.500  0.0616  0.4922  0.2472
  148MPD2    C3 2256   3.064   1.125  10.529 -0.5149 -0.0899  0.1452
  148MPD2    C4 2257   3.125   1.238  10.580 -0.5935 -0.1214 -0.4595
  148MPD2    C5 2258   3.257   1.235  10.618  0.3891  0.4342 -0.1544
  148MPD2     H 2259   3.117   0.939  10.444  2.1061 -1.7496  2.1631
  148MPD2    H1 2260   3.069   1.327  10.605 -1.7509 -1.0816  0.3922
  148MPD2    H2 2261   3.441   1.149  10.631  0.6613 -1.0736 -0.0998
  148MPD2    H3 2262   3.289   1.321  10.676 -3.2302 -0.3459  2.9383
  148MPD2     N 2263   2.929   1.126  10.489  0.1900  0.1301 -0.2683
  148MPD2    H5 2264   2.881   1.213  10.510  0.7896  0.4419 -0.1994
  148MPD2    N1 2265   3.367   0.913  10.494 -0.0966  0.5814  0.5009
  148MPD2    H7 2266   3.334   0.838  10.433  0.7248  1.8348 -1.4883
  149TCq2    C1 2267   3.500   0.892  10.519 -0.6956 -0.0026  0.0164
  149TCq2    O2 2268   3.578   0.965  10.582  0.2521 -0.1097  0.2917
  149TCq2    C2 2269   3.548   0.764  10.475 -0.2590 -0.1077  0.2569
  149TCq2    C3 2270   3.681   0.737  10.473  0.7363 -0.1560 -0.5369
  149TCq2    C4 2271   3.724   0.622  10.414  0.1429  0.2749  0.0031
  149TCq2    C5 2272   3.638   0.529  10.355  0.0306  0.1768  0.1261
  149TCq2    C6 2273   3.506   0.553  10.375  0.3821 -0.4207  0.3082
  149TCq2    C7 2274   3.461   0.668  10.439 -0.1807  0.4069  0.8813
  149TCq2    C8 2275   3.402   0.466  10.310  0.3701 -0.8025  0.0699
  149TCq2    O4 2276   3.297   0.459  10.371  0.0703  0.5638  0.0332
  149TCq2    C9 2277   3.865   0.609  10.376  0.9548  0.3713  0.4530
  149TCq2    O5 2278   3.945   0.687  10.433  0.2849 -0.8940  0.2438
  149TCq2    O6 2279   3.889   0.531  10.281 -1.0269  0.3440  0.3970
  149TCq2    H2 2280   3.749   0.820  10.491  1.4010 -1.2939  2.3173
  149TCq2    H3 2281   3.676   0.440  10.307  0.1194  0.0091  0.5098
  149TCq2    H4 2282   3.354   0.684  10.442 -0.1350  0.8322  0.1621
  150MPD2     C 2283   4.009   1.111  12.296 -0.5016 -0.4084  0.1452
  150MPD2    C1 2284   4.003   1.237  12.242  0.3183 -0.3360 -0.4281
  150MPD2    C2 2285   4.080   1.340  12.304  0.2631  0.6322  0.3020
  150MPD2    C3 2286   4.155   1.313  12.416  0.7592  0.2395 -0.1040
  150MPD2    C4 2287   4.151   1.188  12.473  0.3971  0.6047 -0.5937
  150MPD2    C5 2288   4.086   1.090  12.408 -0.1207  0.7084 -0.0284
  150MPD2     H 2289   4.079   1.438  12.258 -0.6392 -0.9351 -3.0531
  150MPD2    H1 2290   4.203   1.171  12.567  0.3390 -2.0266 -1.0218
  150MPD2    H2 2291   3.954   1.029  12.253 -1.9807  1.6543 -1.9023
  150MPD2    H3 2292   4.081   0.988  12.445  1.3678  1.1156  1.2748
  150MPD2     N 2293   4.234   1.420  12.463  0.6771  0.2261 -0.1722
  150MPD2    H5 2294   4.216   1.512  12.423 -2.2081 -0.6401 -0.8204
  150MPD2    N1 2295   3.928   1.250  12.126  0.2758  0.4156  0.3575
  150MPD2    H7 2296   3.888   1.161  12.100 -1.0955  1.5648 -1.5190
  151TCq2    C1 2297   4.345   1.401  12.547  0.0590 -0.0994 -0.4479
  151TCq2    O2 2298   4.400   1.297  12.580 -0.3027  0.3898  0.0074
  151TCq2    C2 2299   4.407   1.526  12.587  0.3372 -0.0193 -0.1166
  151TCq2    C3 2300   4.331   1.640  12.610  0.9257  0.0385  0.1122
  151TCq2    C4 2301   4.391   1.758  12.646 -0.2573 -0.7049 -0.1776
  151TCq2    C5 2302   4.524   1.768  12.669  0.6431 -0.1052 -0.0794
  151TCq2    C6 2303   4.601   1.660  12.633 -0.2319  0.2886 -0.0989
  151TCq2    C7 2304   4.544   1.542  12.591 -0.0744  0.0648  0.3843
  151TCq2    C8 2305   0.023   1.678  12.646  0.3427  0.3265  0.3526
  151TCq2    O4 2306   0.072   1.791  12.662  0.3316 -0.5655 -0.0070
  151TCq2    C9 2307   4.292   1.868  12.672 -0.2690  0.7958 -0.0173
  151TCq2    O5 2308   4.331   1.975  12.718 -0.4199  0.0844 -0.7102
  151TCq2    O6 2309   4.168   1.847  12.643 -0.7823 -0.4515  0.1662
  151TCq2    H2 2310   4.225   1.641  12.590  0.7203 -1.6023  1.0771
  151TCq2    H3 2311   4.575   1.862  12.682 -0.9365  0.8432 -0.6359
  151TCq2    H4 2312   4.601   1.460  12.548 -0.4947 -0.5613  1.0094
  152MPD2     C 2313   3.857   0.648  12.660  0.0982 -0.5559 -0.6951
  152MPD2    C1 2314   3.864   0.788  12.665  0.1676 -0.3847  0.0066
  152MPD2    C2 2315   3.762   0.861  12.596 -0.3844 -0.9621  0.3001
  152MPD2    C3 2316   3.662   0.796  12.518 -0.9250 -0.6625  0.2678
  152MPD2    C4 2317   3.662   0.656  12.514  0.1027 -0.0756 -0.2019
  152MPD2    C5 2318   3.765   0.589  12.573 -0.1946 -0.1631  1.1032
  152MPD2     H 2319   3.766   0.970  12.597 -2.2902 -0.9146  1.7728
  152MPD2    H1 2320   3.596   0.612  12.440  0.1549  0.5568 -0.6167
  152MPD2    H2 2321   3.931   0.590  12.715 -0.8974  0.2926  1.5518
  152MPD2    H3 2322   3.779   0.483  12.556 -0.0194  0.0817 -0.2673
  152MPD2     N 2323   3.577   0.884  12.446 -0.7594  0.2363  0.1577
  152MPD2    H5 2324   3.591   0.984  12.456 -0.3232  0.3235 -1.3689
  152MPD2    N1 2325   3.959   0.845  12.747 -0.2392 -0.4664  0.2908
  152MPD2    H7 2326   4.016   0.784  12.804 -0.6716  0.0628  1.2939
  153TCq2    C1 2327   3.970   0.980  12.774 -0.0274 -0.4519  0.7000
  153TCq2    O2 2328   3.907   1.076  12.738 -0.3162 -0.0326  0.2720
  153TCq2    C2 2329   4.089   1.006  12.850  0.7268  0.3446 -0.2283
  153TCq2    C3 2330   4.165   0.901  12.880  0.5489  0.1032  0.2122
  153TCq2    C4 2331   4.266   0.942  12.961  0.1398 -0.0100 -0.0440
  153TCq2    C5 2332   4.294   1.076  13.002  0.1409  0.2084  0.8268
  153TCq2    C6 2333   4.212   1.176  12.952 -0.4212 -0.0012 -0.8514
  153TCq2    C7 2334   4.104   1.138  12.880  0.1840 -0.3679 -0.3613
  153TCq2    C8 2335   4.249   1.317  12.964  0.0510 -0.1790 -0.4548
  153TCq2    O4 2336   4.158   1.401  12.957 -0.1602 -0.2401  0.5374
  153TCq2    C9 2337   4.364   0.843  12.997  0.2755 -0.7067 -0.3231
  153TCq2    O5 2338   4.477   0.897  13.020 -0.0671  0.6395 -0.0302
  153TCq2    O6 2339   4.347   0.721  12.964 -0.1021 -0.0878 -0.2481
  153TCq2    H2 2340   4.156   0.797  12.854 -1.0805  0.7786 -1.8470
  153TCq2    H3 2341   4.380   1.093  13.066  1.2011 -0.1594 -0.4774
  153TCq2    H4 2342   4.031   1.213  12.851  2.0234  0.5613 -2.5261
  154MPD2     C 2343   0.488   2.201   0.018 -0.5746 -0.1279 -0.7031
  154MPD2    C1 2344   0.538   2.223   0.147  0.3147 -0.0810 -0.2033
  154MPD2    C2 2345   0.467   2.173   0.261 -0.8118  0.0731 -0.0662
  154MPD2    C3 2346   0.344   2.104   0.242  0.2916 -0.1327 -0.0966
  154MPD2    C4 2347   0.290   2.090   0.113  0.6820  0.5149  0.0923
  154MPD2    C5 2348   0.368   2.131   0.007  0.4429  0.2819  0.2171
  154MPD2     H 2349   0.518   2.162   0.355 -1.0656  1.8831  0.2836
  154MPD2    H1 2350   0.188   2.057   0.094  0.1069  1.5972  1.2255
  154MPD2    H2 2351   0.528   2.239  17.611  0.5260  0.3386 -0.0396
  154MPD2    H3 2352   0.315   2.107  17.602  1.1572 -3.1080  0.6635
  154MPD2     N 2353   0.277   2.061   0.358 -1.0270  0.7646  0.1558
  154MPD2    H5 2354   0.317   2.093   0.445  0.4667 -3.6177  1.0755
  154MPD2    N1 2355   0.666   2.297   0.164 -0.0252  0.0844 -0.3005
  154MPD2    H7 2356   0.717   2.311   0.077 -0.2535 -1.7767 -0.7236
  155TCq2    C1 2357   0.714   2.351   0.277 -0.8410 -0.1927 -0.3690
  155TCq2    O2 2358   0.653   2.369   0.380 -0.2769  0.3717 -0.4424
  155TCq2    C2 2359   0.846   2.414   0.271 -0.8307 -0.1040  0.5911
  155TCq2    C3 2360   0.943   2.353   0.205 -1.1033 -0.1809 -0.1927
  155TCq2    C4 2361   1.068   2.408   0.228 -0.5875  0.0191 -0.3677
  155TCq2    C5 2362   1.087   2.529   0.296 -0.1866  0.0651  0.5795
  155TCq2    C6 2363   0.980   2.583   0.356 -0.1816  0.8789 -0.1924
  155TCq2    C7 2364   0.855   2.527   0.346  0.9177 -0.2138  0.1194
  155TCq2    C8 2365   1.003   2.684   0.455 -1.2138 -0.1199  0.5329
  155TCq2    O4 2366   0.906   2.725   0.517  0.1716  0.0848  0.4267
  155TCq2    C9 2367   1.184   2.359   0.162 -0.8491  0.1006 -0.6441
  155TCq2    O5 2368   1.286   2.432   0.170  0.0165 -0.3650 -0.6811
  155TCq2    O6 2369   1.171   2.257   0.082  0.7894  0.4312 -0.6350
  155TCq2    H2 2370   0.930   2.263   0.147  5.0964 -0.6990 -0.7381
  155TCq2    H3 2371   1.186   2.573   0.286  0.6700 -1.5656  1.9507
  155TCq2    H4 2372   0.770   2.574   0.392 -0.5135 -1.0874 -1.6251
  156MPD2     C 2373   4.552   3.506  11.678  0.4558  0.9888 -0.1833
  156MPD2    C1 2374   4.429   3.471  11.624  0.0087 -0.4135  0.8405
  156MPD2    C2 2375   4.330   3.436  11.717 -0.2929  0.2018 -0.6104
  156MPD2    C3 2376   4.355   3.433  11.855 -0.5949  0.0568  0.7610
  156MPD2    C4 2377   4.483   3.459  11.907  0.4671  0.8814  0.0827
  156MPD2    C5 2378   4.585   3.498  11.814  0.2317  0.8469  0.0337
  156MPD2     H 2379   4.230   3.415  11.682 -0.0431  0.8636 -1.7246
  156MPD2    H1 2380   4.504   3.454  12.013 -2.9691  1.2008  0.7524
  156MPD2    H2 2381   4.628   3.527  11.603  0.8913 -0.6021 -0.1855
  156MPD2    H3 2382   4.689   3.512  11.841  0.9436 -1.6645 -1.4102
  156MPD2     N 2383   4.263   3.391  11.952 -0.0624  0.6040 -0.0053
  156MPD2    H5 2384   4.296   3.411  12.046 -1.7834  0.7116  0.5739
  156MPD2    N1 2385   4.406   3.483  11.484 -0.3108 -0.1582  0.2300
  156MPD2    H7 2386   4.475   3.497  11.411  0.7243 -3.7589  0.4870
  157TCq2    C1 2387   4.278   3.503  11.432 -0.3659 -0.6456 -0.0744
  157TCq2    O2 2388   4.172   3.520  11.488 -0.3840 -0.4849 -0.0681
  157TCq2    C2 2389   4.279   3.524  11.289 -0.7053  0.1046  0.2286
  157TCq2    C3 2390   4.398   3.502  11.224 -0.1277 -0.5930 -0.0528
  157TCq2    C4 2391   4.412   3.563  11.099 -0.2957  0.2668  0.1223
  157TCq2    C5 2392   4.317   3.648  11.045 -0.4295 -0.5036 -0.2268
  157TCq2    C6 2393   4.198   3.661  11.117 -0.0008 -0.6777  0.5842
  157TCq2    C7 2394   4.177   3.589  11.233  0.8701  0.4350 -0.3234
  157TCq2    C8 2395   4.098   3.751  11.056  0.2187 -0.0063  0.6887
  157TCq2    O4 2396   4.138   3.787  10.946 -0.0902  0.3605  0.2662
  157TCq2    C9 2397   4.540   3.549  11.031 -0.4571 -0.1772 -0.1910
  157TCq2    O5 2398   4.561   3.632  10.938  0.1189 -0.7667  0.1933
  157TCq2    O6 2399   4.633   3.483  11.082 -0.2085  0.1544 -0.2539
  157TCq2    H2 2400   4.479   3.440  11.263  0.7409 -0.1278 -1.1388
  157TCq2    H3 2401   4.331   3.703  10.953  0.2810  1.2118  0.9045
  157TCq2    H4 2402   4.091   3.626  11.289  1.9462 -1.0655  2.2897
  158TMC2    C1 2403   4.611   2.098  13.602  0.4893  0.2786 -0.2459
  158TMC2    C2 2404   4.583   2.193  13.507 -0.1259 -0.8118 -0.3332
  158TMC2    C3 2405   4.457   2.244  13.504  0.0136 -0.0117  0.4467
  158TMC2    C4 2406   4.513   2.048  13.687 -0.0756 -0.0968 -0.4863
  158TMC2    C5 2407   4.392   2.103  13.682  0.1666  0.1415 -0.4570
  158TMC2    C6 2408   4.356   2.200  13.582  0.1873  0.0868 -0.2124
  158TMC2     C 2409   0.027   2.075  13.633  0.5901 -0.1679  0.1872
  158TMC2     O 2410   0.105   2.092  13.541 -0.7090  0.6181  0.3407
  158TMC2     H 2411   4.660   2.211  13.432 -0.9522 -0.3793 -1.0723
  158TMC2    H1 2412   4.532   1.972  13.762  0.7656 -0.5422 -1.1616
  158TMC2    H2 2413   4.253   2.234  13.574  0.2402  0.0808 -0.9132
  158TMC2    C7 2414   4.290   2.090  13.783  0.5870 -0.1690  0.1699
  158TMC2    C8 2415   4.415   2.299  13.368  0.1176 -0.3968 -0.2353
  158TMC2    O1 2416   4.217   2.190  13.790 -0.2719  0.3323 -0.4263
  158TMC2    O2 2417   4.466   2.250  13.267 -0.1536  0.1648 -0.3064
  158TMC2    O5 2418   4.308   2.378  13.376  0.2179  0.0674  0.5705
  158TMC2    H5 2419   4.268   2.380  13.465  2.4363 -0.4874  1.5869
  159MPD2     C 2420   0.341   1.730  13.833  0.1693 -0.7907 -0.0030
  159MPD2    C1 2421   0.243   1.763  13.922  0.3744  0.0238 -0.2945
  159MPD2    C2 2422   0.156   1.869  13.890 -0.3094 -0.2211  0.4356
  159MPD2    C3 2423   0.157   1.928  13.768  0.7900  0.2188 -0.0026
  159MPD2    C4 2424   0.264   1.897  13.680 -0.8008 -0.6421 -0.4402
  159MPD2    C5 2425   0.359   1.794  13.714 -0.1691  0.6061 -0.3768
  159MPD2     H 2426   0.084   1.905  13.962  0.9732  1.4853  0.8571
  159MPD2    H1 2427   0.277   1.948  13.586  1.4081 -0.4604 -0.0217
  159MPD2    H2 2428   0.416   1.657  13.860  0.4340 -0.4082  0.3077
  159MPD2    H3 2429   0.442   1.778  13.646 -0.4104  0.7219 -0.6938
  159MPD2     N 2430   0.052   2.017  13.749  0.1685 -0.3553  0.6256
  159MPD2    H5 2431   4.714   2.034  13.829 -1.4954 -0.5368 -0.5706
  159MPD2    N1 2432   0.247   1.695  14.052 -0.5806 -0.3164 -0.5517
  159MPD2    H7 2433   0.317   1.623  14.065  1.2251  1.3443 -1.0611
  160TMC2    C1 2434   3.835   0.890   1.605  0.2192  0.3016 -0.5641
  160TMC2    C2 2435   3.778   0.993   1.676 -0.9019  0.3773  0.6249
  160TMC2    C3 2436   3.843   1.041   1.790 -0.7510 -0.5794  0.1585
  160TMC2    C4 2437   3.942   0.825   1.648 -0.6136 -0.4458  0.4630
  160TMC2    C5 2438   4.001   0.867   1.761  0.0698 -0.1119  0.4265
  160TMC2    C6 2439   3.957   0.974   1.836 -0.3022 -0.3667 -0.1539
  160TMC2     C 2440   3.746   0.808   1.518 -0.3858 -0.3182  0.2853
  160TMC2     O 2441   3.760   0.688   1.505 -0.0512 -0.1613 -0.3580
  160TMC2     H 2442   3.693   1.042   1.629  0.7281  0.9351 -1.7757
  160TMC2    H1 2443   3.996   0.747   1.594 -1.0288  0.8781 -1.8391
  160TMC2    H2 2444   4.022   1.009   1.915  1.4530  0.3199 -1.8934
  160TMC2    C7 2445   4.145   0.866   1.756  0.5435  0.0039 -0.1096
  160TMC2    C8 2446   3.805   1.162   1.860 -0.9703  0.3045 -0.1371
  160TMC2    O1 2447   4.189   0.855   1.866  0.5061 -0.1313 -0.0848
  160TMC2    O2 2448   3.895   1.223   1.908  0.3106 -0.7520  0.2904
  160TMC2    O5 2449   3.699   1.210   1.787 -0.0599  0.0312 -0.2675
  160TMC2    H5 2450   3.627   1.144   1.782 -0.1683  0.2288 -1.3552
  161MPD2     C 2451   3.548   0.710   1.312 -0.4322 -0.6231  0.2528
  161MPD2    C1 2452   3.557   0.840   1.357 -0.5311  0.5618  0.0499
  161MPD2    C2 2453   3.459   0.932   1.318 -0.5432 -0.0239  0.1231
  161MPD2    C3 2454   3.351   0.897   1.234  0.5923 -0.1518 -0.2094
  161MPD2    C4 2455   3.334   0.762   1.202 -0.2895  0.3516 -0.4529
  161MPD2    C5 2456   3.433   0.674   1.243 -0.1583 -0.2028 -0.1789
  161MPD2     H 2457   3.476   1.036   1.345  3.8164 -0.0105 -2.6631
  161MPD2    H1 2458   3.254   0.731   1.136  0.6227 -1.3964 -0.7394
  161MPD2    H2 2459   3.628   0.637   1.315 -0.9003 -1.1872 -0.7631
  161MPD2    H3 2460   3.422   0.568   1.221 -0.6605  0.2200 -1.8991
  161MPD2     N 2461   3.260   0.987   1.178  0.1016 -0.0264 -0.0226
  161MPD2    H5 2462   3.181   0.949   1.127 -0.5370  0.6766  0.4473
  161MPD2    N1 2463   3.657   0.884   1.448 -0.0373 -0.6487 -0.3875
  161MPD2    H7 2464   3.667   0.983   1.464 -3.4840 -0.8811  3.2717
  162TMC2    C1 2465   1.660   2.997   1.065  0.0252 -0.0317  0.6977
  162TMC2    C2 2466   1.550   3.072   1.022  0.6336  0.2133  0.6474
  162TMC2    C3 2467   1.472   3.129   1.113  0.1633  0.6698  0.2530
  162TMC2    C4 2468   1.680   2.973   1.204 -0.0298  0.5761 -0.3561
  162TMC2    C5 2469   1.581   3.014   1.284  0.6054 -0.0957 -0.3826
  162TMC2    C6 2470   1.478   3.097   1.247 -0.3539  0.7317  0.4187
  162TMC2     C 2471   1.769   2.954   0.973 -0.3393 -0.0862 -0.3621
  162TMC2     O 2472   1.862   2.885   1.018  0.1164  0.2861  0.1917
  162TMC2     H 2473   1.545   3.102   0.918  1.5881 -0.8541  0.3013
  162TMC2    H1 2474   1.768   2.926   1.245 -1.3477 -1.0171  0.6240
  162TMC2    H2 2475   1.412   3.149   1.315 -1.0446  0.1655  0.1763
  162TMC2    C7 2476   1.605   3.005   1.427  0.3768  0.2089 -0.8016
  162TMC2    C8 2477   1.381   3.229   1.072  0.7522  0.7370  0.1941
  162TMC2    O1 2478   1.525   3.064   1.498  0.8750  0.2073 -0.2951
  162TMC2    O2 2479   1.409   3.324   0.998  0.1439 -0.4013 -0.1545
  162TMC2    O5 2480   1.272   3.155   1.046 -0.5553  0.2490  0.3415
  162TMC2    H5 2481   1.279   3.062   1.076  0.5317 -0.4248 -1.9593
  163MPD2     C 2482   2.014   2.996   0.514 -0.1085  0.4024 -0.3013
  163MPD2    C1 2483   2.032   2.907   0.615  0.8510  0.7867 -0.9204
  163MPD2    C2 2484   1.957   2.922   0.731  0.8876 -0.5005  0.3906
  163MPD2    C3 2485   1.859   3.014   0.742 -0.3164  0.0173  0.3095
  163MPD2    C4 2486   1.838   3.100   0.633 -0.5364 -0.4506  0.5653
  163MPD2    C5 2487   1.931   3.102   0.533  0.4160 -0.7003 -0.4925
  163MPD2     H 2488   1.971   2.859   0.818  1.5187 -0.0072  0.6417
  163MPD2    H1 2489   1.784   3.195   0.633  3.6114  1.9108  0.5471
  163MPD2    H2 2490   2.088   2.995   0.435  0.9316  1.1824  0.6595
  163MPD2    H3 2491   1.929   3.178   0.455  4.2695  0.1691  0.2574
  163MPD2     N 2492   1.764   3.023   0.852  0.0568 -0.3019 -0.2518
  163MPD2    H5 2493   1.697   3.100   0.848 -1.6752 -1.8493 -1.2530
  163MPD2    N1 2494   2.132   2.809   0.602 -0.5394  0.2353 -0.8916
  163MPD2    H7 2495   2.189   2.809   0.518  0.5707  1.0685 -0.1498
  164TCq2    C1 2496   2.800   1.477  11.304 -0.7147 -0.0755 -0.2259
  164TCq2    O2 2497   2.761   1.488  11.418  0.6031 -0.0915  0.0709
  164TCq2    C2 2498   2.729   1.553  11.204  0.4422  0.3684  0.0484
  164TCq2    C3 2499   2.766   1.540  11.067 -0.5593 -0.0557  0.4146
  164TCq2    C4 2500   2.705   1.628  10.977 -0.4302 -0.2248 -0.4664
  164TCq2    C5 2501   2.632   1.738  11.018 -0.1274 -0.1066 -0.7453
  164TCq2    C6 2502   2.623   1.752  11.152 -0.0978 -0.3654 -0.2903
  164TCq2    C7 2503   2.659   1.657  11.243 -0.1490  0.0913 -0.6083
  164TCq2    C8 2504   2.536   1.862  11.200  0.4410 -0.3330 -0.5508
  164TCq2    O4 2505   2.501   1.942  11.115  0.3911 -0.2784  0.2275
  164TCq2    C9 2506   2.735   1.615  10.837 -0.7684  0.0970 -0.1908
  164TCq2    O5 2507   2.763   1.722  10.775  0.1948  0.0736  0.0969
  164TCq2    O6 2508   2.755   1.501  10.791 -0.6320 -0.1368  0.1153
  164TCq2    H2 2509   2.831   1.468  11.020  2.0710  2.2582  0.5541
  164TCq2    H3 2510   2.591   1.808  10.945 -0.4259 -0.3382 -0.7985
  164TCq2    H4 2511   2.668   1.678  11.349 -1.2967 -1.4541 -0.1971
  165MPD2     C 2512   3.075   0.290   1.244  0.2363 -0.3544  0.4942
  165MPD2    C1 2513   3.128   0.228   1.357  0.5889  0.2079 -0.4213
  165MPD2    C2 2514   3.199   0.302   1.446 -0.0648 -1.0059 -0.1103
  165MPD2    C3 2515   3.207   0.441   1.431  0.8900  0.5614 -0.5992
  165MPD2    C4 2516   3.144   0.503   1.330 -0.0661 -0.0633  0.5726
  165MPD2    C5 2517   3.086   0.426   1.231  0.3167 -0.0303  0.4135
  165MPD2     H 2518   3.242   0.254   1.532  0.1914  1.0841  0.9391
  165MPD2    H1 2519   3.140   0.611   1.320 -0.4537 -0.1168  0.1705
  165MPD2    H2 2520   3.031   0.231   1.164 -0.8483 -0.9969  1.5868
  165MPD2    H3 2521   3.053   0.470   1.137  1.8114 -0.7709 -0.4556
  165MPD2     N 2522   3.290   0.523   1.515  0.2112 -0.6278 -0.5552
  165MPD2    H5 2523   3.270   0.622   1.506  0.9369 -0.1460  3.1010
  165MPD2    N1 2524   3.119   0.086   1.368 -0.2249  0.5294  0.0330
  165MPD2    H7 2525   3.073   0.043   1.288 -1.9426 -0.3432  1.4786
  166TCq2    C1 2526   3.370   0.479   1.619  0.4809 -0.3936  0.2674
  166TCq2    O2 2527   3.397   0.367   1.648 -0.0793  0.2409  0.1772
  166TCq2    C2 2528   3.451   0.581   1.678 -0.0162  0.4646  0.0584
  166TCq2    C3 2529   3.410   0.714   1.671  0.4355  0.7360 -0.0751
  166TCq2    C4 2530   3.469   0.803   1.756  0.4872 -0.1644  0.2118
  166TCq2    C5 2531   3.563   0.766   1.852 -0.2830 -0.3729 -0.3121
  166TCq2    C6 2532   3.601   0.633   1.854 -0.2598  0.2792 -0.0692
  166TCq2    C7 2533   3.548   0.541   1.769 -0.0275 -0.6207 -0.0989
  166TCq2    C8 2534   3.732   0.601   1.913 -0.3897  0.0789 -0.0569
  166TCq2    O4 2535   3.782   0.496   1.873  0.5709  0.0957 -0.3780
  166TCq2    C9 2536   3.435   0.941   1.742 -0.2461 -0.5846 -0.8511
  166TCq2    O5 2537   3.502   1.030   1.799  0.1924  0.7101 -0.8204
  166TCq2    O6 2538   3.332   0.957   1.674  0.1894 -0.4341 -0.4364
  166TCq2    H2 2539   3.335   0.757   1.606  0.5992  1.1033 -0.0201
  166TCq2    H3 2540   3.604   0.853   1.901  0.5039 -0.0729 -1.5030
  166TCq2    H4 2541   3.580   0.438   1.784 -0.4226 -0.5146  1.4426
  167TMC2    C1 2542   1.813   1.877  12.684  0.1223  0.2701 -0.2158
  167TMC2    C2 2543   1.726   1.899  12.785 -0.2608 -0.2687  0.0834
  167TMC2    C3 2544   1.705   1.797  12.871 -0.0683  0.0087  0.7886
  167TMC2    C4 2545   1.875   1.759  12.664  0.3756  0.7993  0.5622
  167TMC2    C5 2546   1.852   1.662  12.752  0.3221  0.0360 -0.0607
  167TMC2    C6 2547   1.782   1.686  12.866 -0.0800 -0.2646 -0.7738
  167TMC2     C 2548   1.799   1.981  12.581 -0.3607 -0.0848 -0.0217
  167TMC2     O 2549   1.762   2.096  12.614  0.4698 -0.0056 -0.3397
  167TMC2     H 2550   1.675   1.994  12.790 -1.5785 -0.9504 -0.5098
  167TMC2    H1 2551   1.942   1.733  12.582  2.6447  0.3892  2.5585
  167TMC2    H2 2552   1.761   1.617  12.947  2.8458 -0.7500 -0.4325
  167TMC2    C7 2553   1.912   1.526  12.741  0.8685 -0.7909 -0.1753
  167TMC2    C8 2554   1.619   1.809  12.983  0.0215  0.1073  0.2875
  167TMC2    O1 2555   1.883   1.453  12.835 -0.7076  0.5990  0.1963
  167TMC2    O2 2556   1.604   1.719  13.065 -0.5070 -0.7739 -0.4857
  167TMC2    O5 2557   1.522   1.888  12.934 -0.2954 -0.6912 -0.2823
  167TMC2    H5 2558   1.539   1.934  12.849  0.8673  1.3303  1.0401
  168MPD2     C 2559   1.745   2.113  12.318 -0.4268 -0.0009 -0.1913
  168MPD2    C1 2560   1.791   1.986  12.337  0.6532 -0.3905 -0.1762
  168MPD2    C2 2561   1.823   1.909  12.231 -0.3378  0.4366 -0.2718
  168MPD2    C3 2562   1.831   1.965  12.101  0.1181  0.2472 -0.3960
  168MPD2    C4 2563   1.781   2.096  12.080  0.0447 -0.6858 -0.1390
  168MPD2    C5 2564   1.734   2.162  12.190  0.0463 -0.3323  0.4131
  168MPD2     H 2565   1.845   1.805  12.254 -1.9923  0.4308  1.3238
  168MPD2    H1 2566   1.768   2.140  11.982  1.0623  1.1369  0.5511
  168MPD2    H2 2567   1.703   2.165  12.403  1.2192  0.9694  0.0261
  168MPD2    H3 2568   1.697   2.263  12.185  2.2697  0.6414  3.9513
  168MPD2     N 2569   1.866   1.887  11.988 -0.3690  0.5328  0.3030
  168MPD2    H5 2570   1.878   1.922  11.893  2.0817 -1.9920 -0.3114
  168MPD2    N1 2571   1.803   1.920  12.459  0.1150  0.1391  0.3721
  168MPD2    H7 2572   1.825   1.821  12.459  0.8299  0.2939 -0.2853
  169MPD1     C 2573   0.030   1.833   8.753 -0.8425 -0.3717 -0.5883
  169MPD1    C1 2574   4.649   1.739   8.781 -0.7766  0.1469  0.3283
  169MPD1    C2 2575   4.664   1.607   8.757  0.7469  0.0306 -0.4837
  169MPD1    C3 2576   0.073   1.566   8.725 -0.0970 -0.1924  0.4369
  169MPD1    C4 2577   0.165   1.652   8.687 -1.2312 -0.2387  0.4705
  169MPD1    C5 2578   0.148   1.788   8.695 -0.1747  0.0332  0.3355
  169MPD1     H 2579   4.588   1.532   8.775  0.1670  0.5351 -0.8708
  169MPD1    H1 2580   0.259   1.626   8.639 -2.0718  0.2858 -1.4377
  169MPD1    H2 2581   0.026   1.941   8.763 -0.2135 -0.4939  1.0151
  169MPD1    H3 2582   0.230   1.855   8.676 -0.7588  0.1104 -1.8298
  169MPD1     N 2583   0.098   1.427   8.711  0.6355  0.1260  0.8839
  169MPD1    H5 2584   0.027   1.357   8.726 -0.2134  1.0520  1.1985
  169MPD1    N1 2585   4.517   1.783   8.802 -0.6360 -0.1828 -0.1080
  169MPD1    H6 2586   4.468   1.703   8.843  2.0901 -1.2778  1.0240
  169MPD1    H7 2587   4.512   1.853   8.876 -4.8355 -0.8048  0.2423
  170MPD1     C 2588   3.216   3.466  12.960  0.0706 -0.5306  0.5098
  170MPD1    C1 2589   3.313   3.505  13.058  0.2726  0.5776  0.3998
  170MPD1    C2 2590   3.284   3.601  13.152  0.6300  0.3968 -0.6287
  170MPD1    C3 2591   3.164   3.655  13.163 -0.2294  0.2974  0.3303
  170MPD1    C4 2592   3.065   3.617  13.076 -0.7267  0.7380  0.2500
  170MPD1    C5 2593   3.092   3.524  12.969  0.4968  0.2068  0.4407
  170MPD1     H 2594   3.364   3.637  13.216  1.2553  2.2051 -2.4307
  170MPD1    H1 2595   2.965   3.657  13.075 -1.1932 -0.3310  3.5486
  170MPD1    H2 2596   3.240   3.399  12.878  0.2211  0.0856  0.0444
  170MPD1    H3 2597   3.013   3.486  12.904 -0.1859  2.1693  0.1277
  170MPD1     N 2598   3.140   3.755  13.260  0.1552 -0.3142 -0.1360
  170MPD1    H5 2599   3.218   3.769  13.324  0.2488 -1.9108  0.0865
  170MPD1    N1 2600   3.445   3.460  13.049  0.4357 -0.2413  0.2042
  170MPD1    H6 2601   3.494   3.480  13.136  0.8189  0.3922 -0.1564
  170MPD1    H7 2602   3.439   3.359  13.039 -1.6179 -0.1440  0.4634
  171MPD1     C 2603   1.580   0.583  15.242  0.6078  0.8164  0.2214
  171MPD1    C1 2604   1.547   0.448  15.229 -0.2501  0.0233 -0.7932
  171MPD1    C2 2605   1.591   0.367  15.325  0.1740  0.1176  0.0134
  171MPD1    C3 2606   1.674   0.406  15.430  0.2809 -0.0480  0.0900
  171MPD1    C4 2607   1.707   0.539  15.442 -0.4091 -0.3647 -0.6017
  171MPD1    C5 2608   1.659   0.630  15.346  0.0638 -0.0653 -0.5818
  171MPD1     H 2609   1.557   0.264  15.333 -0.6122  0.2089 -1.9360
  171MPD1    H1 2610   1.766   0.582  15.522  1.0231  0.6263 -2.2127
  171MPD1    H2 2611   1.540   0.655  15.171  1.1558  2.8062  1.9375
  171MPD1    H3 2612   1.672   0.737  15.361  1.3978 -0.4818  1.2852
  171MPD1     N 2613   1.727   0.320  15.530 -0.4193 -0.0142  0.1219
  171MPD1    H5 2614   1.779   0.358  15.608  0.8672 -0.3824 -0.5550
  171MPD1    N1 2615   1.450   0.413  15.135 -0.3690  0.8981  0.6341
  171MPD1    H6 2616   1.468   0.319  15.100 -2.2335  1.8010 -2.7328
  171MPD1    H7 2617   1.460   0.473  15.053  1.2503  3.3858  2.6343
  172MPD1     C 2618   0.730   4.536   0.252 -0.3967 -0.5513  0.3912
  172MPD1    C1 2619   0.685   4.654   0.191 -0.6926  0.3151  0.0459
  172MPD1    C2 2620   0.760   0.047   0.191 -0.5776  0.0350 -0.1413
  172MPD1    C3 2621   0.873   0.054   0.265  0.0674 -0.2227  0.4420
  172MPD1    C4 2622   0.917   4.668   0.335 -0.7130 -0.9411  0.5339
  172MPD1    C5 2623   0.841   4.548   0.337  0.2367  0.0370  0.3760
  172MPD1     H 2624   0.733   0.136   0.136  1.8604 -0.4949 -2.2023
  172MPD1    H1 2625   1.007   4.665   0.395 -0.2813 -1.8858 -0.1591
  172MPD1    H2 2626   0.680   4.441   0.244  2.1950 -1.9564  0.6579
  172MPD1    H3 2627   0.879   4.464   0.395 -2.6555 -0.3653  1.7018
  172MPD1     N 2628   0.953   0.168   0.276 -0.0184 -0.3591  0.3605
  172MPD1    H5 2629   1.033   0.156   0.337  0.2278  0.3004  0.1655
  172MPD1    N1 2630   0.580   4.657   0.105 -0.3293  0.2282  0.5557
  172MPD1    H6 2631   0.511   4.583   0.120 -0.9318 -0.0028 -3.2399
  172MPD1    H7 2632   0.524   0.016   0.134 -0.7110 -0.6512  2.2244
  173MPD1     C 2633   2.744   4.234  13.859 -0.6373  0.6575  0.2211
  173MPD1    C1 2634   2.651   4.246  13.757 -0.2961 -0.1737 -0.0762
  173MPD1    C2 2635   2.523   4.204  13.788 -0.9110 -0.1147 -0.6851
  173MPD1    C3 2636   2.489   4.136  13.900 -0.4879 -0.7124 -0.2925
  173MPD1    C4 2637   2.585   4.122  14.001  0.5248 -0.1183  0.1199
  173MPD1    C5 2638   2.710   4.177  13.981 -0.1210 -0.1101  0.1400
  173MPD1     H 2639   2.457   4.233  13.707  0.0032  0.0597 -1.3690
  173MPD1    H1 2640   2.567   4.084  14.101  1.1782 -0.7745 -0.0094
  173MPD1    H2 2641   2.844   4.274  13.846  0.2188 -1.5367  0.0778
  173MPD1    H3 2642   2.773   4.176  14.069  0.4882  1.6319 -0.2718
  173MPD1     N 2643   2.354   4.105  13.920 -0.2314 -0.6728  0.3057
  173MPD1    H5 2644   2.287   4.137  13.851 -1.7312 -1.6587  1.2906
  173MPD1    N1 2645   2.676   4.316  13.638 -0.0554 -0.6765 -0.3103
  173MPD1    H6 2646   2.601   4.308  13.569 -0.4803 -0.5275  0.1309
  173MPD1    H7 2647   2.764   4.292  13.592 -0.2524 -3.1210  0.5591
  174MPD1     C 2648   2.381   3.368  14.345  0.1043 -0.2206 -1.1017
  174MPD1    C1 2649   2.253   3.332  14.301 -0.0900 -0.0506  0.2151
  174MPD1    C2 2650   2.185   3.435  14.231 -0.0191 -0.2057 -0.0502
  174MPD1    C3 2651   2.232   3.562  14.222 -0.0128  0.2893  0.2061
  174MPD1    C4 2652   2.358   3.582  14.264 -0.5793 -0.0694 -0.2445
  174MPD1    C5 2653   2.433   3.492  14.321 -0.0382  0.4946  0.1047
  174MPD1     H 2654   2.090   3.410  14.185 -0.1233  0.0313  0.0355
  174MPD1    H1 2655   2.401   3.681  14.258 -3.4752  1.2681  1.7025
  174MPD1    H2 2656   2.445   3.295  14.394  0.2661 -0.0807 -1.1047
  174MPD1    H3 2657   2.536   3.508  14.352  0.8178 -1.5211 -1.6577
  174MPD1     N 2658   2.174   3.671  14.150  0.0067  0.4112  0.0552
  174MPD1    H5 2659   2.236   3.749  14.134 -1.5382  1.2679 -1.8322
  174MPD1    N1 2660   2.207   3.201  14.305 -1.2631  0.0354 -0.0283
  174MPD1    H6 2661   2.107   3.187  14.302 -1.6574  2.4639  1.2358
  174MPD1    H7 2662   2.251   3.164  14.389  1.7924  1.7774 -0.8423
  175MPD1     C 2663   0.449   0.519  15.660  0.1491  0.3706  0.0893
  175MPD1    C1 2664   0.334   0.482  15.715 -0.4682 -0.0384  0.0595
  175MPD1    C2 2665   0.328   0.501  15.854 -0.3005  0.2585 -0.4397
  175MPD1    C3 2666   0.432   0.537  15.936 -0.5106  0.3498 -0.3638
  175MPD1    C4 2667   0.543   0.580  15.870  0.0378  0.0324 -1.1614
  175MPD1    C5 2668   0.546   0.574  15.739 -0.0700  0.1678  0.0115
  175MPD1     H 2669   0.237   0.476  15.908  0.1487 -0.5734 -0.0855
  175MPD1    H1 2670   0.636   0.619  15.911 -0.0854  0.0704 -0.9144
  175MPD1    H2 2671   0.461   0.504  15.553 -1.3518  0.1050 -0.0349
  175MPD1    H3 2672   0.639   0.597  15.688 -0.0268 -0.2219 -0.0797
  175MPD1     N 2673   0.429   0.549  16.076  0.1071 -0.0608 -0.5130
  175MPD1    H5 2674   0.497   0.607  16.125  1.1454 -0.8249 -1.0517
  175MPD1    N1 2675   0.227   0.448  15.633  0.3919 -0.9045  0.5207
  175MPD1    H6 2676   0.268   0.410  15.547 -1.3962  2.3403 -1.7320
  175MPD1    H7 2677   0.170   0.378  15.680 -1.7026 -1.0728 -2.3120
  176MPD1     C 2678   2.253   2.517   0.123  0.3327  0.0610 -0.4911
  176MPD1    C1 2679   2.134   2.572   0.153  0.3415  0.2450 -0.3859
  176MPD1    C2 2680   2.093   2.678   0.070  0.4287 -0.3877  0.1357
  176MPD1    C3 2681   2.153   2.709  17.638  0.2583  0.7169  0.1705
  176MPD1    C4 2682   2.270   2.652  17.610 -0.3101  0.6336  0.2411
  176MPD1    C5 2683   2.323   2.553   0.008  0.1981 -0.1426  0.4274
  176MPD1     H 2684   2.001   2.732   0.092 -0.8429 -2.4100 -0.2237
  176MPD1    H1 2685   2.324   2.678  17.519  2.9906 -1.0013  1.7107
  176MPD1    H2 2686   2.297   2.440   0.185 -0.4368  1.9130  2.3717
  176MPD1    H3 2687   2.413   2.497  17.673 -0.7995 -0.6466 -2.3129
  176MPD1     N 2688   2.080   2.799  17.561 -0.1425  0.2750 -0.5383
  176MPD1    H5 2689   2.002   2.843  17.610  2.3656  1.2099  2.6615
  176MPD1    N1 2690   2.082   2.560   0.283  0.5191 -0.8703 -0.3809
  176MPD1    H6 2691   2.110   2.469   0.319 -1.2731 -1.4625 -0.4897
  176MPD1    H7 2692   1.983   2.578   0.296  0.3963 -1.1334 -0.9516
  177MPD1     C 2693   0.821   1.857   9.949  0.6878  0.0369  0.0507
  177MPD1    C1 2694   0.733   1.809   9.857 -0.1972 -0.8344  0.2286
  177MPD1    C2 2695   0.688   1.890   9.758  0.3574 -0.8793  0.8196
  177MPD1    C3 2696   0.709   2.027   9.757 -0.0819 -0.6657  0.8515
  177MPD1    C4 2697   0.778   2.081   9.868  0.5132 -0.1231  0.0534
  177MPD1    C5 2698   0.840   1.995   9.953 -0.0904  0.1615 -0.3432
  177MPD1     H 2699   0.629   1.846   9.678  0.2143 -0.1413  0.5148
  177MPD1    H1 2700   0.807   2.181   9.898 -1.0225  0.7440 -1.3401
  177MPD1    H2 2701   0.872   1.795  10.022  2.1901  1.3796  0.1502
  177MPD1    H3 2702   0.890   2.026  10.043  1.1056 -2.3400 -0.1281
  177MPD1     N 2703   0.681   2.106   9.641 -0.9110  0.1010  0.0828
  177MPD1    H5 2704   0.639   2.053   9.565 -0.7017  2.5321 -1.7228
  177MPD1    N1 2705   0.711   1.670   9.846  0.5409  0.0611  1.0363
  177MPD1    H6 2706   0.727   1.623   9.935  0.3006  0.4111  1.2651
  177MPD1    H7 2707   0.615   1.653   9.818  0.8730  1.1244 -0.7094
  178MPD1     C 2708   2.577   3.726   0.290  0.4795  0.2486 -0.1069
  178MPD1    C1 2709   2.524   3.640   0.194 -0.3377  0.0699  0.5285
  178MPD1    C2 2710   2.571   3.646   0.063  0.1001  0.4091 -0.0679
  178MPD1    C3 2711   2.683   3.725   0.036  0.6351  0.5255  0.0657
  178MPD1    C4 2712   2.733   3.814   0.127  0.8442 -0.4726 -0.0083
  178MPD1    C5 2713   2.679   3.810   0.254 -0.7372 -0.0642  0.5205
  178MPD1     H 2714   2.529   3.573  17.681  0.1069 -0.0103  0.3747
  178MPD1    H1 2715   2.824   3.868   0.104  0.6931 -0.4330 -0.5091
  178MPD1    H2 2716   2.535   3.734   0.390  2.1280 -1.2932  0.7199
  178MPD1    H3 2717   2.717   3.885   0.322 -1.4274 -0.0549  0.8909
  178MPD1     N 2718   2.740   3.723  17.594  0.1067 -0.8653  0.1120
  178MPD1    H5 2719   2.813   3.789  17.569 -1.3511  0.6637 -0.0626
  178MPD1    N1 2720   2.410   3.565   0.230  0.0558 -0.5157 -0.2364
  178MPD1    H6 2721   2.401   3.545   0.329 -2.9922  0.5469 -0.3094
  178MPD1    H7 2722   2.406   3.475   0.183 -0.4487 -0.1124 -0.9659
  179MPD1     C 2723   2.692   1.621  15.157  0.3178  0.6573  0.1714
  179MPD1    C1 2724   2.804   1.564  15.212 -0.1983 -0.0035  0.3991
  179MPD1    C2 2725   2.784   1.448  15.286 -0.0872  0.5542  0.0749
  179MPD1    C3 2726   2.662   1.382  15.297 -0.2425  0.3305 -0.1806
  179MPD1    C4 2727   2.562   1.432  15.225 -0.6278 -1.2388  0.7105
  179MPD1    C5 2728   2.576   1.553  15.163 -0.2678  0.1294 -0.1951
  179MPD1     H 2729   2.875   1.414  15.334 -0.1113 -1.7726 -1.5311
  179MPD1    H1 2730   2.470   1.378  15.205 -0.2612 -0.7344 -2.2900
  179MPD1    H2 2731   2.690   1.719  15.112 -2.7558  0.6388  0.2282
  179MPD1    H3 2732   2.493   1.582  15.101  0.6880 -0.2005 -1.6291
  179MPD1     N 2733   2.637   1.263  15.373  0.0358  0.1073 -0.0351
  179MPD1    H5 2734   2.544   1.224  15.364 -0.1348  1.1090 -2.6877
  179MPD1    N1 2735   2.931   1.637  15.212  0.0920  0.4903 -0.0203
  179MPD1    H6 2736   3.009   1.577  15.235  0.6076  0.2041 -2.5859
  179MPD1    H7 2737   2.953   1.687  15.126 -0.3606  0.3769 -0.2022
  180MPD1     C 2738   1.828   3.264  14.411 -0.5298 -0.0203  0.5886
  180MPD1    C1 2739   1.911   3.176  14.475  0.2977 -0.4994  0.0078
  180MPD1    C2 2740   1.937   3.055  14.412  0.3591 -0.6791 -0.2652
  180MPD1    C3 2741   1.899   3.029  14.285 -0.4159 -1.0140 -0.4698
  180MPD1    C4 2742   1.826   3.125  14.219 -0.6191  0.2190  0.3292
  180MPD1    C5 2743   1.787   3.233  14.284 -0.5614  0.4599  0.2429
  180MPD1     H 2744   1.995   2.980  14.465  2.0171 -0.6632 -2.0263
  180MPD1    H1 2745   1.783   3.116  14.120 -0.8971  1.1898  0.3627
  180MPD1    H2 2746   1.807   3.361  14.455 -0.2619  0.5387 -0.5291
  180MPD1    H3 2747   1.719   3.300  14.234 -1.5400 -0.8034 -0.1070
  180MPD1     N 2748   1.935   2.912  14.222  0.3205 -0.2826 -0.7457
  180MPD1    H5 2749   2.008   2.864  14.273 -0.3468 -1.2878 -0.7538
  180MPD1    N1 2750   1.951   3.196  14.611 -0.8255 -0.2028  0.2469
  180MPD1    H6 2751   1.989   3.290  14.619  0.6177 -0.9398  1.8328
  180MPD1    H7 2752   2.020   3.126  14.639  3.2761  3.9712  0.4930
  181MPD1     C 2753   4.256   3.255   9.308 -0.3365  0.0141 -0.1569
  181MPD1    C1 2754   4.384   3.303   9.260 -0.0658  0.3422  0.3950
  181MPD1    C2 2755   4.446   3.413   9.319  0.1092  0.1408 -0.3479
  181MPD1    C3 2756   4.383   3.480   9.427 -0.5164  0.4668  0.0138
  181MPD1    C4 2757   4.250   3.434   9.465  0.1029 -0.6546  0.1423
  181MPD1    C5 2758   4.194   3.324   9.408 -0.5978  0.6516  0.2985
  181MPD1     H 2759   4.545   3.441   9.286  0.4386  0.0972  0.6038
  181MPD1    H1 2760   4.190   3.495   9.532  2.0087  0.4419  0.8546
  181MPD1    H2 2761   4.197   3.172   9.269  1.0141 -1.4040  0.8048
  181MPD1    H3 2762   4.091   3.291   9.420  0.1340 -1.2911  1.1173
  181MPD1     N 2763   4.431   3.592   9.492 -0.7770 -0.1237 -0.5392
  181MPD1    H5 2764   4.373   3.638   9.562 -1.8086  0.4066 -1.7320
  181MPD1    N1 2765   4.448   3.216   9.164 -0.1857 -0.0877  0.1316
  181MPD1    H6 2766   4.383   3.166   9.103 -2.4890  2.0228  0.8763
  181MPD1    H7 2767   4.517   3.252   9.098 -0.6223  0.9164  0.2172
  182MPD1     C 2768   1.606   4.347   2.350  0.0876 -0.8283 -0.3656
  182MPD1    C1 2769   1.554   4.446   2.426 -0.1477 -0.2114  0.4232
  182MPD1    C2 2770   1.421   4.481   2.394 -0.2332  0.2930 -0.1976
  182MPD1    C3 2771   1.359   4.430   2.283 -0.1113  0.5053 -0.4489
  182MPD1    C4 2772   1.426   4.347   2.202  0.2667  0.2131  0.1764
  182MPD1    C5 2773   1.546   4.297   2.236  0.2552  0.5736  0.1479
  182MPD1     H 2774   1.375   4.558   2.456  1.3720  0.9565  0.1754
  182MPD1    H1 2775   1.386   4.324   2.104 -0.5445  0.1914  0.5153
  182MPD1    H2 2776   1.697   4.300   2.386  1.0173  0.4318 -1.0335
  182MPD1    H3 2777   1.593   4.216   2.182 -2.8148 -0.7693 -0.4921
  182MPD1     N 2778   1.230   4.467   2.235  0.1766 -0.4386  0.4382
  182MPD1    H5 2779   1.202   4.419   2.150 -0.0711 -0.3479  0.4696
  182MPD1    N1 2780   1.626   4.503   2.536  0.0071  0.0894 -0.0959
  182MPD1    H6 2781   1.606   4.600   2.557 -1.2308 -0.2210  0.2137
  182MPD1    H7 2782   1.725   4.498   2.512  0.0248 -1.5369  0.3090
  183MPD1     C 2783   2.126   4.132   9.538  0.1994 -0.3016 -0.9942
  183MPD1    C1 2784   2.048   4.089   9.645  0.0716 -0.2061 -0.7897
  183MPD1    C2 2785   1.910   4.102   9.632  0.4995  0.0074 -0.4453
  183MPD1    C3 2786   1.846   4.146   9.515  0.0448 -0.2319  0.3428
  183MPD1    C4 2787   1.922   4.174   9.407 -0.4429 -0.2006  0.2110
  183MPD1    C5 2788   2.061   4.177   9.425  0.4266 -0.3109 -0.1520
  183MPD1     H 2789   1.850   4.076   9.719 -0.1364  1.6994 -0.3746
  183MPD1    H1 2790   1.889   4.202   9.308  0.8875  0.2749 -0.0975
  183MPD1    H2 2791   2.234   4.118   9.541  0.2013  0.3694  2.1549
  183MPD1    H3 2792   2.125   4.213   9.345 -1.2380  1.4977 -0.6712
  183MPD1     N 2793   1.705   4.147   9.520  0.3348 -0.2024  0.4294
  183MPD1    H5 2794   1.655   4.116   9.603 -1.1659  2.5549  0.5603
  183MPD1    N1 2795   2.104   4.027   9.762  0.3438  0.1013  0.1580
  183MPD1    H6 2796   2.059   4.062   9.847  0.8743 -0.9459  0.8596
  183MPD1    H7 2797   2.201   4.058   9.758 -0.3299  2.3375  1.0463
  184MPD1     C 2798   0.488   1.163   9.866 -0.1655 -0.1630  0.2781
  184MPD1    C1 2799   0.518   1.287   9.930  0.1458 -0.9615 -0.3953
  184MPD1    C2 2800   0.461   1.397   9.870 -0.7531  0.4853 -0.6984
  184MPD1    C3 2801   0.379   1.381   9.757 -0.5511  0.0636  0.5367
  184MPD1    C4 2802   0.343   1.259   9.701  0.1972 -0.5163 -0.8143
  184MPD1    C5 2803   0.402   1.148   9.759  0.3181 -0.0437 -0.0158
  184MPD1     H 2804   0.486   1.497   9.905  2.3377 -0.3709 -0.4706
  184MPD1    H1 2805   0.289   1.245   9.608  0.9700 -3.0442 -0.9126
  184MPD1    H2 2806   0.529   1.077   9.917  0.9678  2.2243  3.3701
  184MPD1    H3 2807   0.374   1.052   9.718  1.8308 -1.0224  1.2277
  184MPD1     N 2808   0.330   1.495   9.682 -0.1275  0.6555 -0.0081
  184MPD1    H5 2809   0.278   1.478   9.597  1.8753 -0.2398 -1.0804
  184MPD1    N1 2810   0.613   1.293  10.035  0.4494 -0.1084  0.5447
  184MPD1    H6 2811   0.607   1.208  10.090  2.4808 -0.8336 -0.3652
  184MPD1    H7 2812   0.594   1.371  10.098 -2.2973  0.8350 -1.4603
  185MPD1     C 2813   4.311   1.806   9.109 -0.5756  0.4419 -0.2527
  185MPD1    C1 2814   4.397   1.700   9.119 -0.0199 -0.3983 -0.0169
  185MPD1    C2 2815   4.502   1.707   9.204 -0.4931  0.3012  0.2340
  185MPD1    C3 2816   4.533   1.826   9.271  0.0410  0.2429  0.7265
  185MPD1    C4 2817   4.453   1.935   9.255 -0.5715  0.5950 -0.3595
  185MPD1    C5 2818   4.340   1.919   9.180 -0.0752  0.3743  0.2782
  185MPD1     H 2819   4.549   1.610   9.221 -1.0830  0.1128  0.7716
  185MPD1    H1 2820   4.473   2.029   9.304  1.2635 -0.4341  0.8416
  185MPD1    H2 2821   4.228   1.804   9.040 -0.6866  1.4044 -0.1427
  185MPD1    H3 2822   4.286   2.011   9.159 -0.7066 -0.2139 -0.6803
  185MPD1     N 2823   4.647   1.849   9.350  0.0032  0.6117 -0.0186
  185MPD1    H5 2824   4.650   1.941   9.394  0.0355 -1.1757  3.6893
  185MPD1    N1 2825   4.349   1.578   9.067  0.2565  0.4774 -0.4593
  185MPD1    H6 2826   4.290   1.593   8.986 -0.1496  0.8343 -0.0955
  185MPD1    H7 2827   4.430   1.522   9.039  1.2644  0.9921  1.3704
  186MPD1     C 2828   3.265   1.517  15.804 -0.1754  0.4615 -0.1817
  186MPD1    C1 2829   3.261   1.492  15.941 -0.1977 -0.2610 -0.3194
  186MPD1    C2 2830   3.217   1.594  16.029 -0.0011  0.0574  0.3819
  186MPD1    C3 2831   3.182   1.719  15.986  0.0352  0.2691 -0.3706
  186MPD1    C4 2832   3.190   1.742  15.847 -0.7048 -0.0228 -0.1517
  186MPD1    C5 2833   3.230   1.641  15.761 -0.0053  0.1772  0.2758
  186MPD1     H 2834   3.226   1.576  16.136 -0.5219 -0.1653  0.3901
  186MPD1    H1 2835   3.156   1.839  15.812  0.5236 -0.1973 -1.8508
  186MPD1    H2 2836   3.280   1.441  15.729  2.3775 -0.3117  1.1213
  186MPD1    H3 2837   3.222   1.672  15.658  1.4482 -0.7039 -0.0903
  186MPD1     N 2838   3.132   1.828  16.063 -0.4148 -0.7417 -0.2801
  186MPD1    H5 2839   3.113   1.919  16.022 -2.2795 -1.8739 -1.9220
  186MPD1    N1 2840   3.294   1.362  15.988 -0.0812  0.7207  0.5905
  186MPD1    H6 2841   3.254   1.342  16.079 -0.5507 -1.1678 -0.0346
  186MPD1    H7 2842   3.239   1.293  15.937 -0.5127  0.7525  1.0128
  187MPD1     C 2843   2.174   4.276   0.518  0.2109  0.2598 -0.0496
  187MPD1    C1 2844   2.248   4.376   0.455 -0.4659 -0.3587  0.5768
  187MPD1    C2 2845   2.227   4.396   0.320 -0.4502  0.1541 -0.0436
  187MPD1    C3 2846   2.136   4.317   0.251  0.0897  0.0676 -0.7549
  187MPD1    C4 2847   2.056   4.224   0.315 -0.1234  0.3991  0.2383
  187MPD1    C5 2848   2.078   4.206   0.452 -0.7166 -0.1247 -0.4553
  187MPD1     H 2849   2.302   4.457   0.271  0.7125  0.9698  2.6964
  187MPD1    H1 2850   1.981   4.166   0.262  2.0760 -2.6579  0.4673
  187MPD1    H2 2851   2.180   4.252   0.624  2.4834  1.3709  0.0715
  187MPD1    H3 2852   2.019   4.132   0.506 -0.6690  0.1752  0.0058
  187MPD1     N 2853   2.134   4.308   0.107  0.5070 -0.7234 -0.3929
  187MPD1    H5 2854   2.066   4.243   0.071 -0.8980 -0.9942  2.7665
  187MPD1    N1 2855   2.354   4.442   0.516 -0.6015  0.4798  0.1781
  187MPD1    H6 2856   2.352   4.455   0.617  0.3275  1.7107  0.0494
  187MPD1    H7 2857   2.369   4.532   0.470  2.9419 -0.5843 -0.7640
  188MPD1     C 2858   2.208   2.818  10.523  0.8761  0.5188  0.5590
  188MPD1    C1 2859   2.317   2.751  10.570  0.7747 -0.0114 -0.3364
  188MPD1    C2 2860   2.333   2.628  10.508  0.8891  0.2194 -0.3546
  188MPD1    C3 2861   2.254   2.582  10.398 -0.0192 -0.4990 -0.2789
  188MPD1    C4 2862   2.170   2.672  10.341 -0.2055  0.0382 -0.3824
  188MPD1    C5 2863   2.142   2.782  10.406  0.0695  0.5851 -0.3053
  188MPD1     H 2864   2.408   2.555  10.535 -1.1469 -0.8053  2.5499
  188MPD1    H1 2865   2.102   2.637  10.265  1.8834  0.0766 -2.2455
  188MPD1    H2 2866   2.190   2.919  10.559  0.2343  0.1691  1.1980
  188MPD1    H3 2867   2.059   2.838  10.366 -1.1540 -2.1471 -1.6157
  188MPD1     N 2868   2.261   2.453  10.347  0.1821  0.5219 -0.4959
  188MPD1    H5 2869   2.192   2.426  10.278  1.0092 -0.2330 -1.0308
  188MPD1    N1 2870   2.391   2.795  10.677 -0.2983 -0.6356  0.3136
  188MPD1    H6 2871   2.486   2.764  10.659 -0.1409  0.6329 -1.0798
  188MPD1    H7 2872   2.396   2.895  10.690 -0.6835 -0.6604  0.6397
  189MPD1     C 2873   3.655   4.038   0.409  0.3378  0.3225  0.5857
  189MPD1    C1 2874   3.562   4.020   0.308 -0.2161 -0.1369 -0.7375
  189MPD1    C2 2875   3.484   4.127   0.272 -0.1416  0.7234  0.4292
  189MPD1    C3 2876   3.503   4.252   0.320  0.0750 -0.0254  0.2210
  189MPD1    C4 2877   3.598   4.269   0.424  0.9628  0.5602  0.1297
  189MPD1    C5 2878   3.677   4.162   0.459 -0.3006 -0.0323  0.7254
  189MPD1     H 2879   3.405   4.118   0.198  0.2247  1.1433 -0.0092
  189MPD1    H1 2880   3.610   4.367   0.467  0.2568 -0.1344  1.9127
  189MPD1    H2 2881   3.727   3.962   0.436  0.2402  0.3478  0.9192
  189MPD1    H3 2882   3.754   4.167   0.535 -0.0158 -2.0897  0.5720
  189MPD1     N 2883   3.417   4.348   0.259  0.1101  0.3016 -0.4823
  189MPD1    H5 2884   3.366   4.317   0.177 -1.8119 -0.1317  0.8842
  189MPD1    N1 2885   3.522   3.893   0.263  0.7831  0.2711 -0.5416
  189MPD1    H6 2886   3.516   3.900   0.162  0.6870 -0.1912 -0.5664
  189MPD1    H7 2887   3.596   3.824   0.275  0.6272 -0.1362 -1.9554
  190MPD1     C 2888   2.334   2.669  15.150  0.0016  0.9883  0.0673
  190MPD1    C1 2889   2.437   2.726  15.079 -0.5408  0.0720  0.0631
  190MPD1    C2 2890   2.553   2.748  15.152  0.6473  0.6395  0.0536
  190MPD1    C3 2891   2.556   2.731  15.293 -0.0073  0.0298  0.7556
  190MPD1    C4 2892   2.448   2.679  15.359 -0.7235 -0.3258 -0.4088
  190MPD1    C5 2893   2.335   2.655  15.286  0.8904  0.4200  0.6274
  190MPD1     H 2894   2.639   2.790  15.101  2.0692 -1.5264  0.6512
  190MPD1    H1 2895   2.444   2.673  15.467  0.9939  1.2961 -0.2498
  190MPD1    H2 2896   2.236   2.647  15.109  0.4617 -1.9664  0.5562
  190MPD1    H3 2897   2.244   2.618  15.332  0.6789 -1.5335 -1.3580
  190MPD1     N 2898   2.690   2.752  15.358 -0.0461 -0.5216 -0.5513
  190MPD1    H5 2899   2.769   2.776  15.299 -0.8281 -1.6344 -2.0649
  190MPD1    N1 2900   2.423   2.733  14.941 -0.2072 -0.4524 -0.2074
  190MPD1    H6 2901   2.483   2.804  14.900  1.0790 -1.5172 -0.1623
  190MPD1    H7 2902   2.325   2.734  14.912  0.0103  0.7409 -0.9360
  191MPD1     C 2903   2.045   4.479  12.908 -0.7815  0.0066  0.3285
  191MPD1    C1 2904   1.937   4.509  12.833 -0.5716  0.6037  0.6037
  191MPD1    C2 2905   1.962   4.605  12.738 -0.1520 -0.5018  0.5233
  191MPD1    C3 2906   2.080   4.670  12.711  0.2598 -0.3141 -0.4464
  191MPD1    C4 2907   2.189   4.623  12.785 -0.2919 -0.3046 -0.0511
  191MPD1    C5 2908   2.170   4.523  12.878  0.5772 -0.0994  0.8287
  191MPD1     H 2909   1.877   4.648  12.685  1.0351  0.9609 -0.1811
  191MPD1    H1 2910   2.293   4.650  12.770 -0.6543  0.4242 -1.2515
  191MPD1    H2 2911   2.038   4.413  12.993 -2.7896 -0.9892 -0.6077
  191MPD1    H3 2912   2.262   4.490  12.925  0.7710 -1.2932 -0.4156
  191MPD1     N 2913   2.091   0.051  12.605  0.5649  0.5028 -0.6373
  191MPD1    H5 2914   2.013   0.088  12.552  1.1126 -0.2684 -1.9957
  191MPD1    N1 2915   1.807   4.473  12.870  0.6651 -0.5322 -0.6870
  191MPD1    H6 2916   1.734   4.480  12.799 -2.3690 -2.7243  2.2432
  191MPD1    H7 2917   1.813   4.384  12.920 -0.0440  0.3805  0.9958
  192MPD1     C 2918   1.697   0.514  11.824 -0.3443 -0.3439 -0.1113
  192MPD1    C1 2919   1.654   0.418  11.913  0.3559 -0.5227 -0.2596
  192MPD1    C2 2920   1.753   0.364  11.996  0.4880 -0.1615 -0.0827
  192MPD1    C3 2921   1.885   0.418  11.999 -0.3297  0.0293  0.0265
  192MPD1    C4 2922   1.924   0.519  11.909 -0.1856 -0.0322 -0.3655
  192MPD1    C5 2923   1.826   0.562  11.822 -0.9810  0.2342  0.3052
  192MPD1     H 2924   1.733   0.281  12.063  3.2112 -0.4194  0.4012
  192MPD1    H1 2925   2.025   0.556  11.901  0.2303 -0.6994  1.8226
  192MPD1    H2 2926   1.633   0.562  11.750 -0.1479  2.3595  1.4507
  192MPD1    H3 2927   1.850   0.637  11.748 -0.9910 -1.0251 -0.9772
  192MPD1     N 2928   1.981   0.369  12.090 -0.1998  0.3580 -0.2548
  192MPD1    H5 2929   2.071   0.415  12.096  0.2708 -0.8899  2.1923
  192MPD1    N1 2930   1.522   0.362  11.892  0.1414  0.0254 -0.4850
  192MPD1    H6 2931   1.455   0.427  11.851  0.5656  0.8064  0.0587
  192MPD1    H7 2932   1.483   0.311  11.970  1.5802  1.9422  1.4791
  193MPD1     C 2933   1.131   4.642  16.776  0.3235  0.2670 -0.0980
  193MPD1    C1 2934   1.119   0.049  16.829  0.0723 -0.5084 -0.4925
  193MPD1    C2 2935   1.218   0.140  16.814 -1.1768  0.4979 -1.0611
  193MPD1    C3 2936   1.339   0.106  16.765 -0.0980 -0.3678  0.4009
  193MPD1    C4 2937   1.350   4.699  16.712  0.0098  0.5254 -0.1771
  193MPD1    C5 2938   1.257   4.604  16.731 -0.0991  0.1744 -0.5012
  193MPD1     H 2939   1.197   0.241  16.848  1.0298  0.5367  0.2125
  193MPD1    H1 2940   1.436   4.660  16.659 -2.8724 -1.5683 -3.2804
  193MPD1    H2 2941   1.055   4.565  16.771  0.4345  0.1968 -0.7217
  193MPD1    H3 2942   1.278   4.505  16.692  2.2523 -0.2459  1.7979
  193MPD1     N 2943   1.445   0.198  16.749 -0.1751 -1.0497 -0.0133
  193MPD1    H5 2944   1.522   0.159  16.695 -0.0891  0.3157 -0.8727
  193MPD1    N1 2945   0.991   0.089  16.864 -0.2266 -0.7985 -0.2600
  193MPD1    H6 2946   0.933   0.011  16.892 -0.8725  0.0088  0.6409
  193MPD1    H7 2947   1.000   0.150  16.945 -0.5880  0.4081 -1.1371
  194MPD1     C 2948   4.002   3.096  16.899  0.9393 -0.1234  0.1499
  194MPD1    C1 2949   3.917   3.020  16.820  0.6049 -0.3986 -0.0761
  194MPD1    C2 2950   3.893   2.889  16.864 -0.1246 -0.2891 -0.3551
  194MPD1    C3 2951   3.961   2.828  16.965  0.4326 -0.8008 -0.6392
  194MPD1    C4 2952   4.058   2.899  17.032  0.0108 -0.1796  0.2455
  194MPD1    C5 2953   4.076   3.031  16.996  0.0251  0.2209  0.5490
  194MPD1     H 2954   3.819   2.829  16.810  1.4390 -1.7509 -0.8701
  194MPD1    H1 2955   4.119   2.856  17.111  0.5323 -1.6841 -0.9830
  194MPD1    H2 2956   4.010   3.202  16.875  0.1834  0.0255  0.5247
  194MPD1    H3 2957   4.136   3.089  17.064 -0.9910 -2.4624  3.7512
  194MPD1     N 2958   3.963   2.688  16.992 -0.1093 -0.1411  0.2464
  194MPD1    H5 2959   4.040   2.659  17.051  1.5359  0.2127 -1.7111
  194MPD1    N1 2960   3.830   3.073  16.729 -0.5461 -0.3432  0.1934
  194MPD1    H6 2961   3.792   3.005  16.663 -1.0687 -0.4350  0.5915
  194MPD1    H7 2962   3.873   3.159  16.695  0.9793 -1.9984 -2.0582
  195MPD1     C 2963   1.918   4.638  17.554  0.1627  0.2227  0.2049
  195MPD1    C1 2964   1.918   4.576  17.676  0.1089 -0.5488  0.1308
  195MPD1    C2 2965   1.844   4.460   0.003 -0.4451 -0.1978  0.1725
  195MPD1    C3 2966   1.791   4.397  17.577 -0.5156 -0.4985 -0.4409
  195MPD1    C4 2967   1.783   4.459  17.461 -0.4514  0.4854  0.0504
  195MPD1    C5 2968   1.843   4.587  17.450 -0.3478  0.3910 -0.0776
  195MPD1     H 2969   1.834   4.418   0.103  0.5666  0.1698  0.4291
  195MPD1    H1 2970   1.737   4.418  17.371  0.1301  0.6078 -0.3043
  195MPD1    H2 2971   1.954   0.017  17.535  2.6261 -0.5173  1.0424
  195MPD1    H3 2972   1.833   4.640  17.356  2.7910 -0.7590 -1.0771
  195MPD1     N 2973   1.722   4.276  17.577  0.0894  0.5826 -0.0638
  195MPD1    H5 2974   1.666   4.261  17.494  0.7048  0.1322 -0.4052
  195MPD1    N1 2975   1.967   4.634   0.105  0.2416 -0.8674  0.7000
  195MPD1    H6 2976   1.995   4.560   0.169  1.5076  0.9056  2.1996
  195MPD1    H7 2977   2.045   4.694   0.081 -1.0140  0.6208  0.3020
  196MPD1     C 2978   1.578   3.808   0.554 -0.3640 -0.0486 -0.2446
  196MPD1    C1 2979   1.693   3.768   0.620 -0.6048  0.2921  1.0728
  196MPD1    C2 2980   1.689   3.782   0.759  0.7864 -0.5458 -0.4963
  196MPD1    C3 2981   1.577   3.824   0.824  0.6216 -0.0372  0.9561
  196MPD1    C4 2982   1.468   3.862   0.758  0.0372 -0.2563 -0.4769
  196MPD1    C5 2983   1.471   3.852   0.618  0.1917  0.6447 -0.5358
  196MPD1     H 2984   1.778   3.743   0.808  1.0189  0.0735 -0.4281
  196MPD1    H1 2985   1.374   3.888   0.805  0.2714  0.4558 -0.3993
  196MPD1    H2 2986   1.565   3.802   0.446  0.5076  0.5506 -0.3844
  196MPD1    H3 2987   1.382   3.871   0.559 -0.7133 -0.7869  0.3639
  196MPD1     N 2988   1.576   3.818   0.967  0.1294  0.5427  0.7824
  196MPD1    H5 2989   1.498   3.859   1.018 -1.0959 -0.3157 -0.4113
  196MPD1    N1 2990   1.815   3.741   0.552 -0.2753 -0.8076  0.0826
  196MPD1    H6 2991   1.793   3.703   0.460  3.6473 -2.3884 -0.1977
  196MPD1    H7 2992   1.879   3.677   0.597 -2.5723 -1.8589  1.8601
  197MPD1     C 2993   0.780   1.766   0.156 -0.5597 -0.6908 -0.2274
  197MPD1    C1 2994   0.779   1.640   0.096 -0.2589  0.5047  0.5133
  197MPD1    C2 2995   0.733   1.638  17.650  0.2380  0.2153 -0.6591
  197MPD1    C3 2996   0.681   1.743  17.583  0.4738  0.5864 -0.0008
  197MPD1    C4 2997   0.688   1.870  17.639  0.8101  0.4339  0.1196
  197MPD1    C5 2998   0.745   1.882   0.080 -0.1598 -0.0624 -0.4282
  197MPD1     H 2999   0.746   1.541  17.604 -0.2827 -0.3617  0.4003
  197MPD1    H1 3000   0.645   1.956  17.588 -2.1895 -0.8740  0.4448
  197MPD1    H2 3001   0.832   1.781   0.250  1.1135 -2.3705 -0.8916
  197MPD1    H3 3002   0.748   1.980   0.126  3.6697 -0.8825  1.0674
  197MPD1     N 3003   0.633   1.728  17.450  0.0714  0.4128 -0.1341
  197MPD1    H5 3004   0.603   1.810  17.398 -1.1579  2.0017  3.0726
  197MPD1    N1 3005   0.862   1.539   0.150 -0.1052  0.1606  0.0873
  197MPD1    H6 3006   0.817   1.455   0.113 -0.7498  0.5623 -0.0346
  197MPD1    H7 3007   0.867   1.531   0.251 -1.2753 -2.8300 -0.0810
  198MPD1     C 3008   2.356   3.893  15.191  0.1559  0.1387  0.0516
  198MPD1    C1 3009   2.481   3.845  15.197 -0.2009  0.1704 -0.0129
  198MPD1    C2 3010   2.541   3.845  15.322  0.1069 -0.2366 -0.5093
  198MPD1    C3 3011   2.487   3.891  15.438 -0.0628  0.5573 -0.2560
  198MPD1    C4 3012   2.358   3.937  15.432 -0.8120  0.9862  0.0674
  198MPD1    C5 3013   2.296   3.935  15.311  0.6556  0.0567  0.2171
  198MPD1     H 3014   2.640   3.804  15.339 -0.1997 -0.0931  1.5586
  198MPD1    H1 3015   2.298   3.956  15.520  1.1033  1.0893  1.3447
  198MPD1    H2 3016   2.302   3.899  15.097  1.0253  1.0438 -0.3981
  198MPD1    H3 3017   2.195   3.972  15.304  0.6218 -0.1428 -0.3767
  198MPD1     N 3018   2.566   3.891  15.553  0.1178  0.3071 -0.4025
  198MPD1    H5 3019   2.657   3.849  15.536 -0.4418 -1.1553  0.1245
  198MPD1    N1 3020   2.537   3.783  15.087  0.4460 -0.3127  0.1316
  198MPD1    H6 3021   2.508   3.825  15.000  0.0531  1.2312  1.0134
  198MPD1    H7 3022   2.638   3.795  15.080  0.2833  0.9214 -0.0457
  199MPD1     C 3023   0.518   0.287   9.755 -0.5378 -0.1157  0.5587
  199MPD1    C1 3024   0.497   0.159   9.707  0.1169  0.1415 -0.0630
  199MPD1    C2 3025   0.376   0.132   9.644 -1.1492  0.4076 -0.5572
  199MPD1    C3 3026   0.281   0.231   9.624 -0.2145 -0.0042 -0.0502
  199MPD1    C4 3027   0.312   0.364   9.664 -0.2429 -0.6222 -0.0398
  199MPD1    C5 3028   0.415   0.384   9.744 -0.1017  0.5471 -0.2896
  199MPD1     H 3029   0.368   0.031   9.606  1.8856  0.0656 -0.2513
  199MPD1    H1 3030   0.257   0.453   9.634  3.4771  1.3248 -1.0554
  199MPD1    H2 3031   0.613   0.318   9.797 -1.3171  1.8223  0.8844
  199MPD1    H3 3032   0.433   0.480   9.789 -1.0801 -0.7668  2.9145
  199MPD1     N 3033   0.164   0.219   9.553 -0.4651  0.1569  0.3290
  199MPD1    H5 3034   0.120   0.308   9.534 -0.4442 -0.1075 -0.9427
  199MPD1    N1 3035   0.596   0.058   9.701  0.1325  0.9021 -0.7074
  199MPD1    H6 3036   0.652   0.062   9.786  0.1921 -0.1132 -0.7055
  199MPD1    H7 3037   0.540   4.694   9.709  0.7356  0.8144  2.9038
  200MPD1     C 3038   2.660   0.224  14.028  0.0148 -0.4446  0.4346
  200MPD1    C1 3039   2.700   0.269  14.149  0.4876 -0.7420 -0.1190
  200MPD1    C2 3040   2.828   0.233  14.191  0.5277  0.1177  0.1602
  200MPD1    C3 3041   2.917   0.162  14.108  0.4795 -1.1245  0.2058
  200MPD1    C4 3042   2.876   0.123  13.981  0.1231 -0.0343 -0.1250
  200MPD1    C5 3043   2.747   0.166  13.936 -0.3771 -0.7636  0.2886
  200MPD1     H 3044   2.853   0.246  14.296 -1.0910  0.1138  0.5449
  200MPD1    H1 3045   2.928   0.054  13.916  0.1967 -0.6875  0.6196
  200MPD1    H2 3046   2.554   0.230  14.009  0.3457 -2.1641 -2.0299
  200MPD1    H3 3047   2.710   0.133  13.840  1.5998  0.2429 -0.8260
  200MPD1     N 3048   3.042   0.118  14.160  0.0172  0.4693  0.2700
  200MPD1    H5 3049   3.054   0.135  14.259 -0.8672 -0.3972  0.5248
  200MPD1    N1 3050   2.605   0.326  14.239  0.9338  0.2985 -0.6645
  200MPD1    H6 3051   2.525   0.363  14.188 -0.9284 -1.3032  1.0829
  200MPD1    H7 3052   2.644   0.394  14.304  0.6970 -1.2871  1.1505
  201MPD1     C 3053   0.788   4.290  13.258  0.9011 -0.1449  0.9248
  201MPD1    C1 3054   0.755   4.162  13.225  0.0518  0.2858  0.1893
  201MPD1    C2 3055   0.856   4.067  13.227  0.4094  0.0591 -0.4726
  201MPD1    C3 3056   0.989   4.098  13.242  0.1754  0.5505 -0.0930
  201MPD1    C4 3057   1.018   4.227  13.271 -0.1406 -0.3159 -0.1567
  201MPD1    C5 3058   0.921   4.320  13.280  0.5507 -0.2064  0.1155
  201MPD1     H 3059   0.826   3.964  13.212  1.5487 -0.5958  1.8199
  201MPD1    H1 3060   1.118   4.268  13.261  0.2615 -1.0687  0.7033
  201MPD1    H2 3061   0.713   4.368  13.266  0.4274 -0.5083 -0.0219
  201MPD1    H3 3062   0.956   4.421  13.297 -1.8759  0.8087 -0.8785
  201MPD1     N 3063   1.083   3.989  13.234  0.5821  0.1379  0.0178
  201MPD1    H5 3064   1.050   3.893  13.229 -2.5050  1.3478 -2.6281
  201MPD1    N1 3065   0.616   4.133  13.232  0.1413  0.1016 -0.1489
  201MPD1    H6 3066   0.586   4.059  13.169  0.3525  1.2602 -1.6234
  201MPD1    H7 3067   0.554   4.213  13.217 -0.0234 -0.1728 -0.9358
  202MPD1     C 3068   1.180   2.822   8.975 -0.3798 -0.1671  0.1583
  202MPD1    C1 3069   1.135   2.942   9.018 -0.0976  0.3907 -0.4467
  202MPD1    C2 3070   1.203   2.985   9.132  0.0058 -0.8362 -0.0112
  202MPD1    C3 3071   1.288   2.908   9.207  0.6607  0.1652 -0.1977
  202MPD1    C4 3072   1.309   2.782   9.170 -0.2144 -0.8717  0.3273
  202MPD1    C5 3073   1.247   2.738   9.056  0.2051 -0.6802 -0.1832
  202MPD1     H 3074   1.174   3.082   9.170  0.2828 -0.2062 -1.3868
  202MPD1    H1 3075   1.381   2.721   9.222  0.1038 -0.5280  0.2900
  202MPD1    H2 3076   1.159   2.773   8.881  2.2077  1.5290 -1.2906
  202MPD1    H3 3077   1.269   2.639   9.017 -2.1479 -0.6419 -1.6237
  202MPD1     N 3078   1.344   2.949   9.331  0.4095  0.6149  0.4058
  202MPD1    H5 3079   1.405   2.880   9.373  1.5900 -0.3480 -2.8850
  202MPD1    N1 3080   1.081   3.035   8.930  0.8230  0.7080 -0.0329
  202MPD1    H6 3081   1.038   3.113   8.979 -0.1656  0.1613 -0.0341
  202MPD1    H7 3082   1.016   2.997   8.862  0.1778  0.0644  0.9526
  203MPD1     C 3083   4.085   3.730  12.324 -0.6698 -0.4279 -0.3130
  203MPD1    C1 3084   4.176   3.745  12.222  0.1923  0.1145 -0.9823
  203MPD1    C2 3085   4.294   3.800  12.263 -0.4656 -0.6697 -0.0068
  203MPD1    C3 3086   4.318   3.851  12.387 -0.4358  0.5202 -0.2958
  203MPD1    C4 3087   4.217   3.855  12.483  0.1443  0.6033 -0.5188
  203MPD1    C5 3088   4.105   3.783  12.450  0.1627  0.4222 -0.5865
  203MPD1     H 3089   4.371   3.802  12.187  0.7312  1.6623  1.2750
  203MPD1    H1 3090   4.229   3.899  12.581 -1.7762 -0.9904  0.4236
  203MPD1    H2 3091   3.995   3.675  12.298  0.5730 -1.9269 -1.4334
  203MPD1    H3 3092   4.028   3.771  12.525  1.2198  0.9790  0.5793
  203MPD1     N 3093   4.449   3.897  12.410 -0.4431 -0.0112  0.5168
  203MPD1    H5 3094   4.524   3.874  12.345 -2.5330 -0.2065 -1.8346
  203MPD1    N1 3095   4.163   3.670  12.102 -0.2776  0.1290  0.2181
  203MPD1    H6 3096   4.224   3.695  12.024 -2.5158  0.4629 -1.3962
  203MPD1    H7 3097   4.067   3.678  12.070  0.0098 -2.1664 -1.1911
  204MPD1     C 3098   3.674   0.490   0.524  0.4642 -0.0223  0.6496
  204MPD1    C1 3099   3.760   0.384   0.559 -0.4952  0.0372  0.5535
  204MPD1    C2 3100   3.857   0.347   0.470 -0.0654 -0.9827  0.8354
  204MPD1    C3 3101   3.882   0.418   0.356 -0.6676 -0.0004  0.3196
  204MPD1    C4 3102   3.805   0.531   0.326  0.2532  0.7948  0.4083
  204MPD1    C5 3103   3.698   0.563   0.411 -0.3762 -0.0770  0.2731
  204MPD1     H 3104   3.916   0.256   0.478 -0.5905 -1.4725 -0.9348
  204MPD1    H1 3105   3.810   0.599   0.241 -1.1992 -0.5407 -0.7511
  204MPD1    H2 3106   3.581   0.517   0.573 -0.8093  0.1080 -1.8807
  204MPD1    H3 3107   3.629   0.642   0.385  0.2380  0.2765 -0.3029
  204MPD1     N 3108   3.981   0.366   0.266 -0.1975 -0.4755  0.1906
  204MPD1    H5 3109   4.018   0.274   0.288 -0.8709 -0.3003  2.0588
  204MPD1    N1 3110   3.720   0.299   0.656 -0.0929 -0.1114  0.5922
  204MPD1    H6 3111   3.804   0.253   0.692 -0.3014  0.3395  1.6825
  204MPD1    H7 3112   3.676   0.348   0.734  0.8264  0.2125  0.9163
  205MPD1     C 3113   4.278   3.529  17.629  0.0394 -0.8993  0.1321
  205MPD1    C1 3114   4.225   3.515   0.064 -0.7131 -0.0395  0.4683
  205MPD1    C2 3115   4.234   3.621   0.159  0.5783 -0.3627 -0.7951
  205MPD1    C3 3116   4.306   3.735   0.119 -0.9744 -0.2777 -0.2883
  205MPD1    C4 3117   4.356   3.748  17.684 -0.3502  0.5941 -0.1034
  205MPD1    C5 3118   4.341   3.648  17.597  0.5776 -0.7848  0.0839
  205MPD1     H 3119   4.197   3.609   0.260 -2.9803  1.5945 -1.8746
  205MPD1    H1 3120   4.409   3.838  17.655 -2.2128  1.5051 -0.6972
  205MPD1    H2 3121   4.266   3.454  17.552  0.6987 -1.3406  0.4595
  205MPD1    H3 3122   4.367   3.657  17.492  0.9876 -2.9875  0.0034
  205MPD1     N 3123   4.330   3.839   0.215  0.6024 -0.3240 -0.2293
  205MPD1    H5 3124   4.360   3.934   0.193 -0.4395 -0.3705 -1.9142
  205MPD1    N1 3125   4.141   3.406   0.097  0.3220 -0.1750 -0.2053
  205MPD1    H6 3126   4.155   3.326   0.036 -1.5457 -1.1367  0.6412
  205MPD1    H7 3127   4.142   3.393   0.198  2.6561  2.1976  0.0875
  206MPD1     C 3128   4.532   2.116  16.951  0.2158 -0.4434 -1.0255
  206MPD1    C1 3129   4.462   2.017  16.893 -0.1828 -0.2373 -0.9393
  206MPD1    C2 3130   4.451   2.019  16.755  0.4730 -0.3459  0.2189
  206MPD1    C3 3131   4.495   2.119  16.678  0.0216  0.6728 -0.0319
  206MPD1    C4 3132   4.553   2.231  16.736 -0.0307  0.3607 -0.1132
  206MPD1    C5 3133   4.577   2.224  16.874  0.0606 -0.8709  0.9541
  206MPD1     H 3134   4.415   1.928  16.708 -2.6796  1.1108 -0.1674
  206MPD1    H1 3135   4.587   2.310  16.670  2.7775 -0.8098 -0.0912
  206MPD1    H2 3136   4.540   2.140  17.057 -0.1147  1.0633 -1.3387
  206MPD1    H3 3137   4.621   2.312  16.920 -0.7664 -0.5308  1.0941
  206MPD1     N 3138   4.474   2.122  16.542  0.6015  0.0520  0.1957
  206MPD1    H5 3139   4.493   2.210  16.495  0.3671  0.4607  0.8711
  206MPD1    N1 3140   4.426   1.908  16.973  0.2934  0.8744 -0.2684
  206MPD1    H6 3141   4.392   1.940  17.064 -1.6736 -0.2968 -0.6048
  206MPD1    H7 3142   4.361   1.846  16.926  0.7168  1.4468 -1.6088
  207MPD1     C 3143   0.430   0.582   9.165 -0.1529 -0.2748  0.0778
  207MPD1    C1 3144   0.466   0.506   9.273 -0.4996 -0.1861 -0.9570
  207MPD1    C2 3145   0.605   0.469   9.291 -0.2812 -0.4777 -0.4099
  207MPD1    C3 3146   0.694   0.511   9.198 -0.0742 -0.6926  0.7847
  207MPD1    C4 3147   0.654   0.575   9.083 -0.4498  0.5716  0.1432
  207MPD1    C5 3148   0.525   0.604   9.066 -0.3489  0.5231  0.5565
  207MPD1     H 3149   0.630   0.416   9.382 -0.4137  0.5244  0.2049
  207MPD1    H1 3150   0.725   0.604   9.006 -1.2741 -1.4831 -1.3868
  207MPD1    H2 3151   0.329   0.616   9.148 -0.3724 -0.1839  1.4906
  207MPD1    H3 3152   0.490   0.661   8.981  0.9857  0.3125 -0.1288
  207MPD1     N 3153   0.835   0.484   9.203 -0.5042 -0.3555  0.1519
  207MPD1    H5 3154   0.893   0.511   9.124  0.7436  1.0619  1.5625
  207MPD1    N1 3155   0.376   0.451   9.365 -0.5570  0.4238 -0.3813
  207MPD1    H6 3156   0.284   0.495   9.373 -0.2586  1.1934 -1.1966
  207MPD1    H7 3157   0.427   0.435   9.451  0.6642  0.7081 -1.0577
  208MPD1     C 3158   0.505   4.489   0.461 -0.3938 -0.6531 -0.3434
  208MPD1    C1 3159   0.430   4.379   0.499  0.0494  0.1608 -0.2932
  208MPD1    C2 3160   0.428   4.348   0.631  0.2814 -0.6778  0.0169
  208MPD1    C3 3161   0.493   4.426   0.725 -0.4805  0.1052 -0.8559
  208MPD1    C4 3162   0.561   4.536   0.683  0.0599  1.2208 -0.3925
  208MPD1    C5 3163   0.580   4.563   0.551 -0.0666  0.3003  0.3104
  208MPD1     H 3164   0.368   4.265   0.667 -0.7886 -1.4386 -3.5482
  208MPD1    H1 3165   0.628   4.593   0.746 -0.0095 -0.5782  1.2923
  208MPD1    H2 3166   0.504   4.532   0.361 -0.7062  0.5689  0.1882
  208MPD1    H3 3167   0.628   4.653   0.514 -0.8770  0.9797  0.8993
  208MPD1     N 3168   0.483   4.393   0.861  0.7300  0.1395 -0.4070
  208MPD1    H5 3169   0.433   4.309   0.886  0.4303  0.3229 -0.3912
  208MPD1    N1 3170   0.339   4.331   0.402 -0.1013  0.1324 -0.6531
  208MPD1    H6 3171   0.373   4.350   0.308 -3.9658 -0.1644 -2.0844
  208MPD1    H7 3172   0.317   4.234   0.422  0.6732  0.0234 -0.3031
  209MPD1     C 3173   2.292   4.109  10.237  0.1294  0.4899  0.0280
  209MPD1    C1 3174   2.375   4.199  10.163 -0.0512 -0.5189  0.1772
  209MPD1    C2 3175   2.319   4.273  10.061  0.2307 -0.7585 -0.3507
  209MPD1    C3 3176   2.181   4.267  10.036  0.7708  0.7532 -0.3146
  209MPD1    C4 3177   2.102   4.191  10.123  0.3534 -0.0259  0.2462
  209MPD1    C5 3178   2.157   4.110  10.223 -0.1121  0.0348 -0.0370
  209MPD1     H 3179   2.386   4.327   9.994 -0.9740  0.0946 -0.8733
  209MPD1    H1 3180   1.994   4.184  10.112  0.3413 -0.1155  0.4331
  209MPD1    H2 3181   2.334   4.048  10.316 -0.6842 -0.8807 -0.5895
  209MPD1    H3 3182   2.090   4.058  10.291  0.5217 -0.4247  0.2364
  209MPD1     N 3183   2.126   4.341   9.928  0.0250 -0.2863 -0.7300
  209MPD1    H5 3184   2.190   4.392   9.867 -0.2173  1.6909  0.6699
  209MPD1    N1 3185   2.513   4.199  10.168 -0.0600  0.1361  0.1903
  209MPD1    H6 3186   2.551   4.180  10.260 -0.0518 -0.8551 -0.0172
  209MPD1    H7 3187   2.569   4.276  10.133 -2.3964  0.2049 -3.4060
  210MPD1     C 3188   2.296   4.565   8.972  0.2185  0.0738 -0.3829
  210MPD1    C1 3189   2.370   4.508   9.075  0.4021  0.0436  0.4312
  210MPD1    C2 3190   2.306   4.501   9.203 -0.0997 -0.0554 -0.3575
  210MPD1    C3 3191   2.182   4.559   9.221  0.5217 -0.5471 -0.5234
  210MPD1    C4 3192   2.117   4.624   9.121  0.6159  0.0618 -0.2836
  210MPD1    C5 3193   2.172   4.620   8.996 -0.6925  0.7227 -0.5898
  210MPD1     H 3194   2.358   4.458   9.288  1.6112  0.1253 -1.2977
  210MPD1    H1 3195   2.017   4.664   9.138  1.0115  0.5371  0.9282
  210MPD1    H2 3196   2.335   4.569   8.871 -3.1636 -1.1722 -1.7500
  210MPD1    H3 3197   2.115   4.678   8.924 -0.5197  0.2949 -1.0763
  210MPD1     N 3198   2.109   4.550   9.341  0.6495  0.0128 -0.0574
  210MPD1    H5 3199   2.017   4.591   9.350  0.1845 -1.0319 -0.0897
  210MPD1    N1 3200   2.491   4.433   9.049  0.5127 -0.0672 -0.3628
  210MPD1    H6 3201   2.545   4.465   8.969 -0.7311 -1.0808 -1.6371
  210MPD1    H7 3202   2.552   4.425   9.129  1.3779 -1.8601 -1.2036
  211MPD1     C 3203   0.518   4.118  16.758  0.3594 -0.2548  0.0353
  211MPD1    C1 3204   0.474   4.250  16.780  0.0859  0.2099 -0.1975
  211MPD1    C2 3205   0.339   4.276  16.762  0.2770  0.1453  0.1781
  211MPD1    C3 3206   0.248   4.180  16.727 -0.3196 -1.4593  0.4181
  211MPD1    C4 3207   0.295   4.046  16.708  0.0091 -1.3638 -0.0279
  211MPD1    C5 3208   0.431   4.022  16.727 -0.1576  0.0201  0.6323
  211MPD1     H 3209   0.315   4.376  16.795  0.1596  0.0859  0.2736
  211MPD1    H1 3210   0.221   3.971  16.682  1.0453 -2.0306 -1.0331
  211MPD1    H2 3211   0.620   4.080  16.756 -0.6577 -2.9118 -1.2810
  211MPD1    H3 3212   0.470   3.922  16.720 -0.3718 -0.0018 -0.2208
  211MPD1     N 3213   0.116   4.223  16.702 -0.6262 -0.1638  0.4547
  211MPD1    H5 3214   0.107   4.324  16.695 -0.2229 -0.3331 -2.3209
  211MPD1    N1 3215   0.573   4.348  16.819  0.4454  0.6838 -0.1005
  211MPD1    H6 3216   0.670   4.320  16.836  0.8950  0.0912 -3.6371
  211MPD1    H7 3217   0.542   4.428  16.873  0.4503  1.0528 -0.6404
  212MPD1     C 3218   3.698   2.971  16.403 -0.4633 -0.9189 -0.5185
  212MPD1    C1 3219   3.577   2.996  16.450  0.0951  1.0173  0.0354
  212MPD1    C2 3220   3.540   2.924  16.566 -0.0241  0.3131 -0.2905
  212MPD1    C3 3221   3.616   2.818  16.617  0.6169 -0.3923  0.6767
  212MPD1    C4 3222   3.737   2.786  16.557 -0.1170  0.1015  0.1292
  212MPD1    C5 3223   3.773   2.865  16.453 -0.3955  0.2813 -0.2076
  212MPD1     H 3224   3.442   2.955  16.601 -0.9441 -0.5801 -2.0612
  212MPD1    H1 3225   3.812   2.713  16.585 -3.7252 -2.9403  1.7934
  212MPD1    H2 3226   3.739   3.035  16.325  1.8312  0.4302  1.7932
  212MPD1    H3 3227   3.865   2.836  16.403 -0.6154 -0.0624 -0.4111
  212MPD1     N 3228   3.572   2.730  16.723  0.0409 -0.0035  0.1728
  212MPD1    H5 3229   3.649   2.673  16.756 -0.2554  0.0325  0.9343
  212MPD1    N1 3230   3.502   3.107  16.407 -0.0969 -0.0684  0.4571
  212MPD1    H6 3231   3.515   3.110  16.306 -1.1998  0.6654  0.3295
  212MPD1    H7 3232   3.402   3.103  16.424  0.1111  1.5873  2.1203
  213MPD1     C 3233   2.287   3.128  15.938  0.2591  0.2237 -0.8798
  213MPD1    C1 3234   2.193   3.040  15.988  0.7988 -0.3985 -0.3063
  213MPD1    C2 3235   2.081   3.030  15.907 -0.3609  0.4822  0.2089
  213MPD1    C3 3236   2.036   3.129  15.817 -0.0554 -0.3977 -0.1627
  213MPD1    C4 3237   2.124   3.231  15.792 -0.0631 -0.3735  0.1800
  213MPD1    C5 3238   2.246   3.229  15.855 -0.4488 -0.1869  0.7570
  213MPD1     H 3239   2.023   2.939  15.904  1.5698 -0.6663 -2.9187
  213MPD1    H1 3240   2.105   3.315  15.726  0.6609 -0.2981  0.0660
  213MPD1    H2 3241   2.381   3.137  15.992 -0.7088  1.7355  0.5333
  213MPD1    H3 3242   2.322   3.302  15.829 -0.5421 -0.1307  0.6433
  213MPD1     N 3243   1.907   3.120  15.758 -0.0129 -0.7655  0.1497
  213MPD1    H5 3244   1.851   3.039  15.785 -1.9068 -0.1449 -1.9278
  213MPD1    N1 3245   2.248   2.925  16.042 -0.0351 -0.0881 -0.8273
  213MPD1    H6 3246   2.181   2.881  16.105  0.2316 -0.1979 -0.6198
  213MPD1    H7 3247   2.324   2.956  16.102  0.7618 -0.3627 -1.6883
  214MPD1     C 3248   1.505   2.392  15.782 -0.9517  0.0520  0.5775
  214MPD1    C1 3249   1.551   2.417  15.658 -0.1773 -0.2110 -0.2612
  214MPD1    C2 3250   1.553   2.550  15.622 -0.1084  0.3820  0.4739
  214MPD1    C3 3251   1.521   2.656  15.705 -0.5270  0.6157  0.4373
  214MPD1    C4 3252   1.473   2.636  15.830 -0.1608 -0.5563  0.8237
  214MPD1    C5 3253   1.461   2.499  15.862 -0.1130 -0.0594 -0.7604
  214MPD1     H 3254   1.589   2.562  15.520  0.4270 -1.1016  0.4858
  214MPD1    H1 3255   1.441   2.705  15.908  0.1809  1.6639 -0.9968
  214MPD1    H2 3256   1.494   2.289  15.816 -0.3816 -0.6977 -1.5547
  214MPD1    H3 3257   1.392   2.473  15.942 -1.2808 -1.3485 -2.1707
  214MPD1     N 3258   1.538   2.792  15.664 -0.3799 -1.0432  0.1201
  214MPD1    H5 3259   1.514   2.857  15.738  0.6286 -1.4960  0.8341
  214MPD1    N1 3260   1.598   2.319  15.572 -0.3270  0.1905  0.6636
  214MPD1    H6 3261   1.556   2.228  15.587 -1.5402  0.6079 -0.1411
  214MPD1    H7 3262   1.582   2.349  15.475 -0.3909 -0.9676  0.3204
  215MPD1     C 3263   2.148   3.230  11.245 -0.2892 -0.3468  0.1778
  215MPD1    C1 3264   2.144   3.295  11.363 -0.2460  1.0746 -0.0415
  215MPD1    C2 3265   2.165   3.430  11.377  0.0780  0.0335  0.2338
  215MPD1    C3 3266   2.214   3.502  11.272  0.1777  0.2431 -0.5466
  215MPD1    C4 3267   2.219   3.440  11.148  0.0205 -0.4077  0.7008
  215MPD1    C5 3268   2.186   3.308  11.136 -0.2032  0.0898  0.1485
  215MPD1     H 3269   2.164   3.492  11.466 -0.8712  0.8095 -0.3208
  215MPD1    H1 3270   2.242   3.495  11.057  0.6635  0.6291  1.4943
  215MPD1    H2 3271   2.114   3.127  11.237  2.5123 -1.4184  1.8319
  215MPD1    H3 3272   2.184   3.262  11.037  1.9349 -1.2510  0.7186
  215MPD1     N 3273   2.246   3.645  11.288  0.6808  0.5332  0.4720
  215MPD1    H5 3274   2.251   3.679  11.384 -1.0549 -0.0648  0.7771
  215MPD1    N1 3275   2.086   3.227  11.466  1.0342  0.3609 -0.9013
  215MPD1    H6 3276   2.115   3.271  11.553 -1.4586  1.0611 -0.4230
  215MPD1    H7 3277   2.084   3.126  11.459 -0.6189  0.2115  1.9293
  216MPD1     C 3278   3.925   1.439  16.538  0.4511  0.5487 -0.9472
  216MPD1    C1 3279   3.879   1.490  16.657 -0.2870  0.1567 -0.0046
  216MPD1    C2 3280   3.949   1.451  16.775  0.1212  0.0289 -0.4843
  216MPD1    C3 3281   4.051   1.355  16.766 -0.7761  0.3030 -0.0849
  216MPD1    C4 3282   4.082   1.306  16.640  0.4474 -0.3103  0.0362
  216MPD1    C5 3283   4.031   1.351  16.526 -0.8849  0.5839 -0.9147
  216MPD1     H 3284   3.918   1.487  16.872  3.2392 -1.6766  1.1477
  216MPD1    H1 3285   4.155   1.226  16.634  0.0744 -0.7861  2.0320
  216MPD1    H2 3286   3.889   1.469  16.440  0.2321 -0.6433 -1.2310
  216MPD1    H3 3287   4.062   1.322  16.426 -0.5231 -0.8732 -0.3810
  216MPD1     N 3288   4.114   1.310  16.883 -0.2337 -0.2800  0.5580
  216MPD1    H5 3289   4.072   1.336  16.972  1.5987  2.0560  0.7453
  216MPD1    N1 3290   3.785   1.591  16.645 -0.6687 -0.2474  0.0658
  216MPD1    H6 3291   3.728   1.565  16.565  2.5853 -0.6489 -2.1538
  216MPD1    H7 3292   3.738   1.598  16.735 -0.5221  2.3744 -0.0621
  217MPD1     C 3293   4.314   2.142   8.709  0.4611  0.1710  0.2036
  217MPD1    C1 3294   4.396   2.237   8.653 -0.3200  0.4497 -0.1507
  217MPD1    C2 3295   4.479   2.298   8.737  0.1350  0.5368  0.0600
  217MPD1    C3 3296   4.474   2.290   8.879  0.2349  0.8510  0.0369
  217MPD1    C4 3297   4.378   2.201   8.928 -0.2198 -0.0921 -0.5487
  217MPD1    C5 3298   4.301   2.126   8.843 -0.4729  0.3060  0.0795
  217MPD1     H 3299   4.557   2.355   8.689  0.6170 -1.2617 -1.3050
  217MPD1    H1 3300   4.385   2.173   9.033  2.6859 -0.2121 -0.7898
  217MPD1    H2 3301   4.273   2.060   8.650  2.0949  1.6365 -3.0116
  217MPD1    H3 3302   4.237   2.049   8.883  1.0331 -1.6094 -1.2109
  217MPD1     N 3303   4.553   2.366   8.970 -0.8624 -0.1127  0.3043
  217MPD1    H5 3304   4.531   2.358   9.069 -1.5082 -0.8424  0.1048
  217MPD1    N1 3305   4.418   2.238   8.512  0.1267 -0.3464 -0.1457
  217MPD1    H6 3306   4.330   2.226   8.464 -2.0405  2.3980  3.1783
  217MPD1    H7 3307   4.444   2.330   8.478  0.0663 -0.6826 -1.1041
  218MPD1     C 3308   1.312   4.253  12.223 -0.4571  0.2852 -0.0211
  218MPD1    C1 3309   1.385   4.320  12.130  0.2104  0.0605  0.2603
  218MPD1    C2 3310   1.514   4.362  12.157 -0.5387 -0.1108 -0.1528
  218MPD1    C3 3311   1.571   4.324  12.274  0.2807 -0.2205 -0.7356
  218MPD1    C4 3312   1.491   4.261  12.374  0.8084  0.7733 -0.0741
  218MPD1    C5 3313   1.367   4.211  12.340 -0.8331  0.1180  0.1182
  218MPD1     H 3314   1.579   4.414  12.088 -2.2131 -1.4275 -2.7157
  218MPD1    H1 3315   1.530   4.233  12.471 -1.2947 -1.5054  0.1378
  218MPD1    H2 3316   1.208   4.227  12.207 -1.0147  1.5712  1.5690
  218MPD1    H3 3317   1.304   4.168  12.417 -1.9446 -0.5318 -1.1563
  218MPD1     N 3318   1.709   4.359  12.291  0.4238 -0.4730  0.3225
  218MPD1    H5 3319   1.758   4.404  12.214  3.4006 -3.6742  0.3335
  218MPD1    N1 3320   1.319   4.345  12.009 -0.3843 -0.4980 -0.6026
  218MPD1    H6 3321   1.377   4.359  11.926  2.2790 -0.5760  1.2150
  218MPD1    H7 3322   1.248   4.276  11.987 -1.1847 -0.4965  2.0008
  219MPD1     C 3323   2.064   0.114  11.752  0.2662  0.0925  0.7115
  219MPD1    C1 3324   2.184   0.082  11.819  0.0650 -0.7339  0.0215
  219MPD1    C2 3325   2.169   0.007  11.935 -0.5154  0.3853 -0.4748
  219MPD1    C3 3326   2.047   4.682  11.986  0.8366  0.6052  0.0209
  219MPD1    C4 3327   1.937   4.702  11.899 -0.7509  0.4921  0.2994
  219MPD1    C5 3328   1.945   0.059  11.788  0.0485 -0.0768 -0.8305
  219MPD1     H 3329   2.263   4.712  11.987 -0.7370 -0.5113 -0.3396
  219MPD1    H1 3330   1.843   4.655  11.925  0.5149 -1.5195  1.2773
  219MPD1    H2 3331   2.062   0.176  11.664  3.1529 -0.3121  0.3843
  219MPD1    H3 3332   1.854   0.076  11.733 -0.8824  0.0173  0.7468
  219MPD1     N 3333   2.028   4.607  12.100 -0.6147  0.2135 -0.5102
  219MPD1    H5 3334   1.931   4.587  12.119 -0.5509 -2.8681 -3.3764
  219MPD1    N1 3335   2.308   0.108  11.760  0.0557  0.2251  0.1823
  219MPD1    H6 3336   2.382   0.131  11.826  1.3052 -1.5533 -0.5976
  219MPD1    H7 3337   2.314   0.183  11.691  2.0330  0.0291  0.1564
  220MPD1     C 3338   1.689   0.188   9.892  0.0903 -0.5317  0.5131
  220MPD1    C1 3339   1.804   0.150   9.954 -0.0831  0.8781  0.5817
  220MPD1    C2 3340   1.815   0.018   9.997 -0.8598  0.2043  0.3239
  220MPD1    C3 3341   1.712   4.647   9.998  0.2536  0.2269  0.3173
  220MPD1    C4 3342   1.587   4.693   9.956 -0.3684  0.1394 -0.1080
  220MPD1    C5 3343   1.582   0.102   9.911 -0.3461  0.7278  0.2180
  220MPD1     H 3344   1.907   4.694  10.032 -0.0534  1.1331 -0.6109
  220MPD1    H1 3345   1.501   4.628   9.953 -1.5816  1.7691 -0.5377
  220MPD1    H2 3346   1.677   0.287   9.849  1.4832 -0.1885  0.9142
  220MPD1    H3 3347   1.486   0.132   9.870 -1.2033 -0.9149  1.0086
  220MPD1     N 3348   1.733   4.523  10.063  0.5943  0.0370 -0.6095
  220MPD1    H5 3349   1.824   4.516  10.109 -0.9229 -1.3783  2.1450
  220MPD1    N1 3350   1.926   0.217   9.933  0.3440  0.5683  0.0127
  220MPD1    H6 3351   1.986   0.194  10.012  1.7140 -0.3868 -1.3004
  220MPD1    H7 3352   1.901   0.315   9.929  0.6273  0.6907  1.1628
  221MPD1     C 3353   4.250   2.403  16.737  0.1435  0.0768 -0.3191
  221MPD1    C1 3354   4.189   2.445  16.626 -0.1362  0.0117 -0.1213
  221MPD1    C2 3355   4.157   2.571  16.609  0.5213  0.3516  0.7252
  221MPD1    C3 3356   4.177   2.674  16.702 -0.3539 -0.7619  0.3267
  221MPD1    C4 3357   4.236   2.627  16.815  0.0549  0.7239 -0.0393
  221MPD1    C5 3358   4.280   2.495  16.828  0.4522  0.5451  0.0746
  221MPD1     H 3359   4.108   2.595  16.515  2.4715  2.4597  0.2388
  221MPD1    H1 3360   4.265   2.707  16.882 -1.1346  1.1050  0.0193
  221MPD1    H2 3361   4.280   2.300  16.750  0.2950  0.3967  1.9885
  221MPD1    H3 3362   4.328   2.475  16.922  2.2743 -2.2277 -1.4660
  221MPD1     N 3363   4.149   2.812  16.684  0.3264  0.2037 -0.6623
  221MPD1    H5 3364   4.147   2.873  16.765 -3.6932 -1.7996  0.7927
  221MPD1    N1 3365   4.165   2.357  16.521  0.0257 -0.3156 -0.0476
  221MPD1    H6 3366   4.147   2.263  16.555 -1.7301  0.8638  2.2513
  221MPD1    H7 3367   4.091   2.395  16.462  0.2937  0.0135 -0.1711
  222MPD1     C 3368   3.164   3.233  16.590 -0.5758  0.2709  0.7269
  222MPD1    C1 3369   3.198   3.111  16.652  0.4218  0.1536 -0.7279
  222MPD1    C2 3370   3.215   3.107  16.792 -0.0498 -0.2827 -0.1472
  222MPD1    C3 3371   3.213   3.225  16.868  0.0006  0.4001 -0.0477
  222MPD1    C4 3372   3.201   3.345  16.801 -0.0094  0.7550  0.6858
  222MPD1    C5 3373   3.172   3.351  16.666  0.2421  0.6009 -0.0800
  222MPD1     H 3374   3.219   3.010  16.840  1.2886 -0.7098 -1.1242
  222MPD1    H1 3375   3.202   3.430  16.868  1.4229  1.8278 -0.6703
  222MPD1    H2 3376   3.134   3.242  16.487 -2.4353  0.4104  1.2807
  222MPD1    H3 3377   3.153   3.447  16.619  0.9394 -0.0086 -1.6039
  222MPD1     N 3378   3.255   3.230  17.001  0.0542  0.4246  0.1243
  222MPD1    H5 3379   3.248   3.320  17.048 -0.9954  1.1163 -1.3643
  222MPD1    N1 3380   3.185   2.994  16.582 -0.4942  0.4335 -0.3749
  222MPD1    H6 3381   3.201   3.012  16.483  2.9034  1.2977  0.3451
  222MPD1    H7 3382   3.248   2.920  16.613 -1.1081  0.9450  2.0972
  223MPD1     C 3383   2.830   3.463   0.193  0.5019 -0.2082  0.1701
  223MPD1    C1 3384   2.958   3.511   0.200 -0.0735 -0.2023  0.5942
  223MPD1    C2 3385   3.048   3.485   0.101  0.3567  0.5133 -0.1807
  223MPD1    C3 3386   3.009   3.411  17.677  0.0636  0.4321 -0.5131
  223MPD1    C4 3387   2.886   3.350  17.678 -0.4172  0.4250 -0.3743
  223MPD1    C5 3388   2.802   3.372   0.095  0.1199  0.6690 -0.2471
  223MPD1     H 3389   3.148   3.526   0.108 -0.3361  2.4302 -1.6530
  223MPD1    H1 3390   2.858   3.270  17.611  2.0377 -0.3599 -0.4425
  223MPD1    H2 3391   2.756   3.479   0.271 -1.4347  1.5851 -2.0248
  223MPD1    H3 3392   2.702   3.333   0.082  0.1168  0.8837 -0.8725
  223MPD1     N 3393   3.103   3.396  17.572 -0.4853 -0.3435  0.5519
  223MPD1    H5 3394   3.195   3.435  17.593  0.6814 -3.1234  0.6559
  223MPD1    N1 3395   2.991   3.569   0.325 -0.1639 -0.5027  0.4503
  223MPD1    H6 3396   2.952   3.662   0.336 -1.0950 -0.5010 -3.1720
  223MPD1    H7 3397   3.090   3.594   0.323  0.2501 -2.3243 -1.8471
  224MPD1     C 3398   1.223   4.163   9.101 -0.2405 -0.0764 -0.0007
  224MPD1    C1 3399   1.094   4.171   9.147 -0.0906 -0.4056 -0.3735
  224MPD1    C2 3400   1.045   4.077   9.242  0.5250 -0.3592  0.1241
  224MPD1    C3 3401   1.131   3.974   9.289 -0.3890 -0.4572  0.0170
  224MPD1    C4 3402   1.250   3.957   9.227 -0.8061 -0.0804 -0.4153
  224MPD1    C5 3403   1.297   4.049   9.134 -0.2876  0.1484 -0.3473
  224MPD1     H 3404   0.939   4.094   9.258  0.2745 -2.7806  1.0344
  224MPD1    H1 3405   1.321   3.882   9.258 -0.4550  0.6930  0.6650
  224MPD1    H2 3406   1.264   4.244   9.041  1.6205  1.7581  3.7470
  224MPD1    H3 3407   1.399   4.036   9.099  0.1680 -0.5801  1.2123
  224MPD1     N 3408   1.092   3.887   9.394  0.1994  0.3316 -0.2772
  224MPD1    H5 3409   1.151   3.805   9.408 -0.0211 -0.0107 -1.3474
  224MPD1    N1 3410   1.022   4.282   9.111  0.6700 -0.2379 -0.0694
  224MPD1    H6 3411   0.930   4.287   9.153  1.5486 -1.0611  1.9375
  224MPD1    H7 3412   1.067   4.353   9.169  1.1435  1.4467 -2.4844
  225MPD1     C 3413   1.948   0.712  12.360  0.5175 -0.4362  0.0197
  225MPD1    C1 3414   1.886   0.593  12.404 -0.0877 -0.6261 -0.0998
  225MPD1    C2 3415   1.770   0.554  12.341 -0.2577 -0.2017 -1.1453
  225MPD1    C3 3416   1.722   0.632  12.236 -0.2392  0.0498 -0.0357
  225MPD1    C4 3417   1.796   0.733  12.176 -0.0231  0.2888  0.1446
  225MPD1    C5 3418   1.906   0.771  12.243 -0.3682  0.1708  0.9106
  225MPD1     H 3419   1.722   0.467  12.385  0.2119  0.9202  1.5951
  225MPD1    H1 3420   1.770   0.780  12.081  2.2390 -0.8050 -1.0075
  225MPD1    H2 3421   2.037   0.751  12.407  0.4326  0.1298 -0.2921
  225MPD1    H3 3422   1.958   0.861  12.212  0.1323  0.8160  3.7035
  225MPD1     N 3423   1.597   0.602  12.175  0.4273  0.0490  0.5854
  225MPD1    H5 3424   1.579   0.666  12.099  4.4845  2.2127  1.4300
  225MPD1    N1 3425   1.921   0.536  12.525 -0.8406  0.5240 -0.2747
  225MPD1    H6 3426   2.021   0.539  12.544 -0.5028 -1.7598 -1.6349
  225MPD1    H7 3427   1.903   0.436  12.521  0.9923  0.2031 -0.5439
  226MPD1     C 3428   0.297   4.058   9.406  0.1556  0.1136 -0.3319
  226MPD1    C1 3429   0.401   4.112   9.477 -0.5788 -0.1371  0.2649
  226MPD1    C2 3430   0.434   4.247   9.457 -0.5138 -0.1254  0.3552
  226MPD1    C3 3431   0.356   4.333   9.374  0.2919 -0.1281 -0.6480
  226MPD1    C4 3432   0.239   4.276   9.319 -0.4755  0.4626  0.7010
  226MPD1    C5 3433   0.212   4.141   9.338 -0.0571  0.6456 -0.2609
  226MPD1     H 3434   0.520   4.292   9.503  0.6053 -2.0596  0.1652
  226MPD1    H1 3435   0.167   4.337   9.267  2.7269  2.4240 -1.4449
  226MPD1    H2 3436   0.266   3.955   9.419  0.2835  0.5706  3.4883
  226MPD1    H3 3437   0.116   4.107   9.299  0.1116 -0.8899  0.6501
  226MPD1     N 3438   0.383   4.475   9.367  0.7592 -0.4309  0.5224
  226MPD1    H5 3439   0.461   4.515   9.419 -0.0006  0.7296  0.7786
  226MPD1    N1 3440   0.489   4.039   9.557  0.0984 -0.0056  0.8848
  226MPD1    H6 3441   0.544   4.103   9.614  0.7318 -0.9941  1.3734
  226MPD1    H7 3442   0.450   3.965   9.614 -1.6821  0.9855  0.9561
  227MPD1     C 3443   0.177   0.578   8.660  0.4474 -0.5349  0.2788
  227MPD1    C1 3444   0.313   0.582   8.678  0.3266  0.5224 -0.1417
  227MPD1    C2 3445   0.366   0.491   8.769 -0.5588  0.9017  0.0478
  227MPD1    C3 3446   0.291   0.408   8.851  0.0939  0.3092 -0.0449
  227MPD1    C4 3447   0.154   0.412   8.829 -0.1736  0.2117  0.4387
  227MPD1    C5 3448   0.098   0.497   8.740 -0.2693 -0.4843  0.1993
  227MPD1     H 3449   0.474   0.487   8.775 -0.6507  1.7980  2.1834
  227MPD1    H1 3450   0.089   0.367   8.904 -0.6585 -1.4494 -1.0057
  227MPD1    H2 3451   0.120   0.641   8.592  2.1217  0.5613 -0.0912
  227MPD1    H3 3452   4.711   0.499   8.738 -0.2963  0.6004  2.6523
  227MPD1     N 3453   0.351   0.330   8.960  0.0233  0.5229 -0.2410
  227MPD1    H5 3454   0.442   0.362   8.993 -0.3521 -0.6053  1.8424
  227MPD1    N1 3455   0.385   0.652   8.576 -0.4032 -0.0514  0.1240
  227MPD1    H6 3456   0.347   0.740   8.541  0.8563 -0.5004 -2.3748
  227MPD1    H7 3457   0.479   0.673   8.609  0.3530  0.9493 -2.6977
  228MPD1     C 3458   2.854   3.169  12.338  0.4892  0.0358 -0.3530
  228MPD1    C1 3459   2.808   3.147  12.466 -0.3950  0.6393  0.1334
  228MPD1    C2 3460   2.740   3.029  12.500 -0.0724 -0.1174  0.3048
  228MPD1    C3 3461   2.700   2.946  12.398  0.1289  0.1963 -0.6840
  228MPD1    C4 3462   2.726   2.978  12.266 -0.3810  0.2491  0.0943
  228MPD1    C5 3463   2.805   3.089  12.243 -0.3750  0.3053 -0.9027
  228MPD1     H 3464   2.722   3.005  12.604 -0.3428  0.3779  0.3719
  228MPD1    H1 3465   2.692   2.919  12.181  0.5990 -0.2947  0.0878
  228MPD1    H2 3466   2.902   3.263  12.313  2.4231 -0.5330  1.1934
  228MPD1    H3 3467   2.831   3.122  12.143 -1.0037  0.8967 -0.8762
  228MPD1     N 3468   2.623   2.847  12.452 -0.1715  0.3288 -0.0901
  228MPD1    H5 3469   2.607   2.848  12.552  1.9005  2.0574  0.2245
  228MPD1    N1 3470   2.842   3.249  12.559  0.4838 -0.3501  0.4681
  228MPD1    H6 3471   2.818   3.229  12.656 -0.0974 -2.0371 -0.0133
  228MPD1    H7 3472   2.941   3.274  12.559  0.4558 -0.2126 -1.7297
  229MPD1     C 3473   2.961   1.655  14.315 -0.8500 -1.0066 -0.4041
  229MPD1    C1 3474   2.859   1.693  14.398 -0.2008 -0.7421  0.2053
  229MPD1    C2 3475   2.861   1.643  14.527 -0.7485 -0.0756  0.3253
  229MPD1    C3 3476   2.976   1.579  14.572 -0.1698 -0.1428 -0.4135
  229MPD1    C4 3477   3.091   1.571  14.491 -0.1791  0.0738  0.1263
  229MPD1    C5 3478   3.079   1.595  14.356 -0.0736  0.1187 -0.6763
  229MPD1     H 3479   2.780   1.665  14.595 -1.3527  0.6548 -0.6217
  229MPD1    H1 3480   3.183   1.536  14.536  0.0326  3.0069  1.9477
  229MPD1    H2 3481   2.953   1.674  14.208  2.9475 -0.5086 -0.6276
  229MPD1    H3 3482   3.156   1.570  14.285 -0.2826 -0.0276 -0.8497
  229MPD1     N 3483   2.981   1.526  14.702 -0.0631 -0.4495 -0.2259
  229MPD1    H5 3484   3.073   1.503  14.738 -0.1289  0.4936  0.5453
  229MPD1    N1 3485   2.740   1.747  14.337 -0.0157 -0.6689 -0.4667
  229MPD1    H6 3486   2.739   1.781  14.241  0.2246  0.9963  0.1026
  229MPD1    H7 3487   2.688   1.812  14.396 -0.7722 -0.0536 -1.7943
  230MPD1     C 3488   3.420   1.164  15.544  0.5142 -0.5383 -0.3974
  230MPD1    C1 3489   3.399   1.064  15.455  0.3509  0.1134  0.6852
  230MPD1    C2 3490   3.323   1.086  15.343 -0.4680 -0.4466 -1.2093
  230MPD1    C3 3491   3.286   1.214  15.319  0.7464 -0.5732 -0.2172
  230MPD1    C4 3492   3.301   1.316  15.407  0.3851 -0.2299  0.2521
  230MPD1    C5 3493   3.373   1.293  15.517 -0.2012 -0.2732 -0.2042
  230MPD1     H 3494   3.296   1.001  15.281 -0.5774 -0.9438 -0.4709
  230MPD1    H1 3495   3.263   1.416  15.387  0.1182 -0.1166  1.3033
  230MPD1    H2 3496   3.483   1.148  15.631  0.4272  0.8942 -0.0813
  230MPD1    H3 3497   3.391   1.376  15.584  0.2075 -0.3491 -0.2227
  230MPD1     N 3498   3.215   1.233  15.198  0.4392 -0.1697  0.4572
  230MPD1    H5 3499   3.204   1.147  15.145  1.5513  0.1822 -0.3272
  230MPD1    N1 3500   3.438   0.937  15.498  0.2669  0.2715  0.2476
  230MPD1    H6 3501   3.521   0.937  15.558 -0.4213  0.3572  1.1942
  230MPD1    H7 3502   3.467   0.883  15.416  1.7455  0.3064  0.7360
  231MPD1     C 3503   0.969   3.605  15.524  0.7338 -0.5595 -0.5136
  231MPD1    C1 3504   0.920   3.594  15.400 -0.1725  0.1265  0.1579
  231MPD1    C2 3505   1.008   3.609  15.291 -0.0354 -0.7913 -0.9830
  231MPD1    C3 3506   1.140   3.644  15.312  0.5278 -0.6091  0.6338
  231MPD1    C4 3507   1.183   3.664  15.438 -0.1148 -0.6012  0.3604
  231MPD1    C5 3508   1.099   3.655  15.541 -0.0337  0.3267  0.5971
  231MPD1     H 3509   0.969   3.593  15.191 -4.7762  0.4289  0.6944
  231MPD1    H1 3510   1.275   3.714  15.464 -0.7322  0.2134  0.9775
  231MPD1    H2 3511   0.910   3.592  15.614  2.6624  0.5438  0.9359
  231MPD1    H3 3512   1.143   3.678  15.638 -0.5703  2.6500  0.2879
  231MPD1     N 3513   1.217   3.664  15.193  0.3284 -0.1378 -0.3547
  231MPD1    H5 3514   1.166   3.652  15.106  3.4488 -5.8003 -1.4149
  231MPD1    N1 3515   0.787   3.561  15.368 -0.2554 -1.1242 -0.1910
  231MPD1    H6 3516   0.720   3.611  15.427 -1.0093 -0.3342 -1.7120
  231MPD1    H7 3517   0.751   3.566  15.273  0.3535 -1.6300 -0.4485
  232MPD1     C 3518   2.847   1.409   0.312  0.2084 -0.8118 -0.1477
  232MPD1    C1 3519   2.761   1.321   0.366  0.2290  0.5703  0.6208
  232MPD1    C2 3520   2.661   1.270   0.291  0.3150 -0.2739  0.9500
  232MPD1    C3 3521   2.642   1.293   0.154  0.2583  0.1313 -0.1250
  232MPD1    C4 3522   2.725   1.390   0.107  0.0480  0.4021 -1.0285
  232MPD1    C5 3523   2.819   1.441   0.184 -0.5442  0.2232 -0.6614
  232MPD1     H 3524   2.599   1.200   0.346 -1.9550  0.3316 -0.8032
  232MPD1    H1 3525   2.718   1.436   0.009  3.7964  3.9331  0.3901
  232MPD1    H2 3526   2.924   1.470   0.358  0.9968 -1.2500 -0.8893
  232MPD1    H3 3527   2.874   1.520   0.135 -0.7007  0.0732 -1.0839
  232MPD1     N 3528   2.540   1.224   0.077  0.0640  0.4097  0.1715
  232MPD1    H5 3529   2.487   1.154   0.127 -0.2793 -0.3112 -1.1783
  232MPD1    N1 3530   2.784   1.295   0.499  0.5868  0.0895 -0.2202
  232MPD1    H6 3531   2.752   1.201   0.522  1.0034 -0.5537 -2.1970
  232MPD1    H7 3532   2.879   1.316   0.528 -0.6299  2.6304  1.8161
  233MPD1     C 3533   4.036   0.534   2.682 -0.0128 -0.5119 -0.3686
  233MPD1    C1 3534   4.135   0.482   2.761 -0.0927 -0.1224 -0.3527
  233MPD1    C2 3535   4.251   0.427   2.705  0.2686 -0.0068  0.2978
  233MPD1    C3 3536   4.261   0.404   2.574  0.0777  0.1905  1.1640
  233MPD1    C4 3537   4.154   0.444   2.490 -0.8250  0.5389 -0.3342
  233MPD1    C5 3538   4.053   0.517   2.548  0.0776  0.1838  0.6507
  233MPD1     H 3539   4.345   0.404   2.754  0.6763 -0.1800 -0.5519
  233MPD1    H1 3540   4.149   0.431   2.383 -3.6561  0.1265 -0.1500
  233MPD1    H2 3541   3.952   0.593   2.718 -1.1011 -0.7171 -2.5124
  233MPD1    H3 3542   3.977   0.565   2.487  0.7168 -1.1808 -1.1924
  233MPD1     N 3543   4.378   0.353   2.517 -0.4701 -0.1897 -0.2265
  233MPD1    H5 3544   4.462   0.356   2.573  0.6426 -1.5715 -1.8120
  233MPD1    N1 3545   4.132   0.519   2.893 -0.6784  0.0112  0.0669
  233MPD1    H6 3546   4.178   0.453   2.955 -0.2864 -0.4610 -0.7247
  233MPD1    H7 3547   4.039   0.536   2.930 -0.3068  1.4874  0.2971
  234MPD1     C 3548   1.015   1.930   9.488  0.8466 -0.2903 -0.0908
  234MPD1    C1 3549   1.040   2.017   9.587 -0.5716  0.3074 -0.4733
  234MPD1    C2 3550   1.074   2.147   9.547 -0.1894  0.2007  0.1816
  234MPD1    C3 3551   1.056   2.184   9.421  0.3064 -0.2666 -0.0317
  234MPD1    C4 3552   1.027   2.092   9.324 -0.1522  0.5837 -0.4082
  234MPD1    C5 3553   1.005   1.966   9.358 -0.0383  0.3078  0.7172
  234MPD1     H 3554   1.115   2.220   9.615  0.0674 -0.6656  0.9437
  234MPD1    H1 3555   1.013   2.120   9.220 -1.8933 -0.3511 -0.4244
  234MPD1    H2 3556   1.001   1.827   9.519  1.3454 -0.0287  0.9715
  234MPD1    H3 3557   0.973   1.896   9.281 -0.0083  0.6703  0.3723
  234MPD1     N 3558   1.080   2.323   9.405  0.5177  0.1355 -0.8846
  234MPD1    H5 3559   1.081   2.375   9.492 -1.4539  1.9779 -1.9351
  234MPD1    N1 3560   1.099   1.962   9.700 -0.4981 -0.0204 -0.0214
  234MPD1    H6 3561   1.082   2.016   9.784 -0.8715 -1.9216  1.1039
  234MPD1    H7 3562   1.051   1.877   9.728  0.3747 -0.5476 -0.1158
  235MPD1     C 3563   0.911   1.224   9.406  0.3834  0.4156 -0.3688
  235MPD1    C1 3564   0.993   1.301   9.316  0.2791  0.1505 -0.1608
  235MPD1    C2 3565   1.125   1.264   9.307  0.0125 -0.6128  0.1756
  235MPD1    C3 3566   1.180   1.163   9.385  0.1135 -0.2092  0.2564
  235MPD1    C4 3567   1.101   1.093   9.473  0.1283  0.5315  0.1704
  235MPD1    C5 3568   0.972   1.126   9.482 -0.5156 -0.0230  1.4605
  235MPD1     H 3569   1.201   1.315   9.249 -0.3574 -0.5994 -0.2965
  235MPD1    H1 3570   1.127   1.016   9.544  0.7712 -0.9144 -1.6276
  235MPD1    H2 3571   0.805   1.240   9.419  0.6232  1.5085  0.2426
  235MPD1    H3 3572   0.918   1.078   9.563  2.0252 -2.3429  1.7531
  235MPD1     N 3573   1.314   1.127   9.360  0.3428  0.7828 -0.7943
  235MPD1    H5 3574   1.354   1.164   9.275  1.9575 -1.8508 -1.1859
  235MPD1    N1 3575   0.940   1.408   9.238  0.5860 -0.4592  0.1836
  235MPD1    H6 3576   0.867   1.466   9.280  0.5916  0.8782 -1.6316
  235MPD1    H7 3577   1.009   1.476   9.207  3.0096 -2.5506  1.0790
  236MPD1     C 3578   2.355   1.777  10.506 -0.6558  0.0555  0.0562
  236MPD1    C1 3579   2.289   1.705  10.419  0.5114 -1.0025 -0.3473
  236MPD1    C2 3580   2.332   1.579  10.389  0.1170 -0.3219 -0.0562
  236MPD1    C3 3581   2.440   1.522  10.464  0.6340 -0.5388 -0.1578
  236MPD1    C4 3582   2.512   1.601  10.552 -0.4180 -0.3953 -0.1522
  236MPD1    C5 3583   2.466   1.732  10.570  0.3272  0.3669 -0.1559
  236MPD1     H 3584   2.276   1.513  10.324  2.6183 -1.6373 -0.8592
  236MPD1    H1 3585   2.605   1.569  10.596  1.5130  0.7000 -3.4769
  236MPD1    H2 3586   2.327   1.882  10.506  0.1760  0.2769 -0.8717
  236MPD1    H3 3587   2.529   1.793  10.634 -1.9913  2.4596  0.1446
  236MPD1     N 3588   2.502   1.394  10.434  0.1341  0.9869  0.5262
  236MPD1    H5 3589   2.583   1.374  10.492  1.6197 -0.9298 -2.2149
  236MPD1    N1 3590   2.195   1.757  10.331  0.0128  0.1357  0.0709
  236MPD1    H6 3591   2.153   1.842  10.367 -3.3015 -1.0688 -0.9817
  236MPD1    H7 3592   2.120   1.689  10.323 -0.8350  1.3610 -2.4755
  237MPD1     C 3593   1.597   4.500  15.470 -0.1415 -0.1289 -0.5120
  237MPD1    C1 3594   1.541   4.490  15.343  0.0504 -0.1509 -0.0901
  237MPD1    C2 3595   1.426   4.567  15.327  0.0999 -0.1184  1.0989
  237MPD1    C3 3596   1.357   4.617  15.430  0.9200  0.1993  0.1219
  237MPD1    C4 3597   1.401   4.612  15.558 -0.2773 -0.0273  0.1530
  237MPD1    C5 3598   1.527   4.563  15.573 -0.0419  0.3297  0.3145
  237MPD1     H 3599   1.391   4.582  15.225  0.9624  1.4042  1.0243
  237MPD1    H1 3600   1.342   4.642  15.643  0.1926 -2.3553  1.2976
  237MPD1    H2 3601   1.696   4.469  15.502  0.0839  1.7162  0.6148
  237MPD1    H3 3602   1.566   4.553  15.673  2.5710 -0.8504 -0.8161
  237MPD1     N 3603   1.234   4.677  15.415  1.2709  0.1147  0.6740
  237MPD1    H5 3604   1.184   4.691  15.502 -0.5963  0.2241 -0.4290
  237MPD1    N1 3605   1.619   4.443  15.237  0.5054 -0.6760  0.1844
  237MPD1    H6 3606   1.683   4.374  15.275  1.2079 -0.4841 -0.6579
  237MPD1    H7 3607   1.554   4.417  15.163 -1.1617  2.0203  0.6925
  238MPD1     C 3608   3.069   3.797  14.916 -0.6452 -0.8960  0.2525
  238MPD1    C1 3609   2.962   3.815  14.832 -0.2575 -0.6487  0.0461
  238MPD1    C2 3610   2.941   3.719  14.740  0.3120  0.3524 -0.3207
  238MPD1    C3 3611   3.018   3.608  14.727 -0.0560  0.1349  0.6310
  238MPD1    C4 3612   3.123   3.597  14.819  0.4255 -0.0458 -0.2109
  238MPD1    C5 3613   3.153   3.696  14.903 -0.2500 -0.1712  0.5365
  238MPD1     H 3614   2.868   3.736  14.661 -0.4395  2.0203  0.7537
  238MPD1    H1 3615   3.200   3.520  14.818 -0.8767 -1.3406 -0.2014
  238MPD1    H2 3616   3.089   3.869  14.995 -0.9624  1.4687 -1.8185
  238MPD1    H3 3617   3.232   3.684  14.976 -0.0419 -1.6790  0.0637
  238MPD1     N 3618   2.991   3.514  14.627 -0.7766 -0.0492  0.4138
  238MPD1    H5 3619   3.052   3.433  14.632  3.0378  2.6794 -1.4405
  238MPD1    N1 3620   2.874   3.919  14.861  0.4559  0.3880  0.0119
  238MPD1    H6 3621   2.803   3.932  14.788  0.5012  0.2974 -0.0494
  238MPD1    H7 3622   2.931   4.000  14.881  0.1956  0.9718 -1.5644
  239MPD1     C 3623   3.321   4.255  15.239 -0.7933  0.5207  0.4446
  239MPD1    C1 3624   3.213   4.187  15.198 -0.2052 -0.3370  0.5442
  239MPD1    C2 3625   3.170   4.199  15.076 -0.0790 -0.4753  0.1232
  239MPD1    C3 3626   3.228   4.284  14.989 -0.5947  0.0172 -0.0083
  239MPD1    C4 3627   3.337   4.360  15.026  0.3146 -0.3334 -0.2831
  239MPD1    C5 3628   3.382   4.343  15.147  0.6014  0.3939 -0.0674
  239MPD1     H 3629   3.099   4.128  15.034  1.0687 -1.6131  0.1351
  239MPD1    H1 3630   3.389   4.429  14.961 -1.6456 -1.4048 -2.9747
  239MPD1    H2 3631   3.372   4.241  15.334 -0.0581 -2.4170 -0.3658
  239MPD1    H3 3632   3.471   4.395  15.179  0.1646  2.0801 -1.6034
  239MPD1     N 3633   3.177   4.312  14.862 -0.4152 -0.1006 -0.1970
  239MPD1    H5 3634   3.232   4.368  14.797  3.5446 -2.0571  1.4635
  239MPD1    N1 3635   3.157   4.086  15.283 -0.4777  0.2526 -0.7682
  239MPD1    H6 3636   3.182   4.087  15.381  0.3779 -2.2959 -0.9802
  239MPD1    H7 3637   3.057   4.070  15.270 -0.3662  0.4999 -1.9267
  240MPD1     C 3638   2.429   4.186  13.166  0.4132  1.1247 -0.3384
  240MPD1    C1 3639   2.323   4.124  13.222  0.3016  1.1134 -0.2051
  240MPD1    C2 3640   2.340   4.034  13.327 -0.3531  0.7302  0.5186
  240MPD1    C3 3641   2.468   4.010  13.375 -0.3044  0.6172 -0.6760
  240MPD1    C4 3642   2.573   4.062  13.311  0.4624  0.8073 -0.1513
  240MPD1    C5 3643   2.553   4.153  13.213 -0.1893  0.2781  0.4444
  240MPD1     H 3644   2.257   4.001  13.388  0.5364 -0.5896  1.0177
  240MPD1    H1 3645   2.668   4.044  13.359  0.6321 -0.0633 -0.8068
  240MPD1    H2 3646   2.427   4.263  13.091 -0.3605  1.4341  0.0092
  240MPD1    H3 3647   2.642   4.192  13.165  0.8982 -0.6738  1.6820
  240MPD1     N 3648   2.477   3.931  13.495  0.1288 -0.2070  0.1306
  240MPD1    H5 3649   2.387   3.908  13.537 -1.2289  1.2362 -2.0108
  240MPD1    N1 3650   2.197   4.184  13.202  0.1949 -0.2247  0.2987
  240MPD1    H6 3651   2.198   4.225  13.109 -0.1860 -0.8849  0.0081
  240MPD1    H7 3652   2.126   4.111  13.206  2.0396 -2.2346 -2.7899
  241MPD1     C 3653   3.031   4.025  14.301 -0.5166 -0.2525 -0.7780
  241MPD1    C1 3654   2.950   3.919  14.339  0.6002 -0.6839  0.4812
  241MPD1    C2 3655   2.875   3.860  14.235  0.0351  0.4892 -0.1615
  241MPD1    C3 3656   2.881   3.907  14.102 -0.4533  0.3143  0.3965
  241MPD1    C4 3657   2.966   4.006  14.079  0.1407 -0.0710  0.0804
  241MPD1    C5 3658   3.040   4.071  14.170 -0.3764  0.5774  0.1599
  241MPD1     H 3659   2.815   3.774  14.261  1.6570 -0.4185  0.5635
  241MPD1    H1 3660   2.985   4.031  13.975 -0.4767  0.2928  0.0485
  241MPD1    H2 3661   3.097   4.062  14.379 -2.1828  0.5155  0.2604
  241MPD1    H3 3662   3.111   4.148  14.141  0.1794  0.6588  1.7564
  241MPD1     N 3663   2.818   3.842  13.993  0.2762 -0.3876  0.6382
  241MPD1    H5 3664   2.835   3.882  13.901  0.2291  0.1265  0.8536
  241MPD1    N1 3665   2.936   3.882  14.473  0.0827  0.5690 -0.5928
  241MPD1    H6 3666   2.906   3.785  14.475  1.4187  0.1626 -0.2892
  241MPD1    H7 3667   3.021   3.880  14.529  0.7002  0.3990 -1.5336
  242MPD1     C 3668   2.469   1.965  15.940  0.7614 -0.6441 -0.1616
  242MPD1    C1 3669   2.426   1.866  15.853  0.1219  0.8049 -0.1040
  242MPD1    C2 3670   2.474   1.872  15.724  0.6092  0.0956 -0.6925
  242MPD1    C3 3671   2.547   1.981  15.678 -0.0441  0.2819 -0.1936
  242MPD1    C4 3672   2.568   2.090  15.762  0.7872  0.0236  0.6845
  242MPD1    C5 3673   2.527   2.078  15.892  0.1437  0.0559 -0.2766
  242MPD1     H 3674   2.440   1.796  15.655 -1.0173  1.9341 -1.9262
  242MPD1    H1 3675   2.615   2.178  15.720  1.3798 -0.5598  0.1325
  242MPD1    H2 3676   2.448   1.964  16.047  0.5834 -3.9327 -0.2318
  242MPD1    H3 3677   2.537   2.160  15.963 -3.4517 -0.1781  0.5097
  242MPD1     N 3678   2.604   1.996  15.545 -0.0797  0.5147 -0.2592
  242MPD1    H5 3679   2.657   2.080  15.528  0.1979  0.9882  3.0044
  242MPD1    N1 3680   2.358   1.751  15.898  0.2185  0.4169  0.9939
  242MPD1    H6 3681   2.288   1.724  15.829  1.5290 -1.6403  0.4690
  242MPD1    H7 3682   2.296   1.776  15.975  0.1592  0.3080  0.9834
  243MPD1     C 3683   4.640   0.225  17.622 -0.1815 -0.0470  0.3729
  243MPD1    C1 3684   4.627   0.231  17.488  0.4014  0.8426  0.1350
  243MPD1    C2 3685   4.533   0.315  17.440  0.2630 -0.4377 -0.0339
  243MPD1    C3 3686   4.465   0.403  17.517 -0.2255 -0.6837  0.2796
  243MPD1    C4 3687   4.482   0.398  17.655  0.1889 -0.0839  0.1616
  243MPD1    C5 3688   4.563   0.298   0.018 -0.0288  0.2958 -0.1968
  243MPD1     H 3689   4.501   0.304  17.337 -3.7694 -1.0338  1.2989
  243MPD1    H1 3690   4.426   0.467   0.031  0.3784  1.1888 -1.0778
  243MPD1    H2 3691   4.711   0.161  17.674  2.7945  0.7594 -2.6745
  243MPD1    H3 3692   4.573   0.272   0.123  1.1290 -5.0638 -1.6442
  243MPD1     N 3693   4.387   0.501  17.447 -1.2904 -0.1394  0.4246
  243MPD1    H5 3694   4.386   0.493  17.346  1.5367  2.2019  0.2102
  243MPD1    N1 3695   4.690   0.133  17.409 -0.1215  0.2367  0.6267
  243MPD1    H6 3696   4.698   0.164  17.312 -1.2266 -0.5527  0.2817
  243MPD1    H7 3697   0.068   0.129  17.431  0.8416 -0.7893 -3.9620
  244MPD1     C 3698   3.441   0.579  17.663  0.3995 -0.2785 -0.9298
  244MPD1    C1 3699   3.554   0.547   0.050  0.3997  0.7320  1.1778
  244MPD1    C2 3700   3.676   0.576  17.681  0.2318 -0.0502 -0.2710
  244MPD1    C3 3701   3.686   0.649  17.562  0.2998  0.0978  0.0150
  244MPD1    C4 3702   3.571   0.675  17.482 -0.5731 -0.1242  0.3652
  244MPD1    C5 3703   3.453   0.636  17.537  0.5633 -0.4344  0.0495
  244MPD1     H 3704   3.768   0.545   0.042  0.5602  0.9360 -0.2566
  244MPD1    H1 3705   3.574   0.726  17.386 -1.9368 -0.6117  0.0529
  244MPD1    H2 3706   3.341   0.560   0.014 -0.0597  1.8345 -1.1092
  244MPD1    H3 3707   3.361   0.662  17.486 -0.8708 -2.0427  1.8245
  244MPD1     N 3708   3.815   0.673  17.513  0.0353  0.4452  0.1067
  244MPD1    H5 3709   3.887   0.652  17.581  1.0702  0.6545 -0.9173
  244MPD1    N1 3710   3.548   0.465   0.158 -0.0571 -0.1298 -0.1264
  244MPD1    H6 3711   3.459   0.471   0.206  0.5334  3.4153  0.5474
  244MPD1    H7 3712   3.617   0.490   0.229  1.2985 -1.5150 -0.9520
  245MPD1     C 3713   0.957   1.321  13.202 -0.2333  0.7978 -0.1392
  245MPD1    C1 3714   0.917   1.335  13.334 -0.1329 -0.2329  0.1311
  245MPD1    C2 3715   0.937   1.461  13.390  0.3664  0.0048 -0.8708
  245MPD1    C3 3716   0.984   1.566  13.316  0.5884 -0.1154 -0.0295
  245MPD1    C4 3717   1.022   1.548  13.184  0.6709  0.0654 -0.1794
  245MPD1    C5 3718   1.007   1.430  13.129  0.7949  0.0879 -0.2873
  245MPD1     H 3719   0.908   1.477  13.494  1.6085 -2.4058 -0.1540
  245MPD1    H1 3720   1.063   1.631  13.127 -1.2193  1.8553  1.0458
  245MPD1    H2 3721   0.959   1.226  13.150 -1.8715  0.4571  0.4182
  245MPD1    H3 3722   1.044   1.404  13.030 -3.5294 -1.0510 -1.6399
  245MPD1     N 3723   1.003   1.686  13.386  0.3942 -0.0057  0.3650
  245MPD1    H5 3724   0.974   1.682  13.483  0.2933  0.6965  0.3654
  245MPD1    N1 3725   0.874   1.214  13.402  0.3590 -0.2125 -0.3740
  245MPD1    H6 3726   0.855   1.136  13.339 -1.4345 -0.2211  0.1724
  245MPD1    H7 3727   0.797   1.221  13.467  0.5931  0.0544 -0.1259
  246MPD1     C 3728   3.158   2.371   8.603  0.0572 -0.1448  0.6911
  246MPD1    C1 3729   3.151   2.280   8.498  0.4229  0.2422  0.7791
  246MPD1    C2 3730   3.025   2.227   8.477 -0.1828 -0.0972  0.0315
  246MPD1    C3 3731   2.922   2.244   8.569 -0.1778  0.0393  0.0696
  246MPD1    C4 3732   2.945   2.319   8.684  0.1801  0.7692 -0.9243
  246MPD1    C5 3733   3.053   2.398   8.689  0.0967 -0.1412  0.0520
  246MPD1     H 3734   2.996   2.174   8.387  0.2459  0.1382 -0.2463
  246MPD1    H1 3735   2.871   2.341   8.760  1.7862  1.6485  0.3628
  246MPD1    H2 3736   3.251   2.417   8.633  0.8588 -1.7773  0.6733
  246MPD1    H3 3737   3.072   2.463   8.774 -0.7752  0.3432 -0.1274
  246MPD1     N 3738   2.802   2.176   8.544  0.2347 -0.4723  0.1033
  246MPD1    H5 3739   2.796   2.122   8.458 -0.5037 -0.6884  0.2976
  246MPD1    N1 3740   3.253   2.279   8.399 -0.1828  0.3538 -0.5805
  246MPD1    H6 3741   3.343   2.296   8.443  0.0708 -1.9677 -0.2052
  246MPD1    H7 3742   3.257   2.183   8.363  0.9369  0.6718 -1.2966
  247MPD1     C 3743   0.375   1.063  16.438  0.2254  0.4564 -0.8114
  247MPD1    C1 3744   0.276   1.040  16.344 -0.2313 -0.1969 -0.0963
  247MPD1    C2 3745   0.304   0.997  16.216  0.3370  0.3908 -0.1295
  247MPD1    C3 3746   0.437   0.987  16.173 -0.0609  0.5126  0.3880
  247MPD1    C4 3747   0.535   1.009  16.268 -0.4342  0.6568  0.3558
  247MPD1    C5 3748   0.506   1.048  16.398 -0.0113  0.1633  1.1186
  247MPD1     H 3749   0.223   0.975  16.146  1.5141  0.5815 -1.5620
  247MPD1    H1 3750   0.639   1.005  16.240 -0.7782 -1.0384 -0.7133
  247MPD1    H2 3751   0.349   1.082  16.542 -2.0881 -1.0802 -1.1282
  247MPD1    H3 3752   0.589   1.061  16.467  2.2389 -0.3076 -1.4733
  247MPD1     N 3753   0.474   0.957  16.043 -0.1963  0.0650  0.2336
  247MPD1    H5 3754   0.571   0.947  16.015  0.2860  0.3003  1.8232
  247MPD1    N1 3755   0.147   1.077  16.383  0.2615  0.0158 -0.2683
  247MPD1    H6 3756   0.074   1.015  16.349 -0.4008  1.3981 -1.3501
  247MPD1    H7 3757   0.135   1.081  16.484  0.1743 -0.2579 -0.2684
  248MPD1     C 3758   1.309   2.981   0.723 -0.1383 -0.3546 -0.1293
  248MPD1    C1 3759   1.387   2.924   0.627  0.3152 -0.2066  0.4699
  248MPD1    C2 3760   1.329   2.834   0.544 -0.3812 -0.2286  0.4556
  248MPD1    C3 3761   1.192   2.805   0.558 -0.4221 -0.0448 -1.0230
  248MPD1    C4 3762   1.111   2.878   0.644  0.1119  0.4214  0.1297
  248MPD1    C5 3763   1.173   2.963   0.739 -0.3398 -0.1976 -0.1316
  248MPD1     H 3764   1.384   2.765   0.481 -2.5876 -1.7502  0.1978
  248MPD1    H1 3765   1.004   2.865   0.659  0.1829 -0.4723 -0.1369
  248MPD1    H2 3766   1.354   3.033   0.807 -0.8263  0.9879 -0.5944
  248MPD1    H3 3767   1.128   3.018   0.820 -1.4537 -1.2283 -0.0662
  248MPD1     N 3768   1.140   2.699   0.486  0.0811  0.3800 -0.1060
  248MPD1    H5 3769   1.205   2.647   0.430 -0.4033 -1.3525  0.9414
  248MPD1    N1 3770   1.528   2.946   0.633  0.9623 -0.2710  0.1710
  248MPD1    H6 3771   1.556   3.033   0.680 -0.5284  1.1307 -1.5451
  248MPD1    H7 3772   1.574   2.928   0.544 -0.4493  1.4210 -0.8861
  249MPD1     C 3773   2.494   4.527  10.305  0.0932 -0.3086  0.2560
  249MPD1    C1 3774   2.483   4.620  10.204 -1.3308  0.3571 -0.4132
  249MPD1    C2 3775   2.596   4.645  10.122 -0.5952  0.4883 -0.0603
  249MPD1    C3 3776   2.719   4.604  10.162  0.1693 -0.4419  0.2177
  249MPD1    C4 3777   2.733   4.515  10.268 -0.6038 -0.7497 -0.5391
  249MPD1    C5 3778   2.615   4.473  10.330  0.0101  1.0533 -0.1593
  249MPD1     H 3779   2.576   4.696  10.028 -0.2302 -1.2835 -1.1057
  249MPD1    H1 3780   2.827   4.468  10.295  0.1832  1.2870  0.2103
  249MPD1    H2 3781   2.406   4.494  10.360 -1.4978  1.2385 -1.3559
  249MPD1    H3 3782   2.619   4.398  10.409 -0.1353  0.4153 -0.7602
  249MPD1     N 3783   2.830   4.633  10.085 -0.2175  0.1565  0.1159
  249MPD1    H5 3784   2.811   4.680   9.998 -0.3840  2.6415  1.4837
  249MPD1    N1 3785   2.357   4.657  10.161  0.7553 -0.0518 -0.3363
  249MPD1    H6 3786   2.363   0.033  10.130  2.5843  0.1478  0.6416
  249MPD1    H7 3787   2.294   4.626  10.235 -0.5439 -1.2102 -1.9458
  250MPD2     C 3788   4.082   4.235  12.776  0.4891 -0.0390  0.0273
  250MPD2    C1 3789   3.975   4.312  12.813  0.0269  0.3470  0.1381
  250MPD2    C2 3790   3.849   4.254  12.796 -0.8495 -0.3257 -0.0836
  250MPD2    C3 3791   3.840   4.116  12.756 -0.2250  0.7921  0.2326
  250MPD2    C4 3792   3.951   4.040  12.733 -0.0098  0.1611 -0.6332
  250MPD2    C5 3793   4.070   4.108  12.734  0.2952  0.8649 -0.2808
  250MPD2     H 3794   3.760   4.314  12.810 -0.7491  0.6358 -3.4006
  250MPD2    H1 3795   3.941   3.933  12.715 -1.3845  0.3192 -0.8130
  250MPD2    H2 3796   4.178   4.283  12.791 -0.8419  2.2975  1.1822
  250MPD2    H3 3797   4.159   4.049  12.714 -1.1599 -1.3816 -0.0797
  250MPD2     N 3798   3.719   4.050  12.728  0.3487 -0.6102  0.1334
  250MPD2    H5 3799   3.723   3.963  12.676 -1.5947  0.1683 -1.3038
  250MPD2    N1 3800   3.997   4.450  12.842 -0.3847 -0.2332 -0.5373
  250MPD2    H7 3801   4.086   4.497  12.828  0.5487 -0.1510  5.3070
  251TMC3    C1 3802   3.932   4.673  12.805  0.4371  0.1060  0.1711
  251TMC3    C2 3803   3.846   0.052  12.837 -0.6383  0.3843 -0.4465
  251TMC3    C3 3804   3.891   0.185  12.804 -0.4768 -0.1635  0.2115
  251TMC3    C4 3805   4.047   4.698  12.745 -0.5273 -0.4878  0.8389
  251TMC3    C5 3806   4.075   0.101  12.701 -0.4295  0.4032 -0.1140
  251TMC3    C6 3807   4.007   0.209  12.735  1.2373  0.6174  0.0164
  251TMC3     C 3808   3.897   4.539  12.848  0.5922  0.4683  0.2497
  251TMC3     O 3809   3.780   4.521  12.875  1.1535  0.4734 -0.0780
  251TMC3     H 3810   3.766   0.040  12.909  1.0388  2.0435  1.6989
  251TMC3    H1 3811   4.104   4.617  12.700 -1.8647 -0.4830 -0.8588
  251TMC3    H2 3812   4.036   0.310  12.711 -1.3638  1.8817  2.1440
  251TMC3    C7 3813   4.219   0.111  12.673  0.2294  0.1284 -0.1379
  251TMC3    C8 3814   3.810   0.303  12.859 -0.2988  1.1109  0.0122
  251TMC3    O1 3815   4.291   0.042  12.740  0.2650  0.1426  0.2086
  251TMC3    O2 3816   3.689   0.297  12.873 -0.1188 -0.4689 -0.2858
  252TMC3    C1 3817   0.196   1.222   8.677  0.4053 -1.1532 -0.6507
  252TMC3    C2 3818   0.317   1.161   8.685 -0.1285 -0.2556  0.2943
  252TMC3    C3 3819   0.333   1.046   8.750 -0.3558  0.1195 -0.1420
  252TMC3    C4 3820   0.090   1.158   8.731 -0.4780  0.0300 -0.5310
  252TMC3    C5 3821   0.106   1.039   8.804 -0.0360  0.2562 -0.3625
  252TMC3    C6 3822   0.232   0.979   8.815 -0.5431 -0.5646 -0.4714
  252TMC3     C 3823   0.212   1.363   8.662  0.0686 -0.1135 -0.3775
  252TMC3     O 3824   0.325   1.403   8.647  0.3124 -0.0938  0.0732
  252TMC3     H 3825   0.410   1.208   8.654 -0.7397  1.8030  1.5736
  252TMC3    H1 3826   4.713   1.204   8.727  0.2440  1.4564 -1.8661
  252TMC3    H2 3827   0.243   0.877   8.847  1.0859 -0.0623  0.5208
  252TMC3    C7 3828   4.709   0.955   8.808  0.4412 -0.1499  0.0004
  252TMC3    C8 3829   0.466   0.993   8.758 -0.9863 -0.3998 -1.0013
  252TMC3    O1 3830   4.615   0.994   8.737 -0.8588 -0.1636 -0.5317
  252TMC3    O2 3831   0.539   0.993   8.658 -0.2125  0.2910 -0.4163
  253MPD2     C 3832   0.776   0.357  15.391 -0.3389  0.4913  0.0955
  253MPD2    C1 3833   0.640   0.340  15.379  0.1805 -0.4852  0.7754
  253MPD2    C2 3834   0.572   0.270  15.471 -0.3999  0.4348  0.6372
  253MPD2    C3 3835   0.631   0.220  15.581 -0.0060 -0.2427  0.7383
  253MPD2    C4 3836   0.765   0.238  15.600  0.3111  0.2026 -0.6064
  253MPD2    C5 3837   0.832   0.300  15.503  0.1422 -0.3892 -0.3673
  253MPD2     H 3838   0.464   0.276  15.465 -0.4566 -0.2469  1.0912
  253MPD2    H1 3839   0.816   0.195  15.685  1.4863 -0.3604 -1.6036
  253MPD2    H2 3840   0.844   0.410  15.326 -0.6619  2.0844  1.0701
  253MPD2    H3 3841   0.939   0.309  15.514 -0.1481  1.7942  0.5544
  253MPD2     N 3842   0.549   0.153  15.679 -0.4130 -0.0404  0.1807
  253MPD2    H5 3843   0.598   0.126  15.763 -0.5233 -0.5305  0.0863
  253MPD2    N1 3844   0.567   0.402  15.273 -0.1322  0.2121 -0.2366
  253MPD2    H7 3845   0.468   0.381  15.275 -0.1100  0.0186 -1.1659
  254TMC3    C1 3846   0.354   0.102  15.798  0.5722  0.8538  0.9432
  254TMC3    C2 3847   0.215   0.105  15.796  0.2320 -0.2180 -0.0022
  254TMC3    C3 3848   0.153   0.140  15.913  0.1235 -0.0771  0.8170
  254TMC3    C4 3849   0.423   0.119  15.917 -0.6957 -0.1727 -0.6468
  254TMC3    C5 3850   0.352   0.145  16.026 -0.6521 -0.2874 -0.2618
  254TMC3    C6 3851   0.220   0.159  16.028 -0.1683 -0.1049  0.5908
  254TMC3     C 3852   0.419   0.127  15.676  0.3878 -0.2620  0.4640
  254TMC3     O 3853   0.352   0.107  15.577 -0.1754  0.2680 -0.4574
  254TMC3     H 3854   0.154   0.100  15.706 -0.7864  0.6619  0.6425
  254TMC3    H1 3855   0.529   0.093  15.914 -1.1952 -2.4357  1.0733
  254TMC3    H2 3856   0.170   0.169  16.123  0.5017  2.2533  0.6919
  254TMC3    C7 3857   0.406   0.158  16.156 -0.7988  0.0344  0.0469
  254TMC3    C8 3858   0.025   0.214  15.906  1.0103  0.3355  0.0407
  254TMC3    O1 3859   0.343   0.110  16.249  0.5161 -0.2846  0.4909
  254TMC3    O2 3860   4.712   0.241  15.790 -0.4019 -0.3508 -0.7119
  255MPD2     C 3861   4.122   1.731  10.460 -0.3655  0.3966  0.4994
  255MPD2    C1 3862   4.208   1.836  10.429 -0.2702  0.8960  0.3302
  255MPD2    C2 3863   4.337   1.818  10.393  0.2323  0.0631  0.4617
  255MPD2    C3 3864   4.390   1.689  10.415 -1.0799  0.4293 -0.2237
  255MPD2    C4 3865   4.307   1.583  10.436  0.2638 -0.0365 -0.2580
  255MPD2    C5 3866   4.175   1.602  10.468  0.0710 -0.7092  0.3270
  255MPD2     H 3867   4.409   1.896  10.370  2.1030 -2.1097 -1.0467
  255MPD2    H1 3868   4.339   1.480  10.444 -2.1474 -0.8512 -1.0534
  255MPD2    H2 3869   4.021   1.752  10.495  0.4202 -0.4038  3.2578
  255MPD2    H3 3870   4.110   1.521  10.499  0.3359 -0.8292  0.5630
  255MPD2     N 3871   4.533   1.675  10.401 -0.5803 -0.0186  0.4057
  255MPD2    H5 3872   4.585   1.763  10.399  0.3040 -0.5577 -0.2315
  255MPD2    N1 3873   4.166   1.970  10.422 -1.0504  0.2941  1.0321
  255MPD2    H7 3874   4.236   2.030  10.381 -0.1147 -0.3713  1.6739
  256TMC3    C1 3875   4.028   2.160  10.419  0.7016 -0.2843 -0.2795
  256TMC3    C2 3876   4.128   2.248  10.443 -0.0551 -0.2584 -0.6028
  256TMC3    C3 3877   4.109   2.374  10.385  0.9474 -0.1674 -0.2433
  256TMC3    C4 3878   3.908   2.195  10.369  0.1999 -0.3068 -0.1640
  256TMC3    C5 3879   3.898   2.325  10.325 -0.2292  0.7155 -0.1948
  256TMC3    C6 3880   3.996   2.415  10.328 -0.3518 -0.4897 -0.5555
  256TMC3     C 3881   4.038   2.018  10.450  0.1649 -0.7101  0.0702
  256TMC3     O 3882   3.933   1.960  10.465 -0.2996  0.0825  0.1914
  256TMC3     H 3883   4.220   2.230  10.498 -0.6128  1.2673  0.8166
  256TMC3    H1 3884   3.826   2.125  10.361 -0.7006  0.7120  0.1801
  256TMC3    H2 3885   3.972   2.512  10.286  1.8196  0.4375  0.3196
  256TMC3    C7 3886   3.774   2.358  10.256 -0.9405 -0.4557 -0.0963
  256TMC3    C8 3887   4.233   2.456  10.379  0.9328  0.2265 -0.1040
  256TMC3    O1 3888   3.782   2.419  10.152  0.3635  0.3107  0.0604
  256TMC3    O2 3889   4.329   2.428  10.450 -0.3177 -0.4017  0.1458
  257MPD2     C 3890   2.854   4.673  13.176 -0.3498 -0.2718  0.4960
  257MPD2    C1 3891   2.898   4.565  13.103 -0.1494 -0.1789  0.0363
  257MPD2    C2 3892   2.905   4.442  13.155  0.2839 -0.2683 -0.3429
  257MPD2    C3 3893   2.893   4.427  13.294 -0.8781  1.0894 -0.2421
  257MPD2    C4 3894   2.874   4.532  13.370  0.1909  0.6470 -0.7334
  257MPD2    C5 3895   2.846   4.651  13.309 -0.3952 -0.3839 -0.8338
  257MPD2     H 3896   2.929   4.355  13.095 -0.6884 -0.2395 -0.7808
  257MPD2    H1 3897   2.880   4.530  13.478 -2.9359  2.2813 -0.5599
  257MPD2    H2 3898   2.833   0.050  13.136  0.5092 -1.3442 -2.5456
  257MPD2    H3 3899   2.825   0.012  13.377 -0.5804 -2.5164  1.6703
  257MPD2     N 3900   2.911   4.301  13.340 -0.0292  0.3227  0.1387
  257MPD2    H5 3901   2.903   4.226  13.272  0.9834  1.8730 -1.6641
  257MPD2    N1 3902   2.944   4.581  12.978 -0.4784 -0.2169  0.2044
  257MPD2    H7 3903   2.916   4.670  12.938  2.4019  0.3967 -0.4743
  258TMC3    C1 3904   2.973   4.131  13.484 -0.0402 -0.1048  0.2203
  258TMC3    C2 3905   2.971   4.049  13.374 -0.3033  0.7731  0.3182
  258TMC3    C3 3906   3.045   3.931  13.376  0.1650  0.1469 -0.2100
  258TMC3    C4 3907   3.062   4.101  13.583 -0.5701  0.2016 -0.2218
  258TMC3    C5 3908   3.138   3.991  13.580 -0.0478  0.5308 -0.2767
  258TMC3    C6 3909   3.125   3.896  13.482  0.0580 -0.0560  0.4345
  258TMC3     C 3910   2.938   4.266  13.466 -0.2559  0.1520 -0.2076
  258TMC3     O 3911   2.959   4.336  13.562 -0.6247  0.2697  0.1293
  258TMC3     H 3912   2.897   4.065  13.297 -1.9716 -1.8417  1.3831
  258TMC3    H1 3913   3.071   4.164  13.671 -2.2315 -0.8313  0.6779
  258TMC3    H2 3914   3.173   3.800  13.497  0.8134  1.0431  4.9603
  258TMC3    C7 3915   3.168   3.930  13.709 -0.1951 -0.0315  0.2083
  258TMC3    C8 3916   3.037   3.842  13.264 -0.9954  0.7936  0.4744
  258TMC3    O1 3917   3.064   3.910  13.771 -0.5809 -0.3007  0.7227
  258TMC3    O2 3918   2.939   3.853  13.195 -0.3099 -0.2276 -0.0881
  259MPD2     C 3919   1.985   2.092   0.503  0.0843  0.4131 -0.7565
  259MPD2    C1 3920   1.925   1.971   0.483 -0.1976  0.2751  0.4523
  259MPD2    C2 3921   1.929   1.918   0.353  0.4728 -0.5154 -0.7622
  259MPD2    C3 3922   1.979   1.991   0.248 -0.2011  0.7237  0.5842
  259MPD2    C4 3923   2.011   2.127   0.269  0.3993  0.2834 -0.5993
  259MPD2    C5 3924   2.018   2.173   0.398  0.1582 -0.0345 -0.0957
  259MPD2     H 3925   1.884   1.823   0.329 -0.9618  0.3299 -1.4224
  259MPD2    H1 3926   2.033   2.190   0.184  0.7917  2.0402  0.7873
  259MPD2    H2 3927   1.989   2.134   0.603 -3.4938 -0.8635 -0.0545
  259MPD2    H3 3928   2.043   2.278   0.409 -0.1312  0.0514 -0.2696
  259MPD2     N 3929   1.982   1.920   0.132  0.2876  0.2721  0.5186
  259MPD2    H5 3930   1.960   1.821   0.135 -2.1175  0.8496  2.0883
  259MPD2    N1 3931   1.862   1.904   0.588  0.1536  0.4637 -0.0418
  259MPD2    H7 3932   1.824   1.957   0.666  0.7878  2.9275 -1.4029
  260TMC3    C1 3933   2.095   1.837  17.639 -0.1969  0.2489 -0.8584
  260TMC3    C2 3934   2.207   1.861  17.559 -0.6481 -0.2393  0.4167
  260TMC3    C3 3935   2.296   1.755  17.542 -0.6866 -0.3353  0.0835
  260TMC3    C4 3936   2.063   1.714   0.008  0.6446  0.3804 -0.3744
  260TMC3    C5 3937   2.156   1.619  17.682 -0.3943  0.4355 -0.2951
  260TMC3    C6 3938   2.280   1.643  17.615  0.1167 -0.0217 -0.3197
  260TMC3     C 3939   2.047   1.955   0.014  0.2810  0.1665  0.3202
  260TMC3     O 3940   2.091   2.065  17.657 -0.0509  0.4094  0.0441
  260TMC3     H 3941   2.235   1.960  17.525  2.5819 -0.7829  1.5146
  260TMC3    H1 3942   1.960   1.685   0.025  0.2955  1.3440 -0.8431
  260TMC3    H2 3943   2.361   1.573  17.624 -0.0743 -0.1573  0.3048
  260TMC3    C7 3944   2.121   1.485  17.659  0.0658 -0.2327  0.4089
  260TMC3    C8 3945   2.314   1.722  17.404 -0.5545  0.0354  0.4688
  260TMC3    O1 3946   2.187   1.435  17.567  0.1140 -0.2507 -0.0390
  260TMC3    O2 3947   2.311   1.812  17.319  0.2128  0.4134  0.1342
  261MPD2     C 3948   3.151   4.396  12.270 -0.4153  0.5067  0.6339
  261MPD2    C1 3949   3.274   4.387  12.333 -0.0926  0.5087  1.0987
  261MPD2    C2 3950   3.360   4.496  12.318 -0.0447  0.4061  0.5187
  261MPD2    C3 3951   3.328   4.607  12.246 -0.4825 -0.1934 -0.1281
  261MPD2    C4 3952   3.206   4.611  12.190 -0.2745  0.5132 -0.3629
  261MPD2    C5 3953   3.114   4.514  12.209  0.0194 -0.4060 -0.2050
  261MPD2     H 3954   3.459   4.488  12.361  0.1695 -0.0689 -0.0591
  261MPD2    H1 3955   3.175   4.691  12.124 -0.0691  1.6365  0.9113
  261MPD2    H2 3956   3.081   4.313  12.276  0.1829 -0.0603 -0.3794
  261MPD2    H3 3957   3.019   4.524  12.159 -0.1310  2.9446  0.8003
  261MPD2     N 3958   3.422   4.710  12.228 -0.3990 -0.4820 -0.2437
  261MPD2    H5 3959   3.519   4.686  12.246 -1.0659 -1.9759  1.3187
  261MPD2    N1 3960   3.317   4.279  12.410 -0.0907  0.0598  0.1528
  261MPD2    H7 3961   3.400   4.282  12.469  0.1978 -2.1730 -0.1301
  262TMC3    C1 3962   3.516   0.188  12.162  0.1467 -0.0437 -0.3773
  262TMC3    C2 3963   3.502   0.321  12.139 -0.2903  0.0432  0.3348
  262TMC3    C3 3964   3.618   0.395  12.103 -0.6421  0.0962  0.1181
  262TMC3    C4 3965   3.640   0.131  12.135 -0.2084 -0.1623  0.0213
  262TMC3    C5 3966   3.751   0.213  12.112  0.3508  0.7487  0.2335
  262TMC3    C6 3967   3.743   0.340  12.083  0.3052  0.1366 -0.2997
  262TMC3     C 3968   3.398   0.107  12.175 -0.0956  0.0721  0.2159
  262TMC3     O 3969   3.290   0.158  12.167  0.7667 -0.5205 -0.6333
  262TMC3     H 3970   3.409   0.367  12.168  0.4396  2.2439 -0.7615
  262TMC3    H1 3971   3.654   0.024  12.136 -0.9010 -0.2555 -0.1005
  262TMC3    H2 3972   3.819   0.411  12.056 -0.3971  0.9498 -0.1453
  262TMC3    C7 3973   3.882   0.162  12.126 -0.2798  0.6661 -0.4661
  262TMC3    C8 3974   3.604   0.539  12.084 -0.2128 -0.0562  0.1783
  262TMC3    O1 3975   3.898   0.038  12.122  0.6590  0.4686  0.7057
  262TMC3    O2 3976   3.710   0.603  12.089 -0.4103  0.2191  0.5418
  263MPD2     C 3977   4.560   3.797  11.526  0.1513  0.0743  0.0105
  263MPD2    C1 3978   4.670   3.772  11.446 -0.1588  0.2967  0.2767
  263MPD2    C2 3979   4.664   3.798  11.311 -0.7308 -0.2250  0.0058
  263MPD2    C3 3980   4.557   3.863  11.255 -0.3566  0.1286 -0.0461
  263MPD2    C4 3981   4.453   3.887  11.330 -0.2822  0.5833 -0.3562
  263MPD2    C5 3982   4.452   3.856  11.468 -0.3576  0.5730  0.1459
  263MPD2     H 3983   0.034   3.791  11.253 -0.3952 -1.0159  0.6326
  263MPD2    H1 3984   4.361   3.927  11.289  0.5947  1.7299 -1.2072
  263MPD2    H2 3985   4.558   3.784  11.633  0.8339 -1.1134 -0.1174
  263MPD2    H3 3986   4.370   3.883  11.534  1.7199 -1.6646  3.6422
  263MPD2     N 3987   4.572   3.909  11.122 -0.1172 -0.5686 -0.3689
  263MPD2    H5 3988   4.664   3.901  11.081  1.0425 -0.1930  2.1268
  263MPD2    N1 3989   0.066   3.735  11.511 -0.5900 -0.6935 -0.6569
  263MPD2    H7 3990   0.067   3.732  11.612 -2.6411 -0.2149 -0.6210
  264TMC3    C1 3991   4.537   4.028  10.932 -0.1444  0.2695 -0.4928
  264TMC3    C2 3992   4.525   4.166  10.911 -0.1678 -0.2475  1.1155
  264TMC3    C3 3993   4.613   4.227  10.825  0.7925 -0.4308 -0.0279
  264TMC3    C4 3994   4.641   3.958  10.876  0.5069 -0.1690 -0.3804
  264TMC3    C5 3995   4.716   4.022  10.779 -0.2169 -0.9740 -0.5245
  264TMC3    C6 3996   4.702   4.158  10.756  0.7548 -0.4664 -0.4765
  264TMC3     C 3997   4.482   3.986  11.056 -0.0185  0.0871  0.3798
  264TMC3     O 3998   4.379   4.043  11.093  0.0468 -0.3734  0.2181
  264TMC3     H 3999   4.449   4.220  10.966 -1.3263  0.7349 -1.4942
  264TMC3    H1 4000   4.644   3.851  10.894 -1.1752 -0.3319 -1.1574
  264TMC3    H2 4001   0.045   4.218  10.692  2.4609 -2.4326 -0.5874
  264TMC3    C7 4002   0.087   3.950  10.697  0.0157 -0.1995  0.0300
  264TMC3    C8 4003   4.625   4.369  10.818  0.8322 -0.6571 -0.1094
  264TMC3    O1 4004   0.159   4.020  10.628  0.4399  0.3072 -0.0758
  264TMC3    O2 4005   4.694   4.427  10.734 -0.7869  0.1824 -0.1200
  265MPD2     C 4006   1.918   4.213  15.690 -0.3045  0.2637 -0.2551
  265MPD2    C1 4007   1.916   4.313  15.599  0.5038  0.1041  0.0499
  265MPD2    C2 4008   1.928   4.269  15.471  0.4034 -0.4895 -0.2606
  265MPD2    C3 4009   1.937   4.134  15.430  1.3678  0.3198 -0.4496
  265MPD2    C4 4010   1.939   4.040  15.533 -0.2176  0.6423 -0.2715
  265MPD2    C5 4011   1.932   4.077  15.658 -0.6794 -0.5421 -0.6670
  265MPD2     H 4012   1.930   4.349  15.398 -0.9991  0.2030  0.4496
  265MPD2    H1 4013   1.947   3.934  15.511  0.9889  0.5308  0.6958
  265MPD2    H2 4014   1.927   4.236  15.795 -1.1557 -4.8852  0.9508
  265MPD2    H3 4015   1.927   4.001  15.735 -1.0904 -0.1247 -0.2815
  265MPD2     N 4016   1.957   4.089  15.303  0.0786 -0.2649 -0.5862
  265MPD2    H5 4017   1.961   3.989  15.289 -1.0777 -0.3054 -0.6653
  265MPD2    N1 4018   1.904   4.453  15.623  0.3095 -0.0954  0.1015
  265MPD2    H7 4019   1.896   4.513  15.542  0.0417  0.8193  0.8139
  266TMC3    C1 4020   1.817   4.635  15.750 -0.4238  0.7349 -0.0894
  266TMC3    C2 4021   1.766   4.684  15.870  0.3765 -0.0537  0.1756
  266TMC3    C3 4022   1.717   0.091  15.870  0.1235  0.9958 -0.1191
  266TMC3    C4 4023   1.810   4.711  15.636  0.1173 -0.0136 -0.4570
  266TMC3    C5 4024   1.766   0.121  15.647  0.0854  0.1193  0.5024
  266TMC3    C6 4025   1.714   0.172  15.763 -0.5456 -0.0956 -0.0082
  266TMC3     C 4026   1.883   4.505  15.752  0.5398  0.4421 -0.2917
  266TMC3     O 4027   1.872   4.445  15.858 -0.2533  0.0178 -0.5603
  266TMC3     H 4028   1.773   4.632  15.966 -0.2100  0.0691  0.2823
  266TMC3    H1 4029   1.842   4.674  15.539 -0.6914  1.3064 -1.2357
  266TMC3    H2 4030   1.682   0.276  15.764 -0.4345 -0.0406 -1.1993
  266TMC3    C7 4031   1.715   0.181  15.527 -0.5391 -0.1768  0.5191
  266TMC3    C8 4032   1.671   0.128  15.997  0.1038 -0.1883 -0.1354
  266TMC3    O1 4033   1.690   0.110  15.428  0.1059  0.6369  0.3355
  266TMC3    O2 4034   1.598   0.046  16.050 -0.8167 -0.4979  0.1468
  267MPD2     C 4035   0.054   1.298  17.671  0.0268  0.3367 -0.2608
  267MPD2    C1 4036   4.699   1.392  17.609  0.1774  0.0981  0.7362
  267MPD2    C2 4037   4.637   1.350  17.493  0.7619  0.4584 -0.0348
  267MPD2    C3 4038   4.656   1.222  17.438  0.0390 -0.0348  0.2377
  267MPD2    C4 4039   0.003   1.129  17.509 -0.3701 -0.2014  0.7647
  267MPD2    C5 4040   0.078   1.171  17.618 -0.2153  0.2600 -0.0558
  267MPD2     H 4041   4.564   1.416  17.446  2.0334  0.6923 -1.6890
  267MPD2    H1 4042   0.021   1.026  17.482 -3.9241 -0.5078 -0.4575
  267MPD2    H2 4043   0.105   1.323   0.077  0.3813 -1.5538  0.0520
  267MPD2    H3 4044   0.136   1.110  17.686 -0.2668 -2.2278 -2.2494
  267MPD2     N 4045   4.581   1.177  17.328 -0.0179  0.5000 -0.3510
  267MPD2    H5 4046   4.572   1.076  17.316 -0.8536  0.7189 -1.5511
  267MPD2    N1 4047   4.680   1.518  17.680 -0.0639 -0.1444 -0.1903
  267MPD2    H7 4048   0.033   1.540   0.059 -0.7522  0.6939  0.3088
  268TMC3    C1 4049   4.594   1.734   0.040 -0.0087 -0.0623 -1.1711
  268TMC3    C2 4050   4.484   1.810   0.010 -0.2452  0.7268  0.0818
  268TMC3    C3 4051   4.394   1.834   0.117 -0.2499  0.1705 -0.1061
  268TMC3    C4 4052   4.623   1.707   0.165  0.0790  0.3926  0.7524
  268TMC3    C5 4053   4.536   1.730   0.265 -0.0256  0.2580  0.5346
  268TMC3    C6 4054   4.415   1.792   0.246 -0.2025 -0.3342  0.1611
  268TMC3     C 4055   4.596   1.617  17.642 -1.3296 -0.0571 -0.0455
  268TMC3     O 4056   4.512   1.617  17.551 -0.4100  0.0380  0.2943
  268TMC3     H 4057   4.465   1.835  17.594 -0.4165  1.7730  0.3716
  268TMC3    H1 4058   4.718   1.665   0.197  1.2210  2.0434 -0.5187
  268TMC3    H2 4059   4.332   1.795   0.316  0.4491  0.1075  0.9088
  268TMC3    C7 4060   4.561   1.654   0.390 -0.4205  0.0705 -0.3740
  268TMC3    C8 4061   4.262   1.876   0.092 -0.0257 -0.1339 -0.2387
  268TMC3    O1 4062   4.641   1.560   0.392 -0.4543 -0.3636  1.0756
  268TMC3    O2 4063   4.177   1.853   0.174 -0.1982  0.1155  0.2593
  269MPD2     C 4064   4.553   0.487  15.571 -0.0914 -0.2230  0.0334
  269MPD2    C1 4065   4.413   0.492  15.578  0.2646  0.2525  0.8158
  269MPD2    C2 4066   4.356   0.613  15.541 -0.3899  0.7243 -0.4107
  269MPD2    C3 4067   4.427   0.719  15.482  0.0002  0.4066  0.4088
  269MPD2    C4 4068   4.565   0.705  15.460  0.0419  0.5545  0.8263
  269MPD2    C5 4069   4.622   0.591  15.511  0.3211 -0.3716 -0.9256
  269MPD2     H 4070   4.248   0.629  15.541 -0.6413 -1.0202 -0.0650
  269MPD2    H1 4071   4.637   0.772  15.413  1.1156 -0.5609  0.8860
  269MPD2    H2 4072   4.612   0.402  15.603 -2.2946 -0.5257  3.2546
  269MPD2    H3 4073   0.007   0.579  15.495  0.8521  3.3982 -0.3010
  269MPD2     N 4074   4.355   0.836  15.455  0.1917 -0.6716 -0.0883
  269MPD2    H5 4075   4.258   0.838  15.483 -0.1374  1.2547 -1.3709
  269MPD2    N1 4076   4.343   0.370  15.616  0.3111  0.0879  0.0965
  269MPD2    H7 4077   4.399   0.289  15.642 -0.8946  0.1231  2.7235
  270TMC3    C1 4078   4.166   0.221  15.656 -0.1330  0.0406 -0.4174
  270TMC3    C2 4079   4.088   0.136  15.578  0.6876 -0.5451 -0.1110
  270TMC3    C3 4080   4.043   0.017  15.635 -0.1513  0.3471  0.1559
  270TMC3    C4 4081   4.200   0.195  15.789  0.0650 -0.0821 -0.2804
  270TMC3    C5 4082   4.143   0.087  15.849  0.0023 -0.2449 -0.4962
  270TMC3    C6 4083   4.057   4.718  15.773  0.9048  0.1975  0.1719
  270TMC3     C 4084   4.210   0.345  15.599 -0.5484 -0.4842 -0.2813
  270TMC3     O 4085   4.122   0.407  15.547 -0.0712 -0.4696  1.0013
  270TMC3     H 4086   4.061   0.165  15.478 -0.8410 -0.5225  0.3084
  270TMC3    H1 4087   4.277   0.253  15.837 -0.8944 -0.8309  2.1486
  270TMC3    H2 4088   4.034   4.616  15.803 -0.3826  0.1777 -0.8728
  270TMC3    C7 4089   4.222   0.014  15.941  0.3581 -0.1418  0.5663
  270TMC3    C8 4090   3.965   4.650  15.549 -0.0849  0.3548 -0.1449
  270TMC3    O1 4091   4.344   0.034  15.945 -0.0126  0.0668 -0.0453
  270TMC3    O2 4092   3.888   4.568  15.603 -0.2953  0.5930 -0.2107
  271MPD2     C 4093   3.822   4.493  13.686 -1.4487 -0.6468 -0.0918
  271MPD2    C1 4094   3.782   4.560  13.793 -0.2707  0.6201  0.2405
  271MPD2    C2 4095   3.668   4.636  13.790  0.2530  0.3690  0.2911
  271MPD2    C3 4096   3.598   4.658  13.674 -0.4893  0.1571  0.3249
  271MPD2    C4 4097   3.642   4.599  13.561 -0.0645  0.0568 -0.0041
  271MPD2    C5 4098   3.756   4.516  13.570 -0.1961  0.6364  0.2623
  271MPD2     H 4099   3.637   4.682  13.884  1.5980  1.0995  0.3749
  271MPD2    H1 4100   3.592   4.612  13.465  1.0515 -0.0938 -0.6062
  271MPD2    H2 4101   3.888   4.407  13.682  2.1024  2.1190 -0.3745
  271MPD2    H3 4102   3.790   4.458  13.485  1.0542  1.2122  0.3608
  271MPD2     N 4103   3.507   0.042  13.664 -0.6544  0.0676  0.3344
  271MPD2    H5 4104   3.452   0.050  13.579  0.6725 -1.4655 -0.6584
  271MPD2    N1 4105   3.836   4.552  13.924  0.1672 -0.2632 -0.0760
  271MPD2    H7 4106   3.773   4.596  13.990  0.5343 -0.3223  0.3136
  272TMC3    C1 4107   3.987   4.493  14.096  0.9735  0.3283 -0.1676
  272TMC3    C2 4108   4.120   4.477  14.126  0.3631  0.2516 -0.4069
  272TMC3    C3 4109   4.162   4.468  14.255 -0.5567 -0.4876  0.2708
  272TMC3    C4 4110   3.887   4.496  14.193 -0.2079  0.4719  0.4787
  272TMC3    C5 4111   3.940   4.502  14.322 -0.7843  0.2987  0.3187
  272TMC3    C6 4112   4.069   4.480  14.354  0.1518  0.1483  0.5930
  272TMC3     C 4113   3.952   4.490  13.953 -0.0812  0.3112 -0.4293
  272TMC3     O 4114   4.048   4.455  13.883  0.6755  0.3506 -0.3650
  272TMC3     H 4115   4.194   4.494  14.049  0.4860  0.5904 -0.2132
  272TMC3    H1 4116   3.781   4.511  14.175 -0.6747 -1.5798  1.5204
  272TMC3    H2 4117   4.103   4.486  14.457  0.8474 -0.4741  0.3997
  272TMC3    C7 4118   3.850   4.505  14.437 -0.4464 -0.6517  0.1391
  272TMC3    C8 4119   4.303   4.459  14.281  0.1259  0.9543  0.2074
  272TMC3    O1 4120   3.744   4.446  14.415 -0.0444 -0.3225 -0.2732
  272TMC3    O2 4121   4.385   4.515  14.208  0.6765 -0.2536 -0.0750
  273MPD2     C 4122   0.777   2.787  11.802 -0.4512 -1.0598 -0.5035
  273MPD2    C1 4123   0.847   2.887  11.753  0.5836  0.3608  0.1626
  273MPD2    C2 4124   0.864   2.900  11.618  0.4088 -1.0247  0.5731
  273MPD2    C3 4125   0.822   2.801  11.533  0.5020  0.2232  0.0272
  273MPD2    C4 4126   0.743   2.694  11.580 -0.3786  0.2896 -0.3494
  273MPD2    C5 4127   0.726   2.688  11.716  0.6996 -0.4558 -0.7577
  273MPD2     H 4128   0.906   2.996  11.590  0.0618 -0.4036  2.1655
  273MPD2    H1 4129   0.709   2.615  11.512  2.1770 -0.6812 -0.4846
  273MPD2    H2 4130   0.761   2.766  11.907  0.3691 -2.1573 -0.6021
  273MPD2    H3 4131   0.674   2.600  11.753  1.1899 -0.4430 -0.0460
  273MPD2     N 4132   0.837   2.820  11.390  1.0996 -0.6210  0.9883
  273MPD2    H5 4133   0.774   2.762  11.335 -0.2014 -0.3401  2.1721
  273MPD2    N1 4134   0.891   2.993  11.833 -0.0553 -0.2544  0.4633
  273MPD2    H7 4135   0.908   3.077  11.779 -1.3042  0.0965  0.6299
  274TMC3    C1 4136   0.927   2.931  11.192 -0.5776  0.3831 -0.0161
  274TMC3    C2 4137   0.815   2.885  11.130 -0.8523 -0.5598 -0.1648
  274TMC3    C3 4138   0.767   2.956  11.023 -0.0004 -0.8478  0.8233
  274TMC3    C4 4139   0.971   3.058  11.160 -0.3601  0.9442 -0.1950
  274TMC3    C5 4140   0.908   3.128  11.062 -0.7618  0.0829 -0.5291
  274TMC3    C6 4141   0.814   3.078  10.980 -0.6535 -0.4660 -0.2218
  274TMC3     C 4142   0.941   2.894  11.336  0.3904 -0.0502 -0.3049
  274TMC3     O 4143   1.036   2.938  11.399 -0.2766  0.0690  0.1149
  274TMC3     H 4144   0.774   2.789  11.162  1.7425 -1.5591  0.1594
  274TMC3    H1 4145   1.034   3.110  11.232 -0.2271  0.5434 -0.0237
  274TMC3    H2 4146   0.744   3.141  10.927 -1.0079 -0.3855  0.3354
  274TMC3    C7 4147   0.887   3.267  11.095 -0.3092 -0.2545 -0.5121
  274TMC3    C8 4148   0.665   2.884  10.950 -0.8833 -0.0756 -0.3708
  274TMC3    O1 4149   0.770   3.301  11.079 -0.1912  0.1548  0.0093
  274TMC3    O2 4150   0.608   2.793  11.002 -0.0433 -0.4049 -0.4582
  275MPD2     C 4151   0.420   1.274  14.403 -0.2138  0.6042  0.2247
  275MPD2    C1 4152   0.351   1.295  14.518 -0.3770  0.3456  0.8883
  275MPD2    C2 4153   0.225   1.236  14.536 -0.9274 -1.1102  0.3211
  275MPD2    C3 4154   0.175   1.135  14.451 -0.1521 -0.3062 -0.6804
  275MPD2    C4 4155   0.248   1.117  14.337 -0.1643 -0.5649 -0.0331
  275MPD2    C5 4156   0.363   1.186  14.310 -0.1022  0.5654  1.0535
  275MPD2     H 4157   0.174   1.251  14.630 -1.4771 -1.3279  0.0576
  275MPD2    H1 4158   0.227   1.046  14.257  1.2056 -1.6237  0.5528
  275MPD2    H2 4159   0.522   1.308  14.391  0.6265 -1.7689  0.8062
  275MPD2    H3 4160   0.423   1.162  14.223 -1.0664 -2.4718  1.2297
  275MPD2     N 4161   0.055   1.069  14.470  0.6538  0.0963  0.1431
  275MPD2    H5 4162   0.022   0.999  14.405 -1.1584  0.2092  0.9431
  275MPD2    N1 4163   0.389   1.382  14.622  0.2317 -0.0857 -0.1456
  275MPD2    H7 4164   0.340   1.366  14.709 -1.0233 -0.1751 -0.8710
  276TMC3    C1 4165   0.501   1.555  14.737 -0.0804 -1.0146  0.3523
  276TMC3    C2 4166   0.420   1.526  14.846  0.0861 -0.1778  0.3881
  276TMC3    C3 4167   0.448   1.577  14.970  0.0527  0.4074  0.4605
  276TMC3    C4 4168   0.626   1.609  14.756  0.7167  0.4838  0.2537
  276TMC3    C5 4169   0.650   1.655  14.884 -0.7598  0.1005  0.2801
  276TMC3    C6 4170   0.562   1.649  14.993 -0.3326  0.2906 -0.1749
  276TMC3     C 4171   0.481   1.482  14.616  0.3743 -0.2940 -0.3778
  276TMC3     O 4172   0.546   1.525  14.519  0.1425 -0.1949 -0.0810
  276TMC3     H 4173   0.325   1.475  14.842  1.4352 -2.5254 -1.3958
  276TMC3    H1 4174   0.695   1.626  14.674  0.8303 -0.3034  0.1913
  276TMC3    H2 4175   0.592   1.688  15.089 -0.4879 -1.2881  0.5159
  276TMC3    C7 4176   0.788   1.670  14.930 -0.3268 -0.4161 -0.0424
  276TMC3    C8 4177   0.379   1.517  15.088  0.0567 -0.1787 -0.2152
  276TMC3    O1 4178   0.806   1.680  15.051  0.6486 -0.4827  0.4612
  276TMC3    O2 4179   0.378   1.587  15.186  0.0850  0.3339 -0.1689
  277MPD2     C 4180   2.490   4.713  13.001  0.0856  0.1187 -0.5245
  277MPD2    C1 4181   2.363   0.028  13.032  0.6167  0.2312 -0.3794
  277MPD2    C2 4182   2.308   4.691  13.151 -0.3678 -0.2143 -0.6459
  277MPD2    C3 4183   2.377   4.592  13.227  0.0535 -0.5727 -0.4652
  277MPD2    C4 4184   2.501   4.556  13.190 -0.0966 -0.5322  0.0605
  277MPD2    C5 4185   2.556   4.620  13.078 -1.0492 -0.1021 -0.6245
  277MPD2     H 4186   2.210   4.720  13.188 -0.5844 -0.5115 -0.9858
  277MPD2    H1 4187   2.555   4.482  13.248  2.0107  0.4861 -0.5877
  277MPD2    H2 4188   2.545   0.022  12.913  1.9237  1.7194  1.1710
  277MPD2    H3 4189   2.650   4.579  13.046 -1.0297  1.4024 -2.5135
  277MPD2     N 4190   2.308   4.536  13.334 -0.0873 -0.1029  0.2066
  277MPD2    H5 4191   2.210   4.562  13.341 -0.0382  0.3163 -0.6558
  277MPD2    N1 4192   2.301   0.132  12.950 -0.4714 -0.0438 -0.0409
  277MPD2    H7 4193   2.357   0.156  12.869  1.1319  3.6485  2.1521
  278TMC3    C1 4194   2.252   4.397  13.519 -0.6481 -0.3025 -0.7304
  278TMC3    C2 4195   2.244   4.261  13.548 -0.1428  0.0980  0.0737
  278TMC3    C3 4196   2.124   4.213  13.589 -0.2453  0.0411  0.5200
  278TMC3    C4 4197   2.149   4.486  13.540  0.0109 -0.3204 -0.7192
  278TMC3    C5 4198   2.027   4.428  13.565 -0.3864  0.5661 -0.9538
  278TMC3    C6 4199   2.015   4.294  13.597 -0.7162 -0.3272  0.3547
  278TMC3     C 4200   2.354   4.442  13.425  0.9178 -0.3105  0.1206
  278TMC3     O 4201   2.473   4.412  13.448  0.0024  0.0952  0.0387
  278TMC3     H 4202   2.332   4.202  13.524 -0.8775 -0.9743  0.0335
  278TMC3    H1 4203   2.148   4.591  13.513 -1.6199 -0.0964  0.1802
  278TMC3    H2 4204   1.923   4.265  13.649 -2.4736  0.0655 -2.5311
  278TMC3    C7 4205   1.924   4.516  13.628  0.4616 -0.0812 -0.2749
  278TMC3    C8 4206   2.107   4.079  13.610  0.0411 -0.5095 -0.9139
  278TMC3    O1 4207   1.962   4.610  13.694 -0.6543 -0.1501  0.2867
  278TMC3    O2 4208   2.194   4.010  13.657  0.5052  0.4772  0.1469
  279MPD2     C 4209   1.572   0.052   0.296  0.0191 -0.2254 -0.9680
  279MPD2    C1 4210   1.486   0.154   0.253  0.6277 -0.5658  0.9239
  279MPD2    C2 4211   1.438   0.142   0.120  0.2914  0.8079  0.4823
  279MPD2    C3 4212   1.468   0.025   0.048  0.2125 -0.7341  0.3237
  279MPD2    C4 4213   1.556   4.650   0.098  0.5056  0.6897  0.3295
  279MPD2    C5 4214   1.614   4.667   0.225 -0.1929  0.1577  0.6741
  279MPD2     H 4215   1.386   0.226   0.075  0.1603  0.6981  0.4302
  279MPD2    H1 4216   1.581   4.561   0.041  2.1235  0.9732  0.5912
  279MPD2    H2 4217   1.612   0.053   0.397  2.5134 -3.7567 -1.8943
  279MPD2    H3 4218   1.681   4.592   0.264  1.0445  0.3569 -1.0866
  279MPD2     N 4219   1.417   4.720  17.610  0.1595  0.1691  0.1653
  279MPD2    H5 4220   1.441   4.635  17.561  0.2429 -0.2596  0.9478
  279MPD2    N1 4221   1.475   0.257   0.347  0.1353  0.6497 -0.0608
  279MPD2    H7 4222   1.540   0.252   0.424  0.1024 -1.3244 -0.1819
  280TMC3    C1 4223   1.282   0.388   0.258 -1.0298  0.3747 -0.7454
  280TMC3    C2 4224   1.171   0.320   0.281 -0.6978  0.4641 -0.3373
  280TMC3    C3 4225   1.049   0.376   0.251  0.0189 -0.4899 -0.5354
  280TMC3    C4 4226   1.274   0.516   0.220  0.2273 -0.4535 -0.7775
  280TMC3    C5 4227   1.155   0.571   0.193 -0.6551  0.6676 -0.0267
  280TMC3    C6 4228   1.038   0.502   0.201 -0.3118  0.6374 -0.5307
  280TMC3     C 4229   1.395   0.375   0.347 -0.4779  0.6247 -0.3747
  280TMC3     O 4230   1.390   0.461   0.434 -1.0938 -0.2120 -0.2459
  280TMC3     H 4231   1.179   0.221   0.326  0.1060  0.9738  0.6285
  280TMC3    H1 4232   1.359   0.582   0.234 -0.3831  0.0413  0.6321
  280TMC3    H2 4233   0.938   0.541   0.183  0.2403  3.2408  1.9847
  280TMC3    C7 4234   1.143   0.711   0.234 -0.6259  0.8586  0.4498
  280TMC3    C8 4235   0.931   0.294   0.228 -0.1157 -0.4279  0.1837
  280TMC3    O1 4236   1.236   0.763   0.295  0.4700  0.3364  0.5139
  280TMC3    O2 4237   0.838   0.351   0.176  0.3468 -0.3772  0.5303
  281TMC3    C1 4238   0.161   0.201  13.160  0.5532 -0.6163 -0.1643
  281TMC3    C2 4239   0.126   0.288  13.059 -0.0639 -0.1941 -0.2044
  281TMC3    C3 4240   0.131   0.250  12.929  0.1540  0.0666  0.2251
  281TMC3    C4 4241   0.194   0.073  13.134 -1.0528  0.1214 -0.8215
  281TMC3    C5 4242   0.189   0.030  13.000 -0.7177  1.0328 -0.2141
  281TMC3    C6 4243   0.169   0.123  12.895  0.1471  0.9032 -0.0273
  281TMC3     C 4244   0.106   0.222  13.288 -0.2195 -0.2330  0.3745
  281TMC3     O 4245   0.109   0.135  13.372 -0.0783  0.5974 -0.5071
  281TMC3     H 4246   0.125   0.394  13.077 -0.2532 -0.2773  0.2705
  281TMC3    H1 4247   0.232   0.005  13.209 -1.7701 -1.2080 -1.6581
  281TMC3    H2 4248   0.180   0.097  12.791  1.9087 -1.1820  0.6877
  281TMC3    C7 4249   0.247   4.618  12.973  0.7029  0.0043  0.4874
  281TMC3    C8 4250   0.074   0.336  12.831  0.4658 -0.7023  0.2524
  281TMC3    O1 4251   0.306   4.606  12.861  0.5315  0.0921 -0.0750
  281TMC3    O2 4252   0.086   0.459  12.844  0.5083  0.0027 -0.0215
  282MPD2     C 4253   2.029   1.368  15.119  0.4408  0.2396  0.9952
  282MPD2    C1 4254   1.968   1.490  15.106 -0.1549 -0.1265  0.5798
  282MPD2    C2 4255   1.944   1.548  14.984  0.0904 -0.6604  0.0060
  282MPD2    C3 4256   1.991   1.480  14.868  0.1149  0.2434 -0.1742
  282MPD2    C4 4257   2.051   1.358  14.881 -0.5862 -0.4610 -0.1117
  282MPD2    C5 4258   2.067   1.308  15.001 -0.4150 -0.7947  0.1378
  282MPD2     H 4259   1.901   1.647  14.975  0.3672 -0.4233  1.2479
  282MPD2    H1 4260   2.085   1.311  14.789  2.1456 -0.5000  0.9035
  282MPD2    H2 4261   2.045   1.311  15.210 -0.6382 -1.0577  0.3726
  282MPD2    H3 4262   2.117   1.212  15.001  1.6355  0.2816  0.8047
  282MPD2     N 4263   1.952   1.534  14.741 -0.5148 -0.7430 -0.2199
  282MPD2    H5 4264   1.915   1.628  14.735 -1.7738 -1.1483  0.9557
  282MPD2    N1 4265   1.904   1.552  15.213  0.0624  0.2656  0.4072
  282MPD2    H7 4266   1.849   1.634  15.190  1.1352  1.1981  1.1937
  283TMC3    C1 4267   1.816   1.600  15.412  0.0601 -0.3973  0.4915
  283TMC3    C2 4268   1.861   1.724  15.416  0.5468 -0.0275  0.8817
  283TMC3    C3 4269   1.838   1.793  15.528  0.3750 -0.1289  0.1043
  283TMC3    C4 4270   1.753   1.533  15.519  0.6224 -0.7036  0.3516
  283TMC3    C5 4271   1.735   1.609  15.629  0.3547  0.6280 -0.8564
  283TMC3    C6 4272   1.771   1.735  15.636  0.3193  0.5300  0.1378
  283TMC3     C 4273   1.896   1.511  15.338  0.4832 -0.0685  0.3075
  283TMC3     O 4274   1.957   1.422  15.394 -0.0938 -0.0393  0.2648
  283TMC3     H 4275   1.927   1.753  15.335  0.8269 -0.8742  0.8106
  283TMC3    H1 4276   1.699   1.441  15.498 -0.2531  0.0524 -0.6883
  283TMC3    H2 4277   1.752   1.788  15.728  1.5698  2.2352 -0.6086
  283TMC3    C7 4278   1.621   1.574  15.713 -0.1529  0.2508  0.1322
  283TMC3    C8 4279   1.943   1.885  15.581  0.5485  0.3515 -0.2322
  283TMC3    O1 4280   1.575   1.671  15.768 -0.1131  0.4950  0.4710
  283TMC3    O2 4281   1.926   1.930  15.690  0.3878  0.1010 -0.0925
  284MPD2     C 4282   4.541   0.945  11.692 -0.3777  0.0606  0.1687
  284MPD2    C1 4283   4.620   0.877  11.598 -0.2746  0.0027  0.7121
  284MPD2    C2 4284   4.601   0.744  11.573 -0.2993  0.1182  0.1357
  284MPD2    C3 4285   4.535   0.665  11.668 -0.4814  0.2369  0.2107
  284MPD2    C4 4286   4.464   0.729  11.768 -0.2655  0.3296  0.0940
  284MPD2    C5 4287   4.467   0.865  11.781 -0.0160 -0.6957  0.4071
  284MPD2     H 4288   4.655   0.697  11.492  0.1622 -1.2592  1.2280
  284MPD2    H1 4289   4.415   0.679  11.851  1.9349 -1.5773  0.2468
  284MPD2    H2 4290   4.547   1.053  11.702  0.1593  0.1329 -0.9744
  284MPD2    H3 4291   4.420   0.905  11.871 -2.1840 -1.0838 -0.5593
  284MPD2     N 4292   4.547   0.521  11.649 -0.3958  0.3379 -0.1575
  284MPD2    H5 4293   4.605   0.489  11.572  0.6572  0.3947  0.6182
  284MPD2    N1 4294   4.715   0.932  11.505  0.0630  0.3075  0.1709
  284MPD2    H7 4295   0.033   0.867  11.438 -0.5636  1.7220 -1.5659
  285TMC3    C1 4296   0.126   1.092  11.403 -0.2683 -0.8865 -0.0830
  285TMC3    C2 4297   0.124   1.023  11.285  0.5054 -0.0113  0.0509
  285TMC3    C3 4298   0.233   1.024  11.204  0.3985 -0.0187  0.1483
  285TMC3    C4 4299   0.237   1.161  11.442 -0.6879  0.7030 -0.0195
  285TMC3    C5 4300   0.344   1.163  11.355 -0.1681  0.7510 -0.2850
  285TMC3    C6 4301   0.340   1.096  11.238 -0.1795 -0.6177 -0.1718
  285TMC3     C 4302   0.030   1.067  11.505 -0.2608 -0.3747  0.4926
  285TMC3     O 4303   0.012   1.147  11.591  0.7038  0.0492 -0.0004
  285TMC3     H 4304   0.042   0.958  11.257  0.4817 -0.1519  0.4370
  285TMC3    H1 4305   0.247   1.212  11.537  0.8058 -2.7183  1.6854
  285TMC3    H2 4306   0.427   1.108  11.173 -0.3104 -0.7224 -0.3675
  285TMC3    C7 4307   0.456   1.245  11.394  0.3404  0.1356  0.0413
  285TMC3    C8 4308   0.241   0.943  11.086 -0.6249  0.0665  0.5703
  285TMC3    O1 4309   0.431   1.330  11.480 -0.3656 -0.2840  0.0713
  285TMC3    O2 4310   0.129   0.903  11.051  0.9685 -0.1345  0.5025
  286MPD2     C 4311   0.391   0.439   2.149 -0.4191 -0.0041 -0.4937
  286MPD2    C1 4312   0.345   0.396   2.025 -0.7533  0.2789 -0.1694
  286MPD2    C2 4313   0.436   0.342   1.938 -0.1892  1.0313  0.3777
  286MPD2    C3 4314   0.572   0.334   1.973 -0.2341 -0.5749 -0.7401
  286MPD2    C4 4315   0.616   0.380   2.099  0.2993 -0.0036 -0.8367
  286MPD2    C5 4316   0.518   0.434   2.181 -0.1380 -0.0927  0.5743
  286MPD2     H 4317   0.405   0.323   1.836 -0.1243  1.3839  0.2939
  286MPD2    H1 4318   0.720   0.380   2.130  0.7021  0.8913 -2.1611
  286MPD2    H2 4319   0.327   0.476   2.229  1.2979 -0.0374  0.8941
  286MPD2    H3 4320   0.550   0.479   2.274 -0.0772  1.3664 -0.1582
  286MPD2     N 4321   0.669   0.275   1.887  0.0733  0.2911 -0.2127
  286MPD2    H5 4322   0.765   0.265   1.920 -1.0170 -1.0005  2.5183
  286MPD2    N1 4323   0.207   0.403   1.985 -0.0517  0.1483  0.1994
  286MPD2    H7 4324   0.183   0.361   1.896  2.0240 -1.5529  0.4342
  287TMC3    C1 4325   0.779   0.207   1.696  0.2489  0.7339 -0.1739
  287TMC3    C2 4326   0.765   0.167   1.561 -0.0620 -0.3854 -0.2364
  287TMC3    C3 4327   0.882   0.123   1.502  0.1060 -0.0167 -0.2175
  287TMC3    C4 4328   0.896   0.193   1.774  0.0662  0.9710  0.1184
  287TMC3    C5 4329   0.996   0.128   1.710  0.2481 -0.0531  0.4059
  287TMC3    C6 4330   0.996   0.102   1.573  0.1577  0.0919 -0.5013
  287TMC3     C 4331   0.651   0.238   1.758  0.4385  0.7624 -0.0832
  287TMC3     O 4332   0.550   0.249   1.690 -0.7237 -0.0100  0.4406
  287TMC3     H 4333   0.675   0.197   1.509  0.9679  2.6919 -0.2493
  287TMC3    H1 4334   0.918   0.221   1.876 -2.0075  1.6134  0.4013
  287TMC3    H2 4335   1.086   0.066   1.525  0.6171 -0.8085  1.0057
  287TMC3    C7 4336   1.115   0.100   1.791  0.3859 -0.2688  0.5731
  287TMC3    C8 4337   0.880   0.084   1.363 -0.4585  0.3565 -0.2830
  287TMC3    O1 4338   1.124   0.150   1.902  0.2463  0.9510  0.8170
  287TMC3    O2 4339   0.774   0.063   1.310 -0.5337  0.0163 -0.6133
  288TMC3    C1 4340   2.037   3.820  14.060 -0.6524 -0.5269 -0.4677
  288TMC3    C2 4341   1.956   3.899  14.134 -0.0325  0.2514 -0.3946
  288TMC3    C3 4342   1.988   4.034  14.136 -0.0899  0.4130 -0.2721
  288TMC3    C4 4343   2.147   3.866  13.991 -0.1651 -0.0296 -0.6003
  288TMC3    C5 4344   2.171   3.997  13.995  0.0383 -0.2653  0.1268
  288TMC3    C6 4345   2.099   4.084  14.073  0.1305  0.1271 -0.6074
  288TMC3     C 4346   2.047   3.678  14.102  0.1749  0.5928  0.0708
  288TMC3     O 4347   1.951   3.613  14.130 -0.1447 -0.0168 -0.2076
  288TMC3     H 4348   1.872   3.852  14.185 -1.4129  2.7780 -0.3335
  288TMC3    H1 4349   2.208   3.791  13.940 -1.0329 -0.9660 -0.2599
  288TMC3    H2 4350   2.148   4.180  14.074  1.4950 -0.5659 -0.0833
  288TMC3    C7 4351   2.305   4.025  14.020 -0.7952  0.2349 -0.4707
  288TMC3    C8 4352   1.966   4.103  14.261  0.1435  0.4984  0.1464
  288TMC3    O1 4353   2.363   3.936  14.084 -0.3018 -0.0237 -0.2112
  288TMC3    O2 4354   2.007   4.217  14.260 -0.2128  0.7226 -0.6966
  289MPD2     C 4355   2.239   3.299  13.963  0.3835  0.2136  0.5522
  289MPD2    C1 4356   2.201   3.415  13.901 -0.5238 -0.1026  1.0858
  289MPD2    C2 4357   2.075   3.438  13.847 -0.0583  0.2635 -0.0702
  289MPD2    C3 4358   1.975   3.343  13.875 -1.1177  0.6366  0.2275
  289MPD2    C4 4359   2.019   3.220  13.921 -0.3390  0.2975 -0.5698
  289MPD2    C5 4360   2.149   3.196  13.966  0.7596 -0.0796 -0.9097
  289MPD2     H 4361   2.045   3.526  13.791 -2.9155 -1.9007 -1.9380
  289MPD2    H1 4362   1.949   3.138  13.933  1.4352 -1.3594 -1.3816
  289MPD2    H2 4363   2.333   3.282  14.015  0.6380 -1.5411 -0.4729
  289MPD2    H3 4364   2.170   3.098  14.005  1.7853 -0.1620 -1.6822
  289MPD2     N 4365   1.842   3.349  13.850 -0.0967  0.6486  0.2001
  289MPD2    H5 4366   1.786   3.266  13.862  0.6430  0.1243 -0.0178
  289MPD2    N1 4367   2.308   3.502  13.885  0.1449 -0.1742 -0.2577
  289MPD2    H7 4368   2.388   3.497  13.947  0.3128  0.7081 -0.4076
  290TMC3    C1 4369   1.619   3.451  13.835 -0.6613 -0.1305 -0.5028
  290TMC3    C2 4370   1.552   3.559  13.800  0.7690 -0.1593  0.0338
  290TMC3    C3 4371   1.425   3.567  13.843  0.2513 -0.5659 -0.1059
  290TMC3    C4 4372   1.569   3.354  13.921 -0.3298 -0.1906 -0.7094
  290TMC3    C5 4373   1.438   3.366  13.960 -0.2698 -0.0225 -0.3174
  290TMC3    C6 4374   1.370   3.475  13.918 -0.2553 -0.1465  0.3472
  290TMC3     C 4375   1.766   3.462  13.828  0.5270  0.0224 -0.0584
  290TMC3     O 4376   1.814   3.575  13.813 -0.5685  0.2369 -0.1477
  290TMC3     H 4377   1.605   3.635  13.742 -0.3436  0.8083  0.2822
  290TMC3    H1 4378   1.622   3.272  13.969 -1.1804 -1.0042 -1.1676
  290TMC3    H2 4379   1.271   3.489  13.959  0.2643 -1.3487  1.9936
  290TMC3    C7 4380   1.414   3.328  14.093  0.2010  0.3536  0.0288
  290TMC3    C8 4381   1.353   3.695  13.845  0.6783 -0.1895  0.5567
  290TMC3    O1 4382   1.413   3.417  14.175  0.2129 -0.1672  0.4060
  290TMC3    O2 4383   1.228   3.690  13.843 -0.3192  0.1284  0.0146
  291MPD2     C 4384   1.742   3.324   0.298 -0.6242 -0.3965  0.0890
  291MPD2    C1 4385   1.618   3.381   0.326  0.0599  0.4883  0.2036
  291MPD2    C2 4386   1.597   3.517   0.301 -0.3047 -0.0164  0.3744
  291MPD2    C3 4387   1.691   3.601   0.240 -0.9555 -1.1043 -0.0503
  291MPD2    C4 4388   1.816   3.547   0.219 -0.3679  0.4802  0.5602
  291MPD2    C5 4389   1.841   3.414   0.253 -0.4157 -0.3110  0.4619
  291MPD2     H 4390   1.496   3.552   0.320 -0.1518  1.1688 -0.9226
  291MPD2    H1 4391   1.904   3.601   0.187  0.3131 -1.1736 -0.3606
  291MPD2    H2 4392   1.762   3.219   0.313  0.3204 -0.2151  0.1236
  291MPD2    H3 4393   1.939   3.370   0.240 -1.5178 -2.6832  0.1110
  291MPD2     N 4394   1.667   3.729   0.194  0.1463 -0.4961 -0.1167
  291MPD2    H5 4395   1.746   3.781   0.157  0.2474 -1.5005 -1.3451
  291MPD2    N1 4396   1.503   3.295   0.348 -0.1029 -0.5989  0.1357
  291MPD2    H7 4397   1.415   3.344   0.355  1.0173  1.5692 -0.6141
  292TMC3    C1 4398   1.342   3.129   0.353 -0.9037  0.0766 -0.0803
  292TMC3    C2 4399   1.258   3.225   0.402 -0.2086  0.4930 -0.5655
  292TMC3    C3 4400   1.122   3.202   0.403 -0.4865  0.2590  0.3101
  292TMC3    C4 4401   1.291   3.027   0.278 -0.2215 -0.7827  0.7064
  292TMC3    C5 4402   1.156   3.009   0.267 -0.4486 -0.1027 -0.5497
  292TMC3    C6 4403   1.069   3.092   0.340 -0.0166 -0.2721 -0.3297
  292TMC3     C 4404   1.488   3.157   0.340 -0.4304 -0.2827  0.2690
  292TMC3     O 4405   1.560   3.064   0.297 -0.2056 -0.6080  0.3878
  292TMC3     H 4406   1.292   3.296   0.476  1.1140  0.1885 -0.8781
  292TMC3    H1 4407   1.350   2.995   0.193  1.6572  0.4558  1.5496
  292TMC3    H2 4408   0.962   3.080   0.350  0.0448  0.8542  1.5957
  292TMC3    C7 4409   1.114   2.908   0.172  0.1388 -0.2900  0.7479
  292TMC3    C8 4410   1.039   3.262   0.509  0.5942  0.0695 -0.1221
  292TMC3    O1 4411   1.199   2.833   0.127  0.0895 -0.3492  0.1393
  292TMC3    O2 4412   1.061   3.385   0.530 -0.3300 -0.1934 -0.3418
  293MPD2     C 4413   3.163   3.930  12.806  0.6648  0.1113 -0.1786
  293MPD2    C1 4414   3.097   4.048  12.794  0.0187 -0.1551 -0.5427
  293MPD2    C2 4415   3.119   4.143  12.894  0.1432 -0.4592  0.3913
  293MPD2    C3 4416   3.199   4.125  13.004 -0.3745  0.3120  0.1549
  293MPD2    C4 4417   3.267   4.000  13.010 -0.0325 -0.4448  0.4404
  293MPD2    C5 4418   3.249   3.905  12.911 -0.7050 -0.1424 -0.7539
  293MPD2     H 4419   3.055   4.230  12.888  2.2437  1.1206  0.9391
  293MPD2    H1 4420   3.329   3.974  13.095 -0.4097  1.2053  1.2125
  293MPD2    H2 4421   3.156   3.850  12.734  1.0722 -1.0749  1.0928
  293MPD2    H3 4422   3.288   3.805  12.927  0.4414  0.4018 -0.2096
  293MPD2     N 4423   3.210   4.215  13.115  0.1590 -0.2910 -0.1244
  293MPD2    H5 4424   3.194   4.310  13.084 -2.1217 -0.9121 -0.8726
  293MPD2    N1 4425   3.022   4.072  12.677  1.0476 -0.2846 -0.6902
  293MPD2    H7 4426   3.015   3.994  12.611  1.5252 -0.7848 -0.1455
  294TMC3    C1 4427   2.862   4.180  12.549 -0.7050 -0.3298  0.8117
  294TMC3    C2 4428   2.808   4.050  12.538  0.0687 -0.0858  0.1584
  294TMC3    C3 4429   2.721   4.030  12.435  0.7967 -0.4527 -0.1707
  294TMC3    C4 4430   2.817   4.281  12.471 -0.1209  0.2281  0.2307
  294TMC3    C5 4431   2.736   4.254  12.360 -0.4153 -0.2256  0.7280
  294TMC3    C6 4432   2.691   4.124  12.340 -0.2725  0.3278  0.1817
  294TMC3     C 4433   2.968   4.196  12.643 -0.0557  0.0848 -0.7739
  294TMC3     O 4434   2.996   4.308  12.672 -0.2335  0.0804  0.1863
  294TMC3     H 4435   2.826   3.968  12.607  0.4875 -1.5485 -1.7104
  294TMC3    H1 4436   2.873   4.374  12.465 -1.0149  0.6938 -1.1559
  294TMC3    H2 4437   2.637   4.093  12.251  1.0201 -3.3453  0.7178
  294TMC3    C7 4438   2.691   4.364  12.280  0.0734  0.1081 -1.5580
  294TMC3    C8 4439   2.632   3.924  12.442  0.8385  0.1376  0.4586
  294TMC3    O1 4440   2.663   4.458  12.346 -0.3707  0.1460 -0.7369
  294TMC3    O2 4441   2.670   3.806  12.457  0.5878  0.4562  0.4400
  295MPD2     C 4442   3.417   3.209   0.857 -0.1386  0.1030  0.0847
  295MPD2    C1 4443   3.462   3.308   0.766  0.3823  0.1224 -0.2721
  295MPD2    C2 4444   3.375   3.419   0.746  0.2316  0.4278  0.6081
  295MPD2    C3 4445   3.247   3.420   0.802 -0.2694  0.7530 -0.5633
  295MPD2    C4 4446   3.206   3.310   0.882 -0.3991  0.2159  0.3970
  295MPD2    C5 4447   3.294   3.209   0.910  0.0864  0.3965  0.2435
  295MPD2     H 4448   3.412   3.493   0.677  1.3868 -2.7383 -2.1864
  295MPD2    H1 4449   3.111   3.298   0.934 -0.0003  0.5447  1.2041
  295MPD2    H2 4450   3.491   3.136   0.888  0.5859  1.3671  1.2771
  295MPD2    H3 4451   3.265   3.134   0.982  0.5265  0.8634  0.9054
  295MPD2     N 4452   3.147   3.523   0.785  0.2848 -0.2100 -0.6119
  295MPD2    H5 4453   3.057   3.513   0.829  0.5296 -0.8114 -0.2494
  295MPD2    N1 4454   3.573   3.296   0.688  0.4063  0.7388 -0.3005
  295MPD2    H7 4455   3.594   3.377   0.631 -4.8007  1.5869 -0.9479
  296TMC3    C1 4456   3.017   3.694   0.697  0.0393  0.5340  0.0595
  296TMC3    C2 4457   3.020   3.829   0.665 -0.7127 -0.9197 -0.5226
  296TMC3    C3 4458   2.896   3.881   0.651  0.4732  0.7069 -0.2024
  296TMC3    C4 4459   2.904   3.617   0.700  0.1081 -0.0311  0.5151
  296TMC3    C5 4460   2.789   3.675   0.652 -0.1640 -0.4135 -0.4515
  296TMC3    C6 4461   2.785   3.811   0.635 -0.4589  0.7765 -0.1622
  296TMC3     C 4462   3.151   3.629   0.700 -0.2989 -0.2181  0.3155
  296TMC3     O 4463   3.245   3.669   0.629 -0.7418 -0.1943 -0.3553
  296TMC3     H 4464   3.115   3.879   0.651 -0.2724 -1.5456  0.2098
  296TMC3    H1 4465   2.915   3.510   0.710 -0.9189 -0.0030  1.8297
  296TMC3    H2 4466   2.684   3.852   0.628 -1.3025 -1.4840 -1.2351
  296TMC3    C7 4467   2.664   3.636   0.710 -0.4753 -0.2206 -0.9261
  296TMC3    C8 4468   2.867   4.025   0.651 -0.7066 -0.0567 -0.1768
  296TMC3    O1 4469   2.563   3.664   0.648  0.1461 -0.2555 -0.1145
  296TMC3    O2 4470   2.771   4.065   0.592  0.3892  0.2996 -0.4262
  297MPD2     C 4471   0.789   0.823  16.648 -0.6499  0.9007 -0.6811
  297MPD2    C1 4472   0.776   0.825  16.511 -0.1399 -0.1067 -0.7502
  297MPD2    C2 4473   0.869   0.890  16.430 -0.2713  0.7036 -0.4335
  297MPD2    C3 4474   0.968   0.964  16.495  0.0042  0.0859  0.6373
  297MPD2    C4 4475   0.965   0.972  16.633 -0.5092  0.0929  2.0643
  297MPD2    C5 4476   0.888   0.893  16.713  0.5793 -0.1224 -0.4501
  297MPD2     H 4477   0.863   0.874  16.323  0.5523 -0.5837 -0.2881
  297MPD2    H1 4478   1.035   1.036  16.686  0.8603  0.2517  0.0982
  297MPD2    H2 4479   0.729   0.758  16.711 -0.0842 -0.7822 -1.8568
  297MPD2    H3 4480   0.910   0.898  16.819 -0.9400  0.8846 -0.1900
  297MPD2     N 4481   1.068   1.054  16.432  0.0411  0.6711  0.3252
  297MPD2    H5 4482   1.113   1.123  16.491 -1.7193  1.0923  1.1887
  297MPD2    N1 4483   0.656   0.767  16.450 -0.3160 -0.0297  0.0161
  297MPD2    H7 4484   0.653   0.757  16.349  0.6086  0.9650 -0.1029
  298TMC3    C1 4485   0.423   0.699  16.446  0.5727  0.6871 -0.5033
  298TMC3    C2 4486   0.436   0.620  16.335 -0.3858 -0.1082  0.2281
  298TMC3    C3 4487   0.319   0.577  16.273  0.6116 -0.5340  0.7728
  298TMC3    C4 4488   0.298   0.724  16.499  0.7748  0.8144  0.6307
  298TMC3    C5 4489   0.189   0.685  16.433  1.0094 -0.3381  0.7299
  298TMC3    C6 4490   0.192   0.607  16.319  0.8643 -0.0084  0.0115
  298TMC3     C 4491   0.539   0.737  16.524  0.4955  0.8840  0.2201
  298TMC3     O 4492   0.519   0.756  16.642 -0.1008  0.1750  0.4363
  298TMC3     H 4493   0.537   0.596  16.302 -0.9038 -3.2894  0.9514
  298TMC3    H1 4494   0.290   0.796  16.579  0.5395 -1.8484  2.9942
  298TMC3    H2 4495   0.104   0.581  16.263  1.4953  0.4059 -1.1727
  298TMC3    C7 4496   0.068   0.754  16.469  0.2546  0.4800 -0.2205
  298TMC3    C8 4497   0.320   0.507  16.147  0.4774  0.2331 -0.1672
  298TMC3    O1 4498   0.054   0.798  16.583  0.2754  0.1244 -1.1759
  298TMC3    O2 4499   0.234   0.422  16.121  0.1012 -0.4292  0.2718
  299MPD2     C 4500   1.414   4.386  10.795 -0.5435 -1.0094  0.0176
  299MPD2    C1 4501   1.476   4.472  10.702 -0.0606  0.1531  0.0291
  299MPD2    C2 4502   1.424   4.492  10.574 -0.3327  0.4516  0.1175
  299MPD2    C3 4503   1.309   4.426  10.546  0.3227 -0.0790  0.4970
  299MPD2    C4 4504   1.237   4.353  10.639 -0.2219 -0.8741 -0.1842
  299MPD2    C5 4505   1.293   4.331  10.761 -0.2524  0.0322 -0.4393
  299MPD2     H 4506   1.469   4.564  10.508  2.0636 -4.3018 -3.4689
  299MPD2    H1 4507   1.141   4.310  10.614 -1.1417  1.1364 -0.0534
  299MPD2    H2 4508   1.441   4.380  10.899  3.2423  1.3605 -0.8549
  299MPD2    H3 4509   1.246   4.263  10.831 -2.0158 -0.3266 -1.9919
  299MPD2     N 4510   1.241   4.441  10.424 -1.3340 -0.1062 -0.0672
  299MPD2    H5 4511   1.158   4.386  10.407 -0.9285 -1.3657  2.0220
  299MPD2    N1 4512   1.601   4.534  10.744 -0.9340 -0.1824 -0.0601
  299MPD2    H7 4513   1.612   4.536  10.845 -0.3481  2.6204 -0.1743
  300TMC3    C1 4514   1.153   4.541  10.235 -0.2242  0.3839 -0.7090
  300TMC3    C2 4515   1.176   4.618  10.121  0.4552  0.3661 -0.8878
  300TMC3    C3 4516   1.065   4.670  10.052 -0.0161 -0.1084  0.4771
  300TMC3    C4 4517   1.025   4.507  10.274  0.5563 -0.0823  0.2878
  300TMC3    C5 4518   0.922   4.560  10.202 -0.3873 -0.1111  0.0860
  300TMC3    C6 4519   0.934   4.629  10.081  0.5200  0.4625 -0.7331
  300TMC3     C 4520   1.259   4.542  10.335 -0.6084 -0.4335  0.5441
  300TMC3     O 4521   1.344   4.630  10.332 -0.2026 -1.0641  0.0765
  300TMC3     H 4522   1.277   4.641  10.088  1.6439  0.2403  2.6856
  300TMC3    H1 4523   1.009   4.446  10.362 -2.1201 -0.1242 -0.2254
  300TMC3    H2 4524   0.854   4.684  10.033 -0.2585  0.8032  0.9501
  300TMC3    C7 4525   0.798   4.505  10.250  0.8294 -0.1306  0.4912
  300TMC3    C8 4526   1.084   0.079   9.993  0.3622  0.4391  0.3203
  300TMC3    O1 4527   0.803   4.385  10.295 -0.2629  0.2794  0.5733
  300TMC3    O2 4528   1.014   0.115   9.899  0.6079  0.4592 -0.1154
  301MPD2     C 4529   2.861   1.827   1.554 -0.4374  0.2327  0.3096
  301MPD2    C1 4530   2.766   1.795   1.451  0.4042  0.7960  0.2644
  301MPD2    C2 4531   2.799   1.687   1.370  0.6623  0.6434  0.1916
  301MPD2    C3 4532   2.916   1.613   1.384 -0.5703 -0.0661 -0.1295
  301MPD2    C4 4533   3.005   1.654   1.478  0.2440 -0.5698  1.2944
  301MPD2    C5 4534   2.981   1.760   1.567  0.0834  0.1105 -0.2839
  301MPD2     H 4535   2.735   1.661   1.287  2.6782 -1.0169 -0.8364
  301MPD2    H1 4536   3.095   1.596   1.493  0.3475 -0.2563  1.8821
  301MPD2    H2 4537   2.855   1.917   1.615 -0.9717 -0.6505  1.5585
  301MPD2    H3 4538   3.052   1.783   1.645 -0.7710 -0.0809  0.5480
  301MPD2     N 4539   2.962   1.500   1.305  0.4103 -0.8314 -0.2028
  301MPD2    H5 4540   3.047   1.453   1.334  0.2863 -1.2680 -0.5492
  301MPD2    N1 4541   2.654   1.866   1.416  0.0015 -0.3551 -0.2921
  301MPD2    H7 4542   2.603   1.824   1.339  0.5339  0.9400 -1.3695
  302TMC3    C1 4543   2.944   1.325   1.143  0.8768  0.2560 -0.3736
  302TMC3    C2 4544   3.077   1.291   1.185  1.0117 -0.9632 -0.7852
  302TMC3    C3 4545   3.122   1.167   1.147 -0.3908  0.2659  0.8581
  302TMC3    C4 4546   2.869   1.259   1.049 -0.3715  0.1006  0.2054
  302TMC3    C5 4547   2.926   1.140   1.009 -0.2273  0.0334  0.7931
  302TMC3    C6 4548   3.050   1.096   1.050 -0.0182 -0.6840 -0.3728
  302TMC3     C 4549   2.885   1.440   1.206 -0.6635  0.2010 -0.3563
  302TMC3     O 4550   2.767   1.466   1.169  0.2497 -0.3664  0.0837
  302TMC3     H 4551   3.141   1.348   1.251  2.1372 -1.7530 -1.1771
  302TMC3    H1 4552   2.774   1.303   1.021 -0.6664 -0.1585  0.8054
  302TMC3    H2 4553   3.087   1.002   1.011  1.3639 -0.4608  0.3927
  302TMC3    C7 4554   2.870   1.064   0.901  0.7121  0.1700 -1.2396
  302TMC3    C8 4555   3.244   1.123   1.204 -0.5584 -0.6278 -0.3461
  302TMC3    O1 4556   2.931   0.970   0.849 -0.2276  0.0837  0.0160
  302TMC3    O2 4557   3.321   1.198   1.253  0.2743 -0.3265  0.4349
  303MPD2     C 4558   3.851   4.138   9.959  0.1211  0.0636  0.0442
  303MPD2    C1 4559   3.776   4.061   9.874  0.3818 -0.9013 -0.3497
  303MPD2    C2 4560   3.825   4.016   9.751 -0.1450 -0.3630 -0.7388
  303MPD2    C3 4561   3.965   4.025   9.730  0.5885  0.0627 -0.2299
  303MPD2    C4 4562   4.039   4.099   9.820  0.1541 -0.2385  0.2918
  303MPD2    C5 4563   3.981   4.166   9.929 -0.3026 -0.1726 -0.2416
  303MPD2     H 4564   3.760   3.958   9.686 -2.7078  0.3718  1.1941
  303MPD2    H1 4565   4.147   4.110   9.816  0.1204 -0.0167  0.0341
  303MPD2    H2 4566   3.811   4.167  10.056 -1.4110  0.3566 -0.6783
  303MPD2    H3 4567   4.043   4.214  10.004  1.9705 -2.2450 -0.7734
  303MPD2     N 4568   4.035   3.976   9.616 -0.0667  0.1239 -0.1188
  303MPD2    H5 4569   4.136   3.980   9.620 -0.0521 -0.4148  0.0196
  303MPD2    N1 4570   3.658   4.023   9.929 -1.0541 -0.1029 -0.0381
  303MPD2    H7 4571   3.651   4.048  10.027 -2.6998  1.9448 -0.6963
  304TMC3    C1 4572   3.464   3.893   9.980 -0.6085 -0.0736 -0.5108
  304TMC3    C2 4573   3.358   3.824   9.928  0.0174 -0.5476  0.0474
  304TMC3    C3 4574   3.322   3.705   9.990 -0.1673 -0.0474 -0.6236
  304TMC3    C4 4575   3.521   3.848  10.105  0.4421  0.0410 -0.5448
  304TMC3    C5 4576   3.484   3.730  10.161 -1.0064 -0.3460  0.6380
  304TMC3    C6 4577   3.374   3.670  10.111  0.2275  0.2245  0.1658
  304TMC3     C 4578   3.562   3.937   9.883 -0.6985 -0.0719  0.1886
  304TMC3     O 4579   3.557   3.895   9.770  0.0354 -0.4935  0.1746
  304TMC3     H 4580   3.324   3.849   9.828 -1.6484 -2.6720  0.0737
  304TMC3    H1 4581   3.626   3.865  10.125  0.6101 -0.5833 -0.9032
  304TMC3    H2 4582   3.348   3.576  10.158  0.2309  0.9437  1.5958
  304TMC3    C7 4583   3.592   3.640  10.177 -0.1630 -0.6670 -0.2644
  304TMC3    C8 4584   3.293   3.592   9.902  1.4332 -0.6255  0.1547
  304TMC3    O1 4585   3.683   3.662  10.251  0.6353  0.3921 -0.4135
  304TMC3    O2 4586   3.351   3.493   9.948 -0.1026  0.8396  0.2900
  305MPD2     C 4587   1.817   1.647  13.946 -0.9911 -0.0473  0.0510
  305MPD2    C1 4588   1.930   1.571  13.942  0.9760 -0.0394  0.4393
  305MPD2    C2 4589   1.944   1.481  13.835 -0.3196  0.4527  0.7159
  305MPD2    C3 4590   1.845   1.469  13.739  0.6177 -0.0875  0.1048
  305MPD2    C4 4591   1.731   1.547  13.747  0.3786 -0.7782 -0.4391
  305MPD2    C5 4592   1.721   1.639  13.854 -0.4447  0.0278  0.2433
  305MPD2     H 4593   2.030   1.416  13.826  1.2198  2.5526  0.3234
  305MPD2    H1 4594   1.656   1.542  13.669  0.0780  2.6054 -0.3886
  305MPD2    H2 4595   1.798   1.725  14.019 -1.3776  0.1400 -0.2480
  305MPD2    H3 4596   1.639   1.710  13.853 -0.2327  0.2752  0.1081
  305MPD2     N 4597   1.853   1.392  13.620 -0.6252  0.3719  0.4133
  305MPD2    H5 4598   1.781   1.388  13.549 -1.8786 -2.7558  1.8466
  305MPD2    N1 4599   2.010   1.566  14.060  0.1118 -0.0726  0.5391
  305MPD2    H7 4600   1.983   1.645  14.117 -2.2565 -1.0067  0.7382
  306TMC3    C1 4601   2.140   1.482  14.237 -0.4293  0.0840  0.5774
  306TMC3    C2 4602   2.167   1.374  14.308  0.2856 -0.2660 -0.1312
  306TMC3    C3 4603   2.235   1.399  14.424 -0.6003  0.5623  0.9800
  306TMC3    C4 4604   2.180   1.610  14.278 -0.4052 -0.2224  0.3936
  306TMC3    C5 4605   2.244   1.625  14.395 -0.2135  0.6017  0.0203
  306TMC3    C6 4606   2.282   1.517  14.471 -0.0796  0.0849  0.1428
  306TMC3     C 4607   2.101   1.471  14.094  0.2287  0.3076 -0.2281
  306TMC3     O 4608   2.143   1.378  14.029 -0.7386  0.5583  0.0220
  306TMC3     H 4609   2.133   1.278  14.272  1.4035 -0.3461 -0.9760
  306TMC3    H1 4610   2.179   1.691  14.207 -2.3113 -0.9633 -0.4235
  306TMC3    H2 4611   2.342   1.524  14.561  1.6954  0.4636 -1.0546
  306TMC3    C7 4612   2.328   1.747  14.405 -0.3671  0.6118 -0.7160
  306TMC3    C8 4613   2.281   1.285  14.504  0.2300 -0.4296 -0.4770
  306TMC3    O1 4614   2.319   1.828  14.315  0.4933 -0.1691 -0.1769
  306TMC3    O2 4615   2.384   1.294  14.571  0.2891 -0.2693  0.4018
  307MPD2     C 4616   4.247   4.214   0.979  0.1226 -0.2841 -0.5298
  307MPD2    C1 4617   4.177   4.312   0.911  0.4205  0.2108  0.4201
  307MPD2    C2 4618   4.044   4.286   0.877 -0.2069  0.2167 -0.0259
  307MPD2    C3 4619   3.982   4.168   0.918 -0.3113  0.5207  0.0043
  307MPD2    C4 4620   4.053   4.072   0.984 -0.8007 -0.7598 -0.3153
  307MPD2    C5 4621   4.185   4.094   1.017  0.0297 -0.5249 -0.4819
  307MPD2     H 4622   3.976   4.354   0.828 -1.1621  0.8221  2.1111
  307MPD2    H1 4623   4.004   3.984   1.024  0.8563 -0.8585  1.5205
  307MPD2    H2 4624   4.352   4.229   1.002 -0.0135 -2.3538  1.4598
  307MPD2    H3 4625   4.238   4.023   1.079  0.2807 -0.0430 -0.1460
  307MPD2     N 4626   3.841   4.153   0.894 -0.3661 -0.2362  0.4027
  307MPD2    H5 4627   3.787   4.235   0.868  1.9815  1.0974 -0.2231
  307MPD2    N1 4628   4.234   4.431   0.855 -0.4642  0.0829  0.1417
  307MPD2    H7 4629   4.173   4.490   0.799  1.2332  0.9278 -0.8253
  308TMC3    C1 4630   3.431   4.159   0.820  0.0547 -0.3930  0.0146
  308TMC3    C2 4631   3.389   4.216   0.938  0.2535  0.2387  0.4038
  308TMC3    C3 4632   3.472   4.202   1.045 -0.0510 -0.9874 -0.5794
  308TMC3    C4 4633   3.549   4.089   0.817  0.1464  0.1096  0.2561
  308TMC3    C5 4634   3.623   4.070   0.924  0.6355  0.4319  0.0598
  308TMC3    C6 4635   3.585   4.123   1.042 -0.1637 -1.0601 -0.0877
  308TMC3     C 4636   3.346   4.172   0.701 -0.5400  0.2168  0.1096
  308TMC3     O 4637   3.359   4.088   0.612 -0.6819  0.5027 -0.3009
  308TMC3     H 4638   3.290   4.258   0.955 -0.8229 -1.1140 -2.5255
  308TMC3    H1 4639   3.586   4.044   0.726  1.7328  0.9743  0.4703
  308TMC3    H2 4640   3.652   4.122   1.127 -0.7870  2.0067  0.4366
  308TMC3    C7 4641   3.763   4.042   0.909  0.6553  0.2810  0.2947
  308TMC3    C8 4642   3.456   4.278   1.161  0.1954  0.0599  0.6627
  308TMC3    O1 4643   3.806   3.929   0.924 -0.1785 -0.0767 -0.4241
  308TMC3    O2 4644   3.509   4.223   1.258 -0.1318  0.2032 -0.3967
  309MPD2     C 4645   3.441   0.284  17.267  0.3841 -0.4354 -1.0830
  309MPD2    C1 4646   3.407   0.370  17.165 -0.5114 -0.3766  0.4900
  309MPD2    C2 4647   3.301   0.452  17.198 -0.4109  0.5477  0.1787
  309MPD2    C3 4648   3.248   0.456  17.328  0.3898  0.2239  0.1327
  309MPD2    C4 4649   3.305   0.378  17.427  0.5215  0.5823  0.3400
  309MPD2    C5 4650   3.410   0.295  17.399 -0.2365 -0.0166  0.0303
  309MPD2     H 4651   3.265   0.510  17.114 -2.6944  0.3750  1.0487
  309MPD2    H1 4652   3.270   0.370  17.529 -1.4398 -0.7094 -0.4321
  309MPD2    H2 4653   3.530   0.224  17.250  0.0823 -1.8142  2.0650
  309MPD2    H3 4654   3.447   0.227  17.475 -0.2873  0.6181  0.6262
  309MPD2     N 4655   3.134   0.531  17.359 -0.1893 -0.3022  0.7605
  309MPD2    H5 4656   3.092   0.516  17.450 -1.0329 -1.2769  0.2145
  309MPD2    N1 4657   3.472   0.368  17.037 -0.5782 -0.2496  0.6702
  309MPD2    H7 4658   3.455   0.444  16.972 -3.2620 -2.2443 -0.9592
  310TMC3    C1 4659   3.632   0.298  16.874  0.5015  0.3277  0.0533
  310TMC3    C2 4660   3.581   0.393  16.790 -0.0972  0.3792  0.6491
  310TMC3    C3 4661   3.642   0.405  16.670 -0.3056  0.2023  0.5704
  310TMC3    C4 4662   3.759   0.237  16.852 -0.0530  0.1508  0.4041
  310TMC3    C5 4663   3.819   0.259  16.729  1.0731 -0.7472 -0.3920
  310TMC3    C6 4664   3.763   0.350  16.636 -0.8266  0.1688 -0.3020
  310TMC3     C 4665   3.554   0.268  16.990  0.2443 -0.3204  0.0735
  310TMC3     O 4666   3.602   0.170  17.051 -0.1924  0.4041 -0.4101
  310TMC3     H 4667   3.484   0.442  16.792  0.3232  1.2241  0.7097
  310TMC3    H1 4668   3.783   0.153  16.915 -0.3629 -0.6597 -0.5452
  310TMC3    H2 4669   3.810   0.351  16.538 -0.0929 -0.7448  0.0336
  310TMC3    C7 4670   3.941   0.183  16.699  0.6904 -0.1606  0.2635
  310TMC3    C8 4671   3.569   0.442  16.553 -0.0186 -0.0201 -0.0210
  310TMC3    O1 4672   3.949   0.080  16.766  0.3816 -0.1877 -0.3397
  310TMC3    O2 4673   3.457   0.396  16.537  0.3628 -0.1804  0.2159
  311MPD2     C 4674   1.013   1.215  12.661  0.3305  0.0523 -0.1152
  311MPD2    C1 4675   1.022   1.341  12.720 -0.5120  0.2819 -0.2112
  311MPD2    C2 4676   0.920   1.384  12.807 -0.7276  1.0080  0.6300
  311MPD2    C3 4677   0.824   1.294  12.845  0.0033 -0.5307  0.3923
  311MPD2    C4 4678   0.828   1.167  12.802  0.0587 -0.6965  0.1113
  311MPD2    C5 4679   0.917   1.128  12.705 -0.3801 -0.3018  0.1135
  311MPD2     H 4680   0.925   1.485  12.845  1.3438  0.8935  0.6607
  311MPD2    H1 4681   0.763   1.088  12.837 -0.6863 -0.3240 -0.4516
  311MPD2    H2 4682   1.084   1.169  12.593  1.1658  1.9110 -0.4900
  311MPD2    H3 4683   0.924   1.024  12.676  0.4956  0.0043 -0.7919
  311MPD2     N 4684   0.720   1.344  12.930 -0.2039  0.5998 -0.2225
  311MPD2    H5 4685   0.704   1.444  12.935 -0.3023  0.5422  0.6294
  311MPD2    N1 4686   1.128   1.424  12.679 -0.2689  0.2068 -0.0674
  311MPD2    H7 4687   1.118   1.515  12.723 -2.0090  0.9948 -2.0492
  312TMC3    C1 4688   0.530   1.362  13.048 -0.0874  0.1768  0.4191
  312TMC3    C2 4689   0.398   1.349  13.029 -0.3677  0.3205 -0.0434
  312TMC3    C3 4690   0.312   1.455  13.023 -0.7740 -0.1099  0.1377
  312TMC3    C4 4691   0.577   1.487  13.077  0.5958 -0.3237  0.3680
  312TMC3    C5 4692   0.492   1.595  13.069  0.2411  0.0610  0.2901
  312TMC3    C6 4693   0.361   1.584  13.036 -0.6322 -0.5875 -0.3047
  312TMC3     C 4694   0.623   1.269  12.991  0.4038 -0.5242 -0.0997
  312TMC3     O 4695   0.607   1.147  13.002  0.2933 -0.1390  0.7897
  312TMC3     H 4696   0.361   1.247  13.027 -0.7397  0.4533  0.2968
  312TMC3    H1 4697   0.672   1.491  13.130  0.0711  0.1145  1.2693
  312TMC3    H2 4698   0.298   1.671  13.034 -0.8838 -0.7995 -1.4056
  312TMC3    C7 4699   0.535   1.728  13.112 -0.0552  0.5592  0.5168
  312TMC3    C8 4700   0.166   1.428  13.010 -0.1767 -0.3026  0.3829
  312TMC3    O1 4701   0.477   1.817  13.050 -0.5417  0.0616 -0.0992
  312TMC3    O2 4702   0.135   1.316  12.987 -0.1586  0.5236 -0.3006
  313MPD2     C 4703   4.642   0.694  10.524 -0.3391  0.1220 -0.6934
  313MPD2    C1 4704   0.038   0.704  10.452 -0.0270 -1.0336 -0.3952
  313MPD2    C2 4705   0.075   0.602  10.369  0.5130 -0.1723  0.5366
  313MPD2    C3 4706   4.707   0.500  10.336  0.4383 -0.7214  0.5474
  313MPD2    C4 4707   4.591   0.486  10.409 -0.6383 -0.0894  0.5857
  313MPD2    C5 4708   4.557   0.584  10.500  0.0877 -0.7453 -0.2763
  313MPD2     H 4709   0.165   0.607  10.309  0.0624 -0.6828 -0.1942
  313MPD2    H1 4710   4.519   0.407  10.397 -0.6239 -0.1549  0.9280
  313MPD2    H2 4711   4.612   0.766  10.599  0.0283 -0.6602  0.2072
  313MPD2    H3 4712   4.459   0.573  10.546  0.0001  0.4192 -0.1906
  313MPD2     N 4713   0.026   0.423  10.221 -0.1372 -0.1974 -0.3838
  313MPD2    H5 4714   0.106   0.457  10.169 -1.1254 -0.7018 -2.2037
  313MPD2    N1 4715   0.124   0.812  10.472 -0.9456 -0.5955 -0.2006
  313MPD2    H7 4716   0.215   0.804  10.427 -0.3103  1.8288  0.6336
  314TMC3    C1 4717   0.209   1.015  10.517 -0.0254 -0.0769 -0.7391
  314TMC3    C2 4718   0.303   1.049  10.608 -0.1342  0.2056 -0.3955
  314TMC3    C3 4719   0.421   1.099  10.561  1.5031 -0.0099  0.7291
  314TMC3    C4 4720   0.238   1.033  10.385 -0.2210 -0.0228  0.2741
  314TMC3    C5 4721   0.359   1.082  10.335 -0.1143 -0.2807  0.2203
  314TMC3    C6 4722   0.455   1.118  10.427  0.4738 -0.1768  0.2314
  314TMC3     C 4723   0.102   0.925  10.549  0.1854 -0.2431  0.2441
  314TMC3     O 4724   0.020   0.956  10.631 -0.2618  0.5002 -0.1799
  314TMC3     H 4725   0.286   1.035  10.714  2.2396  3.1447  0.3538
  314TMC3    H1 4726   0.164   0.990  10.318  0.0749  1.6518 -1.1297
  314TMC3    H2 4727   0.546   1.169  10.398  1.1845 -1.4296  0.2482
  314TMC3    C7 4728   0.407   1.041  10.206  0.0565 -0.1830  0.7584
  314TMC3    C8 4729   0.494   1.183  10.655 -0.4678  0.3765  0.3974
  314TMC3    O1 4730   0.529   1.023  10.189  0.1826  0.5229 -0.1237
  314TMC3    O2 4731   0.613   1.199  10.649 -0.6568 -0.4111  0.0146
  315MPD2     C 4732   0.115   0.519   0.002 -0.4940  0.4593 -0.2033
  315MPD2    C1 4733   0.225   0.550   0.076  0.2801  0.7050 -0.8227
  315MPD2    C2 4734   0.309   0.647   0.023  0.2721 -0.8263  0.9193
  315MPD2    C3 4735   0.277   0.727  17.599 -0.1971 -0.9106 -0.3022
  315MPD2    C4 4736   0.165   0.682  17.524 -0.0856  0.3873  0.3485
  315MPD2    C5 4737   0.082   0.591  17.574 -0.6995 -0.2786  0.8166
  315MPD2     H 4738   0.385   0.686   0.090  0.4484  0.2423  0.1014
  315MPD2    H1 4739   0.129   0.744  17.443  1.7110 -0.2544 -0.9381
  315MPD2    H2 4740   0.048   0.440   0.035 -0.7006  0.2095 -1.2033
  315MPD2    H3 4741   4.711   0.570  17.520 -1.3564  2.1928  0.9844
  315MPD2     N 4742   0.348   0.847  17.582  0.2448 -0.0445  0.5800
  315MPD2    H5 4743   0.394   0.879  17.666  1.4965  0.9253 -0.4846
  315MPD2    N1 4744   0.260   0.489   0.197  0.4292  0.6019 -0.1861
  315MPD2    H7 4745   0.353   0.510   0.231  0.8672 -1.4526 -0.1167
  316TMC3    C1 4746   0.400   1.064  17.498 -0.0973  0.0504  0.5112
  316TMC3    C2 4747   0.498   1.071  17.595 -0.4314  0.1384  0.2442
  316TMC3    C3 4748   0.536   1.201  17.632 -0.2632 -0.1485 -0.1842
  316TMC3    C4 4749   0.351   1.178  17.434  0.1733 -0.5721  0.3700
  316TMC3    C5 4750   0.397   1.305  17.472  0.0578  0.1152  0.1856
  316TMC3    C6 4751   0.491   1.321  17.576  0.1594 -0.0031  0.3459
  316TMC3     C 4752   0.324   0.939  17.484 -0.8940  0.3551  1.0058
  316TMC3     O 4753   0.262   0.931  17.382  0.5344  0.3078  0.3691
  316TMC3     H 4754   0.523   0.982  17.650 -0.9472 -0.3675 -0.3415
  316TMC3    H1 4755   0.260   1.159  17.377 -0.1564 -2.5864  1.5776
  316TMC3    H2 4756   0.539   1.413  17.607 -2.3953  1.5256 -0.2903
  316TMC3    C7 4757   0.322   1.420  17.436 -0.0661 -0.4773 -0.2372
  316TMC3    C8 4758   0.662   1.219   0.020  0.6237  0.8909 -0.1962
  316TMC3    O1 4759   0.341   1.518  17.512 -0.3737  0.1136 -0.6458
  316TMC3    O2 4760   0.672   1.326   0.082 -0.2184  0.3815 -0.4499
  317MPD2     C 4761   2.098   3.593  12.736  0.1404  1.2299 -0.0138
  317MPD2    C1 4762   2.046   3.467  12.728  0.2973  0.1586 -0.3673
  317MPD2    C2 4763   2.110   3.367  12.795 -0.0315 -0.4607  0.4104
  317MPD2    C3 4764   2.224   3.395  12.873  0.1638  0.5283  0.8396
  317MPD2    C4 4765   2.283   3.519  12.855  0.5755  0.5650  0.3930
  317MPD2    C5 4766   2.222   3.616  12.789  0.0774  0.3129  0.6589
  317MPD2     H 4767   2.066   3.269  12.806  0.2242 -0.9079 -2.5730
  317MPD2    H1 4768   2.370   3.551  12.910  2.0545 -0.9727 -1.0779
  317MPD2    H2 4769   2.052   3.680  12.691 -2.1473 -0.3369 -0.6677
  317MPD2    H3 4770   2.271   3.713  12.786  0.4428  0.0922 -0.5509
  317MPD2     N 4771   2.279   3.295  12.960  0.3880 -0.1837  0.0890
  317MPD2    H5 4772   2.207   3.223  12.969  0.5492 -0.3112  0.3644
  317MPD2    N1 4773   1.930   3.436  12.659  0.4472  0.0387 -0.4197
  317MPD2    H7 4774   1.894   3.341  12.662  2.1902 -0.5756  1.0280
  318TMC3    C1 4775   2.391   3.205  13.151  0.0666  0.0311 -0.6790
  318TMC3    C2 4776   2.313   3.094  13.148  0.1311  0.5465  0.0912
  318TMC3    C3 4777   2.330   3.004  13.245 -0.5107 -0.1549 -0.0761
  318TMC3    C4 4778   2.490   3.217  13.246 -0.6188 -0.3452  0.1761
  318TMC3    C5 4779   2.523   3.107  13.327 -0.5748  0.4100 -0.6835
  318TMC3    C6 4780   2.438   2.998  13.332  0.4998  0.3927  0.4266
  318TMC3     C 4781   2.370   3.318  13.061  0.6683 -0.3679  0.0771
  318TMC3     O 4782   2.444   3.411  13.086  0.9513 -0.3104 -0.2185
  318TMC3     H 4783   2.234   3.078  13.076  0.8651 -0.6391 -0.4475
  318TMC3    H1 4784   2.544   3.310  13.263  0.3805 -0.3578 -2.9800
  318TMC3    H2 4785   2.461   2.913  13.395 -0.1867  1.1839  1.7503
  318TMC3    C7 4786   2.624   3.126  13.423 -0.1548 -0.0163  1.0151
  318TMC3    C8 4787   2.288   2.874  13.210  0.0965 -0.2793 -0.6494
  318TMC3    O1 4788   2.658   3.243  13.437 -0.1532  0.6755  0.0486
  318TMC3    O2 4789   2.367   2.778  13.228 -0.1942  0.0426 -0.3094
  319MPD2     C 4790   3.221   4.472  16.598  0.0992  0.3971  0.0670
  319MPD2    C1 4791   3.123   4.486  16.692  0.6949 -0.4160  0.2465
  319MPD2    C2 4792   2.991   4.463  16.659  0.3548  0.3098  0.1796
  319MPD2    C3 4793   2.951   4.439  16.528  0.2664 -0.0713 -0.2728
  319MPD2    C4 4794   3.050   4.421  16.436 -0.3736  0.4440 -0.2450
  319MPD2    C5 4795   3.184   4.444  16.470 -0.3242 -0.1628  0.3456
  319MPD2     H 4796   2.912   4.469  16.733 -1.1389  1.1264 -1.4806
  319MPD2    H1 4797   3.031   4.395  16.332  0.8455  0.2813 -0.4361
  319MPD2    H2 4798   3.326   4.494  16.616  0.4936 -0.1068 -1.5921
  319MPD2    H3 4799   3.261   4.420  16.398  0.2309 -2.6109  1.7620
  319MPD2     N 4800   2.824   4.408  16.490  0.6614  0.4611 -0.1943
  319MPD2    H5 4801   2.808   4.382  16.393 -0.0843 -0.3450  0.1468
  319MPD2    N1 4802   3.149   4.524  16.829 -0.3918 -0.5131 -0.0624
  319MPD2    H7 4803   3.061   4.529  16.880 -0.7734  1.2761 -0.8922
  320TMC3    C1 4804   2.603   4.353  16.482  0.1445  0.1631 -0.2740
  320TMC3    C2 4805   2.573   4.439  16.376  0.2614  0.6766  0.1911
  320TMC3    C3 4806   2.456   4.412  16.308  0.3706 -0.0175 -0.2966
  320TMC3    C4 4807   2.514   4.250  16.515  0.1789 -0.9150  0.4669
  320TMC3    C5 4808   2.399   4.231  16.446 -0.0936 -0.6053  0.3927
  320TMC3    C6 4809   2.373   4.304  16.334 -0.3237  0.0960 -0.1654
  320TMC3     C 4810   2.711   4.380  16.569 -0.3967  0.4393  0.4301
  320TMC3     O 4811   2.706   4.351  16.686  0.4661 -0.1160  0.6459
  320TMC3     H 4812   2.634   4.525  16.349 -0.5354  1.2449  0.2050
  320TMC3    H1 4813   2.542   4.183  16.596  0.0124 -0.3492  0.9915
  320TMC3    H2 4814   2.282   4.284  16.279  0.1398  0.6761 -1.1436
  320TMC3    C7 4815   2.350   4.091  16.420 -0.2974  0.3888  0.2203
  320TMC3    C8 4816   2.402   4.523  16.231  0.5934 -0.6240 -0.8021
  320TMC3    O1 4817   2.273   4.073  16.324  0.0494  0.5906  0.3033
  320TMC3    O2 4818   2.479   4.598  16.178  0.5290  0.4820  0.1793
  321TMC3    C1 4819   3.258   4.589  17.026  1.2775  0.0682 -0.3324
  321TMC3    C2 4820   3.154   4.549  17.110 -0.2123 -0.1524  0.6112
  321TMC3    C3 4821   3.150   4.575  17.244  0.3017 -0.2944 -0.2437
  321TMC3    C4 4822   3.368   4.645  17.086  0.0671  0.2428 -0.5364
  321TMC3    C5 4823   3.363   4.675  17.217  0.3104 -0.0595  1.0186
  321TMC3    C6 4824   3.252   4.653  17.294 -0.7926  0.2657 -0.1675
  321TMC3     C 4825   3.268   4.543  16.887  0.3287 -0.0576 -0.4681
  321TMC3     O 4826   3.380   4.539  16.839  0.3640 -0.5941 -0.1127
  321TMC3     H 4827   3.087   4.476  17.065 -1.4326  0.8097  0.8873
  321TMC3    H1 4828   3.459   4.650  17.026 -0.0849  3.2479 -0.4792
  321TMC3    H2 4829   3.258   4.683  17.398 -1.6816  1.6906 -0.5219
  321TMC3    C7 4830   3.479   4.649  17.285  1.0591  0.7632  0.6348
  321TMC3    C8 4831   3.118   4.462  17.331  0.1474 -0.1489 -0.8374
  321TMC3    O1 4832   3.464   4.594  17.396 -0.0810 -0.0439  0.2209
  321TMC3    O2 4833   3.019   4.398  17.299  0.4566 -0.2502 -0.1381
  322MPD2     C 4834   2.052   0.965  13.606  0.4694 -0.0871 -0.2152
  322MPD2    C1 4835   2.093   0.859  13.680  0.1230 -1.2129  0.4246
  322MPD2    C2 4836   2.134   0.738  13.623 -0.1288 -0.7229  0.1260
  322MPD2    C3 4837   2.134   0.725  13.483  0.1009 -0.3882  0.2993
  322MPD2    C4 4838   2.099   0.839  13.406  0.3361  0.3764  0.3430
  322MPD2    C5 4839   2.067   0.961  13.470 -0.0902 -0.5538  0.5760
  322MPD2     H 4840   2.153   0.646  13.678  0.4726 -0.5232  0.2591
  322MPD2    H1 4841   2.087   0.831  13.299  1.3891 -1.7064  0.3661
  322MPD2    H2 4842   2.018   1.058  13.650  0.7771 -0.0277 -0.0997
  322MPD2    H3 4843   2.064   1.049  13.406  0.6975  0.5661  2.0876
  322MPD2     N 4844   2.153   0.599  13.420 -0.0421 -0.2396  0.0624
  322MPD2    H5 4845   2.153   0.513  13.475  0.0754  0.4826  1.2029
  322MPD2    N1 4846   2.104   0.883  13.817  0.4121 -0.1772  0.2433
  322MPD2    H7 4847   2.102   0.981  13.845 -2.5782 -0.9117  2.5749
  323TMC3    C1 4848   2.130   0.829  14.053 -0.5447 -0.0485 -0.0225
  323TMC3    C2 4849   2.202   0.939  14.074 -0.3807  0.8535 -0.3642
  323TMC3    C3 4850   2.253   0.952  14.202 -0.0353 -0.7816 -0.0050
  323TMC3    C4 4851   2.101   0.733  14.149  0.4190  0.3337 -0.3010
  323TMC3    C5 4852   2.156   0.748  14.273 -0.0922  0.1408 -1.0337
  323TMC3    C6 4853   2.237   0.853  14.294  0.4089  0.1120  0.1324
  323TMC3     C 4854   2.111   0.782  13.913 -0.6897 -0.8132 -0.3415
  323TMC3     O 4855   2.077   0.665  13.903 -0.1410 -0.4036 -0.4017
  323TMC3     H 4856   2.218   1.016  13.999  0.6191  0.9181 -0.0885
  323TMC3    H1 4857   2.039   0.646  14.128  0.2826  0.0590  1.1837
  323TMC3    H2 4858   2.304   0.846  14.379 -1.1257  3.6108  1.6285
  323TMC3    C7 4859   2.226   0.634  14.310  0.4173  0.2015  0.2290
  323TMC3    C8 4860   2.373   1.029  14.225 -0.0394  1.0561 -0.1904
  323TMC3    O1 4861   2.340   0.623  14.271  0.1363  0.0631 -0.1594
  323TMC3    O2 4862   2.461   0.990  14.300  0.0411  0.3642  0.5100
  324MPD2     C 4863   3.615   1.831  14.474 -0.2156 -0.0112  0.1885
  324MPD2    C1 4864   3.599   1.959  14.426 -0.5992 -0.6640 -1.0369
  324MPD2    C2 4865   3.479   1.998  14.367 -0.3652 -0.9664  0.0361
  324MPD2    C3 4866   3.367   1.922  14.388  0.4527  0.0876  0.4666
  324MPD2    C4 4867   3.382   1.801  14.451 -0.2999  0.2148  0.2089
  324MPD2    C5 4868   3.500   1.759  14.492  0.0183 -0.0445 -0.1650
  324MPD2     H 4869   3.483   2.092  14.313  0.3649 -0.5443  0.8209
  324MPD2    H1 4870   3.305   1.725  14.459 -0.5532  0.4495  0.0062
  324MPD2    H2 4871   3.705   1.784  14.512 -0.2149  1.5823  2.1602
  324MPD2    H3 4872   3.505   1.652  14.514 -1.9932 -0.0522  0.3126
  324MPD2     N 4873   3.242   1.978  14.345  0.2648 -0.1179 -0.1981
  324MPD2    H5 4874   3.153   1.929  14.353  0.3636 -0.3873 -0.7524
  324MPD2    N1 4875   3.705   2.054  14.426 -0.9535 -0.5867  0.0517
  324MPD2    H7 4876   3.679   2.150  14.406 -0.3383 -0.8360 -1.9640
  325TMC3    C1 4877   3.078   2.135  14.266  0.5670  0.1165 -0.2926
  325TMC3    C2 4878   2.983   2.038  14.248 -0.2883  0.7071  0.0096
  325TMC3    C3 4879   2.866   2.073  14.176 -0.8050  0.2757  0.5377
  325TMC3    C4 4880   3.057   2.267  14.235  0.4911  0.0592 -0.2984
  325TMC3    C5 4881   2.948   2.298  14.165 -0.2000  0.8416  0.1081
  325TMC3    C6 4882   2.855   2.203  14.132 -0.1988  0.6300  0.3480
  325TMC3     C 4883   3.215   2.108  14.322  0.0972 -0.6429  0.0765
  325TMC3     O 4884   3.293   2.204  14.327 -0.5116 -0.3489  0.0117
  325TMC3     H 4885   2.992   1.935  14.280 -0.8448  0.3871 -0.8633
  325TMC3    H1 4886   3.126   2.343  14.269  0.3422  0.4481 -0.8743
  325TMC3    H2 4887   2.774   2.233  14.066  1.8494  2.6366 -1.2512
  325TMC3    C7 4888   2.927   2.436  14.123  1.0242 -0.2614 -0.2576
  325TMC3    C8 4889   2.798   1.964  14.107 -0.3887  0.4066  0.6457
  325TMC3    O1 4890   3.032   2.506  14.116 -0.5026  0.3126 -0.2229
  325TMC3    O2 4891   2.851   1.855  14.098 -0.8267  0.0578 -0.0678
  326MPD2     C 4892   0.295   2.909  11.264 -0.4920 -0.4487  0.2563
  326MPD2    C1 4893   0.229   3.002  11.190 -0.3323  0.4063 -0.7096
  326MPD2    C2 4894   0.282   3.130  11.171  0.9244  0.7779  0.1126
  326MPD2    C3 4895   0.408   3.162  11.217  0.1320  0.8054  0.6539
  326MPD2    C4 4896   0.478   3.074  11.285 -0.1407  0.9502  0.2969
  326MPD2    C5 4897   0.422   2.948  11.310  0.0247  0.2410  0.0647
  326MPD2     H 4898   0.230   3.206  11.114  0.9625  1.4814  1.0173
  326MPD2    H1 4899   0.576   3.087  11.328  0.9031  1.3868 -2.2221
  326MPD2    H2 4900   0.257   2.811  11.290  0.9548 -0.8732  0.7614
  326MPD2    H3 4901   0.481   2.871  11.359 -1.0562 -1.5902 -1.5337
  326MPD2     N 4902   0.472   3.278  11.178  0.2394  0.2508  0.3336
  326MPD2    H5 4903   0.573   3.286  11.177  0.3584 -1.2995 -0.0114
  326MPD2    N1 4904   0.111   2.966  11.117 -0.7091 -0.4561 -0.0929
  326MPD2    H7 4905   0.055   3.032  11.065 -0.8618 -1.0545 -0.6910
  327TMC3    C1 4906   4.700   2.825  10.981 -0.0129  0.0137  0.0274
  327TMC3    C2 4907   4.623   2.936  10.949  0.2006 -0.7222  0.4562
  327TMC3    C3 4908   4.569   2.940  10.827 -0.0641  0.4202  0.3220
  327TMC3    C4 4909   0.005   2.724  10.893  0.3089  0.2004  0.3723
  327TMC3    C5 4910   4.704   2.750  10.761  0.4988 -0.1675 -0.1591
  327TMC3    C6 4911   4.618   2.847  10.734 -0.3193 -0.3844 -0.4635
  327TMC3     C 4912   0.084   2.837  11.082  0.7492 -0.0061  0.0379
  327TMC3     O 4913   0.146   2.738  11.107  0.1585  0.3565 -0.2277
  327TMC3     H 4914   4.621   3.016  11.022 -0.5161 -0.4940  0.1838
  327TMC3    H1 4915   0.065   2.639  10.924  1.0642  0.1483 -1.2218
  327TMC3    H2 4916   4.580   2.850  10.633 -0.7537 -1.0508 -0.3249
  327TMC3    C7 4917   0.091   2.728  10.665  0.2684 -0.5008 -0.2028
  327TMC3    C8 4918   4.518   3.065  10.773 -0.4717  0.3851 -0.6452
  327TMC3    O1 4919   0.059   2.755  10.553  0.0694  0.3145 -0.1441
  327TMC3    O2 4920   4.546   3.072  10.655 -0.0422  0.0213  0.0008
  328MPD2     C 4921   2.312   3.592  17.357  0.1863 -0.6763  0.2477
  328MPD2    C1 4922   2.258   3.499  17.271 -0.3130 -0.3978 -0.6131
  328MPD2    C2 4923   2.216   3.542  17.150 -0.1270 -0.0935  0.6079
  328MPD2    C3 4924   2.241   3.669  17.100 -0.2733  0.2144  0.5124
  328MPD2    C4 4925   2.316   3.752  17.182 -0.1374  0.5308  0.7234
  328MPD2    C5 4926   2.348   3.714  17.305  0.4115 -0.6449  0.1486
  328MPD2     H 4927   2.148   3.479  17.094  0.0962  1.1578 -1.0759
  328MPD2    H1 4928   2.328   3.857  17.159  0.9692  0.3710  0.5815
  328MPD2    H2 4929   2.333   3.579  17.463 -0.8615  1.3798  0.6924
  328MPD2    H3 4930   2.399   3.794  17.357 -0.2249  0.0186 -0.2412
  328MPD2     N 4931   2.200   3.712  16.972  0.2187 -0.5583  0.6918
  328MPD2    H5 4932   2.203   3.813  16.960  0.8297 -0.3795  2.2659
  328MPD2    N1 4933   2.224   3.376  17.328 -0.0937  0.3092 -0.2718
  328MPD2    H7 4934   2.224   3.372  17.429 -1.1263  1.0750 -0.2395
  329TMC3    C1 4935   2.114   3.181  17.363 -0.0008  0.7361  0.0684
  329TMC3    C2 4936   2.010   3.229  17.436  0.2655 -0.3332 -0.1922
  329TMC3    C3 4937   1.923   3.139  17.493 -0.8945 -1.0848  0.0473
  329TMC3    C4 4938   2.128   3.046  17.331 -0.0374 -0.8349  0.4339
  329TMC3    C5 4939   2.044   2.962  17.393  0.7702  0.3046 -0.3892
  329TMC3    C6 4940   1.942   3.007  17.469 -0.1418  0.3313 -0.2928
  329TMC3     C 4941   2.168   3.267  17.260  0.4351  0.1422  0.6866
  329TMC3     O 4942   2.150   3.249  17.141  0.4193 -0.3059  0.8488
  329TMC3     H 4943   2.003   3.333  17.463 -0.5486 -0.1694 -1.0424
  329TMC3    H1 4944   2.213   3.008  17.277 -0.0976  0.3414 -0.4719
  329TMC3    H2 4945   1.856   2.944  17.489 -1.4796  2.1829 -0.2401
  329TMC3    C7 4946   2.108   2.840  17.432  0.0751  0.6700 -0.9453
  329TMC3    C8 4947   1.782   3.175  17.481 -0.1179  0.1246  0.1757
  329TMC3    O1 4948   2.191   2.793  17.352 -0.1784 -0.1196  0.6280
  329TMC3    O2 4949   1.698   3.102  17.433 -0.1320  0.1370  0.0539
  330TMC3    C1 4950   0.664   2.495   9.380 -0.2063 -0.3574  0.6330
  330TMC3    C2 4951   0.588   2.432   9.290  0.8157 -0.1404 -0.3471
  330TMC3    C3 4952   0.549   2.305   9.319 -0.4969 -0.5294  0.5681
  330TMC3    C4 4953   0.720   2.430   9.490  0.6728 -0.3247  0.3831
  330TMC3    C5 4954   0.678   2.303   9.515  0.0547 -0.9882  0.5113
  330TMC3    C6 4955   0.603   2.234   9.424  0.7539  0.3121  0.0603
  330TMC3     C 4956   0.604   2.622   9.412 -0.1878 -0.3688  0.1797
  330TMC3     O 4957   0.672   2.704   9.473  0.3525  0.7045  0.1004
  330TMC3     H 4958   0.553   2.485   9.203  0.0439  0.6362  0.4336
  330TMC3    H1 4959   0.788   2.483   9.556  1.3324 -0.2493 -0.3520
  330TMC3    H2 4960   0.553   2.142   9.451  0.9926  0.0484 -0.3959
  330TMC3    C7 4961   0.718   2.239   9.636  0.3003  0.8981 -0.5388
  330TMC3    C8 4962   0.414   2.277   9.275  0.2480  0.2658 -0.3925
  330TMC3    O1 4963   0.772   2.312   9.717 -0.2487  0.5091 -0.3340
  330TMC3    O2 4964   0.334   2.368   9.290 -0.1631 -0.6005  0.2152
  331MPD2     C 4965   2.618   1.338  12.303  0.3584 -0.0601 -0.6587
  331MPD2    C1 4966   2.703   1.402  12.214 -0.1327 -0.2896 -0.1284
  331MPD2    C2 4967   2.820   1.334  12.177 -0.1253 -0.4999  0.4635
  331MPD2    C3 4968   2.866   1.222  12.243 -0.1007 -0.6764 -0.1106
  331MPD2    C4 4969   2.783   1.159  12.332 -0.2612  0.2222 -0.2282
  331MPD2    C5 4970   2.663   1.223  12.365 -0.4931 -0.0121 -0.2121
  331MPD2     H 4971   2.885   1.382  12.105 -0.3190  0.2953  0.8261
  331MPD2    H1 4972   2.820   1.076  12.392  0.5749  0.5976 -0.2286
  331MPD2    H2 4973   2.519   1.374  12.328  0.8126 -0.0384  1.0679
  331MPD2    H3 4974   2.588   1.175  12.427  0.2531  1.9720  2.2313
  331MPD2     N 4975   2.999   1.182  12.216 -0.0841 -0.7023  0.3536
  331MPD2    H5 4976   3.045   1.229  12.138 -0.0990 -1.2328  0.0266
  331MPD2    N1 4977   2.675   1.528  12.158 -0.0570  0.7649  0.3468
  331MPD2    H7 4978   2.741   1.557  12.086 -1.5633  0.2493 -1.2417
  332TMC3    C1 4979   3.205   1.072  12.256 -0.6756 -0.4682  0.1300
  332TMC3    C2 4980   3.267   1.189  12.224 -0.2922 -0.5967 -0.0564
  332TMC3    C3 4981   3.401   1.183  12.230  0.2004 -0.1667 -0.5275
  332TMC3    C4 4982   3.273   0.957  12.289  0.0918  0.0042 -0.2071
  332TMC3    C5 4983   3.407   0.968  12.311 -0.6767  0.2603  0.8104
  332TMC3    C6 4984   3.479   1.078  12.274 -0.0201 -0.1758 -0.0813
  332TMC3     C 4985   3.058   1.072  12.275  0.0272 -0.3661  0.1356
  332TMC3     O 4986   3.016   0.983  12.345  0.3034 -0.8122 -0.0970
  332TMC3     H 4987   3.212   1.281  12.208  0.3361 -0.1969  0.0908
  332TMC3    H1 4988   3.215   0.870  12.319 -1.6696  1.8154  1.5767
  332TMC3    H2 4989   3.586   1.089  12.287 -0.0532 -0.4981  0.4667
  332TMC3    C7 4990   3.473   0.851  12.367 -0.8466 -0.2944  0.0533
  332TMC3    C8 4991   3.473   1.300  12.214 -0.0665 -0.3203  0.4666
  332TMC3    O1 4992   3.414   0.747  12.363 -0.0692  0.3477  0.1730
  332TMC3    O2 4993   3.586   1.314  12.263 -0.2546  0.7006 -0.6059
  333MPD2     C 4994   3.342   1.502  11.092  0.1172  0.2437 -0.0326
  333MPD2    C1 4995   3.468   1.446  11.098 -0.3915 -0.7694  0.1424
  333MPD2    C2 4996   3.494   1.345  11.189  0.0906 -0.1495 -0.3038
  333MPD2    C3 4997   3.399   1.309  11.283  0.1661  0.2613 -0.3067
  333MPD2    C4 4998   3.274   1.369  11.282  0.1894  0.4974 -0.0362
  333MPD2    C5 4999   3.250   1.470  11.191 -0.5733  0.0235 -0.1074
  333MPD2     H 5000   3.588   1.292  11.196 -0.3182 -0.8827 -0.3265
  333MPD2    H1 5001   3.190   1.351  11.348  0.9890  0.0102  0.8591
  333MPD2    H2 5002   3.320   1.592  11.035 -2.3021  0.5463  1.4189
  333MPD2    H3 5003   3.156   1.523  11.203 -0.7861 -0.3003 -0.3560
  333MPD2     N 5004   3.432   1.196  11.368  0.0321  0.4465 -0.2867
  333MPD2    H5 5005   3.513   1.138  11.348 -0.3913  0.1104 -0.9996
  333MPD2    N1 5006   3.565   1.485  11.000  0.0554 -0.0703 -0.0757
  333MPD2    H7 5007   3.536   1.542  10.922 -1.1357  1.1187  1.2379
  334TMC3    C1 5008   3.782   1.488  10.892  0.0571 -0.0085  0.7613
  334TMC3    C2 5009   3.895   1.412  10.867  0.0060 -0.0485  0.1702
  334TMC3    C3 5010   4.000   1.478  10.818 -0.1673 -0.1939 -0.1007
  334TMC3    C4 5011   3.768   1.618  10.857  0.0466  0.2806 -0.3667
  334TMC3    C5 5012   3.884   1.683  10.801 -0.1894  0.0176  0.0089
  334TMC3    C6 5013   4.002   1.609  10.771  0.8894  0.5283  0.3597
  334TMC3     C 5014   3.696   1.437  10.994  0.5592  0.4866  0.6143
  334TMC3     O 5015   3.762   1.356  11.062 -0.0008  0.0910 -0.1476
  334TMC3     H 5016   3.901   1.309  10.902  0.9144 -0.6655 -1.8259
  334TMC3    H1 5017   3.686   1.679  10.895  0.6334  1.1774 -0.5399
  334TMC3    H2 5018   4.089   1.663  10.735  0.1033  0.9402 -0.9604
  334TMC3    C7 5019   3.881   1.821  10.750 -0.6608 -0.2204  0.4596
  334TMC3    C8 5020   4.105   1.392  10.774  0.8561  0.3177 -0.2701
  334TMC3    O1 5021   3.989   1.869  10.739 -0.3850 -0.1255  0.1799
  334TMC3    O2 5022   4.071   1.288  10.721 -0.5053  0.2305  0.7328
  335TMC3    C1 5023   2.828   3.642  17.396  0.8618  0.3709  0.8665
  335TMC3    C2 5024   2.806   3.570  17.289  0.2805  0.7854 -0.5828
  335TMC3    C3 5025   2.899   3.579  17.188 -0.3610  0.8767  0.1388
  335TMC3    C4 5026   2.949   3.705  17.424 -0.2793 -0.1801 -0.4486
  335TMC3    C5 5027   3.041   3.703  17.325  0.4749  0.0255 -0.0824
  335TMC3    C6 5028   3.013   3.645  17.202 -0.2058  0.6772 -0.0272
  335TMC3     C 5029   2.729   3.627  17.504  0.2332 -0.0808 -0.5044
  335TMC3     O 5030   2.662   3.525  17.500  0.2367  0.1891 -0.6638
  335TMC3     H 5031   2.709   3.528  17.265  0.6275 -0.7983  0.8518
  335TMC3    H1 5032   2.967   3.765  17.513  0.6308  1.7142 -1.9328
  335TMC3    H2 5033   3.093   3.639  17.129 -1.1885  0.3581 -1.0661
  335TMC3    C7 5034   3.186   3.706  17.352  0.1700  0.2352 -0.1575
  335TMC3    C8 5035   2.898   3.478  17.084  0.1987  0.0632  0.2142
  335TMC3    O1 5036   3.263   3.692  17.255 -0.1575 -0.1112 -0.0648
  335TMC3    O2 5037   2.981   3.493  17.001  0.7132  0.1440 -1.0344
  336MPD2     C 5038   2.969   0.899  16.113  0.3537 -0.6473 -0.3547
  336MPD2    C1 5039   2.849   0.842  16.076  0.0933 -0.5813 -0.6026
  336MPD2    C2 5040   2.801   0.738  16.149 -0.7579  0.6073  0.1398
  336MPD2    C3 5041   2.865   0.692  16.265 -0.2679  0.2235  0.0178
  336MPD2    C4 5042   2.982   0.756  16.302  0.6955  0.9025 -0.1727
  336MPD2    C5 5043   3.042   0.849  16.223 -0.0268 -0.7212  0.1481
  336MPD2     H 5044   2.705   0.698  16.118 -0.2618  1.9382 -3.0137
  336MPD2    H1 5045   3.034   0.716  16.388 -2.6221  0.4028  1.6000
  336MPD2    H2 5046   3.015   0.990  16.076 -2.7643  0.9229 -0.3563
  336MPD2    H3 5047   3.141   0.882  16.254 -0.2371 -0.5869  0.6835
  336MPD2     N 5048   2.818   0.595  16.355  0.4552 -0.1702 -0.5228
  336MPD2    H5 5049   2.861   0.591  16.447  0.6944  1.1474 -0.5812
  336MPD2    N1 5050   2.773   0.880  15.963 -0.1889 -0.4604 -0.0712
  336MPD2    H7 5051   2.682   0.836  15.958  0.0337 -0.8177 -0.9713
  337TMC3    C1 5052   2.714   0.998  15.759 -0.5713  0.5586  0.0772
  337TMC3    C2 5053   2.577   0.996  15.780  0.2924 -0.8817  0.3166
  337TMC3    C3 5054   2.494   1.050  15.688  0.2707  0.1645  0.1614
  337TMC3    C4 5055   2.764   1.053  15.644  1.0741  0.0191 -0.4974
  337TMC3    C5 5056   2.680   1.102  15.543 -0.2359  0.0775 -0.0439
  337TMC3    C6 5057   2.543   1.100  15.571  0.2467 -0.7131  0.8151
  337TMC3     C 5058   2.810   0.963  15.862  0.0971  0.1718  0.5372
  337TMC3     O 5059   2.922   1.009  15.856 -0.2502  0.8558 -0.0861
  337TMC3     H 5060   2.533   0.960  15.873 -0.4116  0.8319  0.6338
  337TMC3    H1 5061   2.871   1.064  15.629  1.2424  1.0907  1.4878
  337TMC3    H2 5062   2.473   1.153  15.508  0.5123  0.8959  1.8737
  337TMC3    C7 5063   2.733   1.199  15.449 -0.3704 -0.1428  0.4516
  337TMC3    C8 5064   2.347   1.060  15.716 -0.0819  0.6467 -0.0350
  337TMC3    O1 5065   2.847   1.239  15.468  0.0112  0.0120  0.4986
  337TMC3    O2 5066   2.308   1.066  15.829 -0.0484  1.3368  0.1602
  338MPD2     C 5067   2.768   0.438   1.097 -0.4434 -0.1559  1.1148
  338MPD2    C1 5068   2.735   0.465   0.967 -0.5748  0.1464  0.3490
  338MPD2    C2 5069   2.642   0.566   0.938  0.2691  0.7142 -0.3554
  338MPD2    C3 5070   2.584   0.635   1.037  0.2422 -0.1190  0.4535
  338MPD2    C4 5071   2.619   0.604   1.171 -0.0310 -1.0702  0.4484
  338MPD2    C5 5072   2.709   0.506   1.198 -0.4553  0.2906  0.1001
  338MPD2     H 5073   2.609   0.574   0.835  0.4766  0.1101 -0.4682
  338MPD2    H1 5074   2.557   0.648   1.248 -0.2117  0.8390 -0.7610
  338MPD2    H2 5075   2.832   0.353   1.117 -0.1074 -0.3943 -0.9348
  338MPD2    H3 5076   2.724   0.479   1.301  0.8455  0.0138 -0.1657
  338MPD2     N 5077   2.493   0.733   0.990 -0.0200 -0.5207 -0.4561
  338MPD2    H5 5078   2.466   0.733   0.892 -0.1521  0.3064 -0.4218
  338MPD2    N1 5079   2.778   0.399   0.855 -0.2094 -0.0035 -0.2186
  338MPD2    H7 5080   2.734   0.429   0.769 -0.9950  1.7650  0.8032
  339TMC3    C1 5081   2.341   0.922   0.998 -0.1093 -0.4922  0.2022
  339TMC3    C2 5082   2.257   0.990   1.077 -0.6143  0.0901  0.6534
  339TMC3    C3 5083   2.135   1.014   1.032 -0.0819 -0.8389 -0.6177
  339TMC3    C4 5084   2.317   0.890   0.865 -0.2479 -0.5231 -1.0730
  339TMC3    C5 5085   2.191   0.930   0.818  0.5058  0.0128  0.0989
  339TMC3    C6 5086   2.096   0.981   0.909  1.0610 -0.7604 -0.9371
  339TMC3     C 5087   2.441   0.841   1.069  0.3842 -0.0868  0.6367
  339TMC3     O 5088   2.477   0.868   1.183 -0.6951  0.3484 -0.3035
  339TMC3     H 5089   2.283   1.018   1.178  0.8847 -0.3619  0.3851
  339TMC3    H1 5090   2.387   0.864   0.787 -0.5781 -0.4807 -1.3822
  339TMC3    H2 5091   1.996   1.010   0.878  0.9218 -0.8885 -0.6080
  339TMC3    C7 5092   2.175   0.920   0.672  0.5614 -0.2451 -0.1685
  339TMC3    C8 5093   2.022   1.057   1.115  0.4576  0.1915 -0.3394
  339TMC3    O1 5094   2.251   0.855   0.613 -0.0644  0.1195  0.2501
  339TMC3    O2 5095   1.930   1.114   1.066 -0.2562  0.1700  0.2618
  340MPD2     C 5096   3.271   2.317  10.164 -0.3989 -0.2698  0.2654
  340MPD2    C1 5097   3.382   2.321  10.077 -0.6629 -0.6680 -1.1860
  340MPD2    C2 5098   3.509   2.322  10.132  0.1126  0.0765 -0.1275
  340MPD2    C3 5099   3.523   2.321  10.269 -0.6314 -0.3247 -0.4101
  340MPD2    C4 5100   3.418   2.307  10.353  0.0895 -0.0708  0.0175
  340MPD2    C5 5101   3.294   2.313  10.298 -0.8462 -0.0099 -0.0861
  340MPD2     H 5102   3.586   2.327  10.056  1.2110 -2.5995  0.7799
  340MPD2    H1 5103   3.418   2.312  10.462 -0.5420  0.0156  0.0175
  340MPD2    H2 5104   3.170   2.312  10.125 -0.8737  1.4641  1.2389
  340MPD2    H3 5105   3.212   2.326  10.368  1.4714 -0.5629  2.7190
  340MPD2     N 5106   3.658   2.312  10.316  0.5951  0.4075  0.3172
  340MPD2    H5 5107   3.666   2.278  10.411  1.3595 -0.0406  0.0946
  340MPD2    N1 5108   3.375   2.326   9.938  0.0941  0.2451 -0.3242
  340MPD2    H7 5109   3.457   2.316   9.879 -0.3818 -0.7133 -0.8423
  341TMC3    C1 5110   3.295   2.279   9.721 -0.3421  0.0685  0.7653
  341TMC3    C2 5111   3.193   2.290   9.634 -0.3528  0.4854  0.2224
  341TMC3    C3 5112   3.207   2.224   9.513 -0.0732  0.4168  0.8621
  341TMC3    C4 5113   3.414   2.223   9.686  0.8191  0.5948  0.3424
  341TMC3    C5 5114   3.427   2.164   9.562 -0.1550  0.1207  0.5626
  341TMC3    C6 5115   3.331   2.180   9.472 -0.3383  0.3272  0.2198
  341TMC3     C 5116   3.260   2.311   9.858 -0.4462 -0.2358 -0.0391
  341TMC3     O 5117   3.139   2.313   9.888 -0.5771 -0.6939  0.2974
  341TMC3     H 5118   3.094   2.318   9.669 -0.8146 -0.5202 -0.2732
  341TMC3    H1 5119   3.485   2.202   9.764 -0.1836 -0.1645  1.0515
  341TMC3    H2 5120   3.335   2.141   9.371 -0.9448  1.3736 -0.2056
  341TMC3    C7 5121   3.549   2.090   9.540 -0.6158 -0.4673  0.4637
  341TMC3    C8 5122   3.089   2.183   9.434  0.5008  0.2758  0.2093
  341TMC3    O1 5123   3.651   2.135   9.586 -0.4699 -0.6243  0.0110
  341TMC3    O2 5124   3.116   2.101   9.348 -0.4304  0.2847 -0.3833
  342MPD2     C 5125   0.928   1.518  17.052  0.1585 -1.3801 -0.1019
  342MPD2    C1 5126   0.960   1.561  17.179  1.0198  0.2914  0.4222
  342MPD2    C2 5127   0.953   1.695  17.209 -0.1435  0.5821 -0.8075
  342MPD2    C3 5128   0.917   1.788  17.119  0.2956  0.2261 -1.2239
  342MPD2    C4 5129   0.884   1.749  16.993 -0.5349  0.2430 -0.1401
  342MPD2    C5 5130   0.892   1.614  16.963 -0.7999 -0.0351 -0.4138
  342MPD2     H 5131   0.987   1.724  17.307 -0.8844 -0.2262 -0.3056
  342MPD2    H1 5132   0.840   1.814  16.917 -0.3936 -0.4428 -0.8017
  342MPD2    H2 5133   0.907   1.413  17.034 -0.5094 -1.1362 -0.7538
  342MPD2    H3 5134   0.869   1.587  16.860  0.9645  0.7215 -1.0016
  342MPD2     N 5135   0.909   1.927  17.143 -0.0573 -0.2076 -0.6685
  342MPD2    H5 5136   0.897   1.988  17.062 -0.5360 -0.1686 -0.5663
  342MPD2    N1 5137   0.997   1.470  17.281  0.1882 -0.2839  0.6144
  342MPD2    H7 5138   1.032   1.504  17.370  1.4239  1.5759 -0.6122
  343TMC3    C1 5139   1.060   1.281  17.387  0.1241  0.1811  0.6367
  343TMC3    C2 5140   1.192   1.298  17.348 -0.3327  0.3006  0.0011
  343TMC3    C3 5141   1.277   1.194  17.356  0.3443  0.2334 -0.5677
  343TMC3    C4 5142   1.017   1.175  17.458 -0.2652 -0.2593 -0.1201
  343TMC3    C5 5143   1.105   1.064  17.450  1.1770  0.6541  0.2606
  343TMC3    C6 5144   1.237   1.073  17.408  0.1405 -0.1336  0.2010
  343TMC3     C 5145   0.973   1.334  17.286  0.8466 -0.5166 -0.5116
  343TMC3     O 5146   0.909   1.259  17.215  0.4324 -0.2965  0.0117
  343TMC3     H 5147   1.213   1.370  17.270  0.4739 -0.6334 -0.6395
  343TMC3    H1 5148   0.910   1.169  17.470 -0.3182 -2.2781 -1.6055
  343TMC3    H2 5149   1.303   0.988  17.400 -1.9886 -1.7294 -0.2869
  343TMC3    C7 5150   1.040   0.936  17.451  0.1751 -0.0536  0.7112
  343TMC3    C8 5151   1.378   1.198  17.253  0.7025 -0.3192 -0.0709
  343TMC3    O1 5152   0.914   0.940  17.442 -0.1038  0.0841 -0.4860
  343TMC3    O2 5153   1.440   1.303  17.252 -0.3176 -0.5070  0.5014
  344MPD2     C 5154   2.417   4.702  10.774 -0.4622 -0.2834 -0.6326
  344MPD2    C1 5155   2.316   0.023  10.685 -0.9548 -0.2525 -0.3039
  344MPD2    C2 5156   2.358   0.071  10.564  0.0667  0.1121  1.3675
  344MPD2    C3 5157   2.490   0.109  10.543  0.0722 -0.2815  0.4950
  344MPD2    C4 5158   2.585   0.079  10.640 -0.2316  0.2061  0.4491
  344MPD2    C5 5159   2.549   0.008  10.752 -0.3292 -0.0661 -0.4209
  344MPD2     H 5160   2.293   0.083  10.478  2.3054  0.7157 -0.2614
  344MPD2    H1 5161   2.691   0.097  10.632  0.0716 -2.3459 -1.1962
  344MPD2    H2 5162   2.386   4.655  10.867  1.2255  0.0457  0.0834
  344MPD2    H3 5163   2.619   4.718  10.834  0.4435  1.1077 -0.9308
  344MPD2     N 5164   2.548   0.166  10.425  0.6414 -0.0647  1.2901
  344MPD2    H5 5165   2.649   0.174  10.417  0.6839  0.7406  2.5300
  344MPD2    N1 5166   2.179   0.014  10.706  0.1347 -0.8133  0.0225
  344MPD2    H7 5167   2.111   0.040  10.634 -1.1040  0.8785  1.8086
  345TMC3    C1 5168   2.569   0.268  10.219 -0.2088 -0.7473  0.3435
  345TMC3    C2 5169   2.705   0.253  10.228 -0.3022 -0.4537 -0.5479
  345TMC3    C3 5170   2.783   0.311  10.131 -0.9173  0.6212 -0.2200
  345TMC3    C4 5171   2.511   0.329  10.108 -0.3858 -0.6910 -0.5581
  345TMC3    C5 5172   2.605   0.380  10.016 -0.2304 -0.3199  0.3656
  345TMC3    C6 5173   2.735   0.380  10.026  0.8311 -0.0374 -0.5334
  345TMC3     C 5174   2.476   0.221  10.319 -0.0992 -0.3254 -0.2872
  345TMC3     O 5175   2.355   0.226  10.298  0.2597  0.5959  0.2006
  345TMC3     H 5176   2.761   0.185  10.292 -0.8759 -0.8886 -0.5044
  345TMC3    H1 5177   2.405   0.351  10.104 -0.2428  0.1633  0.1400
  345TMC3    H2 5178   2.802   0.427   9.955  0.3243  0.2496 -0.8244
  345TMC3    C7 5179   2.547   0.480   9.933 -0.3064 -0.0958 -0.3306
  345TMC3    C8 5180   2.923   0.318  10.152 -0.9322 -0.5824 -0.5760
  345TMC3    O1 5181   2.612   0.585   9.917 -0.1382  0.2548  0.3377
  345TMC3    O2 5182   2.963   0.324  10.270  0.4656  0.2965  1.0479
  346MPD2     C 5183   1.930   1.970  13.738 -0.2409  0.0703  0.4166
  346MPD2    C1 5184   2.057   2.018  13.732  0.1360  0.0387  0.2328
  346MPD2    C2 5185   2.067   2.152  13.764 -0.4383  0.0064  0.4194
  346MPD2    C3 5186   1.962   2.237  13.786  0.0402  0.0746  0.9547
  346MPD2    C4 5187   1.835   2.190  13.785  0.4162 -0.2453 -0.1592
  346MPD2    C5 5188   1.821   2.054  13.772  0.3272  0.4597 -0.3676
  346MPD2     H 5189   2.165   2.198  13.753 -0.8862  0.9275  0.3136
  346MPD2    H1 5190   1.741   2.242  13.802  1.5012  1.4158  0.7284
  346MPD2    H2 5191   1.919   1.868  13.706  0.3313 -0.6028  2.3706
  346MPD2    H3 5192   1.718   2.018  13.771  0.3552  0.3987 -0.9951
  346MPD2     N 5193   1.996   2.372  13.803 -0.3020  0.4205 -0.0184
  346MPD2    H5 5194   2.090   2.403  13.777  1.0291 -2.3694  1.5244
  346MPD2    N1 5195   2.161   1.936  13.684 -0.5339 -0.1624 -0.3275
  346MPD2    H7 5196   2.129   1.851  13.639  0.8420 -2.1879  2.5131
  347TMC3    C1 5197   1.979   2.595  13.883  0.1668 -0.6723  0.6517
  347TMC3    C2 5198   2.118   2.597  13.882 -0.6359  0.2948 -0.5903
  347TMC3    C3 5199   2.181   2.688  13.954  0.1621 -0.0612  0.3397
  347TMC3    C4 5200   1.903   2.687  13.952 -0.1289  0.6024 -0.1119
  347TMC3    C5 5201   1.976   2.753  14.046 -0.5276  0.3071 -1.1562
  347TMC3    C6 5202   2.115   2.765  14.044  0.6059  0.2930 -0.4153
  347TMC3     C 5203   1.910   2.473  13.850  0.2057  0.2850  0.1370
  347TMC3     O 5204   1.794   2.476  13.883  0.6145  0.0856  0.2507
  347TMC3     H 5205   2.167   2.534  13.809  0.2806  0.2824  0.0330
  347TMC3    H1 5206   1.796   2.692  13.973 -0.6242 -1.8571 -2.0459
  347TMC3    H2 5207   2.170   2.816  14.122  2.9153  0.5160 -2.1947
  347TMC3    C7 5208   1.888   2.867  14.101 -0.1704 -0.3923 -0.1584
  347TMC3    C8 5209   2.317   2.644  13.989  0.3403 -0.1445  0.3879
  347TMC3    O1 5210   1.790   2.909  14.039 -0.2724 -0.0519 -0.1753
  347TMC3    O2 5211   2.345   2.530  13.952 -0.2001 -0.3664 -0.1866
  348MPD2     C 5212   0.861   2.164  11.960 -0.5335  0.1786  0.1232
  348MPD2    C1 5213   0.998   2.196  11.933 -0.0531 -0.6388  0.2072
  348MPD2    C2 5214   1.029   2.270  11.817  0.0765 -0.5431 -0.2918
  348MPD2    C3 5215   0.923   2.310  11.736  0.4752 -0.9550 -0.6915
  348MPD2    C4 5216   0.794   2.282  11.766 -0.4440 -0.3330  0.4592
  348MPD2    C5 5217   0.766   2.215  11.882  0.4081 -0.2892  0.7641
  348MPD2     H 5218   1.131   2.302  11.800  0.1299 -1.4556 -1.7164
  348MPD2    H1 5219   0.715   2.324  11.704 -1.1874 -3.0426 -0.4386
  348MPD2    H2 5220   0.830   2.097  12.040  2.5224 -0.7940  0.5061
  348MPD2    H3 5221   0.664   2.187  11.909 -0.5262  1.4545 -0.9269
  348MPD2     N 5222   0.949   2.399  11.624 -0.4183  0.0639  0.2072
  348MPD2    H5 5223   0.878   2.422  11.556 -0.7936 -0.7267  0.3263
  348MPD2    N1 5224   1.109   2.150  12.014 -0.5967  0.2132 -0.4503
  348MPD2    H7 5225   1.202   2.171  11.979 -0.4793  1.8583  0.8761
  349TMC3    C1 5226   1.226   2.004  12.154  0.2577 -0.6954  0.1707
  349TMC3    C2 5227   1.214   1.870  12.195  0.1405 -0.5564  0.1629
  349TMC3    C3 5228   1.318   1.779  12.186 -0.1992  0.2195  0.4836
  349TMC3    C4 5229   1.339   2.048  12.095  0.2660 -0.6578 -0.8581
  349TMC3    C5 5230   1.439   1.956  12.074 -0.0865  0.4125  0.4696
  349TMC3    C6 5231   1.432   1.828  12.132  0.2055 -0.4977 -0.0158
  349TMC3     C 5232   1.099   2.077  12.125 -0.5017 -0.8809  0.5724
  349TMC3     O 5233   1.001   2.050  12.193 -0.0763 -0.2398  0.1970
  349TMC3     H 5234   1.116   1.829  12.219 -1.2627  2.1187 -0.9979
  349TMC3    H1 5235   1.350   2.152  12.068  0.1300 -0.2904  0.4807
  349TMC3    H2 5236   1.526   1.773  12.130  0.0157 -0.7352 -2.0193
  349TMC3    C7 5237   1.491   1.951  11.943  0.4525  0.0016  0.2493
  349TMC3    C8 5238   1.300   1.635  12.193 -0.4726 -0.4159 -0.3544
  349TMC3    O1 5239   1.492   1.840  11.893 -0.8050 -0.8412  0.0411
  349TMC3    O2 5240   1.205   1.584  12.248  0.1649  0.2650 -0.3787
  350MPD2     C 5241   4.352   4.328   9.721  0.4573 -0.6659  0.1810
  350MPD2    C1 5242   4.487   4.304   9.716 -0.0745 -0.4021 -0.6600
  350MPD2    C2 5243   4.572   4.411   9.748 -0.4576 -0.0820  0.3257
  350MPD2    C3 5244   4.519   4.538   9.772 -0.3426 -0.4272  0.7443
  350MPD2    C4 5245   4.387   4.559   9.779 -0.0833 -0.1112 -0.3964
  350MPD2    C5 5246   4.306   4.450   9.756  0.0545  0.1668  0.7135
  350MPD2     H 5247   4.678   4.399   9.730 -0.2141  0.4505  1.4021
  350MPD2    H1 5248   4.342   4.657   9.792 -0.1952 -0.2951  0.5631
  350MPD2    H2 5249   4.273   4.263   9.687  0.4373 -0.7054  0.3036
  350MPD2    H3 5250   4.199   4.461   9.761 -0.0356 -0.2907 -0.2552
  350MPD2     N 5251   4.622   4.631   9.797 -0.0755 -0.7471 -0.6374
  350MPD2    H5 5252   4.716   4.596   9.811  0.3715  1.3498  1.6152
  350MPD2    N1 5253   4.542   4.173   9.683 -0.9920 -0.2355 -0.2406
  350MPD2    H7 5254   4.641   4.181   9.666 -1.0701  1.0687 -0.0963
  351TMC3    C1 5255   4.568   3.944   9.657 -0.0735  0.1587  0.2063
  351TMC3    C2 5256   4.697   3.958   9.704 -0.0078  1.2616  0.2255
  351TMC3    C3 5257   0.062   3.856   9.678  0.7135  0.4561 -0.3093
  351TMC3    C4 5258   4.516   3.833   9.595 -0.2280 -0.3515  0.8785
  351TMC3    C5 5259   4.612   3.735   9.566  0.0116  0.2759  0.3943
  351TMC3    C6 5260   0.026   3.750   9.593 -0.4562  0.1237 -0.0599
  351TMC3     C 5261   4.473   4.054   9.668 -0.6445 -0.6429 -0.4665
  351TMC3     O 5262   4.351   4.036   9.684  0.0167 -0.5057  0.3381
  351TMC3     H 5263   0.013   4.044   9.759  1.2109  1.5796 -1.0696
  351TMC3    H1 5264   4.409   3.831   9.577  0.3394  2.5640 -2.9339
  351TMC3    H2 5265   0.089   3.666   9.566  0.6808  1.2984 -1.0724
  351TMC3    C7 5266   4.570   3.613   9.497 -0.3727 -0.1050 -0.2338
  351TMC3    C8 5267   0.205   3.856   9.730 -0.7014 -0.2932  0.0257
  351TMC3    O1 5268   4.653   3.536   9.450  0.2105 -0.0097  0.1676
  351TMC3    O2 5269   0.286   3.796   9.662  0.7812  0.0415  0.2564
  352MPD2     C 5270   2.653   2.785   1.185 -0.4613  0.5156 -0.4096
  352MPD2    C1 5271   2.520   2.780   1.202 -0.1905  0.5451  0.6383
  352MPD2    C2 5272   2.463   2.661   1.259 -0.4193  1.0017  0.5494
  352MPD2    C3 5273   2.544   2.563   1.298  0.3568 -0.2695 -0.6803
  352MPD2    C4 5274   2.681   2.576   1.286  0.1816  0.1208 -0.0616
  352MPD2    C5 5275   2.734   2.685   1.229 -0.3287  0.2149 -0.4762
  352MPD2     H 5276   2.358   2.658   1.282 -0.5806  0.8617 -0.2100
  352MPD2    H1 5277   2.757   2.502   1.308  0.9736  0.1813 -2.5491
  352MPD2    H2 5278   2.700   2.875   1.147 -0.8539  0.3886 -1.1843
  352MPD2    H3 5279   2.838   2.681   1.200  0.1908  1.1054  1.2692
  352MPD2     N 5280   2.495   2.435   1.333  0.4478  0.1053  0.0878
  352MPD2    H5 5281   2.570   2.379   1.372  0.5236 -1.2108 -1.9676
  352MPD2    N1 5282   2.443   2.886   1.154  0.2479  0.3514 -0.0171
  352MPD2    H7 5283   2.493   2.955   1.099  0.3569 -0.4956 -0.9892
  353TMC3    C1 5284   2.374   2.236   1.352 -0.5420 -0.4865  0.5934
  353TMC3    C2 5285   2.471   2.175   1.427  0.8292  0.2329  0.0454
  353TMC3    C3 5286   2.488   2.041   1.424 -0.9583  0.5512  0.2543
  353TMC3    C4 5287   2.287   2.160   1.287 -0.2106 -0.8046  0.2154
  353TMC3    C5 5288   2.307   2.027   1.286  0.1059  0.0027  0.2869
  353TMC3    C6 5289   2.409   1.966   1.347  0.1723  0.0961  0.4193
  353TMC3     C 5290   2.372   2.376   1.324 -0.2819 -0.7425 -0.2155
  353TMC3     O 5291   2.273   2.426   1.276  0.6707  0.0235  0.1589
  353TMC3     H 5292   2.530   2.229   1.500  0.1697 -1.3066  1.7121
  353TMC3    H1 5293   2.205   2.206   1.232  0.1613  2.8507  2.7246
  353TMC3    H2 5294   2.409   1.858   1.339  1.9139  0.0727  0.7604
  353TMC3    C7 5295   2.238   1.944   1.185  0.0682 -0.9513  0.0601
  353TMC3    C8 5296   2.615   1.981   1.478  0.5587 -0.1187  0.0722
  353TMC3    O1 5297   2.225   1.996   1.075  0.1356 -0.5794  0.1075
  353TMC3    O2 5298   2.678   2.044   1.561 -0.1640 -0.0696  0.5114
  354TMC3    C1 5299   4.621   3.300  13.437  0.5092 -0.3787 -0.2781
  354TMC3    C2 5300   0.012   3.379  13.465  0.3469  0.7895  0.3144
  354TMC3    C3 5301   4.717   3.512  13.438  0.0491  0.4130  0.2388
  354TMC3    C4 5302   4.499   3.345  13.399 -0.7852  0.8460  0.2899
  354TMC3    C5 5303   4.490   3.479  13.365  0.8234 -0.7987 -0.4739
  354TMC3    C6 5304   4.601   3.558  13.382  0.8644 -0.0434  0.5044
  354TMC3     C 5305   4.605   3.186  13.530 -0.1083  0.1332 -0.1494
  354TMC3     O 5306   4.492   3.137  13.546  0.1469  0.4131 -0.1248
  354TMC3     H 5307   0.103   3.341  13.510 -0.4958 -1.3911  0.1372
  354TMC3    H1 5308   4.419   3.282  13.362  1.1578 -0.8787 -0.9768
  354TMC3    H2 5309   4.587   3.663  13.357 -0.5774  0.3710  2.9267
  354TMC3    C7 5310   4.458   3.503  13.225 -0.5557  0.6000 -0.1884
  354TMC3    C8 5311   0.122   3.569  13.389  0.0664 -0.4046  0.2099
  354TMC3    O1 5312   4.363   3.572  13.194  0.3847 -0.0881  0.2195
  354TMC3    O2 5313   0.230   3.545  13.442 -0.3977  0.3259 -0.1300
  355MPD2     C 5314   0.041   4.080  11.585 -0.2199  0.1081  0.1011
  355MPD2    C1 5315   0.074   4.164  11.480 -0.0359 -0.4766 -0.7147
  355MPD2    C2 5316   0.196   4.225  11.485  0.4349 -0.1824 -0.6674
  355MPD2    C3 5317   0.291   4.202  11.583 -0.0081  0.1690  0.3662
  355MPD2    C4 5318   0.252   4.129  11.691  0.4678 -0.0473 -0.0361
  355MPD2    C5 5319   0.133   4.057  11.683 -0.1466  0.1779 -0.2023
  355MPD2     H 5320   0.227   4.278  11.395  2.2602 -0.0614  0.0348
  355MPD2    H1 5321   0.319   4.115  11.776  0.4995 -0.2091 -0.0878
  355MPD2    H2 5322   4.667   4.027  11.589  0.4529 -1.0300  1.2729
  355MPD2    H3 5323   0.107   3.994  11.767 -2.6525  0.6643 -0.6179
  355MPD2     N 5324   0.416   4.274  11.586 -0.3097 -0.5309  0.7431
  355MPD2    H5 5325   0.472   4.264  11.670  0.2932  1.2838  0.5590
  355MPD2    N1 5326   4.688   4.188  11.393  0.2795  0.3523 -0.2003
  355MPD2    H7 5327   4.600   4.144  11.418  0.7573 -0.9072 -0.7100
  356TMC3    C1 5328   0.589   4.415  11.513  0.3345 -0.2238 -0.0057
  356TMC3    C2 5329   0.681   4.418  11.420  0.8781  0.3994 -0.3549
  356TMC3    C3 5330   0.802   4.479  11.447 -0.4674  0.6178 -0.6990
  356TMC3    C4 5331   0.615   4.452  11.642  0.0011 -0.0479 -0.1848
  356TMC3    C5 5332   0.731   4.527  11.666  0.2014 -0.2009  0.1268
  356TMC3    C6 5333   0.829   4.537  11.569  0.0075 -0.2347 -0.1931
  356TMC3     C 5334   0.464   4.347  11.478  0.4665  0.2467 -0.4470
  356TMC3     O 5335   0.431   4.346  11.361  0.0019 -0.8327  0.0504
  356TMC3     H 5336   0.660   4.378  11.322  0.0689 -0.3828  0.1364
  356TMC3    H1 5337   0.533   4.458  11.713  0.9835 -0.3350  0.9651
  356TMC3    H2 5338   0.930   4.569  11.587  0.2841 -1.1701 -0.0860
  356TMC3    C7 5339   0.750   4.553  11.805  0.1972  0.4752  0.4880
  356TMC3    C8 5340   0.899   4.484  11.341  0.6362 -0.3708  0.0853
  356TMC3    O1 5341   0.675   4.498  11.886  0.0025  0.2152 -1.2856
  356TMC3    O2 5342   0.891   4.394  11.261  0.9681  0.2086 -0.1765
  357MPD2     C 5343   0.652   0.308   2.483 -0.4232 -0.1461 -0.6196
  357MPD2    C1 5344   0.622   0.203   2.401 -0.0983  0.3244  0.0679
  357MPD2    C2 5345   0.487   0.180   2.376 -0.6559  0.5048  0.6132
  357MPD2    C3 5346   0.388   0.264   2.429  1.4565  0.1433 -0.1127
  357MPD2    C4 5347   0.427   0.364   2.514  0.6763  0.3328  0.2126
  357MPD2    C5 5348   0.555   0.392   2.531  0.0328 -0.4949 -0.2232
  357MPD2     H 5349   0.440   0.102   2.317  1.8852 -2.6820  2.7620
  357MPD2    H1 5350   0.351   0.435   2.543  0.2309  0.2896 -0.8340
  357MPD2    H2 5351   0.755   0.328   2.509 -0.4132  1.1938 -1.7760
  357MPD2    H3 5352   0.587   0.475   2.593 -1.2432 -0.5534  0.5042
  357MPD2     N 5353   0.252   0.228   2.398 -0.0127 -1.0851 -0.4723
  357MPD2    H5 5354   0.243   0.153   2.330 -1.2716 -1.7723  0.4680
  357MPD2    N1 5355   0.723   0.123   2.347  0.0630 -0.1976 -0.3026
  357MPD2    H7 5356   0.820   0.142   2.368  0.1008  0.9973 -1.5904
  358TMC3    C1 5357   0.837   4.701   2.197 -0.0596 -0.4545  0.4914
  358TMC3    C2 5358   0.831   4.677   2.062 -0.0526 -0.0598 -0.2242
  358TMC3    C3 5359   0.931   4.600   2.009 -0.0131 -0.0275 -0.5853
  358TMC3    C4 5360   0.937   4.670   2.274  0.2231  0.3576 -0.7290
  358TMC3    C5 5361   1.037   4.604   2.207  0.5585  0.1167  0.0760
  358TMC3    C6 5362   1.039   4.557   2.078  0.9248 -0.2117  0.2484
  358TMC3     C 5363   0.711   0.035   2.243 -0.6920  0.0113 -0.0043
  358TMC3     O 5364   0.606   0.004   2.187 -0.5408  0.5296 -0.1666
  358TMC3     H 5365   0.743   4.697   2.002 -0.6255  0.7470  0.8981
  358TMC3    H1 5366   0.935   4.692   2.380 -2.4404 -0.6572 -0.5745
  358TMC3    H2 5367   1.130   4.522   2.031  0.6588  1.5647 -1.5857
  358TMC3    C7 5368   1.151   4.562   2.295  0.4872 -0.3270 -0.3372
  358TMC3    C8 5369   0.893   4.546   1.879  0.7810 -0.5571 -0.0588
  358TMC3    O1 5370   1.166   4.614   2.407  0.1176  0.1853  0.1276
  358TMC3    O2 5371   0.793   4.596   1.832 -0.1522 -0.1622  0.5514
  359MPD2     C 5372   0.348   3.375  11.861  0.5152  0.0002 -0.0390
  359MPD2    C1 5373   0.388   3.295  11.963  0.1185 -0.4152 -0.0193
  359MPD2    C2 5374   0.304   3.197  12.016  0.2227 -0.2208 -0.0770
  359MPD2    C3 5375   0.178   3.176  11.964  0.4399  1.5083 -0.0094
  359MPD2    C4 5376   0.136   3.260  11.869  0.1815 -0.0488  0.5297
  359MPD2    C5 5377   0.217   3.357  11.811 -0.6766 -0.2326 -0.1217
  359MPD2     H 5378   0.347   3.140  12.098  0.8010  2.8323  1.7075
  359MPD2    H1 5379   0.035   3.255  11.828  0.8910 -1.9581 -1.0175
  359MPD2    H2 5380   0.410   3.461  11.839  1.5386 -0.6094  0.5138
  359MPD2    H3 5381   0.179   3.422  11.734 -2.8046  0.5696  1.5951
  359MPD2     N 5382   0.109   3.063  11.985 -0.5290 -0.0355  0.1978
  359MPD2    H5 5383   0.025   3.047  11.930 -2.6812  2.2337  2.8187
  359MPD2    N1 5384   0.518   3.311  12.019  0.5904  0.1275 -0.2125
  359MPD2    H7 5385   0.541   3.244  12.093  0.0167 -0.2169 -0.3465
  360TMC3    C1 5386   0.761   3.346  12.020  0.3916 -0.2873 -1.0534
  360TMC3    C2 5387   0.859   3.409  11.940  0.4005  0.1686 -0.2070
  360TMC3    C3 5388   0.971   3.346  11.896  0.2769 -0.6795  0.0231
  360TMC3    C4 5389   0.778   3.214  12.051 -0.0932 -0.6811  0.1261
  360TMC3    C5 5390   0.897   3.153  12.005 -0.1495  0.1126  0.1553
  360TMC3    C6 5391   0.983   3.211  11.914 -0.1692 -0.2335  0.4646
  360TMC3     C 5392   0.625   3.394  11.978 -0.0141 -0.3710  0.4630
  360TMC3     O 5393   0.633   3.483  11.895  1.2204  0.3892  0.1014
  360TMC3     H 5394   0.855   3.517  11.937  2.1772  0.3005  1.8954
  360TMC3    H1 5395   0.715   3.153  12.114  0.2488 -0.8400  0.3175
  360TMC3    H2 5396   1.063   3.153  11.868  0.6897  1.0463  0.3388
  360TMC3    C7 5397   0.877   3.011  11.968 -0.2206 -0.7031 -0.5059
  360TMC3    C8 5398   1.081   3.414  11.828  0.2568 -0.6044  0.3289
  360TMC3    O1 5399   0.828   2.933  12.048  0.1676 -0.4777  0.4880
  360TMC3    O2 5400   1.064   3.532  11.807 -0.5381  0.1615 -0.0117
  361MPD2     C 5401   2.428   2.525  16.755 -0.3203 -0.7625 -0.7452
  361MPD2    C1 5402   2.418   2.523  16.889  0.2172  0.5916 -0.0453
  361MPD2    C2 5403   2.445   2.410  16.966 -0.1660 -0.1649  0.3976
  361MPD2    C3 5404   2.484   2.294  16.904  0.5193  0.5391  0.8865
  361MPD2    C4 5405   2.521   2.306  16.772  0.6373 -0.3864  0.3502
  361MPD2    C5 5406   2.490   2.418  16.698  0.0240  0.0068  0.7972
  361MPD2     H 5407   2.435   2.428  17.072 -1.2570  0.3975  0.1964
  361MPD2    H1 5408   2.585   2.231  16.728  0.6554 -0.1747  0.0182
  361MPD2    H2 5409   2.404   2.607  16.689  0.5256 -0.6479 -0.9008
  361MPD2    H3 5410   2.493   2.414  16.589 -0.3501  1.2029  0.7372
  361MPD2     N 5411   2.510   2.176  16.981 -0.3088 -1.0272  0.4351
  361MPD2    H5 5412   2.543   2.097  16.926  0.2303  0.3683 -1.2372
  361MPD2    N1 5413   2.368   2.638  16.954  0.2144 -0.4002 -0.0170
  361MPD2    H7 5414   2.346   2.627  17.052  0.7801  0.5095  0.2073
  362TMC3    C1 5415   2.253   2.837  16.981  0.1919  1.0781 -0.4921
  362TMC3    C2 5416   2.146   2.772  17.039  0.5422 -0.5761 -0.6131
  362TMC3    C3 5417   2.020   2.826  17.031  0.3862 -0.3530 -0.6905
  362TMC3    C4 5418   2.229   2.967  16.932 -0.6878  0.1456 -0.3376
  362TMC3    C5 5419   2.095   3.015  16.922  0.7028 -0.8128 -0.1241
  362TMC3    C6 5420   1.988   2.949  16.975  0.5738  0.4474 -0.2871
  362TMC3     C 5421   2.331   2.759  16.892 -0.0969  0.4642 -0.7272
  362TMC3     O 5422   2.360   2.807  16.782  0.2974  0.5585  0.2164
  362TMC3     H 5423   2.155   2.671  17.077  2.5345  0.3825  1.4351
  362TMC3    H1 5424   2.310   3.015  16.877  0.7331 -0.8206  0.9150
  362TMC3    H2 5425   1.887   2.982  16.951  0.3693 -0.7635 -1.0974
  362TMC3    C7 5426   2.061   3.062  16.787  0.2802 -0.5117  0.6838
  362TMC3    C8 5427   1.915   2.726  17.018 -0.2227  0.0842 -0.1045
  362TMC3    O1 5428   1.965   3.133  16.759 -0.5500 -0.2697  0.1035
  362TMC3    O2 5429   1.951   2.620  16.963  0.2005  0.0123 -0.3708
  363TMC3    C1 5430   1.480   4.186   9.444 -0.4771 -0.1538  0.8451
  363TMC3    C2 5431   1.440   4.101   9.543  0.7006  0.0988  0.0581
  363TMC3    C3 5432   1.311   4.118   9.583  0.2952  0.6175  0.2524
  363TMC3    C4 5433   1.406   4.287   9.393 -0.9332  0.2115  0.5209
  363TMC3    C5 5434   1.279   4.299   9.441 -0.0684 -0.2944 -0.0059
  363TMC3    C6 5435   1.227   4.207   9.533 -0.7431 -0.7582  0.0116
  363TMC3     C 5436   1.625   4.203   9.423  0.1993 -0.3198  0.3020
  363TMC3     O 5437   1.644   4.252   9.311 -0.4242  0.3520  0.1337
  363TMC3     H 5438   1.508   4.029   9.588  1.2055  1.7741  1.9792
  363TMC3    H1 5439   1.437   4.343   9.306  0.2432 -0.4091  0.5315
  363TMC3    H2 5440   1.121   4.211   9.556 -0.6564 -0.6689  0.3802
  363TMC3    C7 5441   1.184   4.390   9.385  0.1943 -0.3280  1.3026
  363TMC3    C8 5442   1.252   4.019   9.674 -0.2374  0.0288 -0.3006
  363TMC3    O1 5443   1.067   4.358   9.404 -0.0779  0.5899 -0.4894
  363TMC3    O2 5444   1.153   4.055   9.731 -0.1983  0.1296  0.3427
  364MPD2     C 5445   4.230   3.479  10.738  0.0087 -0.7095  0.2736
  364MPD2    C1 5446   4.335   3.442  10.659  0.7460 -0.0238 -0.0006
  364MPD2    C2 5447   4.415   3.332  10.694 -0.1540  0.0296  0.3315
  364MPD2    C3 5448   4.385   3.268  10.814  0.0935  0.5194  0.4380
  364MPD2    C4 5449   4.288   3.315  10.899 -0.5349 -0.1798  0.1052
  364MPD2    C5 5450   4.208   3.419  10.858  0.4621  0.4291  0.0858
  364MPD2     H 5451   4.503   3.301  10.639  0.6135 -0.4191  1.8108
  364MPD2    H1 5452   4.281   3.268  10.996 -5.3642 -1.6618 -0.9612
  364MPD2    H2 5453   4.157   3.550  10.698  1.4563  1.0832  0.8167
  364MPD2    H3 5454   4.129   3.451  10.924 -0.2120  0.6818 -0.8456
  364MPD2     N 5455   4.449   3.149  10.853 -0.0969  0.3536 -0.6200
  364MPD2    H5 5456   4.442   3.114  10.948 -0.0188  1.6366 -0.1475
  364MPD2    N1 5457   4.346   3.514  10.537 -0.2003  0.3111  0.0409
  364MPD2    H7 5458   4.275   3.585  10.519  0.4533  0.6645 -1.1567
  365TMC3    C1 5459   4.395   3.561  10.317 -0.3545 -0.3449 -0.2855
  365TMC3    C2 5460   4.430   3.498  10.201  0.1494 -0.1983  0.3274
  365TMC3    C3 5461   4.445   3.578  10.091 -0.3593  0.1964  0.4290
  365TMC3    C4 5462   4.413   3.694  10.330  0.1570  0.5585 -0.4724
  365TMC3    C5 5463   4.416   3.777  10.223 -0.6164  0.1549  0.5007
  365TMC3    C6 5464   4.422   3.715  10.102  0.3140  1.0144 -0.0344
  365TMC3     C 5465   4.431   3.482  10.436  0.6050  0.0546  0.5461
  365TMC3     O 5466   4.519   3.398  10.428 -0.1143 -0.9559 -0.2042
  365TMC3     H 5467   4.434   3.390  10.209 -1.3465 -0.3396 -0.8190
  365TMC3    H1 5468   4.429   3.728  10.432  1.7059 -2.3194  0.2453
  365TMC3    H2 5469   4.455   3.770  10.015  1.0422 -3.5094 -2.6312
  365TMC3    C7 5470   4.475   3.910  10.236  0.6640  0.1065 -0.5890
  365TMC3    C8 5471   4.465   3.519   9.957  0.2396 -0.3225  0.1594
  365TMC3    O1 5472   4.521   3.966  10.141  0.1999  0.1745 -0.2848
  365TMC3    O2 5473   4.451   3.585   9.853 -0.0951  0.2504 -0.3132
  366MPD2     C 5474   2.256   4.385  15.415  0.1039 -0.6471  0.1078
  366MPD2    C1 5475   2.312   4.485  15.497  1.1103  0.3798  0.2116
  366MPD2    C2 5476   2.440   4.468  15.540 -0.0456  0.6019  0.2047
  366MPD2    C3 5477   2.515   4.355  15.495 -0.4063  0.0952 -0.2369
  366MPD2    C4 5478   2.455   4.257  15.424 -0.0035  0.0428 -0.5748
  366MPD2    C5 5479   2.322   4.270  15.392  0.4629 -0.2918 -0.6193
  366MPD2     H 5480   2.494   4.543  15.596  1.5620 -0.0136 -0.5180
  366MPD2    H1 5481   2.505   4.165  15.396  0.1433  0.1323 -0.6026
  366MPD2    H2 5482   2.161   4.393  15.364  1.0178 -1.5576 -1.7286
  366MPD2    H3 5483   2.273   4.194  15.333  1.0324 -1.2964  0.2015
  366MPD2     N 5484   2.648   4.346  15.538  0.7312 -0.0868  0.0130
  366MPD2    H5 5485   2.686   4.418  15.599  2.8470  0.8127 -2.4114
  366MPD2    N1 5486   2.244   4.607  15.535 -0.0605  1.1877  0.6821
  366MPD2    H7 5487   2.287   4.677  15.595 -0.8100  1.1824  1.2240
  367TMC3    C1 5488   2.125   0.085  15.493  0.3667  0.3383 -0.3991
  367TMC3    C2 5489   2.220   0.150  15.563  0.5454  0.3245 -0.6704
  367TMC3    C3 5490   2.239   0.277  15.539 -0.3400 -0.0814 -0.5634
  367TMC3    C4 5491   2.055   0.147  15.395 -0.5751  0.7960  0.1671
  367TMC3    C5 5492   2.068   0.283  15.384 -0.1771  0.1791  0.5616
  367TMC3    C6 5493   2.162   0.351  15.454  0.2614  0.5906 -0.4352
  367TMC3     C 5494   2.125   4.656  15.481  0.3671 -0.0855  0.1906
  367TMC3     O 5495   2.052   4.604  15.396 -0.0371  0.5780  0.2334
  367TMC3     H 5496   2.277   0.102  15.642  1.8497  2.8957 -0.0421
  367TMC3    H1 5497   1.980   0.090  15.343  1.6805 -1.6565 -0.3628
  367TMC3    H2 5498   2.172   0.459  15.450 -0.2005  0.5980 -1.3014
  367TMC3    C7 5499   2.012   0.357  15.276 -0.2895 -0.3038  0.4488
  367TMC3    C8 5500   2.352   0.342  15.602 -0.2118  1.8089  0.0771
  367TMC3    O1 5501   2.060   0.471  15.264  0.0008  0.2769 -0.6031
  367TMC3    O2 5502   2.390   0.289  15.703 -0.5524 -0.4510  0.5135
  368MPD2     C 5503   3.697   2.233  13.227 -0.8880 -0.0793 -0.1017
  368MPD2    C1 5504   3.660   2.348  13.167  0.5155 -0.8125 -0.5458
  368MPD2    C2 5505   3.758   2.433  13.132  0.0149 -0.8444 -0.0651
  368MPD2    C3 5506   3.899   2.408  13.141 -0.3591  0.2532 -0.8410
  368MPD2    C4 5507   3.936   2.288  13.194 -0.4016  0.1419  0.0624
  368MPD2    C5 5508   3.833   2.202  13.234  0.4535 -0.8244  0.1301
  368MPD2     H 5509   3.738   2.529  13.087 -0.2451 -0.2696  1.2839
  368MPD2    H1 5510   4.041   2.267  13.208 -0.7172  1.3913  4.2800
  368MPD2    H2 5511   3.622   2.165  13.265  0.7258 -2.1188 -0.5667
  368MPD2    H3 5512   3.864   2.109  13.280  1.2255  0.6684  2.6723
  368MPD2     N 5513   3.998   2.498  13.111 -0.0074  0.4455  0.0234
  368MPD2    H5 5514   4.093   2.462  13.106  0.0730  0.5044  1.1641
  368MPD2    N1 5515   3.523   2.377  13.166  0.7017 -0.3618  1.0385
  368MPD2    H7 5516   3.467   2.315  13.225 -0.2997 -3.2815 -2.9421
  369TMC3    C1 5517   3.329   2.498  13.096  0.4944  0.9003  0.5018
  369TMC3    C2 5518   3.291   2.592  13.002 -0.7007  0.3276  0.2923
  369TMC3    C3 5519   3.173   2.573  12.935  0.0374 -0.0516  0.4345
  369TMC3    C4 5520   3.252   2.390  13.129  0.0083  0.1900  0.9372
  369TMC3    C5 5521   3.136   2.377  13.059  0.2741  0.2203 -0.4423
  369TMC3    C6 5522   3.094   2.466  12.965  0.3186  0.4148  0.4956
  369TMC3     C 5523   3.473   2.485  13.100 -0.3166  0.5345 -0.9520
  369TMC3     O 5524   3.531   2.555  13.023  0.4313 -0.3764 -0.1531
  369TMC3     H 5525   3.347   2.682  12.981  1.1571 -1.4918 -2.5124
  369TMC3    H1 5526   3.280   2.312  13.199  0.9607  0.2999  0.6681
  369TMC3    H2 5527   2.993   2.451  12.928  0.0317  1.8276  0.6963
  369TMC3    C7 5528   3.057   2.258  13.097 -0.2589  0.0302  0.4342
  369TMC3    C8 5529   3.160   2.632  12.802 -0.5308  0.3896 -0.6597
  369TMC3    O1 5530   3.084   2.218  13.214  0.8743 -0.7626  0.2637
  369TMC3    O2 5531   3.053   2.627  12.754 -0.0021 -0.0062  0.3971
  370TMC3    C1 5532   3.111   2.878  16.164 -0.3378 -0.4799  0.3775
  370TMC3    C2 5533   3.064   2.822  16.281 -0.1336 -0.2555  0.1875
  370TMC3    C3 5534   3.023   2.693  16.282 -0.6888  0.5145  0.4398
  370TMC3    C4 5535   3.120   2.804  16.050 -0.0791  0.3506 -0.7287
  370TMC3    C5 5536   3.083   2.675  16.054 -0.2551  0.1658  0.8858
  370TMC3    C6 5537   3.035   2.615  16.165  0.1960 -0.0498  0.2881
  370TMC3     C 5538   3.172   3.006  16.186  0.2587  0.2626  0.2296
  370TMC3     O 5539   3.194   3.042  16.303  0.5286  0.3262  0.0200
  370TMC3     H 5540   3.049   2.881  16.371  1.9419  0.1450  0.2798
  370TMC3    H1 5541   3.150   2.845  15.954  0.8403 -0.5811 -0.8395
  370TMC3    H2 5542   2.989   2.517  16.159 -0.0407  0.0867 -0.1746
  370TMC3    C7 5543   3.145   2.601  15.952  0.2670  0.4265  0.2677
  370TMC3    C8 5544   3.018   2.618  16.408 -0.5253 -0.4760  0.0415
  370TMC3    O1 5545   3.158   2.652  15.843  0.6121  0.1460 -0.0277
  370TMC3    O2 5546   3.014   2.496  16.400 -0.0291 -0.4487 -0.3228
  371TMC3    C1 5547   4.327   1.073  15.435 -1.1694 -0.2367 -0.6355
  371TMC3    C2 5548   4.229   1.080  15.526  0.5963 -0.0102 -0.3827
  371TMC3    C3 5549   4.197   1.200  15.571  0.3648  0.8094 -0.1008
  371TMC3    C4 5550   4.375   1.181  15.371  0.2797  0.8176  0.5428
  371TMC3    C5 5551   4.331   1.304  15.416  0.0606  0.4106  0.2426
  371TMC3    C6 5552   4.242   1.318  15.523  0.4553  0.6887  0.1535
  371TMC3     C 5553   4.409   0.949  15.414  0.3370 -0.1159  0.0117
  371TMC3     O 5554   4.529   0.976  15.386 -0.2270  0.0882 -0.3037
  371TMC3     H 5555   4.196   0.987  15.573 -0.3895  0.8071  0.5438
  371TMC3    H1 5556   4.448   1.171  15.292 -0.9724  2.4560 -0.7896
  371TMC3    H2 5557   4.239   1.406  15.586 -1.1255  0.9451 -0.2793
  371TMC3    C7 5558   4.402   1.425  15.383  0.1523  0.2173  0.6827
  371TMC3    C8 5559   4.163   1.201  15.706 -0.1758 -0.7899 -0.3876
  371TMC3    O1 5560   4.344   1.522  15.427 -0.2881  0.1267  0.3385
  371TMC3    O2 5561   4.207   1.107  15.771 -0.2276 -0.3103 -0.3709
  372MPD2     C 5562   4.116   2.021  14.003 -0.0711 -0.7205  0.0573
  372MPD2    C1 5563   4.165   1.918  13.921 -0.3456 -0.0414 -0.4393
  372MPD2    C2 5564   4.129   1.790  13.947 -0.7606 -0.0371  0.3403
  372MPD2    C3 5565   4.045   1.759  14.050 -0.5447  0.3928  0.7754
  372MPD2    C4 5566   4.004   1.863  14.137  0.5942 -0.3369 -0.7729
  372MPD2    C5 5567   4.044   1.989  14.118 -0.1607  0.3459  0.0447
  372MPD2     H 5568   4.162   1.711  13.880 -0.5081  2.2903 -2.2537
  372MPD2    H1 5569   3.942   1.839  14.223 -0.1126 -2.9207 -1.9943
  372MPD2    H2 5570   4.144   2.126  13.998  0.8247 -0.8994  1.4923
  372MPD2    H3 5571   4.005   2.068  14.181 -0.2289 -0.3344  0.8523
  372MPD2     N 5572   3.989   1.625  14.059  0.2939 -0.2021  0.1880
  372MPD2    H5 5573   4.010   1.561  13.982 -1.8175 -0.9285  0.2285
  372MPD2    N1 5574   4.264   1.959  13.823  0.2019  0.0787  0.3677
  372MPD2    H7 5575   4.312   1.884  13.775 -0.1882 -1.2661  2.1102
  373TMC3    C1 5576   3.910   1.437  14.157 -0.3655 -0.1591 -0.5549
  373TMC3    C2 5577   3.965   1.355  14.243 -0.1876  0.3015 -0.2673
  373TMC3    C3 5578   3.947   1.220  14.214 -0.1072  0.6954 -0.3110
  373TMC3    C4 5579   3.818   1.400  14.065  0.5410  0.3695  0.6727
  373TMC3    C5 5580   3.781   1.268  14.061 -0.8345  0.0219 -0.5014
  373TMC3    C6 5581   3.843   1.175  14.139  0.0900  0.1815  0.1356
  373TMC3     C 5582   3.939   1.571  14.175  0.7226 -0.2329  0.2531
  373TMC3     O 5583   3.961   1.608  14.289  0.1483 -0.5342 -0.6129
  373TMC3     H 5584   4.038   1.386  14.318 -0.8971 -0.4879  0.7433
  373TMC3    H1 5585   3.768   1.473  14.002 -2.4917 -0.8382  1.6343
  373TMC3    H2 5586   3.833   1.068  14.125  3.2981  0.2787 -2.7769
  373TMC3    C7 5587   3.766   1.231  13.921 -0.6374  0.3205 -0.4329
  373TMC3    C8 5588   4.067   1.142  14.202  0.3372 -0.0013 -0.2122
  373TMC3    O1 5589   3.790   1.315  13.836 -0.2578 -0.0596  0.3095
  373TMC3    O2 5590   4.050   1.038  14.135 -0.2931 -0.4374  0.2511
  374TMC3    C1 5591   0.295   1.723   9.620 -0.6066 -0.0774  0.1750
  374TMC3    C2 5592   0.335   1.853   9.637 -0.4461 -0.5637 -0.3579
  374TMC3    C3 5593   0.260   1.951   9.581  0.3075 -0.0942 -0.5000
  374TMC3    C4 5594   0.175   1.691   9.551  0.4629 -0.3689 -0.9307
  374TMC3    C5 5595   0.118   1.790   9.482 -0.5132  0.0848  0.2783
  374TMC3    C6 5596   0.165   1.920   9.487 -0.2195 -0.2093  0.1497
  374TMC3     C 5597   0.359   1.629   9.712 -0.0833  0.3317  0.0293
  374TMC3     O 5598   0.444   1.666   9.787  0.7447 -0.4707 -0.9751
  374TMC3     H 5599   0.408   1.869   9.716 -2.0717  2.6980  0.5240
  374TMC3    H1 5600   0.138   1.590   9.554  0.7471 -0.3395  3.5213
  374TMC3    H2 5601   0.128   1.990   9.414 -4.0759 -1.2429  1.1000
  374TMC3    C7 5602   0.011   1.751   9.388 -0.1075  0.0664 -0.6119
  374TMC3    C8 5603   0.291   2.089   9.600  1.0492 -0.4535 -0.1453
  374TMC3    O1 5604   0.020   1.636   9.352 -0.1873  0.8201  0.6762
  374TMC3    O2 5605   0.260   2.165   9.510  0.0987 -0.0736 -0.0106
  375MPD2     C 5606   4.483   3.154  17.359 -0.2932  0.7667  0.0665
  375MPD2    C1 5607   4.408   3.155  17.246 -0.1039 -0.1704  0.4601
  375MPD2    C2 5608   4.463   3.096  17.132 -0.2775 -0.0658  0.4068
  375MPD2    C3 5609   4.591   3.047  17.125 -0.3754  0.2785 -0.1887
  375MPD2    C4 5610   4.667   3.055  17.238 -0.7994 -0.1859 -0.3651
  375MPD2    C5 5611   4.614   3.101  17.354 -0.0383 -0.0002 -0.1070
  375MPD2     H 5612   4.399   3.099  17.044  1.2760 -0.8013 -0.7419
  375MPD2    H1 5613   0.048   3.020  17.244 -0.6758  0.4364  1.1442
  375MPD2    H2 5614   4.441   3.201  17.446 -0.4923  0.3258  0.2086
  375MPD2    H3 5615   4.667   3.100  17.448 -1.4040  1.1681  0.6731
  375MPD2     N 5616   4.641   2.996  17.001 -0.5300  0.0736  0.0102
  375MPD2    H5 5617   0.017   2.966  17.005 -0.6457 -0.6059 -2.0279
  375MPD2    N1 5618   4.286   3.226  17.245 -0.3963  0.1653  0.0657
  375MPD2    H7 5619   4.251   3.245  17.152 -0.2571 -1.2668 -0.2796
  376TMC3    C1 5620   4.649   2.960  16.762  0.7415 -0.3046  0.8896
  376TMC3    C2 5621   0.055   3.000  16.762 -0.6252 -0.1334 -0.7035
  376TMC3    C3 5622   0.110   3.059  16.650  0.1854 -0.1440 -0.1352
  376TMC3    C4 5623   4.570   2.977  16.649 -0.1547  0.2469 -0.0097
  376TMC3    C5 5624   4.626   3.040  16.541 -0.1680  0.1369 -0.6832
  376TMC3    C6 5625   0.035   3.082  16.534  0.5508  0.4559  0.2322
  376TMC3     C 5626   4.572   2.982  16.876 -1.0450  0.1448  1.1509
  376TMC3     O 5627   4.452   2.992  16.863  0.4371 -0.3301  0.2881
  376TMC3     H 5628   0.107   2.981  16.856 -0.8406 -0.6781 -0.6940
  376TMC3    H1 5629   4.469   2.940  16.640  0.7778 -2.6397  1.5450
  376TMC3    H2 5630   0.082   3.136  16.453 -0.4251  1.5776  0.4172
  376TMC3    C7 5631   4.540   3.055  16.426 -0.0437 -0.6786 -0.9208
  376TMC3    C8 5632   0.251   3.056  16.627 -0.5325  0.0243 -0.2089
  376TMC3    O1 5633   4.539   3.166  16.373  0.0251  0.1710 -0.5130
  376TMC3    O2 5634   0.278   3.081  16.510 -0.2632  0.1678 -0.3825
  377MPD2     C 5635   2.258   2.314  12.269 -0.1295 -0.4356 -0.5895
  377MPD2    C1 5636   2.321   2.291  12.388 -0.0610 -0.1727  0.9797
  377MPD2    C2 5637   2.244   2.295  12.505  0.0037  0.4725  0.5852
  377MPD2    C3 5638   2.107   2.324  12.501 -0.1159 -0.0539 -0.7420
  377MPD2    C4 5639   2.042   2.349  12.383  0.6798  0.3825  0.1489
  377MPD2    C5 5640   2.123   2.346  12.273 -0.6731 -0.2311 -0.6055
  377MPD2     H 5641   2.288   2.284  12.603  1.1897  0.1737  0.0115
  377MPD2    H1 5642   1.937   2.376  12.375  0.1662 -1.3715  0.8659
  377MPD2    H2 5643   2.307   2.320  12.172  0.5865  1.3414 -0.1032
  377MPD2    H3 5644   2.071   2.374  12.183 -0.5437  0.7010 -0.4008
  377MPD2     N 5645   2.033   2.342  12.619 -0.4984 -0.1760 -0.1492
  377MPD2    H5 5646   1.946   2.394  12.620 -0.8240 -0.7062 -0.6591
  377MPD2    N1 5647   2.461   2.282  12.380  0.1391 -0.4897  0.2966
  377MPD2    H7 5648   2.497   2.264  12.287  1.6022  0.5084  0.6803
  378TMC3    C1 5649   2.845   2.330  12.286  0.1246 -0.1748  0.5680
  378TMC3    C2 5650   2.715   2.349  12.324 -0.2274  0.6845  0.6599
  378TMC3    C3 5651   2.681   2.319  12.454  0.6860 -0.0011 -0.6767
  378TMC3    C4 5652   2.945   2.313  12.376  0.3043  0.0424  0.5790
  378TMC3    C5 5653   2.909   2.298  12.511  0.4836 -1.2994 -0.4801
  378TMC3    C6 5654   2.782   2.305  12.549 -0.1175 -0.9543 -0.3230
  378TMC3     C 5655   2.861   2.313  12.140 -0.6268  0.2620  0.3874
  378TMC3     O 5656   2.753   2.288  12.091 -0.6990  0.0606 -0.0721
  378TMC3     H 5657   2.635   2.370  12.254 -0.6393 -1.4375  0.4974
  378TMC3    H1 5658   3.048   2.303  12.344 -0.2590  1.4919 -1.6936
  378TMC3    H2 5659   2.754   2.286  12.652 -0.2848  1.9912  0.1669
  378TMC3    C7 5660   3.007   2.301  12.616 -0.2194  0.3144 -0.2037
  378TMC3    C8 5661   2.541   2.298  12.495 -0.1146 -0.2730 -0.5573
  378TMC3    O1 5662   2.964   2.286  12.730  0.5865 -0.0701  0.0704
  378TMC3    O2 5663   2.522   2.291  12.614  0.3135 -1.2042 -0.2140
  379MPD2     C 5664   3.473   0.760  16.166 -0.3586 -0.1570 -0.4269
  379MPD2    C1 5665   3.411   0.639  16.198 -0.1469 -0.0758 -0.0326
  379MPD2    C2 5666   3.455   0.579  16.313 -0.2777  0.2144 -1.0248
  379MPD2    C3 5667   3.572   0.620  16.374  0.4082 -0.5423 -0.1862
  379MPD2    C4 5668   3.644   0.724  16.321  0.0303 -0.3164 -1.2017
  379MPD2    C5 5669   3.585   0.801  16.219 -0.1957 -0.9675 -0.3524
  379MPD2     H 5670   3.393   0.503  16.359 -0.1318  0.5611 -0.2407
  379MPD2    H1 5671   3.736   0.764  16.362 -0.5365  1.9999 -2.1344
  379MPD2    H2 5672   3.422   0.819  16.090 -1.3198  0.2618  0.5524
  379MPD2    H3 5673   3.638   0.892  16.191  0.9576 -1.0017  1.7084
  379MPD2     N 5674   3.633   0.544  16.482 -0.4123  0.3108  0.0319
  379MPD2    H5 5675   3.728   0.571  16.504  0.5557 -2.3501 -0.8711
  379MPD2    N1 5676   3.300   0.588  16.129 -0.2629 -0.0849 -0.2615
  379MPD2    H7 5677   3.255   0.643  16.057  0.3536  2.1498  1.0633
  380TMC3    C1 5678   3.153   0.414  16.065 -0.1041 -0.3314 -0.1388
  380TMC3    C2 5679   3.125   0.283  16.062  0.1438 -0.5131  0.3364
  380TMC3    C3 5680   3.018   0.254  15.987 -0.5491  0.0010  0.1837
  380TMC3    C4 5681   3.070   0.513  16.014 -0.0402 -1.3075 -0.4079
  380TMC3    C5 5682   2.949   0.482  15.962  0.1993 -1.0118 -0.2559
  380TMC3    C6 5683   2.927   0.348  15.937 -0.6301 -0.2043  0.4440
  380TMC3     C 5684   3.273   0.455  16.131 -0.0074 -0.6246 -0.0714
  380TMC3     O 5685   3.336   0.360  16.176 -0.0989 -0.3554  0.1293
  380TMC3     H 5686   3.193   0.205  16.095 -1.3532 -1.6374  0.7876
  380TMC3    H1 5687   3.096   0.617  16.031 -0.1541 -1.4360  0.5535
  380TMC3    H2 5688   2.830   0.325  15.894 -0.6786  2.6103 -0.9671
  380TMC3    C7 5689   2.903   0.572  15.856 -0.8524 -0.2774 -0.1400
  380TMC3    C8 5690   3.043   0.161  15.888 -0.0709  0.0466  0.0929
  380TMC3    O1 5691   2.986   0.617  15.779 -0.2983 -0.1631 -0.1902
  380TMC3    O2 5692   3.155   0.160  15.839 -1.2310  0.8048 -0.1458
  381TMC3    C1 5693   3.055   1.939  16.255  0.0371 -0.2963  0.0430
  381TMC3    C2 5694   3.127   2.051  16.241  0.1234  0.1999  0.0874
  381TMC3    C3 5695   3.139   2.148  16.338 -0.3791  0.1458  0.3076
  381TMC3    C4 5696   2.979   1.930  16.369 -0.2164  0.6634  0.2588
  381TMC3    C5 5697   2.993   2.026  16.466  0.0034  0.3584  0.1186
  381TMC3    C6 5698   3.066   2.140  16.455  0.0199 -0.8969 -0.2595
  381TMC3     C 5699   3.106   1.818  16.202 -0.0750  0.3480  0.6618
  381TMC3     O 5700   3.084   1.718  16.268  0.1446  0.2143  0.6176
  381TMC3     H 5701   3.191   2.057  16.154  0.1241 -0.8449  0.0202
  381TMC3    H1 5702   2.926   1.839  16.395  0.5349  0.4552  1.0632
  381TMC3    H2 5703   3.074   2.216  16.531  1.1969  0.5497 -1.8342
  381TMC3    C7 5704   2.972   1.980  16.603  0.2000 -0.6490  0.2456
  381TMC3    C8 5705   3.267   2.218  16.352  0.3213 -0.0009 -0.2752
  381TMC3    O1 5706   2.999   1.861  16.621 -0.2519 -0.8936 -0.6235
  381TMC3    O2 5707   3.360   2.157  16.303 -0.3659  0.0447 -0.0353
  382MPD2     C 5708   2.517   4.646  16.815  0.3816  0.3631  0.3682
  382MPD2    C1 5709   2.484   0.003  16.929 -0.2992  0.0865  0.6786
  382MPD2    C2 5710   2.412   4.663  17.028 -0.0892  0.8266  0.4211
  382MPD2    C3 5711   2.364   4.537  17.018  0.0252 -0.3906  0.1193
  382MPD2    C4 5712   2.394   4.461  16.903 -0.1310  0.1590 -0.7459
  382MPD2    C5 5713   2.462   4.522  16.797  0.6844  0.0224 -0.2391
  382MPD2     H 5714   2.400   0.000  17.119  1.6787  2.3494 -0.3388
  382MPD2    H1 5715   2.355   4.361  16.886 -1.3247  0.3910  0.6378
  382MPD2    H2 5716   2.591   4.689  16.748  1.2889  1.5621  2.1543
  382MPD2    H3 5717   2.485   4.470  16.705 -0.2119 -0.4164 -0.2119
  382MPD2     N 5718   2.292   4.480  17.125 -0.3099 -0.3273  0.3156
  382MPD2    H5 5719   2.264   4.383  17.111  0.1562 -0.4882  0.4986
  382MPD2    N1 5720   2.531   0.133  16.954  0.5203  0.5966 -0.1196
  382MPD2    H7 5721   2.520   0.169  17.048 -0.4002 -0.4279  0.1652
  383TMC3    C1 5722   2.184   4.456  17.340  0.0548 -0.3328  0.1522
  383TMC3    C2 5723   2.109   4.360  17.286 -0.1843 -0.1137  0.1113
  383TMC3    C3 5724   2.068   4.261  17.373  0.4671 -0.1269 -0.2280
  383TMC3    C4 5725   2.218   4.458  17.469  0.8001 -0.1202  0.5469
  383TMC3    C5 5726   2.172   4.358  17.554  0.3919  0.0925  0.2348
  383TMC3    C6 5727   2.092   4.258  17.504  0.5172  1.0756 -0.0181
  383TMC3     C 5728   2.262   4.536  17.250 -0.6691  0.4790  0.3316
  383TMC3     O 5729   2.314   4.637  17.295 -0.7213  0.1034  0.2214
  383TMC3     H 5730   2.087   4.352  17.180 -1.7108  1.4828  0.3014
  383TMC3    H1 5731   2.283   4.537  17.505  0.1011  1.6480 -2.0261
  383TMC3    H2 5732   2.056   4.176  17.565 -1.0255 -0.5549 -3.1103
  383TMC3    C7 5733   2.203   4.378   0.009 -0.2316 -0.4369  0.1405
  383TMC3    C8 5734   1.970   4.165  17.318 -0.2799  0.4330 -0.7997
  383TMC3    O1 5735   2.285   4.461   0.037 -0.5926 -0.3557  0.2275
  383TMC3    O2 5736   1.898   4.204  17.230 -0.8097 -0.4269  0.4094
  384MPD2     C 5737   4.525   4.672  12.467  0.4266 -0.2767  0.9267
  384MPD2    C1 5738   4.483   4.554  12.402  0.3842 -0.0974  0.7817
  384MPD2    C2 5739   4.535   4.519  12.280  0.1241 -0.9346 -0.0007
  384MPD2    C3 5740   4.622   4.603  12.212  0.2414  0.1233 -0.0937
  384MPD2    C4 5741   4.654   0.010  12.266  0.8456 -0.2543  0.9071
  384MPD2    C5 5742   4.610   0.037  12.394  0.4118 -0.1056 -0.9897
  384MPD2     H 5743   4.500   4.432  12.226  0.6092 -0.9060 -0.3566
  384MPD2    H1 5744   4.712   0.092  12.226 -0.5638 -0.3703 -1.3198
  384MPD2    H2 5745   4.472   4.698  12.557 -0.4910 -0.4627  0.4428
  384MPD2    H3 5746   4.648   0.121  12.452 -3.5636  0.3276  1.0140
  384MPD2     N 5747   4.643   4.575  12.073  0.4336  0.1022  0.3655
  384MPD2    H5 5748   4.694   4.643  12.016 -1.0376 -0.4642 -1.6077
  384MPD2    N1 5749   4.394   4.461  12.465  0.2294  0.3477  0.0278
  384MPD2    H7 5750   4.355   4.492  12.554 -0.9288  0.3767 -0.4935
  385TMC3    C1 5751   4.637   4.466  11.863  0.2777 -0.3904  0.4494
  385TMC3    C2 5752   4.592   4.582  11.796 -0.7853  0.1432  0.3549
  385TMC3    C3 5753   4.535   4.556  11.671 -0.0312  0.7565 -0.2773
  385TMC3    C4 5754   4.628   4.338  11.806 -0.3809 -0.1434  0.1568
  385TMC3    C5 5755   4.565   4.325  11.682 -0.8777 -0.6358 -0.0541
  385TMC3    C6 5756   4.519   4.430  11.610  0.1548 -0.2764  0.5689
  385TMC3     C 5757   4.620   4.459  12.004 -1.0201 -0.0359 -0.4485
  385TMC3     O 5758   4.586   4.354  12.054  0.2541 -0.1754 -0.5737
  385TMC3     H 5759   4.575   4.680  11.838 -1.7892 -0.0624  0.4321
  385TMC3    H1 5760   4.676   4.254  11.854  1.1894 -1.6088 -3.9834
  385TMC3    H2 5761   4.454   4.405  11.527  0.0423  1.3957  0.1381
  385TMC3    C7 5762   4.469   4.214  11.683  0.2170  0.0763 -0.3800
  385TMC3    C8 5763   4.445   4.662  11.619  0.0620  0.6263  0.5337
  385TMC3    O1 5764   4.415   4.180  11.575  0.3005 -0.0536  0.1459
  385TMC3    O2 5765   4.430   0.040  11.688  0.1666  0.2060  0.2713
  386TMC3    C1 5766   4.008   2.557  11.745  0.1882 -0.1917  0.1952
  386TMC3    C2 5767   4.068   2.575  11.629 -0.5605  0.4375 -0.2609
  386TMC3    C3 5768   3.993   2.616  11.529  0.3092  1.1140  0.1912
  386TMC3    C4 5769   3.871   2.560  11.761  0.2018  0.0729 -0.6173
  386TMC3    C5 5770   3.800   2.581  11.648  0.0323  0.4622 -0.7135
  386TMC3    C6 5771   3.860   2.598  11.525  0.3381  0.0078  0.0516
  386TMC3     C 5772   4.094   2.512  11.857  0.6046  0.6181 -0.1885
  386TMC3     O 5773   4.051   2.542  11.972  0.4987 -0.0274 -0.2129
  386TMC3     H 5774   4.176   2.572  11.631 -0.5191  2.0251  0.7020
  386TMC3    H1 5775   3.829   2.543  11.859 -1.1356 -1.1735 -1.4017
  386TMC3    H2 5776   3.807   2.631  11.436  4.1005  0.2720 -2.1004
  386TMC3    C7 5777   3.654   2.586  11.660  0.4852  0.0172 -1.2903
  386TMC3    C8 5778   4.049   2.607  11.395 -0.1894  0.2996 -0.6020
  386TMC3    O1 5779   3.609   2.570  11.776 -0.0075 -0.5551 -0.0774
  386TMC3    O2 5780   3.977   2.565  11.308  0.0015 -0.2672  0.3582
  387MPD2     C 5781   1.906   1.908   9.901  0.3395 -0.1317 -0.1994
  387MPD2    C1 5782   1.997   1.854   9.995  0.2735  0.5253  0.8719
  387MPD2    C2 5783   2.032   1.721   9.974  0.0540 -0.6323 -0.0062
  387MPD2    C3 5784   1.989   1.655   9.866  0.1235 -0.4619  0.0604
  387MPD2    C4 5785   1.898   1.712   9.776  0.2028 -0.6092 -0.1872
  387MPD2    C5 5786   1.862   1.845   9.792 -0.0943  0.5329  0.3697
  387MPD2     H 5787   2.097   1.666  10.042 -1.2075  0.7412  2.3120
  387MPD2    H1 5788   1.865   1.670   9.681 -0.2281  0.3432 -0.4596
  387MPD2    H2 5789   1.870   2.010   9.911 -1.9278 -1.0339  0.7733
  387MPD2    H3 5790   1.802   1.899   9.719  0.2051  0.5616  0.1429
  387MPD2     N 5791   2.047   1.528   9.863 -0.2647 -0.2540  0.0397
  387MPD2    H5 5792   2.106   1.505   9.942 -1.6789  3.1932  2.1043
  387MPD2    N1 5793   2.063   1.924  10.102  0.1635 -0.0393 -0.6516
  387MPD2    H7 5794   2.122   1.871  10.165  1.4456  1.8831 -0.2258
  388TMC3    C1 5795   2.206   2.078  10.192  0.5310  0.5240 -0.8350
  388TMC3    C2 5796   2.222   2.194  10.267  0.1770  0.4427 -0.1847
  388TMC3    C3 5797   2.346   2.223  10.321  0.6154 -0.4033 -0.5015
  388TMC3    C4 5798   2.318   2.003  10.155 -0.0603 -0.5467  0.1516
  388TMC3    C5 5799   2.438   2.030  10.221 -0.3118  0.0933  0.1569
  388TMC3    C6 5800   2.451   2.140  10.302  0.1056 -0.7221  0.1057
  388TMC3     C 5801   2.079   2.060  10.115 -0.0950  0.1669  0.1404
  388TMC3     O 5802   2.018   2.155  10.073 -0.8665 -0.0347  0.6203
  388TMC3     H 5803   2.135   2.253  10.291 -0.1299 -1.0856  2.4550
  388TMC3    H1 5804   2.305   1.936  10.070 -0.7262  0.3094 -0.4283
  388TMC3    H2 5805   2.541   2.158  10.359 -0.1948  1.5545 -0.1244
  388TMC3    C7 5806   2.549   1.950  10.186 -0.7594 -0.6310 -0.1111
  388TMC3    C8 5807   2.367   2.358  10.376  0.4939 -0.1115  0.7692
  388TMC3    O1 5808   2.664   1.995  10.188 -0.3423 -0.0199  0.3403
  388TMC3    O2 5809   2.481   2.378  10.412  0.1776 -0.7781 -0.1562
  389MPD2     C 5810   1.472   0.905  11.030 -0.1418  0.4704 -0.3210
  389MPD2    C1 5811   1.427   0.789  10.974 -0.2193 -0.1892 -0.4171
  389MPD2    C2 5812   1.323   0.716  11.032 -0.2626  0.3704 -0.6954
  389MPD2    C3 5813   1.277   0.753  11.154  0.2903  0.0395  0.4211
  389MPD2    C4 5814   1.322   0.867  11.213  0.5166  0.1072 -0.1107
  389MPD2    C5 5815   1.421   0.941  11.153 -0.4347 -0.0491 -0.2792
  389MPD2     H 5816   1.281   0.630  10.981  0.9396 -0.4004 -0.3740
  389MPD2    H1 5817   1.295   0.892  11.315 -2.2056 -1.0422 -0.5642
  389MPD2    H2 5818   1.550   0.962  10.979  1.5116 -0.9958  0.5574
  389MPD2    H3 5819   1.461   1.031  11.197 -3.1463  1.8459 -1.6968
  389MPD2     N 5820   1.168   0.682  11.205 -0.6921  0.5188  0.5678
  389MPD2    H5 5821   1.117   0.725  11.282 -3.1141 -1.2291 -0.0469
  389MPD2    N1 5822   1.487   0.749  10.843  0.1942 -0.4500 -0.6933
  389MPD2    H7 5823   1.551   0.814  10.799  0.8866 -1.2952 -0.9423
  390TMC3    C1 5824   0.991   0.532  11.233  0.1901 -0.3376 -0.0410
  390TMC3    C2 5825   0.968   0.401  11.263  0.3355 -0.8607  0.0778
  390TMC3    C3 5826   0.877   0.376  11.363 -0.0956 -0.1274 -0.5307
  390TMC3    C4 5827   0.907   0.635  11.284 -0.7123  0.1305 -0.2384
  390TMC3    C5 5828   0.808   0.603  11.369  0.9536 -0.1713 -0.6026
  390TMC3    C6 5829   0.804   0.476  11.417  0.0838 -0.4892 -0.0203
  390TMC3     C 5830   1.105   0.570  11.157 -0.2142 -0.0058  0.0831
  390TMC3     O 5831   1.139   0.486  11.073  0.0192  0.2656  0.0555
  390TMC3     H 5832   1.032   0.320  11.232 -0.4222 -0.0310 -3.6304
  390TMC3    H1 5833   0.923   0.741  11.264 -0.3519 -0.2282 -1.8244
  390TMC3    H2 5834   0.734   0.461  11.498 -1.1382 -2.2261 -1.3823
  390TMC3    C7 5835   0.678   0.628  11.306  0.1561  0.6447  0.5045
  390TMC3    C8 5836   0.803   0.255  11.363 -0.3309  0.1683 -0.1275
  390TMC3    O1 5837   0.678   0.701  11.210  1.0524  0.4700 -0.0438
  390TMC3    O2 5838   0.792   0.200  11.253  0.3023 -0.3734 -0.0777
  391MPD2     C 5839   0.844   2.037  11.086 -0.5822 -0.1654 -0.1745
  391MPD2    C1 5840   0.906   2.156  11.061 -0.1828 -0.6388  0.6269
  391MPD2    C2 5841   0.901   2.202  10.925  0.3889  0.7254  0.0937
  391MPD2    C3 5842   0.829   2.136  10.828  0.3529 -0.1510  0.3149
  391MPD2    C4 5843   0.770   2.013  10.850  0.2865 -0.1922  1.0602
  391MPD2    C5 5844   0.786   1.966  10.985 -0.5468 -0.5262 -0.3426
  391MPD2     H 5845   0.959   2.286  10.889  0.4245  0.7797  0.2729
  391MPD2    H1 5846   0.724   1.943  10.782  1.6533 -1.5710  1.5671
  391MPD2    H2 5847   0.856   1.992  11.183 -1.8885 -3.3808 -1.4964
  391MPD2    H3 5848   0.740   1.871  11.008  0.0267 -0.2317  1.9330
  391MPD2     N 5849   0.832   2.200  10.705 -0.3874  0.2147  0.5689
  391MPD2    H5 5850   0.881   2.288  10.695 -0.3697  0.0015 -1.2500
  391MPD2    N1 5851   0.985   2.223  11.159 -0.1876 -0.9517 -0.6284
  391MPD2    H7 5852   0.981   2.186  11.254 -0.2008  2.0277  0.5117
  392TMC3    C1 5853   0.763   2.240  10.484  0.2309 -0.5889 -0.6648
  392TMC3    C2 5854   0.664   2.234  10.387 -0.3596  0.2973 -0.9351
  392TMC3    C3 5855   0.681   2.304  10.272 -0.0143  0.9985  0.6020
  392TMC3    C4 5856   0.879   2.308  10.460  0.3717 -0.1957  0.6937
  392TMC3    C5 5857   0.885   2.388  10.343 -0.6141  0.1388 -0.4958
  392TMC3    C6 5858   0.787   2.389  10.251 -0.6033 -0.0097  0.0107
  392TMC3     C 5859   0.750   2.153  10.597 -0.0853 -0.4794  0.1340
  392TMC3     O 5860   0.658   2.076  10.595  0.0227 -0.0622 -0.1194
  392TMC3     H 5861   0.574   2.178  10.410  0.2662 -1.2827 -2.3469
  392TMC3    H1 5862   0.971   2.299  10.516  1.8511  0.8689 -1.5378
  392TMC3    H2 5863   0.789   2.456  10.166  0.0885 -0.3960 -0.2759
  392TMC3    C7 5864   1.005   2.476  10.331 -0.6180 -0.0988  0.3192
  392TMC3    C8 5865   0.588   2.270  10.163 -0.2005  0.4869  0.6909
  392TMC3    O1 5866   1.064   2.505  10.437 -0.2073 -0.2204  0.0914
  392TMC3    O2 5867   0.536   2.159  10.174  0.2820 -0.1667 -0.2448
  393TMC3    C1 5868   4.203   4.709  10.022 -1.0683  0.5101  0.5366
  393TMC3    C2 5869   4.089   4.638  10.026 -0.5913  0.2115 -0.4737
  393TMC3    C3 5870   4.088   4.538  10.118 -0.0271  0.4959 -0.0597
  393TMC3    C4 5871   4.322   4.669  10.080  0.1735  0.2479 -0.1008
  393TMC3    C5 5872   4.311   4.562  10.160 -0.1528 -0.3424  0.0151
  393TMC3    C6 5873   4.196   4.495  10.189 -0.4436 -0.3622 -0.3807
  393TMC3     C 5874   4.192   0.113   9.949 -0.1420  0.0566 -0.4374
  393TMC3     O 5875   4.118   0.113   9.849  0.1192  0.3231  0.2040
  393TMC3     H 5876   3.997   4.675   9.983 -0.1055 -0.1357 -1.8243
  393TMC3    H1 5877   4.405   0.016  10.066  0.3614  0.0385 -0.0099
  393TMC3    H2 5878   4.193   4.408  10.253  1.5163  1.1360  1.7649
  393TMC3    C7 5879   4.417   4.471  10.143  0.0699  0.0973  0.3525
  393TMC3    C8 5880   3.950   4.491  10.144 -0.0694  0.2096  0.0206
  393TMC3    O1 5881   4.397   4.350  10.138 -0.2382  0.1671 -0.5378
  393TMC3    O2 5882   3.876   4.485  10.047  0.1646  0.2588 -0.2727
  394TMC3    C1 5883   1.523   0.626  10.642 -0.6643 -0.5245  0.3858
  394TMC3    C2 5884   1.446   0.570  10.546  0.2369 -0.5188  0.4838
  394TMC3    C3 5885   1.499   0.574  10.418  0.0495 -0.6990  0.6802
  394TMC3    C4 5886   1.644   0.685  10.621 -0.5167  0.1652 -0.0986
  394TMC3    C5 5887   1.693   0.684  10.490 -0.2447  0.5796 -0.0150
  394TMC3    C6 5888   1.617   0.631  10.386 -0.3405  0.7227  0.6340
  394TMC3     C 5889   1.450   0.639  10.764 -0.4867 -0.5995 -0.5870
  394TMC3     O 5890   1.349   0.573  10.779 -0.2614  0.6829  0.1514
  394TMC3     H 5891   1.360   0.505  10.563 -0.4494 -0.0760 -1.3600
  394TMC3    H1 5892   1.720   0.705  10.695 -1.9420  3.0010  0.5917
  394TMC3    H2 5893   1.648   0.638  10.282 -1.3444  1.0461  0.3581
  394TMC3    C7 5894   1.835   0.711  10.470 -0.1497  0.1741  0.4570
  394TMC3    C8 5895   1.442   0.473  10.328  0.2792  0.2070 -0.6558
  394TMC3    O1 5896   1.892   0.778  10.555  0.1412  0.0301 -0.4123
  394TMC3    O2 5897   1.373   0.389  10.385  0.3214 -0.5236  0.3624
  395TMC3    C1 5898   0.548   3.083  15.026 -0.7519  0.5472 -0.0450
  395TMC3    C2 5899   0.434   3.166  15.013  0.3796 -0.5964 -0.2784
  395TMC3    C3 5900   0.430   3.266  14.920 -0.5458  0.7034  0.4650
  395TMC3    C4 5901   0.656   3.090  14.935  0.2296 -0.9640  0.3499
  395TMC3    C5 5902   0.647   3.185  14.838 -0.1563 -1.3585  0.8641
  395TMC3    C6 5903   0.536   3.267  14.826 -0.0796  0.0236 -0.0721
  395TMC3     C 5904   0.573   3.033  15.164 -0.1971 -0.1779  0.6150
  395TMC3     O 5905   0.502   3.074  15.254  0.0184  0.1236 -0.7297
  395TMC3     H 5906   0.365   3.163  15.096  0.8829 -0.8560  0.1264
  395TMC3    H1 5907   0.749   3.037  14.950 -0.1617 -0.5827  4.1487
  395TMC3    H2 5908   0.540   3.358  14.768  2.0983  0.4463  0.7301
  395TMC3    C7 5909   0.764   3.248  14.793 -0.6485  0.5640 -0.4747
  395TMC3    C8 5910   0.294   3.300  14.876  0.0268  0.0079 -0.2460
  395TMC3    O1 5911   0.761   3.370  14.781  0.0489 -0.2293  0.2715
  395TMC3    O2 5912   0.277   3.405  14.813 -0.0201  0.1577  0.0203
  396MPD2     C 5913   0.271   4.339  17.111 -0.2297 -0.4711 -0.0750
  396MPD2    C1 5914   0.378   4.414  17.163 -0.4586  0.0350 -0.1397
  396MPD2    C2 5915   0.372   4.547  17.135  0.9685 -0.7591  0.8802
  396MPD2    C3 5916   0.273   4.599  17.059  0.2666 -0.2652 -0.4339
  396MPD2    C4 5917   0.169   4.518  17.019 -0.6541  0.1878  0.5557
  396MPD2    C5 5918   0.161   4.386  17.055  0.3883 -0.3531  0.5005
  396MPD2     H 5919   0.450   4.615  17.168  0.5874 -0.2143  0.6700
  396MPD2    H1 5920   0.085   4.551  16.959  0.6678  0.3091 -1.2300
  396MPD2    H2 5921   0.262   4.234  17.137  0.1089 -1.2718 -3.1310
  396MPD2    H3 5922   0.076   4.323  17.032  1.3628 -0.8779 -1.6687
  396MPD2     N 5923   0.277   0.013  17.034 -0.5251 -0.0289  0.4548
  396MPD2    H5 5924   0.361   0.058  17.071  1.2472 -1.9099 -1.2676
  396MPD2    N1 5925   0.494   4.343  17.202 -0.1640  0.4363  0.5675
  396MPD2    H7 5926   0.507   4.250  17.165 -1.3107  0.6231 -0.2904
  397TMC3    C1 5927   0.717   4.325  17.285 -0.5894  0.0584  0.2982
  397TMC3    C2 5928   0.743   4.244  17.177 -0.0935  0.5729  0.3680
  397TMC3    C3 5929   0.834   4.147  17.187  0.1927 -0.1116 -0.3289
  397TMC3    C4 5930   0.754   4.288  17.407 -0.4571 -0.0388  0.1408
  397TMC3    C5 5931   0.837   4.182  17.415 -0.0317  0.3003 -0.4457
  397TMC3    C6 5932   0.891   4.122  17.307  0.0854  0.2450 -0.1083
  397TMC3     C 5933   0.595   4.401  17.273  0.1379  0.0932  0.9336
  397TMC3     O 5934   0.581   4.501  17.345  0.3171 -0.4351  0.3799
  397TMC3     H 5935   0.728   4.297  17.084  1.0629 -0.4985 -0.4413
  397TMC3    H1 5936   0.737   4.343  17.498  1.5959  0.0569  0.4545
  397TMC3    H2 5937   0.971   4.050  17.318 -0.3586 -0.2349 -0.0553
  397TMC3    C7 5938   0.808   4.089  17.523  0.8117  0.0107 -0.0953
  397TMC3    C8 5939   0.813   4.037  17.096  0.0420  1.2075 -0.0777
  397TMC3    O1 5940   0.790   3.972  17.504 -0.6408  0.1698  0.0505
  397TMC3    O2 5941   0.750   4.075  16.999 -0.4349 -0.1815  0.5119
  398MPD2     C 5942   3.213   0.464   0.244 -0.4495  0.4395  0.3005
  398MPD2    C1 5943   3.250   0.361   0.324  0.2810  0.7430  0.2467
  398MPD2    C2 5944   3.279   0.383   0.457 -0.0414  0.2576  0.6469
  398MPD2    C3 5945   3.273   0.509   0.510  0.5580  0.3102  0.0937
  398MPD2    C4 5946   3.243   0.618   0.431 -0.3233 -0.4604 -0.6212
  398MPD2    C5 5947   3.222   0.593   0.294 -0.3341  0.2269  0.4637
  398MPD2     H 5948   3.322   0.303   0.516 -0.9913 -1.8136 -1.5068
  398MPD2    H1 5949   3.236   0.719   0.470  1.6438 -0.9962  1.0926
  398MPD2    H2 5950   3.200   0.455   0.137 -1.3254 -0.4404  0.4918
  398MPD2    H3 5951   3.198   0.684   0.240 -0.9232 -0.7877 -0.9921
  398MPD2     N 5952   3.287   0.540   0.646 -0.1650  0.4024 -0.4334
  398MPD2    H5 5953   3.288   0.637   0.678 -1.2312  0.7125 -1.3249
  398MPD2    N1 5954   3.269   0.233   0.280  0.8119 -0.3538 -0.5837
  398MPD2    H7 5955   3.316   0.169   0.343  2.8396  2.4384  0.7140
  399TMC3    C1 5956   3.226   0.034   0.155  0.2696  0.7036 -0.1453
  399TMC3    C2 5957   3.339   4.691   0.211  0.3570  0.1116 -0.1746
  399TMC3    C3 5958   3.345   4.559   0.190 -0.2912 -0.3737 -0.4793
  399TMC3    C4 5959   3.127   4.699   0.086  0.5914  0.0204  0.6326
  399TMC3    C5 5960   3.152   4.569   0.067 -0.0322  0.2113 -0.9538
  399TMC3    C6 5961   3.254   4.496   0.118  0.0366 -0.2495  0.1782
  399TMC3     C 5962   3.235   0.178   0.159  0.1523  0.2912 -0.5082
  399TMC3     O 5963   3.174   0.241   0.073 -0.9013 -0.1127 -1.0614
  399TMC3     H 5964   3.409   0.034   0.263  0.8072 -0.4653 -0.0616
  399TMC3    H1 5965   3.040   0.027   0.044 -1.4209 -1.5628  2.9835
  399TMC3    H2 5966   3.277   4.398   0.077  1.1668 -0.6758  1.8444
  399TMC3    C7 5967   3.038   4.487   0.021 -0.3847 -0.0812 -0.5151
  399TMC3    C8 5968   3.434   4.481   0.269 -0.0322 -0.5203  0.0153
  399TMC3    O1 5969   3.040   4.365   0.048  0.5756  0.0318  0.1187
  399TMC3    O2 5970   3.508   4.545   0.344 -0.4979 -0.0914  0.0269
  400TMC3    C1 5971   2.064   3.736  16.787 -1.1166  0.1015  0.2958
  400TMC3    C2 5972   1.939   3.691  16.749 -0.2103  0.4083  0.4875
  400TMC3    C3 5973   1.850   3.780  16.712  0.0952  0.5024  0.4440
  400TMC3    C4 5974   2.098   3.871  16.777  0.2520 -0.1404 -0.4632
  400TMC3    C5 5975   2.003   3.957  16.736 -0.1356 -0.6335 -0.1107
  400TMC3    C6 5976   1.876   3.923  16.705 -0.0058 -0.2291  0.7342
  400TMC3     C 5977   2.131   3.646  16.872  0.2857  0.0875 -0.1261
  400TMC3     O 5978   2.092   3.532  16.861  0.0053  0.4082  0.2445
  400TMC3     H 5979   1.913   3.586  16.749  1.4188  0.0117 -0.9980
  400TMC3    H1 5980   2.200   3.905  16.793 -0.0727  0.5566  0.1888
  400TMC3    H2 5981   1.796   3.988  16.671  1.1241  0.9712  0.3709
  400TMC3    C7 5982   2.024   4.100  16.772  0.5315 -0.4452 -0.1198
  400TMC3    C8 5983   1.700   3.737  16.688  0.7548 -0.3132  0.0737
  400TMC3    O1 5984   2.136   4.139  16.771 -0.3649 -0.5352 -0.1772
  400TMC3    O2 5985   1.619   3.829  16.690 -0.0801  0.2208  0.1671
  401MPD2     C 5986   0.207   2.438   1.067  0.1842  0.2316  0.3000
  401MPD2    C1 5987   0.310   2.417   0.974 -0.5178  0.1580 -0.4309
  401MPD2    C2 5988   0.303   2.303   0.895 -0.3368  0.0993 -0.0393
  401MPD2    C3 5989   0.186   2.226   0.903  0.8825 -0.5728  0.3488
  401MPD2    C4 5990   0.092   2.246   1.002  0.3649 -0.1251  0.6349
  401MPD2    C5 5991   0.107   2.350   1.082  1.0757 -0.3012  0.3556
  401MPD2     H 5992   0.383   2.281   0.825 -0.2495  0.2256  0.0219
  401MPD2    H1 5993   4.720   2.190   1.006  0.7072 -0.6878  0.6619
  401MPD2    H2 5994   0.216   2.526   1.130 -1.8109 -0.4183  1.4970
  401MPD2    H3 5995   0.017   2.368   1.140 -0.3558 -0.7034 -1.7018
  401MPD2     N 5996   0.174   2.125   0.809 -0.3974  0.2677 -0.2928
  401MPD2    H5 5997   0.227   2.114   0.724  1.2692 -0.9513  0.9072
  401MPD2    N1 5998   0.427   2.497   0.975  0.5725  0.0156  0.0703
  401MPD2    H7 5999   0.503   2.454   0.923 -1.1674 -1.8704 -0.9003
  402TMC3    C1 6000   0.091   1.941   0.710  0.0676 -0.5877  0.2597
  402TMC3    C2 6001   0.081   1.804   0.729 -0.4282  1.0134  0.1104
  402TMC3    C3 6002   0.092   1.726   0.619 -0.1393 -0.2994 -0.5320
  402TMC3    C4 6003   0.144   1.998   0.595 -0.1170 -0.0495  0.9518
  402TMC3    C5 6004   0.164   1.914   0.494  0.0107 -0.2530 -0.0079
  402TMC3    C6 6005   0.135   1.780   0.497 -0.2424 -0.2612  0.5214
  402TMC3     C 6006   0.092   2.017   0.827 -0.2432 -0.5094 -0.4354
  402TMC3     O 6007   0.021   1.977   0.919 -0.0625  0.3411 -0.2167
  402TMC3     H 6008   0.055   1.759   0.825 -1.2527 -0.4780 -0.8058
  402TMC3    H1 6009   0.143   2.106   0.586 -1.4128 -0.0944  0.5603
  402TMC3    H2 6010   0.129   1.726   0.403 -0.6708 -0.0084  0.4007
  402TMC3    C7 6011   0.181   1.966   0.360  0.2221 -0.2068 -0.3535
  402TMC3    C8 6012   0.169   1.607   0.637 -0.0518  0.7001 -0.4972
  402TMC3    O1 6013   0.118   1.905   0.272  0.1120 -0.1946 -0.5614
  402TMC3    O2 6014   0.253   1.601   0.725 -0.2446  0.2482  0.3242
  403MPD2     C 6015   3.228   0.084  13.026 -0.0054  0.5694  0.1634
  403MPD2    C1 6016   3.287   0.054  13.145 -0.2568  0.3544  0.8754
  403MPD2    C2 6017   3.400   0.119  13.185 -0.4131 -0.1088 -0.0637
  403MPD2    C3 6018   3.465   0.201  13.095 -0.6830 -0.3472  0.2740
  403MPD2    C4 6019   3.409   0.224  12.968 -0.0528  0.6161  0.6671
  403MPD2    C5 6020   3.297   0.159  12.931 -0.2269 -0.0477 -1.1545
  403MPD2     H 6021   3.448   0.099  13.280  0.9630  1.1790 -0.4902
  403MPD2    H1 6022   3.460   0.273  12.886  0.6767  1.2571  1.4890
  403MPD2    H2 6023   3.123   0.064  13.009 -0.4628  2.3295  0.9775
  403MPD2    H3 6024   3.252   0.180  12.835  0.3129 -1.7319 -1.7729
  403MPD2     N 6025   3.595   0.252  13.119 -0.4760  0.4798  0.2776
  403MPD2    H5 6026   3.636   0.287  13.032  0.6440  0.7390  0.9148
  403MPD2    N1 6027   3.226   4.680  13.227  0.9829 -0.3926  0.2020
  403MPD2    H7 6028   3.153   4.619  13.192 -0.2231  1.9664 -1.3651
  404TMC3    C1 6029   3.227   4.513  13.390  0.4828 -0.6009 -0.2358
  404TMC3    C2 6030   3.261   4.492  13.521 -0.2358 -0.3359  0.2928
  404TMC3    C3 6031   3.294   4.368  13.554  0.8486  0.5904  0.0294
  404TMC3    C4 6032   3.233   4.420  13.289 -0.3910  0.0083  0.2102
  404TMC3    C5 6033   3.286   4.295  13.331  0.1942 -0.4455  0.1156
  404TMC3    C6 6034   3.318   4.268  13.461 -0.6521  0.3217 -0.4173
  404TMC3     C 6035   3.269   4.648  13.353  0.4680  0.3491 -0.4869
  404TMC3     O 6036   3.338   4.707  13.436 -0.2395 -0.6799  0.1134
  404TMC3     H 6037   3.247   4.571  13.594 -0.1256  1.1444 -1.2826
  404TMC3    H1 6038   3.221   4.441  13.184 -1.5394 -1.5611  0.0332
  404TMC3    H2 6039   3.350   4.166  13.481 -0.8178 -0.0504 -2.0016
  404TMC3    C7 6040   3.276   4.190  13.237 -0.2071  0.0077  0.5818
  404TMC3    C8 6041   3.365   4.347  13.681 -0.6607  0.1269  0.3727
  404TMC3    O1 6042   3.299   4.081  13.284  0.2374  0.7118  0.2509
  404TMC3    O2 6043   3.451   4.257  13.682  0.1043  0.0538  0.4321
  405MPD2     C 6044   3.526   0.130  14.824 -0.3445 -0.1500 -0.1804
  405MPD2    C1 6045   3.467   0.181  14.711 -0.4660 -0.1252  0.5088
  405MPD2    C2 6046   3.474   0.317  14.688  0.4778 -0.2801 -0.3235
  405MPD2    C3 6047   3.537   0.400  14.773 -1.0681 -0.1389 -0.0011
  405MPD2    C4 6048   3.591   0.343  14.892  0.1991  0.7303 -0.3722
  405MPD2    C5 6049   3.574   0.217  14.923  0.3495  0.2901 -0.3383
  405MPD2     H 6050   3.424   0.360  14.601  1.8699 -0.1960 -1.0736
  405MPD2    H1 6051   3.647   0.397  14.967  0.3132  1.9543 -1.3183
  405MPD2    H2 6052   3.532   0.023  14.839 -0.4480  0.0237  1.0971
  405MPD2    H3 6053   3.612   0.183  15.018 -0.3220  0.8609  0.1394
  405MPD2     N 6054   3.547   0.537  14.746  0.0001  0.0824 -0.1413
  405MPD2    H5 6055   3.491   0.567  14.667 -1.0215 -0.8578  0.2227
  405MPD2    N1 6056   3.407   0.087  14.625 -0.0909  0.1225  0.3024
  405MPD2    H7 6057   3.418   4.709  14.641  1.7157  0.3603  0.5791
  406TMC3    C1 6058   3.566   0.943  14.631 -0.8256  0.1260  0.7880
  406TMC3    C2 6059   3.640   0.911  14.521 -0.3052  0.8386 -0.7530
  406TMC3    C3 6060   3.707   0.793  14.520 -0.0509  0.1626  0.6060
  406TMC3    C4 6061   3.571   0.861  14.740 -0.0322  0.5359  0.6371
  406TMC3    C5 6062   3.648   0.744  14.725 -0.6125  0.2100  0.6787
  406TMC3    C6 6063   3.717   0.702  14.619  0.9500 -0.1230  0.2214
  406TMC3     C 6064   3.440   1.017  14.616 -0.1106 -0.0300  0.7386
  406TMC3     O 6065   3.448   1.135  14.586  0.4905 -0.3598 -0.2459
  406TMC3     H 6066   3.625   0.969  14.431  0.5225  1.8235 -0.2531
  406TMC3    H1 6067   3.505   0.874  14.826 -0.5781 -0.2560  0.3363
  406TMC3    H2 6068   3.783   0.617  14.626 -0.3494 -1.0995  0.6193
  406TMC3    C7 6069   3.622   0.630  14.816 -0.2900  1.3383 -0.5636
  406TMC3    C8 6070   3.743   0.726  14.404  0.4298 -0.3327  0.3470
  406TMC3    O1 6071   3.689   0.619  14.916 -0.8886  0.6499  0.4327
  406TMC3    O2 6072   3.812   0.778  14.323 -0.0411 -0.2856  0.2511
  407MPD2     C 6073   1.433   1.495   9.516 -0.0856  1.1850 -0.0826
  407MPD2    C1 6074   1.529   1.596   9.514 -0.6215 -0.0234  0.4363
  407MPD2    C2 6075   1.522   1.712   9.597 -0.9577  0.5091 -0.0947
  407MPD2    C3 6076   1.419   1.720   9.685  0.2480 -0.2797  0.0954
  407MPD2    C4 6077   1.324   1.623   9.694  0.4632 -0.2753 -0.2773
  407MPD2    C5 6078   1.328   1.515   9.608 -0.5821 -0.4501  0.0703
  407MPD2     H 6079   1.600   1.788   9.600  0.0964 -0.5217 -1.2680
  407MPD2    H1 6080   1.245   1.630   9.769 -0.0893  0.6563 -0.9431
  407MPD2    H2 6081   1.423   1.406   9.455  0.2421  0.5066  0.8586
  407MPD2    H3 6082   1.250   1.440   9.599 -0.8648 -0.0147 -1.0744
  407MPD2     N 6083   1.405   1.823   9.781 -0.1527 -0.1775 -0.6652
  407MPD2    H5 6084   1.337   1.802   9.853  0.7360  0.9871  0.5167
  407MPD2    N1 6085   1.641   1.595   9.425 -0.2750 -0.4659 -0.5155
  407MPD2    H7 6086   1.687   1.685   9.416  0.6564 -0.9354 -0.5569
  408TMC3    C1 6087   1.819   1.504   9.312 -0.1003  0.1738 -0.0538
  408TMC3    C2 6088   1.921   1.461   9.394 -0.1107 -0.0302 -0.1330
  408TMC3    C3 6089   2.042   1.521   9.380  0.4311  0.3509  0.2920
  408TMC3    C4 6090   1.838   1.603   9.219 -0.1751  0.2136  0.0022
  408TMC3    C5 6091   1.957   1.661   9.213 -0.2361 -0.2525 -0.0460
  408TMC3    C6 6092   2.056   1.629   9.302 -0.6523  0.3102  1.0758
  408TMC3     C 6093   1.682   1.484   9.365  0.4608  0.1130 -0.4174
  408TMC3     O 6094   1.646   1.372   9.382  1.0755 -0.0144 -0.2821
  408TMC3     H 6095   1.901   1.364   9.439  0.1946  0.1160  0.3155
  408TMC3    H1 6096   1.754   1.646   9.164  0.9291 -1.6551 -3.1430
  408TMC3    H2 6097   2.155   1.673   9.299 -0.7718  0.5199  0.3516
  408TMC3    C7 6098   2.009   1.710   9.082  0.5273  0.3791  0.1395
  408TMC3    C8 6099   2.151   1.453   9.441  0.5585  0.2420 -0.0274
  408TMC3    O1 6100   2.125   1.744   9.082 -0.1736  0.2016  0.6889
  408TMC3    O2 6101   2.146   1.332   9.445  0.3334  0.5978 -0.5083
  409MPD2     C 6102   0.912   3.243  16.899  0.2127 -0.0812  0.7538
  409MPD2    C1 6103   0.993   3.260  17.007  0.3098  0.0302 -0.3422
  409MPD2    C2 6104   1.073   3.376  17.000  0.4320  0.4883 -0.4190
  409MPD2    C3 6105   1.056   3.477  16.913  0.4165  0.3429 -0.7187
  409MPD2    C4 6106   0.968   3.456  16.814  0.2121  0.4432  0.0307
  409MPD2    C5 6107   0.894   3.339  16.806  0.6285  0.0298  0.2150
  409MPD2     H 6108   1.159   3.383  17.067 -1.2166  0.8839  1.6610
  409MPD2    H1 6109   0.955   3.528  16.734 -1.0916  0.0322 -0.1272
  409MPD2    H2 6110   0.844   3.158  16.894  1.6258 -1.0549 -1.9898
  409MPD2    H3 6111   0.826   3.328  16.722  0.9793 -0.3357 -0.0237
  409MPD2     N 6112   1.113   3.604  16.918  0.2231  0.1825 -0.5742
  409MPD2    H5 6113   1.090   3.676  16.851  1.1075  1.7041  0.7637
  409MPD2    N1 6114   1.008   3.172  17.113 -0.4843 -0.7791 -0.3615
  409MPD2    H7 6115   1.065   3.212  17.187 -0.7805 -0.5895 -0.2362
  410TMC3    C1 6116   1.272   3.763  16.985  0.0345 -0.1357 -0.2044
  410TMC3    C2 6117   1.400   3.774  17.023 -0.3519  0.2376 -0.4678
  410TMC3    C3 6118   1.477   3.872  16.957  0.0982 -0.4604  0.2186
  410TMC3    C4 6119   1.213   3.857  16.900 -0.7489 -0.0161  0.3679
  410TMC3    C5 6120   1.294   3.958  16.837  0.0893 -0.4416  0.6770
  410TMC3    C6 6121   1.425   3.971  16.879 -0.1051  0.1133  0.1265
  410TMC3     C 6122   1.201   3.641  17.010  0.3099  0.3573  0.1428
  410TMC3     O 6123   1.236   3.585  17.115  0.1055 -0.1158 -0.3770
  410TMC3     H 6124   1.439   3.710  17.102 -2.3504 -2.1983 -1.4570
  410TMC3    H1 6125   1.105   3.850  16.889 -0.9450  3.5046 -0.0473
  410TMC3    H2 6126   1.500   4.041  16.845  0.3984 -0.2240  0.5388
  410TMC3    C7 6127   1.227   4.050  16.756  0.1633 -0.4972  0.0291
  410TMC3    C8 6128   1.609   3.907  17.010 -0.0435 -0.5583  0.4329
  410TMC3    O1 6129   1.106   4.043  16.764 -0.1972 -0.0359 -0.2474
  410TMC3    O2 6130   1.638   4.027  17.033  0.2165  0.6510  0.2565
  411MPD2     C 6131   1.555   3.978  14.311  0.7745  0.8018 -0.6651
  411MPD2    C1 6132   1.484   3.987  14.432  0.4660 -0.3477 -0.1659
  411MPD2    C2 6133   1.385   3.891  14.465  1.0508 -0.1032  0.0422
  411MPD2    C3 6134   1.368   3.782  14.375  0.5191  0.5973  0.3495
  411MPD2    C4 6135   1.432   3.788  14.251  0.3973 -0.5570  0.7025
  411MPD2    C5 6136   1.530   3.879  14.221  0.0178  0.6802 -0.0360
  411MPD2     H 6137   1.318   3.904  14.549  1.4154 -1.7226  0.5860
  411MPD2    H1 6138   1.417   3.702  14.187 -2.9496  0.4483  0.1299
  411MPD2    H2 6139   1.619   4.062  14.285 -1.3668  2.2197 -1.3475
  411MPD2    H3 6140   1.579   3.871  14.125  1.1319  1.8827  0.4290
  411MPD2     N 6141   1.261   3.696  14.382 -0.3855  0.7035  0.2482
  411MPD2    H5 6142   1.252   3.632  14.303  1.9058 -0.0299  0.5685
  411MPD2    N1 6143   1.501   4.104  14.512 -0.0493  0.0316 -0.5128
  411MPD2    H7 6144   1.559   4.177  14.472 -0.4238  1.4563  1.5400
  412TMC3    C1 6145   1.088   3.565  14.469 -0.2800  0.3404 -0.0533
  412TMC3    C2 6146   0.968   3.576  14.524  0.3120  0.3134 -0.2846
  412TMC3    C3 6147   0.873   3.474  14.512  0.1320 -0.2219 -0.9085
  412TMC3    C4 6148   1.126   3.451  14.409 -0.1816 -0.4746  0.3361
  412TMC3    C5 6149   1.041   3.343  14.415  0.1449  0.2185 -0.5674
  412TMC3    C6 6150   0.917   3.356  14.455 -0.1132  0.2167  0.3986
  412TMC3     C 6151   1.182   3.673  14.493 -0.4458  0.0633  0.1251
  412TMC3     O 6152   1.157   3.747  14.588  0.1758 -0.0561 -0.1448
  412TMC3     H 6153   0.942   3.677  14.553 -0.4842  0.5368 -1.7984
  412TMC3    H1 6154   1.226   3.420  14.377 -0.6135 -0.3124 -1.1852
  412TMC3    H2 6155   0.842   3.282  14.430 -0.5305  0.5776  0.5903
  412TMC3    C7 6156   1.045   3.244  14.312 -0.6040  0.1079  0.5180
  412TMC3    C8 6157   0.745   3.535  14.465  0.0291 -0.5557  0.6452
  412TMC3    O1 6158   1.032   3.123  14.335 -0.3783  0.4030 -0.2246
  412TMC3    O2 6159   0.743   3.645  14.408 -0.1281 -0.0924 -0.5875
  413MPD2     C 6160   3.275   1.946  15.470 -0.2098  0.1405 -0.3506
  413MPD2    C1 6161   3.201   1.907  15.366  0.5828  0.1918  0.3858
  413MPD2    C2 6162   3.239   1.794  15.295 -0.5054 -0.3371  0.2120
  413MPD2    C3 6163   3.364   1.740  15.320 -0.1462  0.1150 -0.1764
  413MPD2    C4 6164   3.442   1.777  15.423  0.5381  0.4001 -0.2493
  413MPD2    C5 6165   3.396   1.882  15.499  0.0365 -0.2434  0.8543
  413MPD2     H 6166   3.182   1.749  15.215 -0.4750  1.1012 -0.6159
  413MPD2    H1 6167   3.543   1.739  15.437  1.5402  3.0290 -0.4402
  413MPD2    H2 6168   3.252   2.030  15.535  1.5900 -0.1102  0.6221
  413MPD2    H3 6169   3.446   1.927  15.584  3.1554 -0.4501 -0.8452
  413MPD2     N 6170   3.394   1.627  15.241 -0.1759  0.4263  0.0612
  413MPD2    H5 6171   3.317   1.597  15.182 -0.5637  0.8581  0.3477
  413MPD2    N1 6172   3.068   1.962  15.343  0.0496  0.8552 -0.5729
  413MPD2    H7 6173   3.030   2.011  15.423 -0.7826 -0.0328 -0.4228
  414TMC3    C1 6174   3.492   1.453  15.116 -0.0159 -0.1459  0.1791
  414TMC3    C2 6175   3.565   1.335  15.113  0.4464 -0.0457  0.1329
  414TMC3    C3 6176   3.548   1.240  15.013 -0.2110 -0.1781 -0.2839
  414TMC3    C4 6177   3.416   1.496  15.014 -0.1084  0.2015 -0.1493
  414TMC3    C5 6178   3.411   1.406  14.911  0.3180 -0.0322  0.4374
  414TMC3    C6 6179   3.466   1.280  14.909 -0.2406  1.3308 -0.1822
  414TMC3     C 6180   3.507   1.546  15.232 -0.2814  0.5715 -0.0026
  414TMC3     O 6181   3.603   1.536  15.309  0.6482 -1.1871 -0.6426
  414TMC3     H 6182   3.611   1.309  15.207  0.9154  1.4044  0.3107
  414TMC3    H1 6183   3.345   1.577  15.023  0.7409  1.0262 -0.8808
  414TMC3    H2 6184   3.438   1.212  14.829 -2.9140  0.6979  1.2756
  414TMC3    C7 6185   3.371   1.456  14.776 -0.0259  0.8748  0.6154
  414TMC3    C8 6186   3.536   1.099  15.051  0.3175 -0.0976  0.4097
  414TMC3    O1 6187   3.252   1.482  14.767  0.2383 -0.0531  0.4357
  414TMC3    O2 6188   3.456   1.033  14.985  0.2012 -0.3461  0.2144
  415TMC3    C1 6189   4.077   3.866   9.421 -0.1004  0.3255  0.4299
  415TMC3    C2 6190   4.196   3.932   9.403  0.4453 -0.1751  0.3356
  415TMC3    C3 6191   4.286   3.873   9.317  0.2435  0.3969  0.1033
  415TMC3    C4 6192   4.039   3.766   9.344 -0.4818 -0.1378  0.0774
  415TMC3    C5 6193   4.122   3.723   9.250  0.5459 -0.1822  0.4066
  415TMC3    C6 6194   4.251   3.765   9.243 -0.4774  0.4146 -0.2594
  415TMC3     C 6195   3.981   3.905   9.517  0.0174 -0.1050 -0.1528
  415TMC3     O 6196   3.864   3.865   9.507  0.2724  0.7197 -0.4337
  415TMC3     H 6197   4.221   4.014   9.469  3.0568 -0.8215  0.1458
  415TMC3    H1 6198   3.937   3.729   9.347 -0.3668 -0.7790 -3.0253
  415TMC3    H2 6199   4.316   3.721   9.168  0.2793  0.3586  0.4377
  415TMC3    C7 6200   4.098   3.596   9.170  0.4524 -0.3020  0.3564
  415TMC3    C8 6201   4.409   3.941   9.279  0.3047  0.6423 -0.0590
  415TMC3    O1 6202   4.138   3.601   9.055  0.2247  0.4472  0.0864
  415TMC3    O2 6203   4.503   3.871   9.242  0.0029  0.6008 -0.0462
  416MPD2     C 6204   0.975   3.600  11.469 -0.9352  0.2057  0.6499
  416MPD2    C1 6205   0.856   3.546  11.425  0.6070 -0.2766  0.7533
  416MPD2    C2 6206   0.861   3.468  11.306 -0.3761  0.7370 -1.1163
  416MPD2    C3 6207   0.984   3.430  11.245  0.0933  0.0923 -0.3411
  416MPD2    C4 6208   1.100   3.487  11.286 -0.2290 -0.4055  0.4794
  416MPD2    C5 6209   1.093   3.558  11.402 -0.0283  0.7546 -0.6201
  416MPD2     H 6210   0.763   3.456  11.260 -0.5581 -0.6937 -0.3539
  416MPD2    H1 6211   1.199   3.458  11.253 -0.6692 -0.1626 -1.0578
  416MPD2    H2 6212   0.977   3.673  11.549 -2.2816 -0.1840  1.0422
  416MPD2    H3 6213   1.189   3.585  11.446 -1.2016 -0.4496  2.6758
  416MPD2     N 6214   0.995   3.332  11.143 -0.5978  0.1921 -0.6881
  416MPD2    H5 6215   1.090   3.305  11.117 -1.3355 -2.1508 -0.8836
  416MPD2    N1 6216   0.747   3.579  11.498  0.1030  0.3117  1.0215
  416MPD2    H7 6217   0.758   3.636  11.581 -3.9796  0.2073  1.6255
  417TMC3    C1 6218   0.512   3.588  11.550 -0.5873  0.5266 -0.6823
  417TMC3    C2 6219   0.529   3.659  11.664  0.0277 -0.2301  0.3488
  417TMC3    C3 6220   0.430   3.742  11.710  0.2615 -0.2699  0.2312
  417TMC3    C4 6221   0.394   3.596  11.482  0.1320  0.3647 -0.4949
  417TMC3    C5 6222   0.294   3.668  11.541 -0.7530  0.6447  0.7052
  417TMC3    C6 6223   0.309   3.750  11.645  0.1642 -0.4920 -0.0007
  417TMC3     C 6224   0.624   3.532  11.472 -0.6434  0.5021  0.3370
  417TMC3     O 6225   0.584   3.444  11.397 -0.9738  0.5205 -0.0779
  417TMC3     H 6226   0.621   3.645  11.720 -0.0596 -0.7049  0.3738
  417TMC3    H1 6227   0.388   3.542  11.388 -1.5156  0.3861 -0.3990
  417TMC3    H2 6228   0.234   3.818  11.684  1.7948  2.2508 -1.6353
  417TMC3    C7 6229   0.182   3.698  11.448 -0.3800  0.0844 -0.6696
  417TMC3    C8 6230   0.435   3.793  11.847 -0.2092 -0.4568  0.9346
  417TMC3    O1 6231   0.201   3.668  11.330 -0.4380 -0.4868  0.6873
  417TMC3    O2 6232   0.348   3.866  11.887  0.0220  0.4914  0.3632
  418TMC3    C1 6233   3.548   0.527   0.954  0.2097 -0.5988  0.0641
  418TMC3    C2 6234   3.441   0.569   0.876 -0.4663 -0.4944 -0.1861
  418TMC3    C3 6235   3.318   0.500   0.878  0.7148  0.1466 -0.1152
  418TMC3    C4 6236   3.533   0.415   1.035  0.2015 -0.1629  0.0519
  418TMC3    C5 6237   3.412   0.357   1.029 -0.1935 -0.3597 -0.0507
  418TMC3    C6 6238   3.303   0.396   0.961 -0.1923  0.6128  0.2064
  418TMC3     C 6239   3.679   0.582   0.914  0.7368 -0.4656 -0.0315
  418TMC3     O 6240   3.682   0.689   0.856  1.0324 -0.0311 -0.1659
  418TMC3     H 6241   3.457   0.640   0.796 -1.4861 -0.9816 -0.8216
  418TMC3    H1 6242   3.611   0.374   1.097 -0.3892 -1.1588  0.1457
  418TMC3    H2 6243   3.206   0.350   0.976 -0.5590  0.9425 -1.1373
  418TMC3    C7 6244   3.388   0.211   1.073 -0.2810  0.8183 -0.1773
  418TMC3    C8 6245   3.283   0.449   0.748  0.2900 -0.6323  0.2977
  418TMC3    O1 6246   3.317   0.138   1.003  0.6503 -0.1789 -0.3987
  418TMC3    O2 6247   3.231   0.337   0.741 -0.1931 -0.0557 -0.3969
  419MPD2     C 6248   2.628   3.111  12.847 -0.0623 -0.1407 -0.1963
  419MPD2    C1 6249   2.586   3.223  12.788 -0.6018  0.0581 -0.1569
  419MPD2    C2 6250   2.633   3.346  12.831  1.2247  0.2583 -0.0419
  419MPD2    C3 6251   2.719   3.357  12.938  0.3423 -0.1484 -1.0069
  419MPD2    C4 6252   2.754   3.236  13.004  0.1342  0.4185 -0.1787
  419MPD2    C5 6253   2.713   3.116  12.955  0.2672 -0.2968 -0.0430
  419MPD2     H 6254   2.604   3.434  12.775 -0.7520 -0.5085 -0.2370
  419MPD2    H1 6255   2.812   3.236  13.095  0.3714 -0.4387 -0.3293
  419MPD2    H2 6256   2.592   3.015  12.811 -1.0410 -0.6717  2.2077
  419MPD2    H3 6257   2.739   3.023  13.004  1.2535 -0.3279 -0.6360
  419MPD2     N 6258   2.749   3.478  13.002  0.2440  0.0590  0.3604
  419MPD2    H5 6259   2.768   3.475  13.102 -0.1983  0.1827  0.4454
  419MPD2    N1 6260   2.506   3.235  12.672 -0.3976 -0.2947  0.5301
  419MPD2    H7 6261   2.501   3.328  12.632 -3.4348  0.0166  1.6377
  420TMC3    C1 6262   2.671   3.709  13.039  0.0783 -0.8354  0.0893
  420TMC3    C2 6263   2.633   3.814  12.967  0.6158 -0.4399 -0.4732
  420TMC3    C3 6264   2.516   3.881  12.995  0.0725 -0.0496  0.1457
  420TMC3    C4 6265   2.588   3.673  13.145 -0.2733  0.5372  0.5385
  420TMC3    C5 6266   2.461   3.733  13.154  0.2139 -0.2741 -0.7071
  420TMC3    C6 6267   2.420   3.835  13.080 -0.4889  0.2729 -0.3010
  420TMC3     C 6268   2.708   3.601  12.952  0.0672 -1.0137 -0.1745
  420TMC3     O 6269   2.694   3.624  12.831  0.2120 -0.1842 -0.2628
  420TMC3     H 6270   2.683   3.830  12.872 -0.1134  1.8037 -0.4908
  420TMC3    H1 6271   2.611   3.593  13.215 -1.2990 -1.1976 -1.1332
  420TMC3    H2 6272   2.326   3.887  13.096 -0.8458 -0.2763 -0.6572
  420TMC3    C7 6273   2.360   3.676  13.243 -0.0623 -0.2620  0.6517
  420TMC3    C8 6274   2.477   3.991  12.918 -0.0864 -0.5196  0.3085
  420TMC3    O1 6275   2.400   3.626  13.347 -0.5591  0.0046 -0.0354
  420TMC3    O2 6276   2.357   3.999  12.901 -0.6445  0.4821  0.3162
  421TMC3    C1 6277   3.790   0.306  13.245  0.4503 -0.7572  0.0796
  421TMC3    C2 6278   3.824   0.391  13.349 -0.0034  0.5534 -0.2612
  421TMC3    C3 6279   3.961   0.411  13.375  0.0477 -0.1258 -0.0413
  421TMC3    C4 6280   3.875   0.230  13.180 -0.3570 -0.2594 -0.0277
  421TMC3    C5 6281   4.002   0.250  13.219  0.5634 -0.0915  0.0581
  421TMC3    C6 6282   4.050   0.343  13.302  0.1403  0.0164  0.2095
  421TMC3     C 6283   3.655   0.266  13.239  0.1450  0.2982  0.1415
  421TMC3     O 6284   3.611   0.246  13.348 -0.0652  0.2504  0.0290
  421TMC3     H 6285   3.752   0.446  13.410 -0.7099 -1.2014  0.4766
  421TMC3    H1 6286   3.843   0.145  13.122  2.3690  1.8547 -4.5926
  421TMC3    H2 6287   4.156   0.347  13.324  0.5071  0.9206 -1.6742
  421TMC3    C7 6288   4.097   0.152  13.165  0.1114 -0.1222 -0.0563
  421TMC3    C8 6289   4.013   0.492  13.480 -0.4395 -0.3847  0.0211
  421TMC3    O1 6290   4.067   0.121  13.050  0.0215  0.4020  0.0407
  421TMC3    O2 6291   4.115   0.557  13.458 -0.4331  0.0243 -0.4950
  422TMC3    C1 6292   1.544   1.571  12.517  0.1158 -0.0964  0.6913
  422TMC3    C2 6293   1.502   1.699  12.526  0.7566  0.3937 -0.2877
  422TMC3    C3 6294   1.374   1.733  12.547  0.3409 -0.1961  0.1805
  422TMC3    C4 6295   1.450   1.476  12.533  0.2447  0.1767 -0.2628
  422TMC3    C5 6296   1.324   1.511  12.574 -0.8889 -0.3105 -0.0365
  422TMC3    C6 6297   1.282   1.644  12.587 -0.5564 -0.0304 -0.3009
  422TMC3     C 6298   1.654   1.542  12.429 -1.1383  0.1100  0.7677
  422TMC3     O 6299   1.726   1.633  12.389  0.1340  0.2161 -0.2884
  422TMC3     H 6300   1.571   1.781  12.506 -1.2218  2.3141  0.8142
  422TMC3    H1 6301   1.483   1.373  12.543 -0.0633  0.1959  0.9146
  422TMC3    H2 6302   1.180   1.667  12.614 -0.1777  1.3709 -0.0574
  422TMC3    C7 6303   1.230   1.402  12.587  0.3319  0.0766  0.3165
  422TMC3    C8 6304   1.365   1.865  12.606 -0.2583  0.7213  0.0301
  422TMC3    O1 6305   1.263   1.294  12.540  0.2288  0.4565  0.4995
  422TMC3    O2 6306   1.461   1.918  12.659  0.1647 -0.4280  0.0582
  423MPD2     C 6307   2.575   3.279   0.605 -0.0201 -0.7410 -0.4443
  423MPD2    C1 6308   2.551   3.151   0.649 -0.1286 -0.5147 -0.8363
  423MPD2    C2 6309   2.638   3.050   0.606 -0.2484  0.1816 -0.5507
  423MPD2    C3 6310   2.733   3.081   0.508  0.3851  0.2425 -0.3926
  423MPD2    C4 6311   2.734   3.209   0.450 -0.2810  0.3290 -0.8409
  423MPD2    C5 6312   2.664   3.309   0.507 -0.4527 -0.5968  0.3674
  423MPD2     H 6313   2.629   2.948   0.641 -3.0120  0.8840  0.8020
  423MPD2    H1 6314   2.816   3.237   0.385  0.4469 -0.7986 -0.4105
  423MPD2    H2 6315   2.512   3.355   0.649  1.6880 -0.0137  0.7807
  423MPD2    H3 6316   2.686   3.413   0.484  0.9491 -0.7517  0.9675
  423MPD2     N 6317   2.825   2.984   0.455  0.0695  0.0737 -0.4205
  423MPD2    H5 6318   2.883   3.017   0.379  1.4673 -0.6427  0.3381
  423MPD2    N1 6319   2.458   3.114   0.740  0.1903  0.3244 -0.2585
  423MPD2    H7 6320   2.462   3.016   0.765 -1.8339  0.3056 -0.0275
  424TMC3    C1 6321   2.267   3.119   0.874 -0.5404  0.2829 -0.1488
  424TMC3    C2 6322   2.330   3.040   0.963 -0.5752  0.4996 -0.4980
  424TMC3    C3 6323   2.264   3.008   1.081  0.1902 -0.4163 -0.0392
  424TMC3    C4 6324   2.144   3.174   0.907  0.3302  0.5263 -0.1318
  424TMC3    C5 6325   2.084   3.143   1.025 -0.6801 -0.6500 -0.0564
  424TMC3    C6 6326   2.142   3.052   1.110 -0.1175 -0.6608  0.2965
  424TMC3     C 6327   2.346   3.188   0.772 -0.8052 -0.5089 -0.9530
  424TMC3     O 6328   2.304   3.290   0.719  0.1225  0.5376 -0.1529
  424TMC3     H 6329   2.426   2.998   0.933 -0.3948  0.6677 -0.1572
  424TMC3    H1 6330   2.101   3.241   0.833 -0.9456 -0.0645  0.0759
  424TMC3    H2 6331   2.089   3.023   1.200 -0.7327 -0.0243  0.1364
  424TMC3    C7 6332   1.959   3.216   1.063  0.1511 -0.3227  0.1742
  424TMC3    C8 6333   2.313   2.906   1.163  0.3777 -0.4266 -0.2161
  424TMC3    O1 6334   1.911   3.288   0.978 -0.0997  0.7945  0.0826
  424TMC3    O2 6335   2.245   2.865   1.254 -0.4701 -0.1960  0.2047
  425MPD2     C 6336   1.321   2.414  16.652  0.1079  0.7072  0.4809
  425MPD2    C1 6337   1.337   2.290  16.710  0.8053 -0.0194 -0.7344
  425MPD2    C2 6338   1.284   2.270  16.830  0.3083  0.8514 -0.6347
  425MPD2    C3 6339   1.205   2.362  16.892 -0.0492 -0.1189  0.2188
  425MPD2    C4 6340   1.179   2.480  16.824 -0.7230 -0.0468 -0.0432
  425MPD2    C5 6341   1.246   2.508  16.708  0.2374  0.0889  0.6141
  425MPD2     H 6342   1.311   2.181  16.886  1.6197  2.1664  0.8302
  425MPD2    H1 6343   1.114   2.557  16.864  0.1785 -0.1715  1.6909
  425MPD2    H2 6344   1.346   2.427  16.547  1.9906  0.4912  0.8991
  425MPD2    H3 6345   1.216   2.594  16.649 -0.2474 -0.2672  0.3382
  425MPD2     N 6346   1.146   2.323  17.007 -0.0883 -0.2600 -0.0677
  425MPD2    H5 6347   1.162   2.227  17.036  1.7259  0.0983  0.1144
  425MPD2    N1 6348   1.416   2.203  16.637 -0.2465  0.0585 -0.1637
  425MPD2    H7 6349   1.472   2.232  16.558  0.4861 -3.2346 -0.8421
  426TMC3    C1 6350   1.531   1.992  16.600  0.7816  0.3067 -0.8839
  426TMC3    C2 6351   1.510   1.866  16.565  0.2332  0.5339  0.8787
  426TMC3    C3 6352   1.618   1.791  16.520 -0.1680  0.2496  0.0910
  426TMC3    C4 6353   1.646   2.054  16.583 -0.1594 -0.6309 -0.1036
  426TMC3    C5 6354   1.752   1.971  16.558  0.0323  0.1253  0.1488
  426TMC3    C6 6355   1.744   1.839  16.522 -0.1195 -0.7042 -0.0147
  426TMC3     C 6356   1.413   2.060  16.660  0.4154  0.3843  0.1511
  426TMC3     O 6357   1.348   1.988  16.739 -0.1416  0.2371  0.7397
  426TMC3     H 6358   1.406   1.839  16.551  0.7447 -1.3060  0.6034
  426TMC3    H1 6359   1.661   2.156  16.616  1.1189 -0.5912 -0.8235
  426TMC3    H2 6360   1.834   1.781  16.505 -1.0603 -2.1831 -0.0657
  426TMC3    C7 6361   1.880   2.017  16.610  0.4630 -0.1869 -0.3917
  426TMC3    C8 6362   1.612   1.645  16.500  0.0773  0.0957 -0.0974
  426TMC3    O1 6363   1.984   1.985  16.554  0.1312 -0.6440  0.4387
  426TMC3    O2 6364   1.706   1.588  16.440 -0.4241  0.0282  0.2130
  427MPD2     C 6365   0.664   3.738  14.948 -0.6619  1.1446 -0.0768
  427MPD2    C1 6366   0.584   3.811  15.037  0.1071 -0.5213  0.1342
  427MPD2    C2 6367   0.451   3.831  15.021  0.2927 -0.4161  0.6184
  427MPD2    C3 6368   0.390   3.748  14.924  0.0227 -0.3373  0.5541
  427MPD2    C4 6369   0.459   3.669  14.845 -0.2301  0.1724 -0.3964
  427MPD2    C5 6370   0.599   3.665  14.854 -0.2070 -0.1548  0.1312
  427MPD2     H 6371   0.394   3.896  15.086  0.5488 -1.0556  1.4681
  427MPD2    H1 6372   0.413   3.600  14.775  1.0813  1.5831 -2.6171
  427MPD2    H2 6373   0.770   3.714  14.953 -0.6664  1.2080  0.3690
  427MPD2    H3 6374   0.645   3.620  14.767 -0.5226 -1.1311  0.4750
  427MPD2     N 6375   0.254   3.743  14.907  0.0367  0.6369  0.1955
  427MPD2    H5 6376   0.213   3.687  14.833  1.4399  0.8902 -0.7623
  427MPD2    N1 6377   0.649   3.875  15.144  0.4277 -0.5741 -0.4567
  427MPD2    H7 6378   0.584   3.920  15.209  2.3641  1.6421 -0.0654
  428TMC3    C1 6379   0.809   3.939  15.307  0.1046  1.5758  0.4166
  428TMC3    C2 6380   0.734   3.889  15.406  0.8795  0.4684  0.5266
  428TMC3    C3 6381   0.771   3.902  15.537 -0.0235 -0.0387 -1.0559
  428TMC3    C4 6382   0.940   3.978  15.329 -0.1174  0.2394  0.2581
  428TMC3    C5 6383   0.978   3.988  15.457 -0.5743 -0.6804  0.6381
  428TMC3    C6 6384   0.904   3.933  15.558  0.5429 -0.2772  0.0394
  428TMC3     C 6385   0.780   3.884  15.178  0.8629  0.1200 -0.1173
  428TMC3     O 6386   0.876   3.856  15.110  0.1949 -0.5958  0.1089
  428TMC3     H 6387   0.635   3.848  15.388  0.7685  1.1209 -0.3908
  428TMC3    H1 6388   1.009   3.987  15.246  2.7071 -1.2486  2.4562
  428TMC3    H2 6389   0.947   3.932  15.657  0.8546  1.0834 -0.0820
  428TMC3    C7 6390   1.119   4.000  15.480  0.5796 -0.3159  0.1781
  428TMC3    C8 6391   0.718   3.813  15.630 -0.7507  0.0113 -0.7498
  428TMC3    O1 6392   1.143   3.995  15.597  0.4675  0.1688 -0.7772
  428TMC3    O2 6393   0.663   3.717  15.579 -0.1890 -0.4452 -0.0318
  429MPD2     C 6394   1.341   4.182   0.265 -1.0417  0.1232 -0.5537
  429MPD2    C1 6395   1.254   4.113   0.184  0.0458  0.6369 -0.2358
  429MPD2    C2 6396   1.259   4.142   0.046 -0.3107 -0.6673 -0.1993
  429MPD2    C3 6397   1.336   4.248  17.680  0.6500 -0.4970  0.4176
  429MPD2    C4 6398   1.424   4.310   0.082  0.8883 -0.9555 -0.5858
  429MPD2    C5 6399   1.426   4.280   0.216 -0.4867 -0.2820 -0.5716
  429MPD2     H 6400   1.185   4.100  17.665  0.9572 -0.8028 -1.5021
  429MPD2    H1 6401   1.482   4.397   0.053 -0.4178  0.2810  0.4608
  429MPD2    H2 6402   1.350   4.164   0.372 -0.2694  0.2190 -0.6016
  429MPD2    H3 6403   1.488   4.323   0.295 -2.9569  0.2041  1.0898
  429MPD2     N 6404   1.321   4.281  17.543 -0.1449 -0.1131 -0.0576
  429MPD2    H5 6405   1.259   4.218  17.493 -1.2935  0.9913 -0.0097
  429MPD2    N1 6406   1.167   4.012   0.228  0.2776 -0.5631 -0.2265
  429MPD2    H7 6407   1.128   3.955   0.153  0.2619 -1.4653  0.4664
  430TMC3    C1 6408   1.351   4.394  17.334  0.0294 -0.1136  0.3086
  430TMC3    C2 6409   1.225   4.351  17.287  0.0345  0.1044 -0.1480
  430TMC3    C3 6410   1.200   4.339  17.156  0.0730  0.2399 -0.0260
  430TMC3    C4 6411   1.452   4.434  17.252  0.3739 -0.3307 -0.9325
  430TMC3    C5 6412   1.425   4.424  17.119  0.1813 -0.0468  0.2685
  430TMC3    C6 6413   1.305   4.373  17.074 -0.0675 -0.5353  0.5177
  430TMC3     C 6414   1.379   4.381  17.473 -0.1571  0.2860  0.7314
  430TMC3     O 6415   1.464   4.456  17.514 -0.2064 -0.2302 -0.1063
  430TMC3     H 6416   1.151   4.310  17.354 -0.5644 -1.0675 -1.5458
  430TMC3    H1 6417   1.550   4.443  17.297  0.5685 -1.4462 -1.1258
  430TMC3    H2 6418   1.288   4.366  16.967  1.0568 -0.1015  0.3151
  430TMC3    C7 6419   1.543   4.389  17.040 -0.0985 -0.1476  0.2225
  430TMC3    C8 6420   1.070   4.378  17.104  0.2587  0.3050  0.1719
  430TMC3    O1 6421   1.513   4.318  16.943  0.3145  0.3553  0.1756
  430TMC3    O2 6422   1.045   4.354  16.985  0.0999 -0.3868  0.1434
  431MPD2     C 6423   2.259   3.976  12.445  0.5698  0.5892 -0.0915
  431MPD2    C1 6424   2.380   3.907  12.422 -0.2126  0.2307  0.4189
  431MPD2    C2 6425   2.371   3.771  12.405  0.2574 -0.1899  0.7231
  431MPD2    C3 6426   2.250   3.704  12.409  0.3015  1.0569  0.0183
  431MPD2    C4 6427   2.135   3.777  12.439  0.1922  0.5327 -0.5365
  431MPD2    C5 6428   2.144   3.911  12.449 -0.0178  0.2565  0.3852
  431MPD2     H 6429   2.459   3.708  12.395 -0.8891 -1.9829  1.9915
  431MPD2    H1 6430   2.038   3.735  12.462  0.7927 -0.8270 -0.5026
  431MPD2    H2 6431   2.264   4.081  12.471  0.0445 -0.4042  3.9843
  431MPD2    H3 6432   2.055   3.964  12.481 -0.6436 -0.0235 -0.9147
  431MPD2     N 6433   2.234   3.567  12.399  0.2874 -0.4974 -0.1478
  431MPD2    H5 6434   2.147   3.525  12.430  0.4758 -0.8031 -0.0426
  431MPD2    N1 6435   2.504   3.974  12.436  0.3794  0.5170  0.6545
  431MPD2    H7 6436   2.507   4.076  12.439 -3.1416  0.6445 -0.7149
  432TMC3    C1 6437   2.306   3.344  12.352 -0.2591 -0.4799 -0.7607
  432TMC3    C2 6438   2.309   3.248  12.248  0.4149  0.4369  0.2664
  432TMC3    C3 6439   2.323   3.117  12.280  0.2948  0.5936 -0.3550
  432TMC3    C4 6440   2.338   3.308  12.481  0.0577  0.1982 -0.0512
  432TMC3    C5 6441   2.361   3.177  12.504  0.1675  0.5045  0.3422
  432TMC3    C6 6442   2.349   3.080  12.409 -0.1353  0.3176 -0.3720
  432TMC3     C 6443   2.310   3.487  12.324  0.2163 -0.2713 -0.2738
  432TMC3     O 6444   2.393   3.519  12.236 -0.3699  0.1784 -0.2783
  432TMC3     H 6445   2.283   3.285  12.149  0.0400  0.2331  0.2900
  432TMC3    H1 6446   2.328   3.392  12.548  0.0869  0.3656 -0.2534
  432TMC3    H2 6447   2.367   2.974  12.424 -0.2555  0.5325  1.2729
  432TMC3    C7 6448   2.424   3.139  12.621  0.5607  0.4006 -0.1552
  432TMC3    C8 6449   2.356   3.026  12.168 -0.6342  0.1368 -0.5007
  432TMC3    O1 6450   2.422   3.022  12.650  0.9994  0.6175  0.2789
  432TMC3    O2 6451   2.299   2.914  12.171  0.2502  0.3335  0.0028
  433MPD2     C 6452   1.508   2.762  10.618  0.0548 -0.1039 -0.1113
  433MPD2    C1 6453   1.453   2.672  10.712  0.2961  0.4203 -0.1973
  433MPD2    C2 6454   1.468   2.702  10.844 -0.2536  0.0484  0.0335
  433MPD2    C3 6455   1.541   2.815  10.879 -0.0501 -0.1376 -0.7279
  433MPD2    C4 6456   1.588   2.910  10.789  0.6340  0.3982 -0.2699
  433MPD2    C5 6457   1.579   2.872  10.659 -0.6425 -0.6031  0.0086
  433MPD2     H 6458   1.440   2.637  10.926  1.8656 -3.3487 -1.9092
  433MPD2    H1 6459   1.652   2.992  10.818  0.2220 -0.1421  2.1419
  433MPD2    H2 6460   1.476   2.749  10.516  1.0234  0.6302 -0.5018
  433MPD2    H3 6461   1.623   2.944  10.590 -0.0203 -0.0200  1.0061
  433MPD2     N 6462   1.577   2.822  11.017  1.0593  0.3698 -0.3154
  433MPD2    H5 6463   1.538   2.750  11.077  1.1504  0.5153 -0.0794
  433MPD2    N1 6464   1.385   2.552  10.673  0.2776 -0.2038  0.2941
  433MPD2    H7 6465   1.402   2.519  10.579 -1.9758  2.0946 -0.9366
  434TMC3    C1 6466   1.283   2.343  10.721 -0.1780 -0.0573  0.4397
  434TMC3    C2 6467   1.287   2.254  10.818  0.9571  0.4346 -0.0625
  434TMC3    C3 6468   1.278   2.120  10.795  0.5125  0.5785 -0.0954
  434TMC3    C4 6469   1.259   2.312  10.591  0.9015  0.9639  0.3286
  434TMC3    C5 6470   1.255   2.175  10.569  0.5115 -0.8041  0.2697
  434TMC3    C6 6471   1.255   2.079  10.664  0.1676  0.3235  0.3210
  434TMC3     C 6472   1.302   2.483  10.761  0.5949  0.3627 -0.4468
  434TMC3     O 6473   1.268   2.518  10.871  0.2329  0.1664 -0.1909
  434TMC3     H 6474   1.305   2.288  10.920 -0.0539  0.4446  0.1176
  434TMC3    H1 6475   1.284   2.374  10.506 -1.5155  1.1047 -0.2909
  434TMC3    H2 6476   1.232   1.974  10.655 -1.4036  0.5867  1.2715
  434TMC3    C7 6477   1.246   2.136  10.430 -0.1934 -0.3651 -0.1486
  434TMC3    C8 6478   1.388   2.052  10.863  0.3918 -0.5406  0.1027
  434TMC3    O1 6479   1.214   2.225  10.353  0.1137  0.0336  0.2916
  434TMC3    O2 6480   1.468   2.121  10.922  0.1053  0.6391 -0.0668
  435MPD2     C 6481   3.453   2.626  15.411  0.4786  0.2354 -0.4393
  435MPD2    C1 6482   3.398   2.633  15.536 -0.0693 -0.1198  1.1182
  435MPD2    C2 6483   3.482   2.594  15.637  0.3467 -0.1268 -0.2437
  435MPD2    C3 6484   3.608   2.554  15.622  0.1428 -0.4935  0.1346
  435MPD2    C4 6485   3.663   2.559  15.494  0.3528 -0.1842  0.0672
  435MPD2    C5 6486   3.585   2.592  15.395  0.8195  0.5107  0.4402
  435MPD2     H 6487   3.445   2.604  15.738 -0.3061 -0.5930 -0.4321
  435MPD2    H1 6488   3.770   2.558  15.472  0.6234 -0.0325  1.3712
  435MPD2    H2 6489   3.400   2.641  15.317 -0.7135 -0.7269  0.0785
  435MPD2    H3 6490   3.629   2.597  15.296 -0.2933  1.1802 -0.0260
  435MPD2     N 6491   3.689   2.520  15.736 -0.4665 -0.4232 -0.0706
  435MPD2    H5 6492   3.652   2.527  15.830  0.4329 -0.3963  0.2846
  435MPD2    N1 6493   3.274   2.688  15.565 -0.1416  0.1691 -0.1764
  435MPD2    H7 6494   3.239   2.671  15.659  0.9600  1.3776  0.4589
  436TMC3    C1 6495   2.962   2.901  15.706  0.0906 -0.0315  0.4224
  436TMC3    C2 6496   3.078   2.861  15.648 -0.0052 -0.2742  0.5795
  436TMC3    C3 6497   3.067   2.775  15.540 -0.0198 -0.1789  0.6995
  436TMC3    C4 6498   2.836   2.862  15.663  0.0639  0.6245  0.2433
  436TMC3    C5 6499   2.836   2.786  15.544 -0.4189  0.0539 -0.8031
  436TMC3    C6 6500   2.949   2.754  15.477 -0.0107 -0.2651  0.0830
  436TMC3     C 6501   2.969   3.005  15.804 -0.1312 -0.3808  0.3170
  436TMC3     O 6502   3.056   3.093  15.783  0.2212  0.0815 -0.4882
  436TMC3     H 6503   3.177   2.890  15.682  0.8630 -1.3145 -1.0597
  436TMC3    H1 6504   2.749   2.887  15.723 -0.7263 -0.0337 -0.6301
  436TMC3    H2 6505   2.947   2.689  15.390 -1.2977 -0.0439 -0.0574
  436TMC3    C7 6506   2.703   2.750  15.495 -0.0309 -0.0056  0.1410
  436TMC3    C8 6507   3.191   2.744  15.477 -0.5927 -0.7677  0.1615
  436TMC3    O1 6508   2.616   2.742  15.580 -0.1441 -1.1246  0.2131
  436TMC3    O2 6509   3.186   2.741  15.356  0.0139 -0.2559  0.5764
  437TMC3    C1 6510   2.199   0.183  12.436 -0.8101 -0.6309 -0.5367
  437TMC3    C2 6511   2.082   0.181  12.365  0.4623 -1.0544 -0.3222
  437TMC3    C3 6512   2.087   0.225  12.238  0.1395  0.2889  0.0059
  437TMC3    C4 6513   2.316   0.212  12.371 -0.2584 -0.3363  0.2295
  437TMC3    C5 6514   2.311   0.234  12.238 -0.0696  0.3163 -0.7418
  437TMC3    C6 6515   2.198   0.247  12.166  0.8300 -0.0226 -0.1918
  437TMC3     C 6516   2.214   0.100  12.561 -0.0546 -0.0607  0.8443
  437TMC3     O 6517   2.325   0.095  12.610 -0.4343 -0.1728 -0.6958
  437TMC3     H 6518   1.983   0.165  12.405  0.7315 -1.1055  0.3202
  437TMC3    H1 6519   2.409   0.209  12.428  1.1698 -1.7361 -2.1753
  437TMC3    H2 6520   2.204   0.266  12.059  1.0198 -0.3634 -0.2435
  437TMC3    C7 6521   2.435   0.231  12.166  0.1591  0.4238 -0.2664
  437TMC3    C8 6522   1.960   0.269  12.181  0.0925  0.2480 -0.3001
  437TMC3    O1 6523   2.429   0.281  12.052 -0.2873 -0.2507 -0.4084
  437TMC3    O2 6524   1.867   0.199  12.217  0.1150 -0.1345 -0.7012
  438MPD2     C 6525   3.942   0.486  16.987 -0.2257  0.0130 -0.4737
  438MPD2    C1 6526   4.054   0.410  16.999 -0.4011  0.0795 -0.3917
  438MPD2    C2 6527   4.073   0.336  17.116 -0.3211  0.7324 -0.1674
  438MPD2    C3 6528   3.974   0.346  17.215  0.7362 -0.7564 -0.8829
  438MPD2    C4 6529   3.857   0.420  17.192 -0.2089  0.4498  0.3993
  438MPD2    C5 6530   3.843   0.481  17.073  0.1944  0.2567 -0.3643
  438MPD2     H 6531   4.164   0.278  17.126  0.7792  2.3659 -0.6333
  438MPD2    H1 6532   3.782   0.428  17.269  1.3071 -0.2556  1.9429
  438MPD2    H2 6533   3.923   0.542  16.896 -2.9409 -0.1567  0.0012
  438MPD2    H3 6534   3.753   0.537  17.051  0.7466  1.6358  0.9081
  438MPD2     N 6535   3.981   0.293  17.349 -0.0379 -0.0555  0.4475
  438MPD2    H5 6536   3.904   0.308  17.413 -0.2898 -2.5066  0.7194
  438MPD2    N1 6537   4.160   0.416  16.906  0.1195 -0.3578  0.9749
  438MPD2    H7 6538   4.247   0.371  16.933  0.9910  0.3253 -0.7154
  439TMC3    C1 6539   4.307   0.506  16.739  0.4875  0.8247  0.0744
  439TMC3    C2 6540   4.335   0.514  16.610  0.2866  0.1318  0.0734
  439TMC3    C3 6541   4.465   0.515  16.578 -0.9387 -0.7205 -0.7946
  439TMC3    C4 6542   4.399   0.513  16.841  0.3334  0.4845 -0.4855
  439TMC3    C5 6543   4.531   0.531  16.804 -0.6748  0.0541 -0.0922
  439TMC3    C6 6544   4.566   0.533  16.670  0.0805 -0.5403 -0.1045
  439TMC3     C 6545   4.167   0.489  16.788 -0.5677 -0.0294 -0.0022
  439TMC3     O 6546   4.081   0.515  16.707 -0.1088 -0.6958  0.2543
  439TMC3     H 6547   4.257   0.486  16.540  0.0059  0.9851  0.0389
  439TMC3    H1 6548   4.371   0.508  16.946  2.9203  1.4339  0.2427
  439TMC3    H2 6549   4.668   0.547  16.633 -0.6621  0.1712 -1.9002
  439TMC3    C7 6550   4.636   0.521  16.901 -0.5246 -0.1748  0.3838
  439TMC3    C8 6551   4.515   0.477  16.446  0.1380 -1.0192  0.5142
  439TMC3    O1 6552   4.614   0.493  17.017 -0.6511 -0.2720 -0.3156
  439TMC3    O2 6553   4.633   0.452  16.440 -0.4362  0.5587  0.4171
  440MPD2     C 6554   2.681   0.841  15.134 -0.6863 -0.2364 -0.3146
  440MPD2    C1 6555   2.810   0.857  15.081  0.6272 -0.7067  0.5926
  440MPD2    C2 6556   2.902   0.756  15.082  0.1678 -0.3645 -0.0725
  440MPD2    C3 6557   2.873   0.636  15.132 -0.9098 -0.1855 -0.5025
  440MPD2    C4 6558   2.741   0.609  15.165  0.0559 -0.6794  0.4906
  440MPD2    C5 6559   2.645   0.710  15.165 -0.2425 -0.1484  0.2155
  440MPD2     H 6560   2.998   0.794  15.047  0.9018 -1.9413  0.2186
  440MPD2    H1 6561   2.722   0.509  15.203  0.0140 -0.4611  1.0487
  440MPD2    H2 6562   2.609   0.922  15.136 -0.4259  0.0025 -0.6023
  440MPD2    H3 6563   2.546   0.681  15.199  1.4546 -2.1838  3.4478
  440MPD2     N 6564   2.956   0.519  15.120 -0.0101 -0.4979 -0.1631
  440MPD2    H5 6565   2.908   0.431  15.137  0.9847 -0.8755  0.6626
  440MPD2    N1 6566   2.861   0.987  15.043 -0.6525 -0.3167  0.6897
  440MPD2    H7 6567   2.961   1.004  15.040 -0.5732 -1.1269 -0.7975
  441TMC3    C1 6568   3.169   0.403  15.098  0.3086 -0.0419 -0.0890
  441TMC3    C2 6569   3.300   0.427  15.079 -0.8223  0.1449  0.2701
  441TMC3    C3 6570   3.394   0.360  15.157  0.0422  0.4382 -0.0311
  441TMC3    C4 6571   3.124   0.311  15.182 -0.0156 -0.6953  0.2408
  441TMC3    C5 6572   3.216   0.245  15.259 -0.1115 -0.4354 -0.0482
  441TMC3    C6 6573   3.349   0.267  15.245 -0.9949  0.7019  0.3334
  441TMC3     C 6574   3.093   0.527  15.084  0.3297  0.0177 -0.4973
  441TMC3     O 6575   3.161   0.622  15.051 -0.0849 -0.0487 -1.0523
  441TMC3     H 6576   3.333   0.494  15.001 -3.4691  1.6391  0.4463
  441TMC3    H1 6577   3.029   0.327  15.232  1.0379  2.3444  1.2347
  441TMC3    H2 6578   3.408   0.220  15.323  0.9751  1.8867 -0.4196
  441TMC3    C7 6579   3.167   0.182  15.378  0.4526  0.5483  1.3482
  441TMC3    C8 6580   3.501   0.444  15.206 -0.9749  0.1382 -0.3724
  441TMC3    O1 6581   3.243   0.182  15.471  0.3236  0.1309 -0.1198
  441TMC3    O2 6582   3.596   0.386  15.262  0.5057 -0.1504 -0.1356
  442MPD2     C 6583   1.407   1.988  16.232 -0.0732 -0.2341 -0.5949
  442MPD2    C1 6584   1.294   1.949  16.296 -0.4474  0.1096  0.7248
  442MPD2    C2 6585   1.262   1.815  16.297  0.2745 -0.6555 -0.2152
  442MPD2    C3 6586   1.347   1.722  16.232 -0.8045 -0.3982  0.3536
  442MPD2    C4 6587   1.468   1.762  16.171  0.3004  0.9779  0.1297
  442MPD2    C5 6588   1.494   1.899  16.173  0.2892 -0.1206 -0.6425
  442MPD2     H 6589   1.172   1.778  16.345  0.9098 -1.6827  0.1962
  442MPD2    H1 6590   1.524   1.694  16.108 -0.2779  0.1017  0.5720
  442MPD2    H2 6591   1.438   2.092  16.236  1.4433 -0.7203  0.2505
  442MPD2    H3 6592   1.589   1.916  16.124  1.4036 -0.0299  1.5285
  442MPD2     N 6593   1.342   1.576  16.240  1.0561 -0.1349 -0.7799
  442MPD2    H5 6594   1.411   1.528  16.182  1.3554 -1.9063  1.0193
  442MPD2    N1 6595   1.218   2.039  16.372  0.0047  0.3384  0.0224
  442MPD2    H7 6596   1.143   2.005  16.432 -0.3143 -0.1381 -0.6397
  443TMC3    C1 6597   1.112   2.242  16.406  0.7631 -0.4293 -0.0932
  443TMC3    C2 6598   1.068   2.351  16.338 -0.5284  0.3529  0.0331
  443TMC3    C3 6599   0.971   2.423  16.391  0.2210 -0.6192 -0.4439
  443TMC3    C4 6600   1.076   2.209  16.532  0.2971  0.4227  0.1828
  443TMC3    C5 6601   0.994   2.299  16.585  0.2684 -0.1025 -0.3332
  443TMC3    C6 6602   0.941   2.404  16.520  0.0253  0.5845 -0.7913
  443TMC3     C 6603   1.216   2.173  16.338 -0.1833 -0.0614 -0.6051
  443TMC3     O 6604   1.268   2.239  16.251 -0.5627  0.0490  0.2546
  443TMC3     H 6605   1.098   2.374  16.236  1.2049 -0.3389  0.3869
  443TMC3    H1 6606   1.119   2.133  16.596  0.2799 -0.0979 -0.4230
  443TMC3    H2 6607   0.853   2.456  16.555 -0.0772  1.1419 -1.8564
  443TMC3    C7 6608   0.931   2.257  16.712  0.3788 -0.9953 -0.1084
  443TMC3    C8 6609   0.848   2.413  16.314 -0.4986  0.5261 -1.0600
  443TMC3    O1 6610   0.976   2.157  16.758 -0.1771  0.4810  0.4810
  443TMC3    O2 6611   0.771   2.330  16.360  0.0248  0.1211 -0.8913
  444MPD2     C 6612   1.560   1.170  17.022  0.1813 -0.0898 -0.8687
  444MPD2    C1 6613   1.472   1.070  17.061  0.1018 -0.0002 -0.4855
  444MPD2    C2 6614   1.475   0.946  17.000  0.1422 -0.0189 -0.0774
  444MPD2    C3 6615   1.576   0.922  16.907 -0.5668  0.0520 -0.7028
  444MPD2    C4 6616   1.642   1.025  16.852 -0.3130  0.2370 -0.5585
  444MPD2    C5 6617   1.644   1.148  16.913  0.3126 -0.7711 -0.2631
  444MPD2     H 6618   1.419   0.862  17.040  0.8375 -1.2921 -1.7535
  444MPD2    H1 6619   1.710   1.019  16.768 -1.7169  0.3704 -1.6845
  444MPD2    H2 6620   1.569   1.267  17.070 -0.0776 -0.1414 -0.7192
  444MPD2    H3 6621   1.706   1.226  16.868  0.6724  0.5870  2.5836
  444MPD2     N 6622   1.587   0.793  16.846 -0.0188 -1.0045 -0.0920
  444MPD2    H5 6623   1.517   0.725  16.875 -1.7138  0.6001 -0.4237
  444MPD2    N1 6624   1.386   1.084  17.180 -0.3094 -0.0400  0.1087
  444MPD2    H7 6625   1.319   1.008  17.191  0.4798 -0.8721 -0.7591
  445TMC3    C1 6626   1.676   0.610  16.716  0.0923  0.3790  0.1097
  445TMC3    C2 6627   1.568   0.540  16.765  0.3029  0.7109  0.2803
  445TMC3    C3 6628   1.569   0.405  16.742  0.3702 -0.3183  0.6657
  445TMC3    C4 6629   1.788   0.553  16.656 -0.5714  0.4586 -0.7803
  445TMC3    C5 6630   1.778   0.421  16.636 -0.2536 -0.6069  1.2017
  445TMC3    C6 6631   1.673   0.344  16.680  0.7962 -0.2869 -0.1644
  445TMC3     C 6632   1.690   0.749  16.757 -0.1975  0.1515  0.1381
  445TMC3     O 6633   1.789   0.804  16.715  0.3835 -0.0241 -0.3309
  445TMC3     H 6634   1.475   0.589  16.793  0.3105  0.5922  0.5121
  445TMC3    H1 6635   1.877   0.605  16.622 -0.0404 -0.3492 -0.6443
  445TMC3    H2 6636   1.677   0.236  16.685  0.6272 -0.3610 -1.4707
  445TMC3    C7 6637   1.899   0.351  16.588 -0.0463  0.0474  0.2471
  445TMC3    C8 6638   1.443   0.332  16.776  0.3237 -0.5344  0.0250
  445TMC3    O1 6639   1.983   0.422  16.534  0.5176  0.3321 -0.0922
  445TMC3    O2 6640   1.353   0.392  16.836 -0.0040 -0.0935 -0.1094
  446MPD2     C 6641   1.303   1.855  11.367  0.4804  0.3676  0.3871
  446MPD2    C1 6642   1.258   1.929  11.258 -0.4951 -0.2521 -0.6318
  446MPD2    C2 6643   1.327   2.040  11.216  0.2568 -0.3789 -0.6971
  446MPD2    C3 6644   1.447   2.076  11.268 -0.3023 -0.3751 -0.2175
  446MPD2    C4 6645   1.482   2.012  11.384  0.6429  0.5452  0.1051
  446MPD2    C5 6646   1.421   1.898  11.421 -0.7489  0.0611  0.0727
  446MPD2     H 6647   1.290   2.094  11.129  1.4754 -1.5362 -1.9417
  446MPD2    H1 6648   1.564   2.042  11.450 -0.4434 -0.4292  1.9005
  446MPD2    H2 6649   1.246   1.775  11.413 -0.6138  1.3952  0.8284
  446MPD2    H3 6650   1.462   1.847  11.507  1.8374  0.6538 -0.8043
  446MPD2     N 6651   1.535   2.164  11.196 -0.2110  0.2821 -0.0618
  446MPD2    H5 6652   1.516   2.168  11.096 -0.2183 -0.1770 -0.0795
  446MPD2    N1 6653   1.143   1.887  11.186  0.1827  1.4930 -0.0010
  446MPD2    H7 6654   1.116   1.927  11.097 -0.8425  3.6235  1.2911
  447TMC3    C1 6655   1.735   2.296  11.160  0.2795 -0.1316 -0.1526
  447TMC3    C2 6656   1.701   2.303  11.028  0.0683 -0.5221  0.0437
  447TMC3    C3 6657   1.789   2.246  10.944 -0.2761 -0.4642  0.6010
  447TMC3    C4 6658   1.868   2.287  11.198 -0.2592  0.7793 -0.4074
  447TMC3    C5 6659   1.956   2.235  11.101 -0.1529 -0.7416 -0.6466
  447TMC3    C6 6660   1.912   2.198  10.975  0.7240  0.6809 -0.1122
  447TMC3     C 6661   1.659   2.208  11.240 -0.1811  0.5328 -0.0746
  447TMC3     O 6662   1.713   2.173  11.342  0.1776  0.1590 -0.6936
  447TMC3     H 6663   1.603   2.332  10.991  0.2356 -0.1071 -0.0824
  447TMC3    H1 6664   1.907   2.301  11.298 -1.4380 -1.1096  0.3033
  447TMC3    H2 6665   1.978   2.162  10.898  0.5698 -0.0045  0.0741
  447TMC3    C7 6666   2.074   2.157  11.149  0.5749  0.1937  0.6853
  447TMC3    C8 6667   1.741   2.194  10.816 -0.2116  0.2023  0.3314
  447TMC3    O1 6668   2.119   2.069  11.077  0.4306  0.0362  0.1021
  447TMC3    O2 6669   1.667   2.265  10.748  0.1731 -0.2520  0.3202
  448TMC3    C1 6670   3.939   2.471  16.971  0.1882  0.7073  0.2750
  448TMC3    C2 6671   3.964   2.366  16.882 -0.2420 -0.6178 -0.4391
  448TMC3    C3 6672   3.980   2.241  16.941  0.1331 -0.6392  0.2997
  448TMC3    C4 6673   3.921   2.449  17.112 -0.1606  0.1308 -0.9241
  448TMC3    C5 6674   3.953   2.328  17.158  0.7463  0.0390 -0.0466
  448TMC3    C6 6675   3.967   2.215  17.074 -0.6706  1.2302 -0.3333
  448TMC3     C 6676   3.899   2.595  16.921 -0.1475 -0.5270  0.3363
  448TMC3     O 6677   3.814   2.599  16.834  0.5486  0.2525 -0.1241
  448TMC3     H 6678   3.963   2.389  16.776  1.2143 -1.0221 -0.5436
  448TMC3    H1 6679   3.898   2.528  17.182 -4.7165  0.0756 -2.3787
  448TMC3    H2 6680   3.969   2.115  17.115 -2.5436  1.9982  1.6023
  448TMC3    C7 6681   3.927   2.295  17.290 -0.1763 -0.0806  0.4484
  448TMC3    C8 6682   4.021   2.126  16.862  0.1353 -0.0041  0.4137
  448TMC3    O1 6683   3.840   2.354  17.351 -0.4052 -0.1039  0.4882
  448TMC3    O2 6684   4.060   2.033  16.931 -0.1991  0.4305 -0.3186
  449MPD2     C 6685   1.427   0.775  13.724  0.3668 -0.1879 -0.5131
  449MPD2    C1 6686   1.304   0.744  13.669 -0.0992  0.1304  0.1358
  449MPD2    C2 6687   1.229   0.643  13.731  0.4552  0.1095 -0.2240
  449MPD2    C3 6688   1.273   0.580  13.850 -0.2613 -1.1816  0.4638
  449MPD2    C4 6689   1.396   0.613  13.899  0.3518  0.1176  0.3167
  449MPD2    C5 6690   1.474   0.705  13.829  0.0236  0.1971 -0.6668
  449MPD2     H 6691   1.132   0.612  13.695  0.1656  1.0904 -0.2885
  449MPD2    H1 6692   1.423   0.571  13.996 -0.1021 -0.9118 -0.0035
  449MPD2    H2 6693   1.495   0.843  13.674  1.7195 -0.6110  0.7445
  449MPD2    H3 6694   1.569   0.735  13.870 -0.3873 -1.3176  1.4113
  449MPD2     N 6695   1.192   0.483  13.903  0.0565 -0.0066 -0.8001
  449MPD2    H5 6696   1.115   0.448  13.847 -0.1801 -1.3718  0.3852
  449MPD2    N1 6697   1.244   0.790  13.553 -0.3896  0.0542 -0.0979
  449MPD2    H7 6698   1.157   0.753  13.516 -1.0231 -0.2450  1.7177
  450TMC3    C1 6699   1.206   0.882  13.338 -0.9109  0.2705  0.1864
  450TMC3    C2 6700   1.261   0.826  13.223  0.0681 -0.1385  0.4062
  450TMC3    C3 6701   1.185   0.731  13.162  0.9769 -0.4992 -0.4744
  450TMC3    C4 6702   1.073   0.872  13.364  0.2812  0.4595  0.0505
  450TMC3    C5 6703   0.999   0.777  13.297 -0.0498 -0.5739  0.1236
  450TMC3    C6 6704   1.057   0.704  13.197  0.1276  0.1637  0.1005
  450TMC3     C 6705   1.293   0.872  13.458 -0.2294  0.1390  0.4213
  450TMC3     O 6706   1.411   0.904  13.443 -0.3306  0.0330  0.4660
  450TMC3     H 6707   1.358   0.862  13.190 -1.6961  1.8954 -2.6844
  450TMC3    H1 6708   1.027   0.901  13.458 -1.5869  0.6285 -0.9023
  450TMC3    H2 6709   0.998   0.622  13.157  1.1188 -0.0419 -0.9445
  450TMC3    C7 6710   0.938   0.688  13.397  0.5013  0.2473 -0.1254
  450TMC3    C8 6711   1.232   0.675  13.034 -1.0911  0.1270 -0.5531
  450TMC3    O1 6712   0.979   0.694  13.511 -0.2394 -0.1431 -1.0833
  450TMC3    O2 6713   1.154   0.614  12.965 -0.3183 -0.2406 -0.5371
  451MPD2     C 6714   2.837   4.436   1.601 -0.2592 -0.9956 -0.1793
  451MPD2    C1 6715   2.817   4.458   1.465  0.0490 -0.4133  0.6543
  451MPD2    C2 6716   2.807   4.350   1.382  0.2993  0.5070  0.4546
  451MPD2    C3 6717   2.848   4.221   1.425 -0.2377  0.4538  0.0670
  451MPD2    C4 6718   2.880   4.206   1.559  0.5528 -0.8552  0.1394
  451MPD2    C5 6719   2.864   4.314   1.648  0.1583 -0.4967  0.0452
  451MPD2     H 6720   2.774   4.364   1.280 -0.5503  1.4299  0.8540
  451MPD2    H1 6721   2.896   4.106   1.597  2.3536 -1.5917 -2.5938
  451MPD2    H2 6722   2.826   4.521   1.667 -0.3635 -0.3621 -1.0196
  451MPD2    H3 6723   2.878   4.312   1.756 -1.7999 -0.6116  0.2935
  451MPD2     N 6724   2.843   4.101   1.353 -0.4386  0.2062  0.1653
  451MPD2    H5 6725   2.877   4.016   1.397 -2.9670 -1.2575 -0.6609
  451MPD2    N1 6726   2.776   4.587   1.424  0.5423 -0.1956 -0.4674
  451MPD2    H7 6727   2.785   4.660   1.494 -1.3563  0.4908 -0.9152
  452TMC3    C1 6728   2.797   3.949   1.184 -0.7491  0.4186  0.0215
  452TMC3    C2 6729   2.766   3.855   1.284 -0.0708  0.0238 -0.4946
  452TMC3    C3 6730   2.665   3.762   1.255  0.3271  0.0762 -0.3233
  452TMC3    C4 6731   2.723   3.950   1.071  0.1284  0.6764  0.8167
  452TMC3    C5 6732   2.615   3.866   1.055 -0.0137 -0.2013 -0.1761
  452TMC3    C6 6733   2.590   3.768   1.146 -0.5537  0.1518 -0.2225
  452TMC3     C 6734   2.809   4.093   1.219 -0.3812 -0.1248  0.0295
  452TMC3     O 6735   2.769   4.173   1.140  0.0364  0.4278 -0.3546
  452TMC3     H 6736   2.806   3.857   1.385 -0.8275 -0.8310 -0.1662
  452TMC3    H1 6737   2.741   4.020   0.990  0.9740  1.4088  1.6390
  452TMC3    H2 6738   2.516   3.690   1.132 -1.5403  1.0036  0.2949
  452TMC3    C7 6739   2.534   3.892   0.935  0.7071  0.2437  0.8388
  452TMC3    C8 6740   2.631   3.666   1.354  0.2853 -0.5906 -0.1315
  452TMC3    O1 6741   2.575   3.970   0.853  0.1685 -0.2636  0.0002
  452TMC3    O2 6742   2.726   3.619   1.416  0.2460  0.3752 -0.1431
  453TMC3    C1 6743   3.797   1.357  11.947 -0.0077 -0.9418 -0.1291
  453TMC3    C2 6744   3.695   1.260  11.963 -0.3361  0.5264  0.0827
  453TMC3    C3 6745   3.618   1.239  11.854 -0.2883  0.3440  0.1138
  453TMC3    C4 6746   3.804   1.439  11.840  0.1401 -0.2799  0.0636
  453TMC3    C5 6747   3.712   1.422  11.739  0.7479  0.4551 -0.4898
  453TMC3    C6 6748   3.624   1.317  11.741  0.2899  0.0304 -0.9271
  453TMC3     C 6749   3.899   1.368  12.054  0.2223  0.0640  0.1737
  453TMC3     O 6750   3.949   1.478  12.067  0.4771  0.2481 -0.2362
  453TMC3     H 6751   3.673   1.193  12.046 -2.0781  2.0007  0.8146
  453TMC3    H1 6752   3.874   1.522  11.842 -0.8824  0.6011 -0.4800
  453TMC3    H2 6753   3.551   1.283  11.668 -1.5696 -0.9240  1.3777
  453TMC3    C7 6754   3.728   1.508  11.626  0.1935 -1.1558 -0.8947
  453TMC3    C8 6755   3.505   1.146  11.857 -0.7464  0.3134  0.0496
  453TMC3    O1 6756   3.825   1.582  11.624  0.4499 -0.0166  0.0405
  453TMC3    O2 6757   3.392   1.175  11.822  0.0737  0.1577  0.1724
  454MPD2     C 6758   2.468   0.925  16.152  0.6128  0.0876 -0.5168
  454MPD2    C1 6759   2.398   0.824  16.206 -0.1160  0.6386  0.4301
  454MPD2    C2 6760   2.335   0.844  16.334  0.3662  0.1132 -0.0555
  454MPD2    C3 6761   2.335   0.969  16.391  0.5359 -0.0571  0.2313
  454MPD2    C4 6762   2.397   1.075  16.332  0.1132 -0.0752 -0.6582
  454MPD2    C5 6763   2.473   1.044  16.219  0.0233  0.0870 -0.5498
  454MPD2     H 6764   2.287   0.760  16.384 -0.4820  0.8725  0.3907
  454MPD2    H1 6765   2.387   1.176  16.369  2.6974 -0.4311  1.0036
  454MPD2    H2 6766   2.544   0.911  16.077  0.5806 -0.6176 -0.4153
  454MPD2    H3 6767   2.534   1.118  16.168 -0.9238  1.2951  0.0889
  454MPD2     N 6768   2.248   0.993  16.498  0.3398  0.0471  0.2167
  454MPD2    H5 6769   2.232   1.089  16.526 -1.9206 -0.3251  0.2049
  454MPD2    N1 6770   2.369   0.707  16.131  0.0946 -0.5507  0.6733
  454MPD2    H7 6771   2.289   0.653  16.163  1.1511 -1.3189  2.0614
  455TMC3    C1 6772   2.043   0.894  16.536 -0.2305  0.9151  0.0031
  455TMC3    C2 6773   1.973   1.014  16.538  0.1158  0.1158  0.4120
  455TMC3    C3 6774   1.850   1.017  16.482  0.1659  0.2556 -0.3095
  455TMC3    C4 6775   1.992   0.792  16.462 -0.2709 -0.5708  0.1293
  455TMC3    C5 6776   1.872   0.801  16.404 -0.1133 -0.2130  0.6284
  455TMC3    C6 6777   1.795   0.910  16.416 -0.5041 -0.5924 -1.2846
  455TMC3     C 6778   2.185   0.891  16.572 -0.0857 -0.1970 -0.7160
  455TMC3     O 6779   2.231   0.779  16.600 -0.3932 -1.1067 -0.0190
  455TMC3     H 6780   2.015   1.100  16.590  0.7532 -0.1002  0.2545
  455TMC3    H1 6781   2.055   0.710  16.428  1.1772  0.6324 -0.1018
  455TMC3    H2 6782   1.702   0.923  16.362 -2.5465 -1.4107  2.0365
  455TMC3    C7 6783   1.834   0.690  16.314 -0.4625  0.2870  0.1491
  455TMC3    C8 6784   1.776   1.133  16.523 -0.3147 -0.9823 -0.2337
  455TMC3    O1 6785   1.925   0.630  16.262 -0.2153 -0.5127  0.1298
  455TMC3    O2 6786   1.839   1.232  16.552  0.3716 -0.6385  0.1854
  456MPD2     C 6787   4.510   0.852  16.239  0.1833  0.2724 -0.6774
  456MPD2    C1 6788   4.590   0.852  16.352  0.5382 -0.5531  0.3580
  456MPD2    C2 6789   4.578   0.958  16.438  0.3110 -0.2529  1.1447
  456MPD2    C3 6790   4.486   1.064  16.419 -0.2331  0.1762 -0.2016
  456MPD2    C4 6791   4.395   1.047  16.323  0.4324 -0.4894 -0.2318
  456MPD2    C5 6792   4.399   0.939  16.234 -0.6241 -0.0966  0.2706
  456MPD2     H 6793   4.631   0.954  16.532  1.4815 -2.6639  0.3579
  456MPD2    H1 6794   4.314   1.115  16.301  0.4380 -0.5997 -0.5908
  456MPD2    H2 6795   4.527   0.776  16.164  2.7415 -0.0748  0.2299
  456MPD2    H3 6796   4.327   0.938  16.153 -0.6377 -2.7844  0.3074
  456MPD2     N 6797   4.480   1.166  16.515  0.3061  0.2508 -0.5772
  456MPD2    H5 6798   4.530   1.145  16.602  0.0137  0.4668 -0.3582
  456MPD2    N1 6799   4.702   0.764  16.361  0.4612  0.3100 -0.1973
  456MPD2    H7 6800   0.006   0.720  16.273  0.9727  0.5081 -0.1469
  457TMC3    C1 6801   4.425   1.384  16.609  0.6576  0.2381  0.5518
  457TMC3    C2 6802   4.341   1.488  16.602  0.2821 -0.0407 -0.7789
  457TMC3    C3 6803   4.349   1.572  16.709  0.3385 -0.2318 -0.2708
  457TMC3    C4 6804   4.522   1.375  16.708 -0.3673 -0.0335  0.3688
  457TMC3    C5 6805   4.539   1.478  16.797  0.1775 -0.6813  0.3013
  457TMC3    C6 6806   4.439   1.569  16.809  0.4609 -0.0433  0.0576
  457TMC3     C 6807   4.403   1.281  16.507  0.3533  0.8835  0.0340
  457TMC3     O 6808   4.333   1.320  16.417  0.0121 -0.9423 -0.1180
  457TMC3     H 6809   4.258   1.494  16.531  0.3917  0.6887 -0.8499
  457TMC3    H1 6810   4.596   1.295  16.709 -0.7573 -0.3976 -0.4444
  457TMC3    H2 6811   4.446   1.646  16.885 -0.9573 -1.7735  1.9621
  457TMC3    C7 6812   4.627   1.448  16.906  0.6162  0.4527 -0.0377
  457TMC3    C8 6813   4.255   1.676  16.718  0.1731 -0.5827 -0.3575
  457TMC3    O1 6814   4.691   1.347  16.913  0.2807 -0.0098  0.0197
  457TMC3    O2 6815   4.232   1.720  16.829 -0.5048  0.3183  0.0270
  458MPD2     C 6816   2.948   0.173  12.198  0.0703 -0.1297  0.5000
  458MPD2    C1 6817   2.891   0.102  12.304  1.0017  1.0161  0.0550
  458MPD2    C2 6818   2.753   0.099  12.303 -0.1019  0.2653 -0.0556
  458MPD2    C3 6819   2.673   0.169  12.214 -0.6661  0.2741  0.6010
  458MPD2    C4 6820   2.734   0.250  12.116  0.6941 -0.1977 -0.2193
  458MPD2    C5 6821   2.874   0.249  12.108 -0.0151  0.7614  0.7053
  458MPD2     H 6822   2.697   0.038  12.373  0.2449  1.0204  0.8834
  458MPD2    H1 6823   2.698   0.316  12.038  0.9104 -0.3435 -0.4406
  458MPD2    H2 6824   3.056   0.182  12.191  0.1153 -1.3928 -0.3482
  458MPD2    H3 6825   2.930   0.318  12.047  0.3580 -2.7502 -2.9269
  458MPD2     N 6826   2.534   0.170  12.240 -0.1108 -0.6975 -0.5236
  458MPD2    H5 6827   2.505   0.123  12.325 -0.9921  3.4263  1.4209
  458MPD2    N1 6828   2.976   0.032  12.392  0.0486 -0.1585 -0.2351
  458MPD2    H7 6829   3.073   0.025  12.364  0.2905 -3.2387  1.3116
  459TMC3    C1 6830   3.050   4.633  12.584 -0.4718  0.2126  0.1319
  459TMC3    C2 6831   3.181   4.665  12.563 -0.4564  0.3782  0.1006
  459TMC3    C3 6832   3.270   4.625  12.659  0.0809 -0.5082  0.5749
  459TMC3    C4 6833   3.012   4.590  12.705  0.3753  0.0668 -0.0874
  459TMC3    C5 6834   3.100   4.570  12.808 -0.5861  0.2693  0.1814
  459TMC3    C6 6835   3.234   4.568  12.774 -1.2754  0.1865 -0.4403
  459TMC3     C 6836   2.939   4.677  12.497  0.4348 -0.1091 -1.0255
  459TMC3     O 6837   2.824   4.654  12.533 -0.0796 -0.4422 -0.3714
  459TMC3     H 6838   3.214   4.710  12.470  0.6003  2.4248  1.4786
  459TMC3    H1 6839   2.911   4.561  12.732  1.2564 -1.4983  1.5850
  459TMC3    H2 6840   3.302   4.555  12.858 -1.4192  0.0339 -0.3485
  459TMC3    C7 6841   3.053   4.515  12.929  0.3813  0.2905 -0.1181
  459TMC3    C8 6842   3.413   4.624  12.638  0.1042  0.4532 -0.2104
  459TMC3    O1 6843   3.133   4.452  12.996  0.0484  0.0450 -0.4358
  459TMC3    O2 6844   3.481   4.528  12.685 -0.1674  0.0480  0.1900
  460MPD2     C 6845   1.814   1.859  10.679 -0.0928 -0.3875 -0.3538
  460MPD2    C1 6846   1.773   1.990  10.669 -0.1297 -0.0280  0.2528
  460MPD2    C2 6847   1.708   2.040  10.554  1.0754 -0.0719 -0.1313
  460MPD2    C3 6848   1.703   1.954  10.443 -0.0759  0.4369 -0.2003
  460MPD2    C4 6849   1.744   1.828  10.450 -0.6004  0.2145  0.2668
  460MPD2    C5 6850   1.792   1.776  10.570 -0.2374  0.8994 -0.7560
  460MPD2     H 6851   1.683   2.145  10.545 -3.4136 -0.8910  2.5514
  460MPD2    H1 6852   1.740   1.755  10.369 -3.1110  0.3450  0.2724
  460MPD2    H2 6853   1.854   1.830  10.776  2.1566  2.2917 -0.4735
  460MPD2    H3 6854   1.826   1.673  10.570 -1.4763  0.4868  0.8227
  460MPD2     N 6855   1.663   2.019  10.322 -0.5920 -0.5533  0.0517
  460MPD2    H5 6856   1.614   2.108  10.329 -1.5703 -0.9246 -1.9809
  460MPD2    N1 6857   1.791   2.072  10.789 -0.1228  0.0451 -0.0659
  460MPD2    H7 6858   1.836   2.019  10.863 -0.5212  0.2276  0.3052
  461TMC3    C1 6859   1.589   2.024  10.096 -0.0709 -0.6048 -0.4659
  461TMC3    C2 6860   1.527   1.948  10.000 -0.2181 -0.2744 -0.2042
  461TMC3    C3 6861   1.469   2.012   9.891 -0.7253  0.0899 -0.4649
  461TMC3    C4 6862   1.607   2.160  10.084  0.3300 -0.8182 -0.5453
  461TMC3    C5 6863   1.550   2.220   9.975 -0.2606  0.2620 -0.6765
  461TMC3    C6 6864   1.480   2.151   9.880  0.8651  0.4840  0.8422
  461TMC3     C 6865   1.656   1.957  10.202  0.0419 -0.5115 -0.1486
  461TMC3     O 6866   1.692   1.844  10.176 -0.4091  0.0069 -0.0858
  461TMC3     H 6867   1.528   1.840  10.008  2.8445 -0.2534  0.0026
  461TMC3    H1 6868   1.677   2.206  10.154  2.9555 -3.6589 -1.2958
  461TMC3    H2 6869   1.430   2.202   9.799  0.9886  1.8452  1.6234
  461TMC3    C7 6870   1.557   2.358   9.967 -0.1892  0.8229 -0.3795
  461TMC3    C8 6871   1.468   1.941   9.772 -0.2976  0.9947  0.0885
  461TMC3    O1 6872   1.476   2.398   9.886 -0.3906 -0.0719 -0.2314
  461TMC3    O2 6873   1.506   2.003   9.672 -0.2196  0.5109 -0.3780
  462TMC3    C1 6874   1.679   4.054  17.657  0.7320 -0.5828 -0.2481
  462TMC3    C2 6875   1.600   4.041  17.548  0.2537 -0.4069 -0.0919
  462TMC3    C3 6876   1.504   3.950  17.551  0.3572  0.7788 -0.3197
  462TMC3    C4 6877   1.667   3.980   0.084  0.0914  0.2486  0.1220
  462TMC3    C5 6878   1.555   3.897   0.086  0.3431 -0.4034 -0.0082
  462TMC3    C6 6879   1.470   3.883  17.667 -0.1422  0.5440  0.8726
  462TMC3     C 6880   1.741   4.183  17.672 -0.3005 -0.5136  0.5272
  462TMC3     O 6881   1.830   4.188   0.072  0.0264 -0.0532 -0.2816
  462TMC3     H 6882   1.610   4.081  17.448  1.2864 -0.1092  0.1273
  462TMC3    H1 6883   1.722   4.004   0.175  0.3695  2.9212 -0.7669
  462TMC3    H2 6884   1.413   3.790  17.662 -1.2436  1.2877 -0.3593
  462TMC3    C7 6885   1.551   3.790   0.176  0.9057 -0.6512  0.1241
  462TMC3    C8 6886   1.521   3.856  17.449  0.2508  0.3135  0.1585
  462TMC3    O1 6887   1.436   3.755   0.204 -0.3762  0.4465 -0.1685
  462TMC3    O2 6888   1.459   3.877  17.344  0.1267  0.3759  0.2958
  463MPD2     C 6889   2.621   2.375   1.719  0.3729 -0.0287  0.5557
  463MPD2    C1 6890   2.514   2.458   1.701  0.2149  0.7069  0.5147
  463MPD2    C2 6891   2.529   2.585   1.652  0.2417  0.7960  0.3974
  463MPD2    C3 6892   2.653   2.635   1.631 -0.4970 -1.0177  0.2437
  463MPD2    C4 6893   2.767   2.554   1.653 -0.2388 -0.8271  0.0083
  463MPD2    C5 6894   2.749   2.426   1.704  0.5075 -0.1857  0.3889
  463MPD2     H 6895   2.446   2.655   1.654 -1.6252 -1.4225 -0.8249
  463MPD2    H1 6896   2.870   2.582   1.636  0.1467 -1.4497  1.2895
  463MPD2    H2 6897   2.615   2.270   1.746  0.4532  0.0110  0.7291
  463MPD2    H3 6898   2.832   2.358   1.722  0.8149  0.2619  0.6794
  463MPD2     N 6899   2.675   2.764   1.583  0.0625  0.4406 -0.9789
  463MPD2    H5 6900   2.770   2.782   1.552  0.5801 -0.6958 -0.0317
  463MPD2    N1 6901   2.383   2.417   1.733  0.8122  0.1104  0.3620
  463MPD2    H7 6902   2.316   2.486   1.704  0.5329 -0.1690  0.3416
  464TMC3    C1 6903   2.196   2.277   1.762 -0.2228  0.1489 -0.0416
  464TMC3    C2 6904   2.116   2.389   1.752 -0.9067  0.1616  0.5438
  464TMC3    C3 6905   1.990   2.371   1.688  1.0120 -1.0167  0.1570
  464TMC3    C4 6906   2.161   2.149   1.720  0.7605  0.7648 -0.5214
  464TMC3    C5 6907   2.047   2.141   1.647  0.4258  0.5350 -0.5092
  464TMC3    C6 6908   1.961   2.245   1.634  0.3122  0.2279 -0.3794
  464TMC3     C 6909   2.340   2.292   1.777 -0.3590 -0.1586  0.6402
  464TMC3     O 6910   2.406   2.190   1.782 -0.0175 -0.1900  0.3703
  464TMC3     H 6911   2.148   2.489   1.782 -0.5921  0.2211  0.0068
  464TMC3    H1 6912   2.233   2.069   1.703  0.3315 -0.5937  4.0486
  464TMC3    H2 6913   1.869   2.222   1.582  0.0399 -3.9921  1.9624
  464TMC3    C7 6914   2.002   2.009   1.612 -0.4795  1.1412  0.2011
  464TMC3    C8 6915   1.931   2.488   1.631  0.3876  0.6162 -0.0301
  464TMC3    O1 6916   2.065   1.912   1.662  0.2702  0.5699  0.3117
  464TMC3    O2 6917   1.862   2.472   1.534  0.2009 -0.3989 -0.2802
  465MPD2     C 6918   4.263   0.858  16.785  0.5611  0.2380 -0.1103
  465MPD2    C1 6919   4.140   0.863  16.845 -0.0892 -0.0342  0.1145
  465MPD2    C2 6920   4.037   0.904  16.764 -0.6492 -0.1060 -0.0409
  465MPD2    C3 6921   4.049   0.940  16.632  0.1123 -0.1717  0.1230
  465MPD2    C4 6922   4.171   0.922  16.570 -0.0881  0.0470  0.2856
  465MPD2    C5 6923   4.277   0.881  16.647 -0.0064  0.6492  0.2446
  465MPD2     H 6924   3.940   0.900  16.814 -1.2685 -1.3849 -1.3156
  465MPD2    H1 6925   4.217   0.954  16.477  1.3345  0.6481  1.1902
  465MPD2    H2 6926   4.355   0.838  16.839  0.7061  2.1166  0.3298
  465MPD2    H3 6927   4.379   0.872  16.610 -0.2980  0.4156 -0.4996
  465MPD2     N 6928   3.933   0.987  16.565 -0.1566  0.1100  0.2164
  465MPD2    H5 6929   3.846   0.990  16.616  0.3562  2.9026  0.9024
  465MPD2    N1 6930   4.118   0.821  16.977 -0.0836 -0.4589 -0.3397
  465MPD2    H7 6931   4.019   0.833  16.997  0.4903  0.7727  1.6740
  466TMC3    C1 6932   3.574   1.037  16.472 -0.0998 -0.3017 -0.2235
  466TMC3    C2 6933   3.545   1.159  16.405 -0.3684  0.3322 -0.6171
  466TMC3    C3 6934   3.640   1.221  16.333  0.1744 -0.1721  0.3731
  466TMC3    C4 6935   3.700   0.989  16.475  0.3906  0.6685 -0.1046
  466TMC3    C5 6936   3.795   1.057  16.403 -0.3065  0.8739 -0.5001
  466TMC3    C6 6937   3.766   1.166  16.332 -0.7011 -0.5509 -0.4404
  466TMC3     C 6938   3.475   0.977  16.554  0.2606  0.6954 -0.8465
  466TMC3     O 6939   3.511   0.917  16.652  0.3148 -0.2517 -0.5979
  466TMC3     H 6940   3.446   1.198  16.388 -0.2877  0.0632 -1.6932
  466TMC3    H1 6941   3.724   0.900  16.533  0.1259 -1.0963 -2.6711
  466TMC3    H2 6942   3.841   1.210  16.267 -0.5498  1.9169  1.3739
  466TMC3    C7 6943   3.930   1.029  16.436 -0.1510  0.1234 -0.0594
  466TMC3    C8 6944   3.618   1.356  16.290 -0.0993 -0.1401  0.1079
  466TMC3    O1 6945   4.015   1.041  16.347  0.3040  0.4187 -0.2001
  466TMC3    O2 6946   3.672   1.382  16.185  0.1486 -0.1460  0.3245
  467TMC3    C1 6947   0.217   3.828  13.548  0.9030  0.5595  0.3390
  467TMC3    C2 6948   0.205   3.932  13.464  0.3911  0.0552  0.8039
  467TMC3    C3 6949   0.081   4.000  13.455  0.3387 -0.7839 -0.2964
  467TMC3    C4 6950   0.112   3.785  13.624 -0.1609 -0.4039 -0.4299
  467TMC3    C5 6951   4.714   3.856  13.615 -0.6262  0.2369  0.4136
  467TMC3    C6 6952   4.694   3.963  13.531 -0.3251 -0.0736 -0.2133
  467TMC3     C 6953   0.351   3.815  13.593  1.1144 -0.2204 -0.0928
  467TMC3     O 6954   0.375   3.891  13.685 -0.1854  0.1897  0.0312
  467TMC3     H 6955   0.296   3.970  13.419  1.8683 -2.3785  1.7327
  467TMC3    H1 6956   0.121   3.710  13.702  1.5325  1.4434  1.1670
  467TMC3    H2 6957   4.598   4.013  13.523 -0.2003  0.0326 -1.1133
  467TMC3    C7 6958   4.605   3.784  13.671  0.7629 -0.1422 -0.1584
  467TMC3    C8 6959   0.074   4.100  13.350 -0.5188 -0.6568  0.2615
  467TMC3    O1 6960   4.605   3.661  13.677  0.2502 -0.2955 -0.7585
  467TMC3    O2 6961   4.702   4.183  13.349 -0.8311 -0.1502 -0.1558
  468MPD2     C 6962   3.621   2.247  10.674 -0.2688  0.3153  0.2700
  468MPD2    C1 6963   3.755   2.229  10.694 -0.8555 -0.2704  0.0604
  468MPD2    C2 6964   3.800   2.103  10.716  0.2708  0.2200 -0.2772
  468MPD2    C3 6965   3.705   1.995  10.719 -0.2901 -0.4629  0.0486
  468MPD2    C4 6966   3.569   2.027  10.699 -0.2138  0.0163  0.2218
  468MPD2    C5 6967   3.529   2.153  10.687 -0.6600 -0.4849  0.4389
  468MPD2     H 6968   3.907   2.087  10.721  0.1324 -0.5503  0.1271
  468MPD2    H1 6969   3.492   1.951  10.702 -2.1844  1.9722 -0.3206
  468MPD2    H2 6970   3.575   2.344  10.659  2.2778  1.5812  0.5458
  468MPD2    H3 6971   3.423   2.177  10.696 -0.5824  0.3260 -0.8034
  468MPD2     N 6972   3.747   1.859  10.738 -0.4022  0.1574  0.0747
  468MPD2    H5 6973   3.669   1.794  10.738 -0.3428  0.0886  0.3715
  468MPD2    N1 6974   3.854   2.335  10.690  0.7706  0.0335  0.1217
  468MPD2    H7 6975   3.939   2.318  10.742  0.5708 -1.3094  0.0193
  469TMC3    C1 6976   3.935   2.556  10.670  0.4386 -0.0805 -0.2367
  469TMC3    C2 6977   4.059   2.516  10.688  1.1224 -0.6631 -0.1027
  469TMC3    C3 6978   4.152   2.615  10.687 -0.0962  0.2596  0.3815
  469TMC3    C4 6979   3.889   2.686  10.674  0.4431 -0.2177 -0.5985
  469TMC3    C5 6980   3.982   2.784  10.688  0.3366  0.3817  0.6557
  469TMC3    C6 6981   4.117   2.747  10.687  0.0432  0.0945 -0.0031
  469TMC3     C 6982   3.832   2.460  10.647 -0.2444  0.3057  0.4225
  469TMC3     O 6983   3.738   2.501  10.578 -0.0751  0.4008 -0.0208
  469TMC3     H 6984   4.095   2.414  10.678 -0.0578 -1.1447  0.5985
  469TMC3    H1 6985   3.785   2.714  10.659  0.8729 -0.3957 -3.9470
  469TMC3    H2 6986   4.207   2.806  10.674  0.8847 -0.8906  1.4355
  469TMC3    C7 6987   3.941   2.881  10.788  0.7633 -0.2980 -0.3355
  469TMC3    C8 6988   4.258   2.587  10.775 -0.0166 -0.7515 -0.3641
  469TMC3    O1 6989   3.826   2.868  10.827  0.3901 -0.1393 -0.3830
  469TMC3    O2 6990   4.367   2.626  10.740 -0.5513 -0.1520  0.0789
  470TMC3    C1 6991   1.649   3.804   1.185 -0.5609 -0.3443 -0.8220
  470TMC3    C2 6992   1.568   3.910   1.210 -1.0178  0.4198 -0.4870
  470TMC3    C3 6993   1.562   3.952   1.343 -0.4958  0.2008  0.4829
  470TMC3    C4 6994   1.713   3.734   1.288 -0.6798  0.1870 -0.7439
  470TMC3    C5 6995   1.709   3.791   1.413  0.4665 -0.1777 -0.1097
  470TMC3    C6 6996   1.632   3.899   1.443 -0.2170 -0.1900 -0.0724
  470TMC3     C 6997   1.677   3.766   1.042 -0.2086 -0.2728 -0.0555
  470TMC3     O 6998   1.770   3.687   1.026  0.0619  0.0171 -0.1635
  470TMC3     H 6999   1.546   3.983   1.133  1.9691  1.0917 -0.7009
  470TMC3    H1 7000   1.776   3.647   1.269 -0.9319 -0.5944  1.9698
  470TMC3    H2 7001   1.640   3.955   1.535 -0.7242 -1.3937  0.7101
  470TMC3    C7 7002   1.804   3.757   1.517 -0.0158  0.6485 -0.7024
  470TMC3    C8 7003   1.522   4.092   1.361 -0.0580  0.0780  1.2589
  470TMC3    O1 7004   1.902   3.692   1.483 -0.4854 -0.0641  1.1106
  470TMC3    O2 7005   1.568   4.159   1.455 -0.5153  0.1798  0.1200
  471MPD2     C 7006   0.704   0.020  17.071 -0.1469  0.2043  0.2244
  471MPD2    C1 7007   0.744   4.639  16.991  0.3534  0.1748  0.4673
  471MPD2    C2 7008   0.832   4.543  17.035 -0.3944 -0.1688 -0.5599
  471MPD2    C3 7009   0.897   4.558  17.152  0.5154  0.6344 -0.3027
  471MPD2    C4 7010   0.851   4.656  17.240 -0.3363 -0.7573  0.6845
  471MPD2    C5 7011   0.755   0.019  17.197  0.7542  0.6487  0.8686
  471MPD2     H 7012   0.863   4.460  16.973 -0.0862  0.4262 -1.1974
  471MPD2    H1 7013   0.904   4.682  17.330 -2.1103  1.3306  1.1262
  471MPD2    H2 7014   0.639   0.099  17.036 -0.4777  0.4788  1.4446
  471MPD2    H3 7015   0.743   0.115  17.247  2.2982  2.0080 -1.4023
  471MPD2     N 7016   1.005   4.467  17.189 -0.0457 -0.2143  0.2482
  471MPD2    H5 7017   1.044   4.485  17.281  1.9201 -0.1202 -0.6188
  471MPD2    N1 7018   0.709   4.621  16.855 -0.1822 -0.1777 -1.1601
  471MPD2    H7 7019   0.746   4.542  16.803  0.1257 -1.3543  0.8439
  472TMC3    C1 7020   0.646   4.685  16.647  0.4982 -0.5734 -0.4125
  472TMC3    C2 7021   0.528   4.701  16.584 -0.2085 -0.2627 -0.8047
  472TMC3    C3 7022   0.512   4.627  16.476 -0.7081 -0.1555 -0.0126
  472TMC3    C4 7023   0.761   4.616  16.604 -0.8189  0.0251  0.0704
  472TMC3    C5 7024   0.745   4.549  16.485  0.1269  0.2624 -0.0390
  472TMC3    C6 7025   0.623   4.562  16.418 -0.0312 -0.1554  0.6642
  472TMC3     C 7026   0.640   4.717  16.788  0.8218 -0.5341  0.2955
  472TMC3     O 7027   0.600   0.106  16.819  0.5396  0.5314 -0.2113
  472TMC3     H 7028   0.445   0.019  16.642 -0.7779  0.8786 -2.4057
  472TMC3    H1 7029   0.856   4.632  16.653 -0.8161  1.9118 -0.5485
  472TMC3    H2 7030   0.615   4.517  16.319 -0.2001  1.6501 -0.1468
  472TMC3    C7 7031   0.867   4.500  16.431  0.3008 -0.7814  0.2919
  472TMC3    C8 7032   0.384   4.574  16.455 -0.4714  0.3545  0.0806
  472TMC3    O1 7033   0.874   4.513  16.310  0.5829 -0.0849  0.0042
  472TMC3    O2 7034   0.290   4.636  16.503 -0.7428  0.3985 -0.2989
  473MPD2     C 7035   1.408   1.889  13.973 -0.2210  0.4241  0.1077
  473MPD2    C1 7036   1.383   2.013  13.917 -0.9204 -0.2131 -0.6292
  473MPD2    C2 7037   1.462   2.121  13.954 -0.1889 -0.2961 -0.7296
  473MPD2    C3 7038   1.555   2.110  14.058 -0.2627 -0.4434  0.0150
  473MPD2    C4 7039   1.575   1.985  14.110 -0.2758  0.7395  0.7515
  473MPD2    C5 7040   1.502   1.877  14.074  0.0567  0.4279 -1.1917
  473MPD2     H 7041   1.453   2.219  13.908  1.4007  0.7071  1.0843
  473MPD2    H1 7042   1.641   1.974  14.196 -0.3524  1.1621  0.8603
  473MPD2    H2 7043   1.355   1.799  13.943 -1.5510  1.1617  0.2751
  473MPD2    H3 7044   1.513   1.786  14.132 -1.6145  0.0670 -1.4470
  473MPD2     N 7045   1.625   2.215  14.118  0.3903  0.0969 -0.2343
  473MPD2    H5 7046   1.710   2.199  14.171 -0.4784  2.6446  1.8887
  473MPD2    N1 7047   1.295   2.032  13.810  0.3190 -0.1465  0.3243
  473MPD2    H7 7048   1.290   2.121  13.760 -0.9881 -0.3620  0.0718
  474TMC3    C1 7049   1.686   2.426  14.171 -0.2984  0.1771  0.3983
  474TMC3    C2 7050   1.638   2.539  14.232  0.8519 -0.1399  0.5060
  474TMC3    C3 7051   1.702   2.595  14.339  0.6614  0.6790 -0.0994
  474TMC3    C4 7052   1.806   2.375  14.210  0.4006 -0.2450  0.3603
  474TMC3    C5 7053   1.871   2.440  14.311 -0.5369  0.2089 -0.3061
  474TMC3    C6 7054   1.821   2.548  14.378  0.0399 -0.2155 -0.3725
  474TMC3     C 7055   1.593   2.346  14.099  0.6385  0.2859 -0.1408
  474TMC3     O 7056   1.492   2.403  14.056 -0.0126 -0.3002 -0.3267
  474TMC3     H 7057   1.546   2.578  14.190  2.0745 -0.2823 -2.3360
  474TMC3    H1 7058   1.863   2.304  14.150  0.0503  1.7754 -2.3954
  474TMC3    H2 7059   1.887   2.589  14.453 -1.6419  1.9423 -0.0879
  474TMC3    C7 7060   2.016   2.435  14.307 -0.0457 -0.1964  0.3662
  474TMC3    C8 7061   1.656   2.717  14.398  0.1285  0.2987 -0.1462
  474TMC3    O1 7062   2.063   2.435  14.193 -0.1349 -0.4305 -0.1030
  474TMC3    O2 7063   1.696   2.746  14.510  0.1492  0.2390 -0.4198
  475MPD2     C 7064   0.180   4.388  10.004 -0.8736 -0.1205 -0.1774
  475MPD2    C1 7065   0.173   4.513  10.051  0.1348  0.4311  0.7739
  475MPD2    C2 7066   0.049   4.558  10.106  0.4261  0.4767 -0.2310
  475MPD2    C3 7067   4.658   4.477  10.105 -0.5343  0.1365  1.2266
  475MPD2    C4 7068   4.667   4.346  10.064  0.8230 -0.0547 -0.2152
  475MPD2    C5 7069   0.067   4.309  10.005 -0.4455 -0.2605 -0.0139
  475MPD2     H 7070   0.042   4.649  10.164 -0.2640  0.1088  0.2631
  475MPD2    H1 7071   4.586   4.275  10.045  0.7911 -0.3882  1.1562
  475MPD2    H2 7072   0.277   4.350   9.974 -0.9252 -2.0565  2.0764
  475MPD2    H3 7073   0.078   4.203   9.985  2.0603 -0.0321  0.1645
  475MPD2     N 7074   4.539   4.535  10.142 -0.1121 -0.5324  0.0196
  475MPD2    H5 7075   4.538   4.634  10.166  0.3265 -0.1285 -1.6667
  475MPD2    N1 7076   0.287   4.590  10.037 -0.0681 -0.1619 -0.6117
  475MPD2    H7 7077   0.366   4.526  10.039 -0.6163 -0.7891  1.9202
  476TMC3    C1 7078   0.182   0.089  10.008 -0.2321 -0.8496 -0.1325
  476TMC3    C2 7079   0.101   0.037   9.911  0.0256  0.4150  0.2999
  476TMC3    C3 7080   4.704   0.103   9.879 -0.3507  0.3690 -0.2670
  476TMC3    C4 7081   0.142   0.190  10.087 -0.4235  0.0847  0.8961
  476TMC3    C5 7082   0.026   0.248  10.061 -0.4031  0.2902 -0.1510
  476TMC3    C6 7083   4.673   0.211   9.955 -0.3694 -0.9216  0.0849
  476TMC3     C 7084   0.297   0.005  10.050  0.1446 -0.1829 -0.3109
  476TMC3     O 7085   0.398   0.069  10.071 -0.5516  0.6116 -0.0510
  476TMC3     H 7086   0.144   4.670   9.865 -1.8333 -0.1462 -0.3350
  476TMC3    H1 7087   0.194   0.226  10.175 -0.5108  2.1521  0.1075
  476TMC3    H2 7088   4.575   0.255   9.943  0.2005  0.0525 -0.9665
  476TMC3    C7 7089   4.678   0.310  10.177 -0.5125  0.6194  0.5974
  476TMC3    C8 7090   4.594   0.038   9.836  0.1116  0.6089 -0.5993
  476TMC3    O1 7091   4.580   0.252  10.220  0.2664  0.2745  0.4107
  476TMC3    O2 7092   4.493   0.105   9.822  0.0754  0.2230  0.5995
  477MPD2     C 7093   2.354   1.402  11.344 -0.2498  0.4083  0.8552
  477MPD2    C1 7094   2.305   1.479  11.449 -0.2042 -0.5389 -0.4090
  477MPD2    C2 7095   2.317   1.421  11.573 -0.2663  0.6205  0.3982
  477MPD2    C3 7096   2.380   1.302  11.591 -0.0415  0.0253  0.5601
  477MPD2    C4 7097   2.438   1.233  11.488 -0.3737  0.5701  0.5206
  477MPD2    C5 7098   2.428   1.287  11.364  1.2612  0.0890 -0.3439
  477MPD2     H 7099   2.282   1.469  11.664 -1.9957 -1.0345  0.6239
  477MPD2    H1 7100   2.480   1.133  11.496 -1.3177  0.4495  3.9328
  477MPD2    H2 7101   2.350   1.437  11.241 -1.0788 -0.4302  0.6109
  477MPD2    H3 7102   2.472   1.239  11.277 -0.3259 -0.7936 -0.6602
  477MPD2     N 7103   2.399   1.246  11.718  0.6281 -0.1857  0.9827
  477MPD2    H5 7104   2.443   1.154  11.723  1.5743  0.0857 -2.2595
  477MPD2    N1 7105   2.240   1.600  11.420 -0.2751  0.1782  1.0299
  477MPD2    H7 7106   2.231   1.622  11.322 -1.1909  0.4540  1.1736
  478TMC3    C1 7107   2.093   1.788  11.455  0.5473  1.2185 -0.2980
  478TMC3    C2 7108   2.042   1.870  11.547  0.0681 -0.2918 -0.0359
  478TMC3    C3 7109   1.926   1.938  11.521 -0.5904 -0.1986 -0.5787
  478TMC3    C4 7110   2.019   1.745  11.352 -0.4409  0.1727 -0.1308
  478TMC3    C5 7111   1.895   1.815  11.331 -0.5400  0.1102 -0.6970
  478TMC3    C6 7112   1.848   1.913  11.411  0.2854 -0.3345 -0.2925
  478TMC3     C 7113   2.187   1.688  11.510 -0.0764  0.2312  0.0043
  478TMC3     O 7114   2.213   1.686  11.630  0.6987 -0.2345 -0.4893
  478TMC3     H 7115   2.095   1.897  11.638 -1.2504  0.3390  0.5461
  478TMC3    H1 7116   2.052   1.672  11.279 -2.5838 -1.7063  0.7738
  478TMC3    H2 7117   1.751   1.961  11.401  1.2637  1.3477 -1.8914
  478TMC3    C7 7118   1.806   1.737  11.243  0.8603  0.6097  0.2781
  478TMC3    C8 7119   1.893   2.037  11.623 -0.0944 -0.9213  0.5215
  478TMC3    O1 7120   1.817   1.619  11.250 -0.7387 -0.1354  0.0812
  478TMC3    O2 7121   1.925   2.008  11.737  0.2100 -0.3666  0.8981
  479MPD2     C 7122   1.417   4.044  15.249 -0.2429 -0.0234  0.2962
  479MPD2    C1 7123   1.348   4.037  15.372 -0.4078  0.3736 -0.0167
  479MPD2    C2 7124   1.421   4.060  15.485 -0.4074  0.1360 -0.5710
  479MPD2    C3 7125   1.545   4.111  15.489  0.3134  1.0033 -0.1669
  479MPD2    C4 7126   1.606   4.139  15.366  0.3054  0.8960 -0.0533
  479MPD2    C5 7127   1.544   4.104  15.248  0.1529 -0.0561 -0.5669
  479MPD2     H 7128   1.372   4.051  15.581  0.8533  1.6765  0.2255
  479MPD2    H1 7129   1.704   4.186  15.364 -0.5032  2.5300 -0.9061
  479MPD2    H2 7130   1.357   4.030  15.160 -0.7065 -2.3405  0.9932
  479MPD2    H3 7131   1.590   4.129  15.153  0.1091 -1.1627 -0.8818
  479MPD2     N 7132   1.610   4.167  15.603 -0.7077 -0.9555 -0.0825
  479MPD2    H5 7133   1.708   4.187  15.585 -1.2205  0.4330 -1.4477
  479MPD2    N1 7134   1.208   4.010  15.375 -0.4692 -0.1758  0.4903
  479MPD2    H7 7135   1.172   3.985  15.283 -2.2884 -0.6086  1.3291
  480TMC3    C1 7136   1.245   4.172  15.908  0.7781 -0.2026  0.3645
  480TMC3    C2 7137   1.162   4.249  15.827 -0.3288 -0.1262 -0.3921
  480TMC3    C3 7138   1.215   4.294  15.709 -0.1726  0.5097  0.9706
  480TMC3    C4 7139   1.376   4.153  15.875 -0.0837 -0.0037  0.2452
  480TMC3    C5 7140   1.425   4.205  15.755 -0.0425  0.2378  0.6665
  480TMC3    C6 7141   1.348   4.289  15.679  0.3501  0.9255 -1.0046
  480TMC3     C 7142   1.186   4.058  15.979  0.6530 -0.2422 -0.4548
  480TMC3     O 7143   1.233   3.949  15.950 -0.1841  0.3915  0.0170
  480TMC3     H 7144   1.055   4.247  15.845 -0.4283  2.3718 -0.7993
  480TMC3    H1 7145   1.443   4.102  15.943  0.8168 -1.8785 -2.0526
  480TMC3    H2 7146   1.385   4.331  15.586 -1.1315  4.3924 -0.0321
  480TMC3    C7 7147   1.571   4.186  15.735 -0.0506 -0.2083  0.8198
  480TMC3    C8 7148   1.112   4.342  15.618 -0.5443  0.8983 -0.4866
  480TMC3    O1 7149   1.640   4.182  15.833  1.1986 -0.7516  0.6417
  480TMC3    O2 7150   0.996   4.342  15.666 -0.3045 -0.0343  0.4447
  481MPD2     C 7151   2.617   3.379  13.704  0.6225  0.3453  0.0581
  481MPD2    C1 7152   2.568   3.271  13.774  0.1574  1.0545  0.3078
  481MPD2    C2 7153   2.611   3.249  13.901  0.4910 -0.2409 -0.7725
  481MPD2    C3 7154   2.698   3.334  13.961  0.0636 -0.5143  0.2803
  481MPD2    C4 7155   2.758   3.431  13.882 -0.1817  0.1866  0.2134
  481MPD2    C5 7156   2.722   3.454  13.751 -0.4334 -0.5320  0.5482
  481MPD2     H 7157   2.574   3.161  13.952 -2.1351  1.3601  0.1095
  481MPD2    H1 7158   2.836   3.494  13.923  0.5318 -0.2114 -0.5116
  481MPD2    H2 7159   2.586   3.402  13.603 -2.0856  0.0244  0.8191
  481MPD2    H3 7160   2.753   3.540  13.692 -0.4888 -0.9017 -0.0151
  481MPD2     N 7161   2.747   3.322  14.092 -1.0018  0.1339  0.0514
  481MPD2    H5 7162   2.820   3.387  14.119  1.2501 -2.8245  1.2000
  481MPD2    N1 7163   2.468   3.193  13.703 -0.1719  0.0447  0.4153
  481MPD2    H7 7164   2.425   3.233  13.620 -0.0062 -2.1848 -0.7278
  482TMC3    C1 7165   2.304   3.030  13.661  0.0411  0.0361  0.2369
  482TMC3    C2 7166   2.277   2.902  13.652  0.1536  0.1548  0.1086
  482TMC3    C3 7167   2.177   2.857  13.576 -0.2334  0.8746 -0.0307
  482TMC3    C4 7168   2.205   3.123  13.626  0.1286 -0.2856  0.3561
  482TMC3    C5 7169   2.100   3.074  13.552  0.4305  0.7987  0.5724
  482TMC3    C6 7170   2.085   2.945  13.528 -0.4310  0.1908 -0.4059
  482TMC3     C 7171   2.416   3.071  13.743 -0.7031  0.3710  0.3219
  482TMC3     O 7172   2.463   2.983  13.819 -0.0172  0.5435  0.5056
  482TMC3     H 7173   2.329   2.826  13.709  2.3297  0.4682 -1.4174
  482TMC3    H1 7174   2.216   3.222  13.671  0.8431  1.1657 -3.0199
  482TMC3    H2 7175   1.998   2.917  13.470 -0.9384  0.0928  0.4049
  482TMC3    C7 7176   2.034   3.156  13.454  0.8275 -0.8259 -0.1053
  482TMC3    C8 7177   2.158   2.719  13.560 -0.2282  0.2519  0.5272
  482TMC3    O1 7178   1.941   3.114  13.390  0.2375 -0.5727  0.0315
  482TMC3    O2 7179   2.251   2.644  13.579 -0.3879  0.0431 -1.2204
  483TMC3    C1 7180   0.584   2.651   1.055  0.3759  0.2967  0.9166
  483TMC3    C2 7181   0.617   2.783   1.048  0.1875 -0.6262 -0.3301
  483TMC3    C3 7182   0.754   2.813   1.056  0.4223  0.3864  0.7045
  483TMC3    C4 7183   0.667   2.546   1.073  0.3701 -0.8548 -0.3281
  483TMC3    C5 7184   0.802   2.582   1.096  0.1059  0.2596  0.4205
  483TMC3    C6 7185   0.843   2.712   1.083  0.2092 -0.4078  0.9705
  483TMC3     C 7186   0.444   2.613   1.049  0.1343 -0.1329  0.2619
  483TMC3     O 7187   0.361   2.685   1.105 -0.1191 -0.2795  0.7836
  483TMC3     H 7188   0.547   2.859   1.016  2.5065  1.0341 -1.4633
  483TMC3    H1 7189   0.624   2.451   1.103 -0.2818 -0.1193  1.0393
  483TMC3    H2 7190   0.949   2.736   1.076  0.0889 -0.5453 -1.2629
  483TMC3    C7 7191   0.911   2.476   1.090  0.1067  0.3091 -0.5984
  483TMC3    C8 7192   0.801   2.919   0.976 -0.0457  0.0450  0.3630
  483TMC3    O1 7193   1.022   2.502   1.133  0.2613  0.0530  0.3402
  483TMC3    O2 7194   0.923   2.914   0.947 -0.0730 -0.2248 -0.0876
  484MPD2     C 7195   3.634   0.160  12.520  0.2841  0.3499  0.2297
  484MPD2    C1 7196   3.595   0.034  12.535 -0.2113  0.5163 -0.1152
  484MPD2    C2 7197   3.681   4.645  12.500  0.2705 -0.1130  0.1523
  484MPD2    C3 7198   3.813   4.672  12.478  0.4960 -0.4785 -0.8244
  484MPD2    C4 7199   3.850   0.082  12.463  0.5555  0.2274 -0.4597
  484MPD2    C5 7200   3.761   0.186  12.479 -0.0522  0.7196  0.4515
  484MPD2     H 7201   3.639   4.545  12.501  0.9171 -0.3731  1.8914
  484MPD2    H1 7202   3.955   0.108  12.452  0.3590  1.4683  0.6018
  484MPD2    H2 7203   3.563   0.238  12.542 -2.2142 -1.9158  0.1988
  484MPD2    H3 7204   3.792   0.289  12.466 -2.9817  1.3071 -1.6566
  484MPD2     N 7205   3.915   4.573  12.465 -0.5022 -0.7131 -0.3758
  484MPD2    H5 7206   4.008   4.612  12.449 -2.5501  3.5405 -2.1374
  484MPD2    N1 7207   3.456   0.015  12.569  0.1672  0.0759  0.2572
  484MPD2    H7 7208   3.391   0.093  12.563  0.3413  0.3199  1.5043
  485TMC3    C1 7209   4.002   4.350  12.444 -0.0618 -0.5350  0.7188
  485TMC3    C2 7210   3.967   4.230  12.402 -0.0874  0.8184 -0.2129
  485TMC3    C3 7211   4.072   4.142  12.389  0.8336  0.7683  0.1998
  485TMC3    C4 7212   4.127   4.386  12.482 -0.5772  0.3378  0.3593
  485TMC3    C5 7213   4.229   4.296  12.478 -0.1426 -0.1240  0.1400
  485TMC3    C6 7214   4.198   4.175  12.433 -0.2013 -0.2808 -0.3170
  485TMC3     C 7215   3.887   4.442  12.460 -0.0319 -0.1364 -0.7797
  485TMC3     O 7216   3.780   4.388  12.440 -0.1779  0.0143 -0.1020
  485TMC3     H 7217   3.872   4.188  12.372 -0.7593  1.1047  1.5310
  485TMC3    H1 7218   4.151   4.489  12.505 -1.0823  0.5743 -0.1486
  485TMC3    H2 7219   4.277   4.101  12.429 -0.6625 -0.6710 -2.2805
  485TMC3    C7 7220   4.351   4.340  12.417 -0.5508  0.7902 -0.4645
  485TMC3    C8 7221   4.072   4.076  12.258 -0.3520  0.6118  0.2498
  485TMC3    O1 7222   4.380   4.278  12.314  0.0755  0.7701 -0.0042
  485TMC3    O2 7223   3.968   4.019  12.219 -0.2009  0.1454  0.9023
  486MPD2     C 7224   0.843   3.894  12.859  0.5127  0.6053  0.1360
  486MPD2    C1 7225   0.725   3.877  12.781  0.0972  0.0222  0.1671
  486MPD2    C2 7226   0.658   3.995  12.747 -0.5069 -0.0457  0.5856
  486MPD2    C3 7227   0.705   4.122  12.775 -0.0352 -0.0476 -0.3670
  486MPD2    C4 7228   0.817   4.140  12.856 -0.4032  0.1459 -0.0313
  486MPD2    C5 7229   0.886   4.024  12.892  0.6742  0.5224 -0.0803
  486MPD2     H 7230   0.572   3.987  12.681 -0.2387 -0.2528  0.2592
  486MPD2    H1 7231   0.857   4.236  12.887 -0.6352 -0.5346  2.3858
  486MPD2    H2 7232   0.905   3.810  12.888 -1.9559 -1.0535  0.5836
  486MPD2    H3 7233   0.975   4.038  12.952 -0.9472 -1.0952  2.6768
  486MPD2     N 7234   0.629   4.228  12.717  0.3112  0.8685 -0.6947
  486MPD2    H5 7235   0.552   4.196  12.658  0.1242 -1.2028  0.6727
  486MPD2    N1 7236   0.686   3.739  12.751  0.4552  0.2734 -0.1028
  486MPD2    H7 7237   0.751   3.668  12.785  0.7151  1.2275  1.4261
  487TMC3    C1 7238   0.557   3.558  12.688 -0.7889  0.1491 -0.2508
  487TMC3    C2 7239   0.443   3.531  12.614  0.0480 -0.2295  0.2522
  487TMC3    C3 7240   0.359   3.426  12.658 -0.6588  0.5294 -0.3054
  487TMC3    C4 7241   0.582   3.497  12.804 -0.2388  0.7613 -0.4011
  487TMC3    C5 7242   0.511   3.376  12.835 -0.2492  0.3383  0.5657
  487TMC3    C6 7243   0.402   3.346  12.761 -1.0715  0.2967 -0.0957
  487TMC3     C 7244   0.571   3.704  12.686  0.3160  1.3711 -0.0692
  487TMC3     O 7245   0.473   3.775  12.659 -0.6854 -0.2877  0.6290
  487TMC3     H 7246   0.413   3.594  12.532  0.3516 -0.8450 -0.3302
  487TMC3    H1 7247   0.665   3.531  12.864 -0.4849  0.6408  0.0070
  487TMC3    H2 7248   0.364   3.244  12.762 -0.9484  0.2697  3.3414
  487TMC3    C7 7249   0.505   3.350  12.978 -1.2019 -0.3641 -0.2454
  487TMC3    C8 7250   0.222   3.474  12.668  0.1004 -0.8175 -0.2726
  487TMC3    O1 7251   0.580   3.404  13.055 -0.1576 -0.1601  0.0534
  487TMC3    O2 7252   0.194   3.566  12.590 -0.2752  0.5639  0.1415
  488MPD2     C 7253   0.738   1.299  16.523  0.6287  0.0011  0.1675
  488MPD2    C1 7254   0.730   1.437  16.511  0.7442 -0.1789 -0.4346
  488MPD2    C2 7255   0.682   1.502  16.619  0.0224  0.0196 -1.0144
  488MPD2    C3 7256   0.629   1.441  16.737  0.0653 -0.3585  0.1632
  488MPD2    C4 7257   0.638   1.302  16.742 -0.0168  0.0745 -0.1639
  488MPD2    C5 7258   0.703   1.237  16.636 -0.2725  0.0834  0.3362
  488MPD2     H 7259   0.681   1.610  16.609  0.6927  0.0925 -0.2585
  488MPD2    H1 7260   0.601   1.234  16.818 -0.0869  1.1439  0.7574
  488MPD2    H2 7261   0.764   1.239  16.436 -2.1351 -1.8378  0.5942
  488MPD2    H3 7262   0.702   1.129  16.647 -1.1385  0.2335  1.5995
  488MPD2     N 7263   0.569   1.526  16.837 -0.1484  0.0211  0.5140
  488MPD2    H5 7264   0.573   1.627  16.829 -0.1400  0.2960  3.9458
  488MPD2    N1 7265   0.773   1.511  16.399  0.4669 -0.9070 -0.5653
  488MPD2    H7 7266   0.759   1.611  16.410 -1.3654 -1.1385 -0.7346
  489TMC3    C1 7267   0.496   1.584  17.037 -0.0500 -0.4726 -1.0842
  489TMC3    C2 7268   0.501   1.707  16.987 -0.8096 -1.0904 -0.3336
  489TMC3    C3 7269   0.538   1.807  17.068  0.2833 -0.1830 -0.9738
  489TMC3    C4 7270   0.541   1.550  17.163 -0.8030  0.1599  0.5678
  489TMC3    C5 7271   0.591   1.652  17.246  0.1686  0.3869  0.3827
  489TMC3    C6 7272   0.595   1.778  17.187 -0.8228  0.0993 -0.7867
  489TMC3     C 7273   0.521   1.472  16.950 -0.6362 -0.5678 -0.1170
  489TMC3     O 7274   0.543   1.363  17.002  0.4621 -0.4804  0.3461
  489TMC3     H 7275   0.465   1.732  16.888  0.0349 -3.4042 -1.2238
  489TMC3    H1 7276   0.518   1.452  17.202  0.1721 -1.0826 -1.9325
  489TMC3    H2 7277   0.646   1.855  17.244 -0.8495 -0.8519  0.5406
  489TMC3    C7 7278   0.628   1.619  17.374  0.2287  0.2112  0.1632
  489TMC3    C8 7279   0.582   1.934  16.995  0.1172  0.1655  0.1115
  489TMC3    O1 7280   0.666   1.503  17.389  0.5766 -0.1938 -0.3216
  489TMC3    O2 7281   0.601   1.931  16.872  0.5280 -0.7165  0.3107
  490MPD2     C 7282   1.772   0.215  17.056  0.8153 -0.1479  0.7392
  490MPD2    C1 7283   1.664   0.293  17.102  0.0663  0.5699 -0.6985
  490MPD2    C2 7284   1.689   0.427  17.123  0.3770 -0.8292 -0.1426
  490MPD2    C3 7285   1.811   0.485  17.073 -0.4321 -0.0650  0.0847
  490MPD2    C4 7286   1.904   0.415  17.006 -0.0957  0.6279  0.3097
  490MPD2    C5 7287   1.888   0.282  17.003  0.6399 -0.3559 -0.0665
  490MPD2     H 7288   1.620   0.497  17.167  0.0907 -0.7605 -0.6997
  490MPD2    H1 7289   1.989   0.458  16.954  0.3657  0.4431  0.9170
  490MPD2    H2 7290   1.781   0.110  17.081  0.7355  0.0990  1.8079
  490MPD2    H3 7291   1.972   0.229  16.959  0.2324 -1.0591  0.0016
  490MPD2     N 7292   1.832   0.624  17.070  0.1762  0.2860 -0.3199
  490MPD2    H5 7293   1.915   0.647  17.018 -0.5439  1.8132 -0.7872
  490MPD2    N1 7294   1.547   0.235  17.150  0.4742  0.2946  0.1753
  490MPD2    H7 7295   1.477   0.299  17.185 -1.1691 -0.1299 -2.3092
  491TMC3    C1 7296   1.397   0.076  17.215  0.2972  0.4910 -0.4312
  491TMC3    C2 7297   1.396   0.018  17.343  0.2443  0.5013 -0.5387
  491TMC3    C3 7298   1.282   0.035  17.413  0.0040  0.1489 -0.4253
  491TMC3    C4 7299   1.292   0.143  17.164 -0.0774 -0.5427 -0.1207
  491TMC3    C5 7300   1.187   0.166  17.249  0.1390  0.0125  0.3086
  491TMC3    C6 7301   1.177   0.109  17.370  0.6804  0.3649 -0.3829
  491TMC3     C 7302   1.528   0.097  17.171  0.2588 -0.0206  1.2811
  491TMC3     O 7303   1.603   0.003  17.165  0.0358  0.3921 -0.0023
  491TMC3     H 7304   1.492   4.703  17.379  0.4354 -0.6414 -2.1804
  491TMC3    H1 7305   1.290   0.176  17.061 -0.5608  1.5550  0.5583
  491TMC3    H2 7306   1.086   0.127  17.426  0.8315 -1.7086  0.5490
  491TMC3    C7 7307   1.070   0.247  17.200  0.4954  0.5016 -0.0839
  491TMC3    C8 7308   1.308   0.069  17.558 -1.3109  0.0780  0.3531
  491TMC3    O1 7309   1.015   0.202  17.101 -0.2219  0.3340  0.3485
  491TMC3    O2 7310   1.226   0.136  17.621  0.0050 -0.8398  0.6466
  492MPD2     C 7311   1.877   0.320  11.350  0.0291  0.1396  0.2616
  492MPD2    C1 7312   1.798   0.224  11.297 -0.0218  0.4620  0.2309
  492MPD2    C2 7313   1.707   0.157  11.382 -0.1293  0.1063 -0.1182
  492MPD2    C3 7314   1.699   0.183  11.517  0.1148 -0.2939 -0.5326
  492MPD2    C4 7315   1.775   0.288  11.565  0.1196  1.2779  0.2207
  492MPD2    C5 7316   1.861   0.351  11.482  0.8361  0.2420 -0.2270
  492MPD2     H 7317   1.651   0.073  11.340 -3.4058  0.6758  3.1051
  492MPD2    H1 7318   1.769   0.332  11.664 -0.0613  0.5938  0.5188
  492MPD2    H2 7319   1.936   0.377  11.279 -1.4086  2.2253  0.7421
  492MPD2    H3 7320   1.921   0.432  11.521  1.7145  0.6813 -2.4642
  492MPD2     N 7321   1.610   0.116  11.611  0.3811 -0.0161 -0.5400
  492MPD2    H5 7322   1.595   0.152  11.704  1.6120 -1.2159  0.1273
  492MPD2    N1 7323   1.814   0.197  11.162 -0.2262  0.0791  0.6852
  492MPD2    H7 7324   1.896   0.240  11.121  0.9882 -2.8459  0.0616
  493TMC3    C1 7325   1.800   0.083  10.955 -0.6014  0.6846  0.3251
  493TMC3    C2 7326   1.941   0.083  10.948  0.8185  0.2557 -0.3260
  493TMC3    C3 7327   1.987   0.037  10.832 -0.1125  0.1163  0.3546
  493TMC3    C4 7328   1.717   0.021  10.867 -0.4942  0.1787  0.1020
  493TMC3    C5 7329   1.777   4.684  10.762  0.2416 -0.5415  0.3607
  493TMC3    C6 7330   1.909   4.703  10.737 -0.1502 -0.8521 -1.0860
  493TMC3     C 7331   1.742   0.109  11.084  0.0877  0.0599 -0.0560
  493TMC3     O 7332   1.636   0.050  11.108 -0.2562 -0.4823 -0.2367
  493TMC3     H 7333   2.000   0.120  11.032  0.1957  1.0097 -0.2163
  493TMC3    H1 7334   1.610   0.023  10.883 -0.6257 -1.1549 -0.5997
  493TMC3    H2 7335   1.946   4.652  10.649  1.7246 -1.8393  0.2708
  493TMC3    C7 7336   1.697   4.594  10.676  0.7456  0.1069  0.5630
  493TMC3    C8 7337   2.122   4.715  10.832 -0.2784  0.2071  0.3925
  493TMC3    O1 7338   1.699   4.606  10.554  0.3527  0.6165  0.2958
  493TMC3    O2 7339   2.166   4.687  10.945 -0.3286 -0.3550 -0.0564
  494TMC3    C1 7340   2.256   2.608   0.643  0.4052  0.3960 -0.0940
  494TMC3    C2 7341   2.249   2.473   0.656 -0.9090 -0.2038  0.2639
  494TMC3    C3 7342   2.356   2.401   0.603  0.7782 -0.1709  0.4012
  494TMC3    C4 7343   2.362   2.670   0.575  0.6096  0.1244 -0.2754
  494TMC3    C5 7344   2.463   2.593   0.526 -0.3907  0.3457  0.0214
  494TMC3    C6 7345   2.460   2.459   0.537 -0.4950  0.3780  0.8746
  494TMC3     C 7346   2.138   2.693   0.672 -0.0181  0.3417 -0.3916
  494TMC3     O 7347   2.050   2.654   0.744 -0.6103 -0.5674  0.1537
  494TMC3     H 7348   2.166   2.437   0.715  0.5744 -4.7201 -0.3943
  494TMC3    H1 7349   2.378   2.777   0.582 -1.2843  0.4141 -0.4235
  494TMC3    H2 7350   2.541   2.393   0.510 -2.4243 -1.8661  0.5898
  494TMC3    C7 7351   2.504   2.626   0.394  0.2985  0.4693 -0.3461
  494TMC3    C8 7352   2.316   2.278   0.546  0.3166 -0.0949  0.9314
  494TMC3    O1 7353   2.506   2.535   0.320  0.1429  0.2443  0.2813
  494TMC3    O2 7354   2.233   2.218   0.612  0.1067  0.7904 -0.0696
  495TMC3    C1 7355   1.452   4.263  14.672 -0.0162 -0.4016  0.0534
  495TMC3    C2 7356   1.372   4.326  14.583 -0.7925 -0.3929  1.1434
  495TMC3    C3 7357   1.249   4.374  14.623 -0.4342 -0.5253 -0.2745
  495TMC3    C4 7358   1.426   4.275  14.806 -0.9629  0.0609 -0.0921
  495TMC3    C5 7359   1.313   4.340  14.840  0.8430  0.4112 -0.6620
  495TMC3    C6 7360   1.224   4.394  14.758 -0.5962  0.5861 -0.0054
  495TMC3     C 7361   1.457   4.124  14.639  0.0629 -0.7811  0.4040
  495TMC3     O 7362   1.397   4.046  14.715  0.3842  0.8709  0.2741
  495TMC3     H 7363   1.408   4.333  14.481  0.0812  1.4130  1.5775
  495TMC3    H1 7364   1.472   4.205  14.875 -1.8336 -3.6161 -3.2642
  495TMC3    H2 7365   1.138   4.455  14.782 -0.5203 -0.4124  2.8329
  495TMC3    C7 7366   1.288   4.358  14.983  0.3940  0.3915  0.4978
  495TMC3    C8 7367   1.132   4.320  14.548 -0.7542 -0.3270 -0.6473
  495TMC3    O1 7368   1.384   4.368  15.061 -0.8540  0.1679  0.1994
  495TMC3    O2 7369   1.033   4.307  14.620  0.2102 -0.2671 -0.7383
  496MPD2     C 7370   3.469   4.207  15.745 -0.3517 -0.5497 -1.0838
  496MPD2    C1 7371   3.419   4.110  15.664  0.1343 -0.0263  0.3657
  496MPD2    C2 7372   3.290   4.064  15.682 -1.1871  0.6393  0.4994
  496MPD2    C3 7373   3.215   4.124  15.780  0.7654 -0.7102 -0.2333
  496MPD2    C4 7374   3.275   4.213  15.862  0.0652  0.4628  0.4666
  496MPD2    C5 7375   3.406   4.247  15.854 -0.2764 -0.4435  0.0476
  496MPD2     H 7376   3.251   3.995  15.608 -1.2734  1.3332 -0.1034
  496MPD2    H1 7377   3.223   4.260  15.945  0.7617 -0.6250  1.5101
  496MPD2    H2 7378   3.576   4.227  15.740 -0.3870 -0.9943 -3.5447
  496MPD2    H3 7379   3.462   4.308  15.924 -0.1821 -0.3712 -0.0894
  496MPD2     N 7380   3.084   4.093  15.807  0.2907 -0.0175 -0.1989
  496MPD2    H5 7381   3.046   4.128  15.895  0.4838  0.1913 -0.1979
  496MPD2    N1 7382   3.492   4.039  15.568 -0.2747  0.0800 -0.4677
  496MPD2    H7 7383   3.452   3.953  15.531 -0.3536 -0.3684  0.6540
  497TMC3    C1 7384   2.871   3.989  15.793  0.1639 -0.1859 -0.5032
  497TMC3    C2 7385   2.772   3.959  15.709 -0.2754  0.1184 -0.1153
  497TMC3    C3 7386   2.649   3.918  15.760 -0.1612 -0.3438  0.0956
  497TMC3    C4 7387   2.856   3.982  15.933 -0.5539 -0.0859  0.9283
  497TMC3    C5 7388   2.734   3.939  15.973  0.1882  0.3239  0.3244
  497TMC3    C6 7389   2.628   3.911  15.893  0.4068 -0.3786  0.0933
  497TMC3     C 7390   3.000   4.016  15.725  0.1541 -0.1853 -0.3658
  497TMC3     O 7391   3.009   4.016  15.604  0.5468  0.5548 -0.6381
  497TMC3     H 7392   2.798   3.946  15.605  0.7562 -1.3432  0.3258
  497TMC3    H1 7393   2.943   3.996  15.997  0.5899  0.8510 -0.8409
  497TMC3    H2 7394   2.534   3.888  15.942  0.1467  1.4402  0.4268
  497TMC3    C7 7395   2.713   3.938  16.118  0.2792 -0.0136  0.2250
  497TMC3    C8 7396   2.529   3.929  15.678  0.5245  0.0331  0.0541
  497TMC3    O1 7397   2.608   3.883  16.150  0.2612  0.3649  0.6037
  497TMC3    O2 7398   2.418   3.950  15.726 -0.4447  0.0537  0.0795
  498MPD2     C 7399   4.655   4.341   9.099  0.5331  0.1283 -1.1889
  498MPD2    C1 7400   4.573   4.388   9.200  0.7199  0.4049 -0.3946
  498MPD2    C2 7401   4.495   4.304   9.265  0.5095  0.1257  0.0653
  498MPD2    C3 7402   4.492   4.169   9.227  0.1186  0.1623  0.5880
  498MPD2    C4 7403   4.582   4.122   9.132  0.7336  0.1515 -0.3669
  498MPD2    C5 7404   4.664   4.207   9.073  0.3845  0.0178 -0.1070
  498MPD2     H 7405   4.426   4.338   9.342  0.9774  0.1285  0.4815
  498MPD2    H1 7406   4.591   4.024   9.087 -0.9053  0.7378 -1.9761
  498MPD2    H2 7407   0.004   4.407   9.049 -0.0368  0.3938 -1.6425
  498MPD2    H3 7408   0.017   4.173   9.002  0.1383 -0.9130  0.0843
  498MPD2     N 7409   4.394   4.082   9.282  0.8326  0.2674  0.3547
  498MPD2    H5 7410   4.317   4.123   9.334 -0.2430 -0.3969 -0.7214
  498MPD2    N1 7411   4.570   4.525   9.234  0.7824  0.2343 -0.2314
  498MPD2    H7 7412   4.517   4.547   9.318  1.8871 -0.0739  0.5498
  499TMC3    C1 7413   4.613   0.035   9.223 -0.1387  0.0714 -0.6901
  499TMC3    C2 7414   4.656   0.023   9.353  0.1197 -0.0301  0.4109
  499TMC3    C3 7415   4.715   0.133   9.416  0.0587 -0.2784 -0.2067
  499TMC3    C4 7416   4.624   0.157   9.158 -0.0765  0.6537 -0.0703
  499TMC3    C5 7417   4.684   0.261   9.221 -0.2724  0.0176  0.4731
  499TMC3    C6 7418   0.003   0.252   9.350 -0.0122  0.1437  0.1176
  499TMC3     C 7419   4.608   4.632   9.153  0.9209  0.0745 -0.4660
  499TMC3     O 7420   4.644   4.624   9.037 -0.9701  0.5883  0.5832
  499TMC3     H 7421   4.661   4.646   9.399 -1.1935  0.3575  1.3973
  499TMC3    H1 7422   4.603   0.167   9.053 -1.4778  2.0562  0.3515
  499TMC3    H2 7423   0.052   0.340   9.390 -1.0832  0.3324  1.0271
  499TMC3    C7 7424   4.667   0.398   9.171 -0.1596 -0.3965 -0.0127
  499TMC3    C8 7425   0.107   0.102   9.499  0.1406 -0.2313  0.8734
  499TMC3    O1 7426   0.024   0.476   9.216  0.6066 -0.7765 -0.7349
  499TMC3    O2 7427   0.139   4.705   9.510 -0.3203  0.0434 -0.0721
  500MPD2     C 7428   1.160   0.735  10.279 -0.3546 -0.0271 -0.1632
  500MPD2    C1 7429   1.185   0.835  10.181 -0.0339 -0.3688 -0.6381
  500MPD2    C2 7430   1.135   0.807  10.054  0.1566 -0.3192 -0.3131
  500MPD2    C3 7431   1.055   0.699  10.023  0.3701  0.0384 -0.0093
  500MPD2    C4 7432   1.043   0.602  10.114  0.5335  0.5697  0.1752
  500MPD2    C5 7433   1.085   0.630  10.240 -0.2556  0.2326 -0.3655
  500MPD2     H 7434   1.168   0.883   9.984  1.6819  0.2798  1.0403
  500MPD2    H1 7435   0.977   0.521  10.086  0.1683 -0.2377  3.3117
  500MPD2    H2 7436   1.192   0.741  10.383 -1.5086 -1.8080  0.2962
  500MPD2    H3 7437   1.071   0.547  10.308 -1.3408 -1.0884 -2.2001
  500MPD2     N 7438   0.999   0.671   9.892 -0.9053  0.0966 -0.1721
  500MPD2    H5 7439   0.947   0.584   9.894 -2.2050  0.9079  1.0689
  500MPD2    N1 7440   1.269   0.939  10.214  0.5714  0.0413 -0.2358
  500MPD2    H7 7441   1.303   0.953  10.309  1.3447  0.9175 -0.6430
  501TMC3    C1 7442   1.360   1.155  10.220  0.4411  0.7935 -0.1625
  501TMC3    C2 7443   1.333   1.287  10.203  0.4309 -0.0033  0.5440
  501TMC3    C3 7444   1.420   1.371  10.266 -0.1076  0.8851  0.3027
  501TMC3    C4 7445   1.470   1.108  10.289  0.2272 -0.3110 -0.2709
  501TMC3    C5 7446   1.554   1.200  10.350 -0.1552  0.1060 -0.1976
  501TMC3    C6 7447   1.522   1.336  10.343  0.3571  0.5423  0.6363
  501TMC3     C 7448   1.273   1.058  10.148  0.3499  0.8786  0.1418
  501TMC3     O 7449   1.189   1.096  10.063 -0.1744 -0.3678 -0.3244
  501TMC3     H 7450   1.249   1.330  10.150 -1.5800 -0.6668  3.1885
  501TMC3    H1 7451   1.505   1.006  10.283 -0.2896 -0.3621 -2.3497
  501TMC3    H2 7452   1.592   1.413  10.371 -0.2712  1.8458 -1.4093
  501TMC3    C7 7453   1.685   1.158  10.390  0.3230  0.4630 -0.3291
  501TMC3    C8 7454   1.379   1.509  10.291  0.1808 -0.6803 -0.5952
  501TMC3    O1 7455   1.726   1.054  10.341  0.1846  0.4538 -0.1836
  501TMC3    O2 7456   1.413   1.556  10.397  0.2167  0.2142  0.4740
  502TMC3    C1 7457   0.497   0.536  15.087  0.9849 -0.3171  0.1379
  502TMC3    C2 7458   0.478   0.672  15.097 -0.2519  0.3328 -0.2974
  502TMC3    C3 7459   0.359   0.719  15.129 -0.0345 -0.5264 -0.6506
  502TMC3    C4 7460   0.389   0.450  15.087 -0.2659 -0.6251  0.4905
  502TMC3    C5 7461   0.268   0.504  15.134  0.2234 -0.3844  0.4319
  502TMC3    C6 7462   0.250   0.639  15.160 -0.6441  0.0402 -0.9146
  502TMC3     C 7463   0.612   0.490  15.175  0.5068  0.1390  0.2664
  502TMC3     O 7464   0.726   0.544  15.177 -0.8266 -0.0799  0.4011
  502TMC3     H 7465   0.555   0.741  15.128 -0.2756 -0.4410  1.4964
  502TMC3    H1 7466   0.403   0.344  15.076 -0.8787 -0.9770  3.0966
  502TMC3    H2 7467   0.153   0.681  15.186  0.1546  0.4491  1.4541
  502TMC3    C7 7468   0.197   0.409  15.216 -0.6946 -0.0121 -0.1814
  502TMC3    C8 7469   0.341   0.866  15.116 -0.0484  0.0841 -0.5695
  502TMC3    O1 7470   0.259   0.319  15.267 -0.1239 -0.1112  0.2910
  502TMC3    O2 7471   0.416   0.924  15.041 -0.1400 -0.0070  0.4495
  503MPD2     C 7472   2.727   1.448  16.937  0.2020  0.2068  0.0872
  503MPD2    C1 7473   2.725   1.462  17.072 -0.2791 -0.1639 -0.8956
  503MPD2    C2 7474   2.742   1.356  17.158  0.3666  0.0638 -0.2931
  503MPD2    C3 7475   2.759   1.234  17.099 -0.0703 -0.1053 -0.2579
  503MPD2    C4 7476   2.756   1.218  16.965 -0.2244 -0.2355  0.3721
  503MPD2    C5 7477   2.742   1.325  16.884 -0.1031  0.5798 -0.5143
  503MPD2     H 7478   2.750   1.367  17.266  2.1216 -1.2699 -0.2916
  503MPD2    H1 7479   2.774   1.123  16.915  0.8206  0.6569 -0.9280
  503MPD2    H2 7480   2.718   1.523  16.860  0.3642  0.5885  0.4360
  503MPD2    H3 7481   2.746   1.311  16.776 -0.5417 -0.0342 -0.4544
  503MPD2     N 7482   2.781   1.122  17.184  0.3328 -0.4428 -0.1776
  503MPD2    H5 7483   2.784   1.145  17.283 -1.0209  1.0765 -0.4951
  503MPD2    N1 7484   2.695   1.588  17.128  0.4814  0.1093  0.0138
  503MPD2    H7 7485   2.699   1.598  17.229 -0.8354 -0.9374  0.1587
  504TMC3    C1 7486   2.848   0.908  17.251 -0.1189 -1.0062 -0.1370
  504TMC3    C2 7487   2.838   0.947  17.376 -0.5344 -0.0427  0.2850
  504TMC3    C3 7488   2.895   0.869  17.467 -0.0527 -0.1381  0.5137
  504TMC3    C4 7489   2.916   0.789  17.218  0.6305 -0.2563  0.4267
  504TMC3    C5 7490   2.965   0.706  17.321 -0.8472  0.3005  0.2615
  504TMC3    C6 7491   2.957   0.748  17.446  0.3427  0.0806 -0.1477
  504TMC3     C 7492   2.820   0.992  17.139  0.4883 -0.2616 -0.5918
  504TMC3     O 7493   2.849   0.946  17.030  0.3190 -0.3537  0.3624
  504TMC3     H 7494   2.797   1.040  17.414 -0.0801  0.4225 -0.3631
  504TMC3    H1 7495   2.932   0.761  17.115  2.5356  1.0511  0.3606
  504TMC3    H2 7496   3.020   0.699  17.520 -0.5588 -0.5456  0.2002
  504TMC3    C7 7497   3.071   0.617  17.273 -0.2282 -0.1398  0.4211
  504TMC3    C8 7498   2.896   0.919  17.608 -0.2276 -0.1034  0.1069
  504TMC3    O1 7499   3.093   0.631  17.155  0.2054 -0.4373  0.1121
  504TMC3    O2 7500   2.878   1.043  17.621 -0.4415 -0.4141 -0.1802
  505MPD2     C 7501   3.172   3.349   9.462  0.2540 -0.7728  0.3519
  505MPD2    C1 7502   3.233   3.298   9.582  0.9175 -0.3449  0.3251
  505MPD2    C2 7503   3.252   3.395   9.695 -0.0780 -0.3458  0.0578
  505MPD2    C3 7504   3.213   3.530   9.683  0.7715 -0.3169 -0.2847
  505MPD2    C4 7505   3.147   3.568   9.562  0.2403 -0.4204 -0.7803
  505MPD2    C5 7506   3.121   3.475   9.459 -0.1206 -0.9541 -0.0699
  505MPD2     H 7507   3.304   3.358   9.782  0.8003  0.1776 -0.2433
  505MPD2    H1 7508   3.118   3.672   9.553  1.9209  0.0938 -0.1718
  505MPD2    H2 7509   3.176   3.284   9.375  0.8098 -0.9344  0.5015
  505MPD2    H3 7510   3.071   3.504   9.367 -0.5270 -0.1082  0.4125
  505MPD2     N 7511   3.228   3.626   9.789  0.0384 -0.0175 -0.2375
  505MPD2    H5 7512   3.196   3.721   9.774 -1.3695 -0.2580  1.2421
  505MPD2    N1 7513   3.301   3.168   9.576  1.1158  0.3273 -0.1638
  505MPD2    H7 7514   3.302   3.114   9.490 -0.3176 -1.8295  1.1787
  506TMC3    C1 7515   3.470   3.014   9.624 -0.0117 -0.2217  0.1159
  506TMC3    C2 7516   3.517   3.010   9.495 -0.0140  0.2452  0.3285
  506TMC3    C3 7517   3.649   2.995   9.483 -0.0684 -0.3439 -0.2556
  506TMC3    C4 7518   3.548   2.978   9.730  0.2902 -0.7707 -0.0814
  506TMC3    C5 7519   3.684   2.961   9.707 -0.1482  0.4976 -0.6602
  506TMC3    C6 7520   3.736   2.965   9.583  0.5526 -0.5305  0.2880
  506TMC3     C 7521   3.377   3.114   9.679 -1.0090 -0.0530  0.5527
  506TMC3     O 7522   3.375   3.147   9.798 -0.5420 -0.4295  0.2624
  506TMC3     H 7523   3.463   3.049   9.410  1.4399  1.4617 -0.0236
  506TMC3    H1 7524   3.508   2.962   9.829  0.9819  0.8262  0.4535
  506TMC3    H2 7525   3.843   2.960   9.567  0.4073  0.7092 -1.1420
  506TMC3    C7 7526   3.756   3.031   9.809 -0.2961 -0.6681 -0.1598
  506TMC3    C8 7527   3.705   3.033   9.364  0.3278 -0.0859  0.4620
  506TMC3    O1 7528   3.860   2.979   9.855 -0.1320  0.6654 -0.3168
  506TMC3    O2 7529   3.685   2.955   9.269  0.2510 -0.4443 -0.3665
  507TMC3    C1 7530   3.245   4.714  14.199 -0.1055 -0.3133  0.2237
  507TMC3    C2 7531   3.374   4.702  14.146  0.1879  0.3506 -0.4704
  507TMC3    C3 7532   3.479   4.686  14.232 -0.5267 -0.1171  0.9765
  507TMC3    C4 7533   3.226   0.005  14.336  0.3259  0.1465  0.1602
  507TMC3    C5 7534   3.331   0.001  14.419  0.3742  0.5742  0.6799
  507TMC3    C6 7535   3.458   4.694  14.372  0.3703 -0.4138 -0.7408
  507TMC3     C 7536   3.140   0.036  14.099  0.3488 -0.0711 -0.1034
  507TMC3     O 7537   3.161   0.012  13.980  0.6018 -0.2791  0.1342
  507TMC3     H 7538   3.399   4.701  14.041  1.8740  1.8457 -0.0804
  507TMC3    H1 7539   3.127   0.020  14.376  0.8594  0.8253  1.2468
  507TMC3    H2 7540   3.544   4.693  14.438  1.3315 -1.6003 -2.0456
  507TMC3    C7 7541   3.342   0.118  14.507 -0.7030  0.4342 -0.2871
  507TMC3    C8 7542   3.592   0.041  14.194 -1.0007 -0.0652 -0.0267
  507TMC3    O1 7543   3.312   0.226  14.455 -0.1862 -0.7059 -0.2480
  507TMC3    O2 7544   3.666   0.006  14.104  0.4807 -0.4676 -0.2495
  508MPD2     C 7545   4.385   2.772  16.258 -0.5568  0.3614 -0.3766
  508MPD2    C1 7546   4.415   2.904  16.279  0.0635 -0.1565 -0.2663
  508MPD2    C2 7547   4.408   2.991  16.172  0.3409 -0.4837  0.2944
  508MPD2    C3 7548   4.383   2.941  16.048  0.2807 -0.5190 -0.6370
  508MPD2    C4 7549   4.356   2.809  16.029  0.8017  0.1071  0.0558
  508MPD2    C5 7550   4.356   2.728  16.132 -0.8953 -0.1546  0.8386
  508MPD2     H 7551   4.434   3.096  16.178 -0.3122 -0.5368  3.7389
  508MPD2    H1 7552   4.322   2.762  15.938 -1.6407  0.8659  0.5468
  508MPD2    H2 7553   4.386   2.694  16.333  0.7464  0.9590  0.2254
  508MPD2    H3 7554   4.347   2.620  16.122  0.0838 -0.1168 -0.3998
  508MPD2     N 7555   4.402   3.026  15.935  0.5832  0.1497  0.6055
  508MPD2    H5 7556   4.421   3.125  15.946 -1.6221  0.4800  1.4676
  508MPD2    N1 7557   4.468   2.942  16.405  1.1458  1.0013  0.6758
  508MPD2    H7 7558   4.504   2.864  16.460  1.8607  1.1610  0.4304
  509TMC3    C1 7559   4.368   3.228  15.536  0.1370 -0.0105 -0.1282
  509TMC3    C2 7560   4.435   3.335  15.591  0.0178 -0.3125  0.1123
  509TMC3    C3 7561   4.508   3.310  15.700  1.1729  0.8961  0.0369
  509TMC3    C4 7562   4.366   3.107  15.600 -0.0717 -0.2747 -0.6865
  509TMC3    C5 7563   4.443   3.092  15.711 -0.5322  0.0145 -0.0457
  509TMC3    C6 7564   4.518   3.191  15.765 -0.5711  0.1768  0.4186
  509TMC3     C 7565   4.276   3.254  15.433 -0.1290 -0.0945  0.2067
  509TMC3     O 7566   4.168   3.204  15.440  0.0107  0.0884  0.4165
  509TMC3     H 7567   4.424   3.439  15.559  0.4708 -0.5154 -0.7028
  509TMC3    H1 7568   4.319   3.023  15.550 -0.7559  0.0673 -0.6208
  509TMC3    H2 7569   4.572   3.187  15.858 -0.6415  0.7492  0.4849
  509TMC3    C7 7570   4.408   2.982  15.803 -1.1109  0.9470 -0.1686
  509TMC3    C8 7571   4.574   3.430  15.762  0.1333 -0.6653  0.2503
  509TMC3    O1 7572   4.395   2.871  15.753  0.5696 -0.5601  0.6745
  509TMC3    O2 7573   4.519   3.540  15.776  0.2167 -0.8914 -0.5286
  510MPD2     C 7574   2.267   4.143  14.440 -0.0873  0.9611 -0.0634
  510MPD2    C1 7575   2.320   4.157  14.567  0.0025  0.1557  0.1763
  510MPD2    C2 7576   2.449   4.200  14.588  0.6518 -0.1363 -0.4373
  510MPD2    C3 7577   2.524   4.243  14.474 -0.6076  0.8033  0.1956
  510MPD2    C4 7578   2.468   4.248  14.350 -0.5252  0.6418  0.1238
  510MPD2    C5 7579   2.343   4.186  14.329 -0.1401 -0.6071  0.4955
  510MPD2     H 7580   2.496   4.211  14.685 -2.4367  0.9176  0.9375
  510MPD2    H1 7581   2.522   4.270  14.259  1.5750 -0.1058  1.2045
  510MPD2    H2 7582   2.184   4.087  14.398  0.2293  0.5534 -0.1445
  510MPD2    H3 7583   2.309   4.155  14.231  2.1348 -1.2316 -0.0997
  510MPD2     N 7584   2.656   4.285  14.513 -0.7073  0.2725  0.2194
  510MPD2    H5 7585   2.672   4.276  14.612  1.3959  1.9328  0.0406
  510MPD2    N1 7586   2.236   4.121  14.676  0.1434  0.1095  0.3582
  510MPD2    H7 7587   2.160   4.056  14.659  1.0433 -0.8715  0.0066
  511TMC3    C1 7588   2.169   4.079  14.904  0.2294 -0.2414  1.0494
  511TMC3    C2 7589   2.111   4.146  15.008 -0.1751 -0.3829 -0.5936
  511TMC3    C3 7590   2.014   4.088  15.085 -0.1951 -0.1528  0.2322
  511TMC3    C4 7591   2.131   3.951  14.870 -0.1809 -0.0577  0.5272
  511TMC3    C5 7592   2.039   3.895  14.954  0.1526 -0.0337  0.6157
  511TMC3    C6 7593   1.981   3.957  15.066  0.1245  0.8047 -0.1908
  511TMC3     C 7594   2.257   4.153  14.810  0.5903  0.7119 -0.6675
  511TMC3     O 7595   2.320   4.252  14.848 -0.0894  0.1067  0.2915
  511TMC3     H 7596   2.157   4.242  15.030 -1.5230  0.2325 -0.5123
  511TMC3    H1 7597   2.182   3.892  14.794 -1.7474  0.3681 -0.8712
  511TMC3    H2 7598   1.891   3.919  15.113 -0.4744  0.2834 -1.7622
  511TMC3    C7 7599   1.964   3.777  14.910 -0.3110 -0.4061  0.6121
  511TMC3    C8 7600   1.975   4.171  15.201 -0.1356 -0.1276  0.3689
  511TMC3    O1 7601   1.971   3.748  14.791  0.5698 -0.4215  1.0531
  511TMC3    O2 7602   1.974   4.292  15.185 -0.3708 -0.0109 -0.2309
  512TMC3    C1 7603   1.247   3.849  13.262 -1.2954 -0.0456 -0.5081
  512TMC3    C2 7604   1.350   3.813  13.345  0.7354 -0.2565 -0.6901
  512TMC3    C3 7605   1.424   3.696  13.317  0.1266  0.2181  0.4969
  512TMC3    C4 7606   1.198   3.766  13.160 -0.3307  0.0962  0.6161
  512TMC3    C5 7607   1.265   3.648  13.139 -0.3946 -0.2375 -0.1955
  512TMC3    C6 7608   1.369   3.602  13.219  0.1142  0.0386 -0.2661
  512TMC3     C 7609   1.211   3.989  13.264  0.1463 -0.3548  0.2382
  512TMC3     O 7610   1.286   4.077  13.294  0.3191  0.3305  0.0387
  512TMC3     H 7611   1.390   3.878  13.423 -1.3982 -1.7720  1.6610
  512TMC3    H1 7612   1.122   3.800  13.091  0.3565  1.0520  0.3152
  512TMC3    H2 7613   1.429   3.517  13.190 -0.4712 -0.8647  1.2030
  512TMC3    C7 7614   1.247   3.586  13.009 -0.4167  0.0816 -0.8996
  512TMC3    C8 7615   1.549   3.663  13.372 -0.1635  0.6708  0.2586
  512TMC3    O1 7616   1.207   3.668  12.923  0.0164  0.1158 -0.1442
  512TMC3    O2 7617   1.578   3.547  13.369 -0.6698 -0.5550  0.2114
  513MPD2     C 7618   3.014   3.309  13.405 -0.0923 -0.2852  0.7974
  513MPD2    C1 7619   3.132   3.297  13.328  0.3572  0.6802 -0.4969
  513MPD2    C2 7620   3.245   3.365  13.356  0.6048 -0.5646  0.2033
  513MPD2    C3 7621   3.245   3.454  13.455 -0.5878 -0.0528  0.7023
  513MPD2    C4 7622   3.129   3.479  13.531  0.5433 -1.2028 -0.2778
  513MPD2    C5 7623   3.020   3.402  13.507  0.8203 -0.1472 -0.0489
  513MPD2     H 7624   3.337   3.347  13.301 -0.4132 -1.4639 -1.1979
  513MPD2    H1 7625   3.130   3.558  13.605  0.6529  0.6469 -2.2397
  513MPD2    H2 7626   2.923   3.257  13.378 -0.9052  1.7976 -0.4734
  513MPD2    H3 7627   2.928   3.417  13.563 -0.4022  0.6582 -2.2831
  513MPD2     N 7628   3.360   3.518  13.488 -0.6027  0.4432  0.0035
  513MPD2    H5 7629   3.439   3.502  13.426  0.2763  1.7796  0.7889
  513MPD2    N1 7630   3.121   3.208  13.218  0.4026  0.1430  0.2043
  513MPD2    H7 7631   3.028   3.170  13.199 -0.4791  2.6416 -0.4373
  514TMC3    C1 7632   3.193   3.069  13.038 -0.5607  0.3623  0.5445
  514TMC3    C2 7633   3.139   3.128  12.931  0.3643  0.4773 -0.2312
  514TMC3    C3 7634   3.197   3.114  12.806  0.0032 -0.4185  0.0766
  514TMC3    C4 7635   3.307   2.996  13.011  0.5841 -0.4468 -0.1771
  514TMC3    C5 7636   3.368   2.989  12.888  0.5464  0.1212  0.4553
  514TMC3    C6 7637   3.313   3.047  12.780  0.4955 -0.2039 -0.6177
  514TMC3     C 7638   3.226   3.157  13.146 -0.2768  0.4684  0.1537
  514TMC3     O 7639   3.347   3.184  13.156  0.2750 -0.1705 -0.0919
  514TMC3     H 7640   3.057   3.195  12.953  0.3893  0.4167  0.0498
  514TMC3    H1 7641   3.356   2.961  13.102  1.1741  1.0340  0.0810
  514TMC3    H2 7642   3.364   3.048  12.684 -0.8208  1.7250 -1.2826
  514TMC3    C7 7643   3.513   3.002  12.898  0.6313  0.1194 -0.2825
  514TMC3    C8 7644   3.133   3.207  12.718 -0.1042  0.0921  0.3204
  514TMC3    O1 7645   3.573   2.973  12.801 -0.0380 -0.5269  0.1859
  514TMC3    O2 7646   3.066   3.299  12.755  0.3715 -0.3532  0.7604
  515MPD2     C 7647   0.933   1.210  14.949  0.7033  0.2215 -0.1765
  515MPD2    C1 7648   0.981   1.091  14.899 -0.1759  0.2985 -0.4669
  515MPD2    C2 7649   1.114   1.050  14.926  0.1689  0.5659  0.6628
  515MPD2    C3 7650   1.194   1.131  15.009 -0.0541  0.4751  0.5931
  515MPD2    C4 7651   1.146   1.254  15.061  0.3467  0.0964  0.0163
  515MPD2    C5 7652   1.017   1.288  15.028  0.3550 -0.1839  0.0523
  515MPD2     H 7653   1.154   0.958  14.885 -2.1598 -0.2571  0.2261
  515MPD2    H1 7654   1.205   1.303  15.138  0.3620 -0.9624  0.6871
  515MPD2    H2 7655   0.831   1.243  14.936  0.0610 -1.4713  0.6379
  515MPD2    H3 7656   0.966   1.369  15.079 -0.8920 -1.6541  1.1538
  515MPD2     N 7657   1.327   1.107  15.034  1.0034  0.0625 -0.1172
  515MPD2    H5 7658   1.371   1.175  15.095 -0.2239  0.8469 -0.1287
  515MPD2    N1 7659   0.895   1.006  14.819  0.1445  0.2357 -0.3339
  515MPD2    H7 7660   0.921   0.912  14.793  0.0561  0.0403  0.2792
  516TMC3    C1 7661   0.711   0.910  14.718 -0.5041 -0.8738 -0.4320
  516TMC3    C2 7662   0.644   0.919  14.602 -0.7448  0.1977 -0.3210
  516TMC3    C3 7663   0.621   0.801  14.534 -0.5048 -0.2265 -0.1542
  516TMC3    C4 7664   0.745   0.791  14.785  0.0213 -0.2694  0.0715
  516TMC3    C5 7665   0.705   0.677  14.724 -0.0048 -0.2025  0.5959
  516TMC3    C6 7666   0.656   0.676  14.594  0.1249  0.2164  0.6887
  516TMC3     C 7667   0.765   1.036  14.778  0.3114  0.3499  0.3566
  516TMC3     O 7668   0.708   1.141  14.753 -1.1794 -0.3675 -0.2849
  516TMC3     H 7669   0.620   1.015  14.559 -1.7265 -0.4273 -1.1687
  516TMC3    H1 7670   0.775   0.791  14.889  1.5562  0.6680 -0.3586
  516TMC3    H2 7671   0.660   0.584  14.537 -1.3237 -0.6311  1.9648
  516TMC3    C7 7672   0.715   0.553  14.799 -0.2711  0.5591  0.3384
  516TMC3    C8 7673   0.626   0.803  14.386  0.2290 -0.0312 -0.7780
  516TMC3    O1 7674   0.797   0.547  14.890  0.3755 -0.1291 -0.8407
  516TMC3    O2 7675   0.596   0.697  14.327 -0.4243 -0.1303  0.3819
  517MPD2     C 7676   0.742   2.612  17.677  0.3840  0.1882 -0.0677
  517MPD2    C1 7677   0.881   2.588  17.674  0.3014 -0.0683 -0.4553
  517MPD2    C2 7678   0.964   2.694   0.029 -0.0050 -0.7082  0.3654
  517MPD2    C3 7679   0.908   2.808   0.091 -0.9535  0.1268  0.8375
  517MPD2    C4 7680   0.770   2.817   0.107  0.4817  0.7352 -0.9905
  517MPD2    C5 7681   0.691   2.720   0.056 -0.2785 -0.0163  0.0541
  517MPD2     H 7682   1.072   2.684   0.019  0.1668  0.9854  0.5189
  517MPD2    H1 7683   0.731   2.897   0.168  0.6566  0.4495 -0.5060
  517MPD2    H2 7684   0.668   2.555  17.621 -0.2599  0.0046  0.9595
  517MPD2    H3 7685   0.584   2.734   0.054 -0.6724 -2.6869  2.5901
  517MPD2     N 7686   0.977   2.911   0.163  0.7530 -0.1856  0.1346
  517MPD2    H5 7687   0.933   2.983   0.219 -0.2499 -0.3845 -0.4025
  517MPD2    N1 7688   0.930   2.495  17.572  0.6243 -0.1858 -0.0958
  517MPD2    H7 7689   1.027   2.487  17.544  1.1242  1.3765  1.1921
  518TMC3    C1 7690   0.911   2.319  17.412 -0.4877 -0.3246 -0.5147
  518TMC3    C2 7691   0.885   2.187  17.393 -0.2949 -0.5566  0.0282
  518TMC3    C3 7692   0.922   2.126  17.275  0.4026  0.0807  0.2060
  518TMC3    C4 7693   0.983   2.390  17.319 -0.6396  0.0189 -0.0654
  518TMC3    C5 7694   1.023   2.326  17.202  0.1611  0.2548  0.8811
  518TMC3    C6 7695   0.977   2.195  17.174  0.2935 -0.1954 -0.5417
  518TMC3     C 7696   0.856   2.385  17.528 -0.4186  0.4077  0.5002
  518TMC3     O 7697   0.769   2.327  17.589  0.1609 -0.4200  0.3452
  518TMC3     H 7698   0.857   2.119  17.472 -0.3000  0.6321  1.0495
  518TMC3    H1 7699   1.022   2.489  17.339 -1.0326 -0.0621  1.1347
  518TMC3    H2 7700   0.999   2.147  17.079  0.3440 -0.5991 -0.3227
  518TMC3    C7 7701   1.079   2.402  17.097 -0.0149 -0.8287 -0.2539
  518TMC3    C8 7702   0.917   1.979  17.269  0.4410  0.2010 -0.7355
  518TMC3    O1 7703   1.083   2.525  17.112 -0.2620  0.1073  0.5514
  518TMC3    O2 7704   0.910   1.921  17.376 -0.1177  0.0684  0.1028
  519MPD2     C 7705   2.964   0.616  14.309 -0.3176  0.9847 -0.4597
  519MPD2    C1 7706   2.944   0.660  14.180  0.4448 -0.6029  0.5951
  519MPD2    C2 7707   3.015   0.602  14.073 -0.5878 -0.6250  0.8581
  519MPD2    C3 7708   3.098   0.502  14.095  0.2236  0.8411  0.4731
  519MPD2    C4 7709   3.128   0.468  14.225  0.2546 -0.3710 -0.5528
  519MPD2    C5 7710   3.056   0.519  14.337  0.0734 -0.0075  0.0452
  519MPD2     H 7711   3.001   0.633  13.970  4.2269 -0.1469  0.3502
  519MPD2    H1 7712   3.204   0.393  14.240  0.7217  0.8829  3.6005
  519MPD2    H2 7713   2.916   0.655  14.399  1.1131  1.2621  0.1737
  519MPD2    H3 7714   3.067   0.473  14.435 -1.7416 -0.8891 -0.1746
  519MPD2     N 7715   3.160   0.429  13.988  0.3271 -0.0896  0.0404
  519MPD2    H5 7716   3.231   0.359  14.009  0.6311  0.3150  0.3639
  519MPD2    N1 7717   2.848   0.758  14.159 -0.3552  0.4706  0.0770
  519MPD2    H7 7718   2.777   0.766  14.231  1.8819 -2.9529  2.6409
  520TMC3    C1 7719   3.180   0.347  13.760 -0.1407  0.5789  0.7067
  520TMC3    C2 7720   3.157   0.384  13.633  0.5367  0.0350  0.6525
  520TMC3    C3 7721   3.250   0.332  13.543  0.5067 -0.0868 -0.5391
  520TMC3    C4 7722   3.278   0.260  13.804 -0.5839  0.4683  0.2537
  520TMC3    C5 7723   3.362   0.217  13.707  0.3739  0.0515 -0.2265
  520TMC3    C6 7724   3.349   0.244  13.573 -0.3032 -0.1764  0.4119
  520TMC3     C 7725   3.106   0.431  13.858 -0.7655  0.1520  0.6777
  520TMC3     O 7726   3.003   0.481  13.811 -0.5385 -0.3397 -0.5025
  520TMC3     H 7727   3.100   0.474  13.609  1.0064 -0.2070 -1.4097
  520TMC3    H1 7728   3.290   0.219  13.904 -2.7248 -0.3705  0.1831
  520TMC3    H2 7729   3.418   0.215  13.494  1.1157  0.2447  1.4990
  520TMC3    C7 7730   3.474   0.143  13.751  0.8032 -0.8854  0.0420
  520TMC3    C8 7731   3.219   0.353  13.405 -0.0461  0.3986  0.0076
  520TMC3    O1 7732   3.522   0.174  13.858  0.1356 -0.5874  0.3171
  520TMC3    O2 7733   3.297   0.400  13.321 -0.6617  0.0476  0.0324
  521MPD2     C 7734   3.359   3.689  17.677  0.4366  0.3614 -0.0694
  521MPD2    C1 7735   3.346   3.677  17.542  0.6169 -0.3572 -0.0972
  521MPD2    C2 7736   3.450   3.625  17.465 -0.0451 -0.1439 -0.0846
  521MPD2    C3 7737   3.568   3.582  17.528  0.2135  0.1613  0.3043
  521MPD2    C4 7738   3.569   3.591  17.667  0.0588  0.0247  0.2063
  521MPD2    C5 7739   3.475   3.650   0.048 -0.2420 -0.0663 -0.2716
  521MPD2     H 7740   3.439   3.620  17.357  0.7566 -1.4329 -0.1043
  521MPD2    H1 7741   3.656   3.554   0.033  0.8670  1.6906  0.0481
  521MPD2    H2 7742   3.280   3.723   0.055  1.8051  1.2550  1.1195
  521MPD2    H3 7743   3.484   3.663   0.155  0.3887  0.0090 -0.3389
  521MPD2     N 7744   3.667   3.529  17.443  0.2095  0.2492 -0.2471
  521MPD2    H5 7745   3.642   3.506  17.347  1.5641  0.5950 -0.6885
  521MPD2    N1 7746   3.220   3.714  17.485  0.1120 -0.3352  0.3915
  521MPD2    H7 7747   3.159   3.759  17.553 -0.7679  0.0650 -0.6505
  522TMC3    C1 7748   3.882   3.440  17.391  0.5207  0.3439  0.2957
  522TMC3    C2 7749   3.988   3.357  17.426  0.2387 -0.1269  0.2858
  522TMC3    C3 7750   4.072   3.311  17.318 -0.3278  0.0418 -1.0122
  522TMC3    C4 7751   3.865   3.486  17.265 -0.8510 -0.4173 -0.1963
  522TMC3    C5 7752   3.939   3.437  17.166 -0.0322  0.6638 -0.1382
  522TMC3    C6 7753   4.049   3.350  17.190 -0.0412  0.2585 -0.4996
  522TMC3     C 7754   3.788   3.482  17.496  0.1021 -0.2653 -0.3937
  522TMC3     O 7755   3.836   3.481  17.608 -0.0276 -0.2101 -0.0397
  522TMC3     H 7756   4.005   3.326  17.529  3.1441  0.3801 -0.0181
  522TMC3    H1 7757   3.805   3.575  17.248 -0.5145 -0.5800 -2.1823
  522TMC3    H2 7758   4.101   3.304  17.106  1.5756 -0.7401  1.0333
  522TMC3    C7 7759   3.953   3.502  17.034 -0.5018  0.4602 -0.3365
  522TMC3    C8 7760   4.195   3.236  17.348  0.1231 -0.1474 -0.5559
  522TMC3    O1 7761   4.064   3.507  16.980  0.5379  0.0379 -0.2328
  522TMC3    O2 7762   4.214   3.220  17.468  0.1987 -0.2222 -0.0580
  523MPD2     C 7763   1.671   2.610  10.201  0.0681 -0.2820 -0.2829
  523MPD2    C1 7764   1.624   2.563  10.086  0.2022 -0.1448 -0.7008
  523MPD2    C2 7765   1.589   2.650   9.982 -0.2450  0.7835 -0.8033
  523MPD2    C3 7766   1.595   2.788  10.008  0.0377 -0.3659 -0.4924
  523MPD2    C4 7767   1.642   2.831  10.128 -0.6712 -0.2680 -0.1462
  523MPD2    C5 7768   1.671   2.745  10.224  0.0964  0.3554  0.2518
  523MPD2     H 7769   1.558   2.616   9.884 -1.5842 -0.4871  0.0739
  523MPD2    H1 7770   1.641   2.939  10.142 -3.2827 -0.1686 -1.1171
  523MPD2    H2 7771   1.700   2.547  10.285  0.5894  1.6485  0.9901
  523MPD2    H3 7772   1.710   2.772  10.321  0.5525  0.5272  0.0223
  523MPD2     N 7773   1.568   2.885   9.914 -0.0150  0.0872  0.0063
  523MPD2    H5 7774   1.571   2.977   9.956  0.3243 -0.0276  0.2352
  523MPD2    N1 7775   1.624   2.425  10.071  0.5848 -0.8636 -0.0957
  523MPD2    H7 7776   1.684   2.373  10.134  0.2200 -1.1031  0.0584
  524TMC3    C1 7777   1.481   2.983   9.718 -0.5957 -1.0175  0.2073
  524TMC3    C2 7778   1.440   2.978   9.585  0.0919  0.0708 -0.1199
  524TMC3    C3 7779   1.373   3.083   9.525 -0.4398 -0.2045  0.3101
  524TMC3    C4 7780   1.448   3.089   9.797 -0.6521 -0.2662  0.6981
  524TMC3    C5 7781   1.373   3.188   9.732  0.1852 -0.2374 -0.7119
  524TMC3    C6 7782   1.326   3.189   9.606  0.6584  0.1141 -0.5173
  524TMC3     C 7783   1.522   2.862   9.787 -0.3951 -0.5615 -0.8416
  524TMC3     O 7784   1.499   2.764   9.721 -0.3211 -0.1988  0.6580
  524TMC3     H 7785   1.475   2.896   9.523  1.9081 -0.4338  1.5815
  524TMC3    H1 7786   1.490   3.104   9.896  0.0043 -0.7017  0.4868
  524TMC3    H2 7787   1.272   3.269   9.556  0.6705  0.3763 -0.1102
  524TMC3    C7 7788   1.332   3.305   9.817 -0.4670 -0.9272 -0.6339
  524TMC3    C8 7789   1.318   3.069   9.396  0.3256 -1.2202  0.0391
  524TMC3    O1 7790   1.290   3.287   9.932  0.3513 -0.0019  0.4530
  524TMC3    O2 7791   1.265   3.170   9.351  0.5367 -0.0795 -0.0594
  525MPD2     C 7792   4.118   0.275  14.455 -0.3040 -0.4388 -0.2564
  525MPD2    C1 7793   4.234   0.282  14.522 -0.2736  0.3951  1.0406
  525MPD2    C2 7794   4.299   0.408  14.527  0.2400  0.8912 -0.5737
  525MPD2    C3 7795   4.246   0.517  14.457 -0.6602  0.0882  1.0428
  525MPD2    C4 7796   4.124   0.501  14.394  0.4096  0.2444  0.3814
  525MPD2    C5 7797   4.065   0.378  14.397 -0.7073 -0.2311  0.2130
  525MPD2     H 7798   4.393   0.411  14.582 -0.7745 -2.1379  1.3424
  525MPD2    H1 7799   4.066   0.582  14.351 -0.5469 -0.8995 -0.4927
  525MPD2    H2 7800   4.066   0.180  14.455 -1.5003  0.2149  1.7629
  525MPD2    H3 7801   3.968   0.362  14.353 -0.3796  2.6359 -1.5582
  525MPD2     N 7802   4.310   0.650  14.450  0.2986 -0.3027 -0.4019
  525MPD2    H5 7803   4.256   0.720  14.400 -1.0762 -0.7004  0.5371
  525MPD2    N1 7804   4.294   0.163  14.581 -0.1566 -0.2603 -1.0061
  525MPD2    H7 7805   4.375   0.170  14.642 -0.2657 -0.6876 -0.8062
  526TMC3    C1 7806   4.318   4.663  14.657  0.0754 -0.3330 -0.2135
  526TMC3    C2 7807   4.249   4.595  14.752 -0.2740 -0.4304 -1.0537
  526TMC3    C3 7808   4.326   4.541  14.855 -0.1654 -0.0660 -0.1680
  526TMC3    C4 7809   4.452   4.674  14.647 -0.2090  0.2937 -0.2725
  526TMC3    C5 7810   4.524   4.607  14.744  0.1207  0.7578  0.4855
  526TMC3    C6 7811   4.464   4.540  14.848  0.4990  0.2383  0.0373
  526TMC3     C 7812   4.238   0.037  14.582 -0.0628  0.2610  0.6577
  526TMC3     O 7813   4.136   4.710  14.540 -0.1696 -0.1963 -0.1584
  526TMC3     H 7814   4.145   4.621  14.764 -0.2514 -0.8455  0.0504
  526TMC3    H1 7815   4.500   4.719  14.561 -2.5359  1.7006 -0.8280
  526TMC3    H2 7816   4.510   4.488  14.931  1.0117 -0.1356 -0.4809
  526TMC3    C7 7817   4.667   4.605  14.728  0.8650  0.3746  0.1863
  526TMC3    C8 7818   4.268   4.532  14.986  0.2235  0.1356  0.1596
  526TMC3    O1 7819   4.714   4.696  14.659  0.3686  0.0864  0.3365
  526TMC3    O2 7820   4.343   4.523  15.083 -0.3239 -0.0721 -0.7894
  527MPD2     C 7821   1.621   3.428   1.378 -0.3388  0.0268 -0.6798
  527MPD2    C1 7822   1.704   3.355   1.454 -0.1755  0.4629 -0.1784
  527MPD2    C2 7823   1.806   3.283   1.392 -0.1872  0.2184  1.0773
  527MPD2    C3 7824   1.823   3.288   1.251 -0.2219  0.6050  0.0559
  527MPD2    C4 7825   1.725   3.362   1.179  0.3068  0.0214 -0.5606
  527MPD2    C5 7826   1.626   3.431   1.244 -0.3068  0.1371 -0.2070
  527MPD2     H 7827   1.880   3.230   1.451 -0.3627 -3.8484 -2.3567
  527MPD2    H1 7828   1.727   3.388   1.074 -0.3804 -2.1312 -1.1151
  527MPD2    H2 7829   1.534   3.479   1.419 -1.1750 -1.8686 -0.0620
  527MPD2    H3 7830   1.552   3.496   1.200 -0.1727 -1.2902 -2.5663
  527MPD2     N 7831   1.934   3.220   1.196  0.9556 -0.8560 -0.0805
  527MPD2    H5 7832   2.001   3.173   1.256  2.3006  1.8063  0.4792
  527MPD2    N1 7833   1.699   3.353   1.592  0.9541  0.2133 -0.6416
  527MPD2    H7 7834   1.766   3.287   1.631 -0.5595 -1.4709 -0.8918
  528TMC3    C1 7835   1.652   3.389   1.825 -0.4995  0.1680  0.6410
  528TMC3    C2 7836   1.741   3.293   1.853 -0.2627 -0.0306 -0.3028
  528TMC3    C3 7837   1.761   3.274   1.987 -0.5521 -0.2440  0.2131
  528TMC3    C4 7838   1.576   3.464   1.911 -0.0074 -0.1576 -0.5245
  528TMC3    C5 7839   1.602   3.440   2.044 -0.2822 -0.9314 -0.0813
  528TMC3    C6 7840   1.697   3.349   2.083 -0.3711 -0.8028 -0.3529
  528TMC3     C 7841   1.621   3.423   1.683 -0.5072 -0.4780 -0.0457
  528TMC3     O 7842   1.540   3.506   1.655  0.2616 -0.0256 -0.1927
  528TMC3     H 7843   1.797   3.244   1.774  2.6073 -0.4942  2.0192
  528TMC3    H1 7844   1.505   3.539   1.879 -0.3080  0.2362  1.0452
  528TMC3    H2 7845   1.707   3.317   2.186  1.5414  3.3585  0.7403
  528TMC3    C7 7846   1.522   3.521   2.137 -0.6516  0.0486  0.2439
  528TMC3    C8 7847   1.883   3.201   2.021  0.2211 -0.2863  0.8050
  528TMC3    O1 7848   1.432   3.580   2.084  0.1291 -0.0202  0.6582
  528TMC3    O2 7849   1.964   3.186   1.929  0.1891  0.7493  0.7735
  529MPD2     C 7850   4.433   1.601   0.883  0.2713  0.7281  0.2457
  529MPD2    C1 7851   4.512   1.518   0.801 -0.2207  0.3581  0.4448
  529MPD2    C2 7852   4.523   1.552   0.669  0.2364  0.3311  0.8535
  529MPD2    C3 7853   4.472   1.675   0.627  0.1250  0.7123  0.2548
  529MPD2    C4 7854   4.393   1.753   0.707 -0.5056 -0.2838 -0.1139
  529MPD2    C5 7855   4.371   1.715   0.839 -0.0827  0.2527 -0.6480
  529MPD2     H 7856   4.584   1.494   0.600 -0.0487  2.0799 -0.8744
  529MPD2    H1 7857   4.338   1.841   0.675  1.2653  1.1754  0.9012
  529MPD2    H2 7858   4.426   1.581   0.990 -0.8958  1.2166  0.2568
  529MPD2    H3 7859   4.316   1.782   0.905  0.5175 -1.4579  1.5981
  529MPD2     N 7860   4.484   1.712   0.488  0.6428  0.0592 -0.2459
  529MPD2    H5 7861   4.441   1.802   0.468 -2.1378 -1.3327 -0.4852
  529MPD2    N1 7862   4.558   1.395   0.845  0.3530  0.7523 -0.3505
  529MPD2    H7 7863   4.598   1.330   0.778  3.2089 -0.4622  2.5508
  530TMC3    C1 7864   4.629   1.220   0.984  0.2205 -0.6336 -0.0402
  530TMC3    C2 7865   0.036   1.232   0.934 -0.0101  0.4295  0.1285
  530TMC3    C3 7866   0.136   1.161   0.991 -0.4262 -0.6392  0.5159
  530TMC3    C4 7867   4.593   1.139   1.087  0.6363 -0.1068 -0.1331
  530TMC3    C5 7868   4.693   1.061   1.136  0.2259  0.4288  0.4458
  530TMC3    C6 7869   0.104   1.073   1.094 -0.2105  0.4667 -0.1760
  530TMC3     C 7870   4.545   1.332   0.971  0.2663  0.1468 -0.3314
  530TMC3     O 7871   4.458   1.360   1.056  0.2837  0.6172  0.2009
  530TMC3     H 7872   0.062   1.309   0.862 -0.0235 -1.6627 -2.1312
  530TMC3    H1 7873   4.487   1.128   1.106  0.6052  0.7949  0.2034
  530TMC3    H2 7874   0.174   0.998   1.129 -0.7591  0.6714  1.3640
  530TMC3    C7 7875   4.663   0.972   1.249  0.1797 -0.3830 -0.1272
  530TMC3    C8 7876   0.277   1.171   0.957  0.8427 -0.3393 -0.0632
  530TMC3    O1 7877   0.033   0.898   1.283  0.1781 -0.4134 -0.5400
  530TMC3    O2 7878   0.304   1.200   0.843  0.1135 -0.4112  0.8150
  531MPD2     C 7879   3.910   3.213  13.146 -0.1027  0.1271 -0.6011
  531MPD2    C1 7880   3.795   3.264  13.200 -0.3310  0.1024  0.4296
  531MPD2    C2 7881   3.683   3.208  13.151 -0.7341  0.4475  0.4008
  531MPD2    C3 7882   3.676   3.120  13.048  0.4685 -0.2420  0.1075
  531MPD2    C4 7883   3.788   3.072  12.996 -0.1809 -0.3108  0.2557
  531MPD2    C5 7884   3.909   3.112  13.055 -1.0217 -0.1467  0.2183
  531MPD2     H 7885   3.594   3.237  13.206 -1.4714 -0.5781 -0.2584
  531MPD2    H1 7886   3.786   3.000  12.914  0.9993 -0.1556  0.0808
  531MPD2    H2 7887   4.009   3.229  13.187  0.8477 -0.5582 -2.6810
  531MPD2    H3 7888   4.002   3.067  13.020 -0.7235 -0.3372  1.2449
  531MPD2     N 7889   3.546   3.077  13.006  0.2244 -0.1336  0.8255
  531MPD2    H5 7890   3.474   3.106  13.071 -0.9358 -1.9885  0.3539
  531MPD2    N1 7891   3.798   3.352  13.306 -0.8624 -0.0203 -0.2034
  531MPD2    H7 7892   3.889   3.362  13.351 -1.3774 -2.0359  1.2527
  532TMC3    C1 7893   3.716   3.529  13.446  0.6823 -0.5780 -0.4488
  532TMC3    C2 7894   3.599   3.602  13.458 -0.1152  0.5744  0.0456
  532TMC3    C3 7895   3.542   3.636  13.576 -0.5032  0.2811  0.8960
  532TMC3    C4 7896   3.791   3.499  13.556  0.0249 -0.5591  0.3383
  532TMC3    C5 7897   3.733   3.548  13.677 -0.4023 -0.0669  0.4527
  532TMC3    C6 7898   3.615   3.620  13.685 -1.2745  0.2470 -0.3299
  532TMC3     C 7899   3.694   3.440  13.337  0.0191 -0.9180  0.3387
  532TMC3     O 7900   3.590   3.455  13.273 -0.0443  0.2009  0.5427
  532TMC3     H 7901   3.541   3.634  13.372  1.7118  0.7831 -1.1114
  532TMC3    H1 7902   3.887   3.449  13.559 -0.3517 -1.2640  0.7563
  532TMC3    H2 7903   3.578   3.634  13.786  0.6827  0.6337  0.3516
  532TMC3    C7 7904   3.775   3.480  13.793 -0.3482  0.1809 -0.8035
  532TMC3    C8 7905   3.401   3.590  13.597  0.3228  0.3019  0.1011
  532TMC3    O1 7906   3.811   3.540  13.894  0.1442  0.1846 -0.3029
  532TMC3    O2 7907   3.340   3.602  13.700 -0.0611 -0.0847 -1.0437
  533TMC3    C1 7908   4.435   0.833  14.522  0.2927 -1.1414 -0.7410
  533TMC3    C2 7909   4.559   0.898  14.531 -0.6235  0.4644  0.4148
  533TMC3    C3 7910   4.560   1.028  14.574  0.3722 -0.5942 -0.7094
  533TMC3    C4 7911   4.326   0.915  14.541  0.7500 -0.1004 -0.2603
  533TMC3    C5 7912   4.334   1.043  14.584  0.6400 -0.0344  0.2209
  533TMC3    C6 7913   4.454   1.102  14.610  0.1174  0.4633  0.6390
  533TMC3     C 7914   4.425   0.688  14.514  0.2522  0.2420 -0.1542
  533TMC3     O 7915   4.509   0.620  14.567 -0.7159 -0.2551  0.6026
  533TMC3     H 7916   4.653   0.850  14.509  0.4999  2.6018  0.5591
  533TMC3    H1 7917   4.228   0.868  14.542  0.7254  0.0200  1.6516
  533TMC3    H2 7918   4.461   1.204  14.645  0.3251  0.7112 -0.1216
  533TMC3    C7 7919   4.225   1.083  14.661  0.5142  0.0652  0.3512
  533TMC3    C8 7920   4.685   1.102  14.569 -0.0453  0.3583  0.5401
  533TMC3    O1 7921   4.185   1.201  14.648 -0.1492  0.5732 -0.5723
  533TMC3    O2 7922   4.709   1.179  14.661 -0.1223  0.3980  0.0101
  534MPD2     C 7923   1.854   1.776   1.527 -0.1606 -0.4135  0.5491
  534MPD2    C1 7924   1.870   1.893   1.450 -0.0065  0.2397  0.4721
  534MPD2    C2 7925   1.808   1.893   1.331 -0.0315 -0.2647 -0.4627
  534MPD2    C3 7926   1.736   1.783   1.277 -0.2002 -0.1444 -0.0984
  534MPD2    C4 7927   1.718   1.667   1.354  0.0598 -0.5223 -0.1232
  534MPD2    C5 7928   1.780   1.661   1.483  0.2371  0.4784  0.5198
  534MPD2     H 7929   1.807   1.984   1.272 -0.1410 -0.5966 -0.9814
  534MPD2    H1 7930   1.670   1.576   1.320  0.6660 -1.0919  0.5546
  534MPD2    H2 7931   1.896   1.763   1.626  4.0280 -0.1778 -1.1966
  534MPD2    H3 7932   1.776   1.571   1.543 -0.2629  1.4520  1.9461
  534MPD2     N 7933   1.703   1.769   1.140 -0.1015  0.2860  0.0033
  534MPD2    H5 7934   1.664   1.679   1.116 -1.5461  1.3698 -1.7552
  534MPD2    N1 7935   1.947   2.004   1.493 -0.9505 -0.1143  0.2604
  534MPD2    H7 7936   1.942   2.090   1.439  2.1216  0.3379  0.7091
  535TMC3    C1 7937   1.664   1.807   0.914 -0.4515  0.6353 -0.5827
  535TMC3    C2 7938   1.595   1.692   0.919  0.2503  0.1732 -0.1805
  535TMC3    C3 7939   1.585   1.619   0.809  0.3316  0.1721  0.2752
  535TMC3    C4 7940   1.760   1.834   0.819  0.0922  0.4346 -0.3628
  535TMC3    C5 7941   1.755   1.744   0.715  0.2013  1.1520 -0.1171
  535TMC3    C6 7942   1.671   1.629   0.708  1.4274 -0.4739  0.4018
  535TMC3     C 7943   1.706   1.863   1.040  0.3408 -0.1880  0.3102
  535TMC3     O 7944   1.761   1.974   1.038 -0.2163 -0.2119  0.2834
  535TMC3     H 7945   1.530   1.672   1.004  2.2784 -2.8698  0.6236
  535TMC3    H1 7946   1.835   1.911   0.834  0.7216  0.0990 -1.7506
  535TMC3    H2 7947   1.661   1.576   0.614 -2.6028  1.9010 -0.4857
  535TMC3    C7 7948   1.830   1.770   0.595 -0.3410  0.4351  0.2813
  535TMC3    C8 7949   1.496   1.502   0.819 -0.0350 -0.1130 -0.4805
  535TMC3    O1 7950   1.850   1.675   0.517  0.0505  0.0842 -0.5759
  535TMC3    O2 7951   1.398   1.521   0.888 -0.0862  0.1116 -0.5037
  536MPD2     C 7952   0.722   0.399  16.473  0.1721 -0.1222 -0.4461
  536MPD2    C1 7953   0.588   0.365  16.491  0.0921  1.0661  0.1382
  536MPD2    C2 7954   0.522   0.298  16.388 -0.0904 -0.2335 -0.8719
  536MPD2    C3 7955   0.594   0.262  16.275 -1.0484 -0.2849 -0.8585
  536MPD2    C4 7956   0.724   0.305  16.263 -0.6306 -0.1884 -0.0470
  536MPD2    C5 7957   0.791   0.369  16.362  0.4084  0.7125  0.4950
  536MPD2     H 7958   0.420   0.266  16.405  0.6675 -0.8970  2.3667
  536MPD2    H1 7959   0.778   0.283  16.172 -1.4647 -0.5685 -0.4511
  536MPD2    H2 7960   0.779   0.449  16.550 -0.3561  1.5370 -1.1456
  536MPD2    H3 7961   0.892   0.408  16.355  1.0565 -1.1932 -0.9161
  536MPD2     N 7962   0.532   0.209  16.162  0.2528 -0.4459  0.8321
  536MPD2    H5 7963   0.581   0.224  16.074 -2.6585 -0.1463 -0.7343
  536MPD2    N1 7964   0.519   0.402  16.611 -0.5417 -0.6420  0.3863
  536MPD2    H7 7965   0.585   0.420  16.686 -1.6721 -0.4638  1.3432
  537TMC3    C1 7966   0.345   0.378  16.775 -0.9348  0.1033 -0.1784
  537TMC3    C2 7967   0.429   0.427  16.871  0.8161 -0.1537  0.3746
  537TMC3    C3 7968   0.442   0.372  16.995 -0.4145 -0.2306  0.0168
  537TMC3    C4 7969   0.263   0.277  16.811  0.0298  0.0888 -0.9867
  537TMC3    C5 7970   0.270   0.218  16.934  0.2446  0.3927 -0.4072
  537TMC3    C6 7971   0.363   0.266  17.031  0.3543 -0.2418  0.3205
  537TMC3     C 7972   0.383   0.386  16.630 -0.5025 -1.0945 -1.0094
  537TMC3     O 7973   0.291   0.399  16.550 -0.0394  0.3911  0.0977
  537TMC3     H 7974   0.505   0.497  16.837  0.3493 -0.5743 -1.5448
  537TMC3    H1 7975   0.201   0.229  16.736 -1.1367  0.3755 -0.1947
  537TMC3    H2 7976   0.358   0.229  17.133  0.0833 -0.1307  0.3456
  537TMC3    C7 7977   0.208   0.088  16.944  0.2211  0.7689  0.2939
  537TMC3    C8 7978   0.557   0.384  17.084  0.6711 -0.2059  0.4476
  537TMC3    O1 7979   0.112   0.054  16.877  0.7064  0.5645  0.2644
  537TMC3    O2 7980   0.573   0.300  17.172 -0.0819  0.1376  0.2102
  538TMC3    C1 7981   1.931   2.695  10.936  0.6897  0.3441 -0.2288
  538TMC3    C2 7982   1.937   2.575  10.873 -0.3406  0.4650 -0.8550
  538TMC3    C3 7983   1.938   2.568  10.737 -0.6705 -0.4778 -0.0377
  538TMC3    C4 7984   1.928   2.817  10.878  0.1586 -0.3825  0.4404
  538TMC3    C5 7985   1.924   2.803  10.738  0.0894 -0.4379  0.5436
  538TMC3    C6 7986   1.936   2.683  10.671  0.3448  0.5300 -0.7409
  538TMC3     C 7987   1.968   2.690  11.078  0.3677  0.3101  0.1369
  538TMC3     O 7988   1.952   2.791  11.153  0.4422 -0.3872  0.0460
  538TMC3     H 7989   1.926   2.481  10.925 -1.1447 -0.3319 -2.4401
  538TMC3    H1 7990   1.893   2.907  10.926 -0.3341 -1.3914  1.9771
  538TMC3    H2 7991   1.932   2.683  10.562 -0.2410  0.8648 -0.7226
  538TMC3    C7 7992   1.906   2.924  10.658 -0.3304 -0.2435 -0.3846
  538TMC3    C8 7993   1.996   2.450  10.689 -0.6175  0.3832  0.6029
  538TMC3    O1 7994   1.876   2.916  10.542  0.6327 -0.0810 -0.3974
  538TMC3    O2 7995   1.933   2.384  10.607  0.1037  0.1857 -0.0804
  539MPD2     C 7996   1.898   2.281  11.771  0.5574 -0.4606 -0.2588
  539MPD2    C1 7997   1.843   2.272  11.646 -0.2890  0.3393  0.1096
  539MPD2    C2 7998   1.793   2.379  11.579  0.4492 -0.0563  0.3302
  539MPD2    C3 7999   1.809   2.506  11.641  0.0668 -0.1658  0.3848
  539MPD2    C4 8000   1.875   2.518  11.765  0.7357 -0.3424 -0.5412
  539MPD2    C5 8001   1.914   2.406  11.825 -0.1378  0.3574  0.2502
  539MPD2     H 8002   1.740   2.353  11.488  0.9450  2.7789 -0.7415
  539MPD2    H1 8003   1.883   2.615  11.814  1.1694 -0.4977 -0.2999
  539MPD2    H2 8004   1.921   2.195  11.832  0.3678 -1.6604 -1.8789
  539MPD2    H3 8005   1.973   2.415  11.916  1.0156  1.5010 -0.6219
  539MPD2     N 8006   1.767   2.626  11.574  0.0367  0.1633 -0.6300
  539MPD2    H5 8007   1.783   2.710  11.629  1.1163  0.5835 -1.5915
  539MPD2    N1 8008   1.829   2.150  11.583 -0.0592  0.2497  0.0148
  539MPD2    H7 8009   1.792   2.158  11.488 -1.2842 -2.3773  0.2676
  540TMC3    C1 8010   1.687   2.770  11.399  0.2761  0.8169 -0.3834
  540TMC3    C2 8011   1.685   2.789  11.271 -0.5042 -0.4948 -0.4363
  540TMC3    C3 8012   1.651   2.910  11.223  1.0129  0.4863 -1.0385
  540TMC3    C4 8013   1.674   2.875  11.490  0.2609  0.5922  0.0936
  540TMC3    C5 8014   1.646   2.996  11.432  0.4364 -0.6834 -0.7826
  540TMC3    C6 8015   1.641   3.023  11.296 -1.0658 -0.4832  0.4300
  540TMC3     C 8016   1.717   2.636  11.446 -0.3547  0.4710 -0.6034
  540TMC3     O 8017   1.686   2.546  11.365  0.1734  0.4729  0.6739
  540TMC3     H 8018   1.708   2.713  11.197 -0.8025 -0.8334 -0.1821
  540TMC3    H1 8019   1.669   2.848  11.594  0.9427 -0.8986 -0.2688
  540TMC3    H2 8020   1.602   3.110  11.245 -0.9998 -1.0538 -0.5936
  540TMC3    C7 8021   1.565   3.074  11.529 -0.4758  0.1844 -0.2040
  540TMC3    C8 8022   1.628   2.931  11.079  0.3578 -0.2626 -0.0092
  540TMC3    O1 8023   1.519   3.028  11.630 -0.0103 -1.0289  0.0143
  540TMC3    O2 8024   1.640   3.045  11.037  0.1511  0.4064  0.0806
  541MPD2     C 8025   0.355   3.633  13.202 -0.0237 -0.2496 -0.5412
  541MPD2    C1 8026   0.220   3.667  13.179 -0.5136 -0.0231  0.1098
  541MPD2    C2 8027   0.188   3.735  13.066  1.1362 -0.6315 -0.3415
  541MPD2    C3 8028   0.279   3.773  12.975 -0.2717  0.5581 -0.5639
  541MPD2    C4 8029   0.412   3.752  13.005 -0.3049  0.7926  0.1517
  541MPD2    C5 8030   0.450   3.683  13.121  0.6454  0.5358  0.1794
  541MPD2     H 8031   0.083   3.751  13.047  1.0730 -0.3560  0.2526
  541MPD2    H1 8032   0.492   3.784  12.940  0.9136  1.0750  1.7847
  541MPD2    H2 8033   0.387   3.573  13.286  0.7995  2.2572  0.9388
  541MPD2    H3 8034   0.555   3.663  13.141  0.9107  1.1253 -0.6090
  541MPD2     N 8035   0.243   3.842  12.861 -0.0522 -0.2803  0.1608
  541MPD2    H5 8036   0.303   3.836  12.779 -1.0902  2.0655 -0.7811
  541MPD2    N1 8037   0.107   3.632  13.265  0.0928 -0.5378 -0.6615
  541MPD2    H7 8038   0.019   3.656  13.221 -0.0308  2.3289  1.1701
  542TMC3    C1 8039   0.098   3.939  12.700  0.0704  0.3575 -0.2883
  542TMC3    C2 8040   0.190   3.894  12.605  0.7018 -0.1792  0.4344
  542TMC3    C3 8041   0.142   3.889  12.476  0.2118 -0.5105 -0.0381
  542TMC3    C4 8042   4.685   3.953  12.678  0.3761 -0.0007 -0.0176
  542TMC3    C5 8043   4.643   3.937  12.551 -0.0260 -0.1875  0.4830
  542TMC3    C6 8044   0.011   3.916  12.453  0.4998 -0.3830 -0.5622
  542TMC3     C 8045   0.127   3.907  12.840  0.5505  0.6355  0.4700
  542TMC3     O 8046   0.041   3.939  12.920 -0.3784  0.0205 -0.3682
  542TMC3     H 8047   0.295   3.888  12.631  0.8924  0.7186 -0.1694
  542TMC3    H1 8048   4.620   3.981  12.760 -1.0710 -2.1531 -0.4373
  542TMC3    H2 8049   4.704   3.914  12.348  0.5188 -0.0367 -0.5762
  542TMC3    C7 8050   4.497   3.949  12.530 -0.4412 -0.6149 -0.5582
  542TMC3    C8 8051   0.237   3.870  12.362  1.2866  0.6731 -0.3453
  542TMC3    O1 8052   4.434   3.987  12.629 -0.4146 -1.0925  0.3140
  542TMC3    O2 8053   0.187   3.879  12.255  0.4974  0.0655  0.1542
  543TMC3    C1 8054   4.083   0.216  17.540  0.0544 -0.3956 -0.2212
  543TMC3    C2 8055   4.171   0.122  17.597  0.3359 -0.0436 -0.0683
  543TMC3    C3 8056   4.218   0.139   0.034 -0.2182 -0.4727  0.2894
  543TMC3    C4 8057   4.039   0.318  17.614  0.3584 -0.7323  0.4120
  543TMC3    C5 8058   4.083   0.327   0.061  0.1068  0.2891  0.5234
  543TMC3    C6 8059   4.165   0.233   0.115  0.3656  0.4071 -0.5001
  543TMC3     C 8060   4.093   0.232  17.397  1.1784 -0.2294 -0.0859
  543TMC3     O 8061   4.199   0.194  17.348  0.5131 -0.1455 -0.4216
  543TMC3     H 8062   4.195   0.031  17.543 -0.8736  0.2886 -1.1480
  543TMC3    H1 8063   3.988   0.402  17.567 -2.0740 -1.9342  0.8755
  543TMC3    H2 8064   4.199   0.253   0.216 -0.4786  0.9407 -0.3254
  543TMC3    C7 8065   4.011   0.419   0.146  0.2769  0.7641  0.1248
  543TMC3    C8 8066   4.312   0.046   0.089 -1.4722  0.2111 -0.0676
  543TMC3    O1 8067   3.985   0.529   0.099 -0.0654 -0.0697 -0.5091
  543TMC3    O2 8068   4.329   4.660   0.031 -0.6477  0.2889  0.4061
  544MPD2     C 8069   4.519   4.600   0.539  0.0639 -0.5068  0.1639
  544MPD2    C1 8070   4.448   4.529   0.447 -0.8796  0.2659 -0.1491
  544MPD2    C2 8071   4.408   4.590   0.325  0.2875  0.4168  0.1014
  544MPD2    C3 8072   4.422   0.004   0.314 -0.4046  0.5040 -0.2035
  544MPD2    C4 8073   4.479   0.077   0.417  0.1578 -0.4747 -0.3219
  544MPD2    C5 8074   4.533   0.014   0.526 -0.2610  0.3043  0.9679
  544MPD2     H 8075   4.363   4.535   0.244 -0.4722  2.0235 -0.5752
  544MPD2    H1 8076   4.481   0.185   0.417 -0.2703 -0.4658  0.2957
  544MPD2    H2 8077   4.553   4.561   0.634 -0.3559 -2.2473 -0.4016
  544MPD2    H3 8078   4.591   0.069   0.598  0.0186  1.1550  0.0991
  544MPD2     N 8079   4.364   0.085   0.216  0.1472 -0.6690  0.0792
  544MPD2    H5 8080   4.358   0.182   0.245 -2.8346 -0.7349 -0.3343
  544MPD2    N1 8081   4.430   4.389   0.478 -0.6001 -0.8167  0.0613
  544MPD2    H7 8082   4.489   4.353   0.552  1.2583  0.2096 -0.9335
  545TMC3    C1 8083   4.349   4.168   0.465 -0.2741 -0.1969  0.2410
  545TMC3    C2 8084   4.314   4.064   0.383 -0.2919 -0.8687 -0.1679
  545TMC3    C3 8085   4.330   3.938   0.437 -0.1119  0.6663  0.3669
  545TMC3    C4 8086   4.386   4.152   0.595  0.2520  0.0140 -0.0600
  545TMC3    C5 8087   4.399   4.020   0.642 -0.1899  0.1810 -0.6039
  545TMC3    C6 8088   4.372   3.908   0.563 -0.3796 -1.0816  0.0473
  545TMC3     C 8089   4.352   4.301   0.408 -0.5465  0.4331  0.3528
  545TMC3     O 8090   4.283   4.321   0.308  0.2711  1.0345 -0.1978
  545TMC3     H 8091   4.276   4.089   0.284  1.3125  2.3324  0.0301
  545TMC3    H1 8092   4.398   4.234   0.665  1.2531 -1.3274  1.3398
  545TMC3    H2 8093   4.371   3.809   0.607  1.6537 -0.8042  0.7306
  545TMC3    C7 8094   4.453   3.995   0.773  0.6162 -0.2049  0.5064
  545TMC3    C8 8095   4.322   3.818   0.353 -0.5720 -0.6738  0.0332
  545TMC3    O1 8096   4.422   3.882   0.819  0.2794 -0.6503 -0.4633
  545TMC3    O2 8097   4.323   3.709   0.411 -0.5312 -0.8408 -0.3148
  546MPD2     C 8098   1.049   0.431  17.581  0.0995 -0.4040 -0.2881
  546MPD2    C1 8099   0.944   0.513  17.558 -0.3615 -0.4155 -0.0880
  546MPD2    C2 8100   0.966   0.650  17.538  0.4163 -0.4182 -0.1972
  546MPD2    C3 8101   1.089   0.699  17.518  0.3506  0.1103  0.1085
  546MPD2    C4 8102   1.193   0.613  17.545 -0.2841  0.2751  0.4997
  546MPD2    C5 8103   1.173   0.480  17.567 -0.3449  0.0210  0.4947
  546MPD2     H 8104   0.884   0.721  17.533  0.9886  0.3110  0.6241
  546MPD2    H1 8105   1.299   0.639  17.545 -0.5019  1.1409 -1.3032
  546MPD2    H2 8106   1.037   0.325  17.602 -2.2922 -0.1405 -0.3076
  546MPD2    H3 8107   1.263   0.421  17.582  1.2884  2.6917  1.0962
  546MPD2     N 8108   1.126   0.832  17.490 -0.3523  0.0886 -0.2216
  546MPD2    H5 8109   1.225   0.854  17.487 -0.3508  0.2224  0.8652
  546MPD2    N1 8110   0.814   0.454  17.552  0.1330  0.0978  0.2142
  546MPD2    H7 8111   0.819   0.353  17.553  0.8802  0.1462  1.5109
  547TMC3    C1 8112   0.584   0.428  17.499  0.3163 -1.2095 -0.1717
  547TMC3    C2 8113   0.496   0.466  17.395  0.5901  0.0656 -0.3507
  547TMC3    C3 8114   0.368   0.411  17.400 -0.0471 -0.1057  0.3253
  547TMC3    C4 8115   0.548   0.339  17.595  0.0116 -0.0037 -0.5255
  547TMC3    C5 8116   0.427   0.282  17.591 -0.3150 -0.1847 -0.6073
  547TMC3    C6 8117   0.337   0.316  17.486 -0.0705  0.6686  0.3243
  547TMC3     C 8118   0.696   0.519  17.515  0.3690 -0.2492  0.3243
  547TMC3     O 8119   0.677   0.634  17.489 -0.0677  0.5653 -0.1936
  547TMC3     H 8120   0.538   0.534  17.323 -0.8312  1.3701  0.0540
  547TMC3    H1 8121   0.624   0.302  17.663 -0.3210 -0.1894 -0.2518
  547TMC3    H2 8122   0.235   0.278  17.488 -0.1919  1.0585  1.3019
  547TMC3    C7 8123   0.380   0.198   0.010 -0.1050  0.4042  0.0924
  547TMC3    C8 8124   0.278   0.452  17.295  0.2287  0.1039 -0.1634
  547TMC3    O1 8125   0.435   0.223   0.115 -0.4336 -0.2251  0.1381
  547TMC3    O2 8126   0.185   0.378  17.259 -0.0833 -0.2458 -0.0598
  548MPD2     C 8127   0.813   1.117  12.234 -0.5323 -0.4727 -0.2330
  548MPD2    C1 8128   0.820   0.999  12.308  0.4346  0.5600  0.3708
  548MPD2    C2 8129   0.904   0.897  12.270  0.0900  0.0457 -0.3417
  548MPD2    C3 8130   0.996   0.923  12.168 -0.4975  0.1459 -0.0313
  548MPD2    C4 8131   0.986   1.039  12.092  0.0355  0.2588  0.3455
  548MPD2    C5 8132   0.902   1.139  12.131 -0.4803  0.9897  0.2386
  548MPD2     H 8133   0.913   0.801  12.319  0.8954  0.1495 -0.2894
  548MPD2    H1 8134   1.055   1.060  12.011  1.5101 -2.3084  0.9519
  548MPD2    H2 8135   0.762   1.208  12.262 -0.2765  0.2365 -2.0977
  548MPD2    H3 8136   0.898   1.236  12.084  1.2622  0.6678 -0.5692
  548MPD2     N 8137   1.086   0.814  12.136  0.4520  0.1174 -0.1096
  548MPD2    H5 8138   1.080   0.733  12.196  2.8580  0.1308  0.1416
  548MPD2    N1 8139   0.742   0.988  12.421 -0.5711 -0.3117  0.2892
  548MPD2    H7 8140   0.690   1.073  12.442 -0.7761 -0.1466 -0.9279
  549TMC3    C1 8141   0.628   0.910  12.607  0.3953 -0.5104 -0.0465
  549TMC3    C2 8142   0.551   1.026  12.631  0.2119  0.4468  0.1967
  549TMC3    C3 8143   0.462   1.031  12.732 -0.0344  0.6474  0.6936
  549TMC3    C4 8144   0.601   0.800  12.688  0.8969  0.5394  1.0333
  549TMC3    C5 8145   0.502   0.811  12.776 -0.6094  0.6062 -0.1626
  549TMC3    C6 8146   0.445   0.925  12.818 -0.0165 -0.2545  0.0186
  549TMC3     C 8147   0.702   0.880  12.494  0.3917  0.1134  0.2050
  549TMC3     O 8148   0.747   0.768  12.486 -0.1787 -0.0998  0.1412
  549TMC3     H 8149   0.561   1.115  12.570 -0.6923 -0.4245 -1.2190
  549TMC3    H1 8150   0.653   0.706  12.676  1.8340  1.1202  0.5409
  549TMC3    H2 8151   0.386   0.930  12.909  1.7269 -0.6027  1.1487
  549TMC3    C7 8152   0.511   0.703  12.867 -0.1087 -0.5872 -0.4748
  549TMC3    C8 8153   0.384   1.152  12.747  0.0620 -0.4688 -0.0737
  549TMC3    O1 8154   0.545   0.730  12.980 -0.5429  0.4080 -0.9794
  549TMC3    O2 8155   0.270   1.140  12.788 -1.0344  0.2270 -0.4144
  550TMC3    C1 8156   4.079   3.279  12.045  0.3334  0.4658  0.3424
  550TMC3    C2 8157   3.993   3.347  12.130  0.1319 -0.5628  0.1666
  550TMC3    C3 8158   3.904   3.268  12.200 -0.3048 -0.1773 -0.6559
  550TMC3    C4 8159   4.066   3.145  12.025  0.1754 -0.1031  0.3958
  550TMC3    C5 8160   3.976   3.070  12.094  0.0935 -0.4319 -0.2658
  550TMC3    C6 8161   3.886   3.133  12.180 -1.0179 -0.0564  0.2586
  550TMC3     C 8162   4.136   3.337  11.928  0.0160  0.4948 -0.1991
  550TMC3     O 8163   4.085   3.302  11.821  0.4600  0.1591 -0.4886
  550TMC3     H 8164   4.001   3.455  12.126 -0.4417 -0.4982  0.7068
  550TMC3    H1 8165   4.141   3.099  11.962  0.2377 -1.0680  1.1713
  550TMC3    H2 8166   3.797   3.084  12.216  0.4685 -1.3267  2.2044
  550TMC3    C7 8167   3.916   2.956  12.026 -0.1466 -0.3505 -0.9028
  550TMC3    C8 8168   3.817   3.348  12.285  0.2542 -0.1561 -0.3185
  550TMC3    O1 8169   3.818   2.902  12.076  0.4410  0.3581 -0.0960
  550TMC3    O2 8170   3.808   3.465  12.255  0.1522  0.1757 -0.0136
  551TMC3    C1 8171   1.874   1.184  13.256  0.0538  0.2529 -0.1339
  551TMC3    C2 8172   1.987   1.203  13.181  0.7213 -0.4901  0.5960
  551TMC3    C3 8173   2.077   1.299  13.222  0.8273  0.6734  0.1191
  551TMC3    C4 8174   1.857   1.248  13.377  0.7670  0.1176 -0.3566
  551TMC3    C5 8175   1.961   1.325  13.420  0.1038 -0.0017  0.4305
  551TMC3    C6 8176   2.065   1.365  13.343 -0.2042 -0.3132  0.3023
  551TMC3     C 8177   1.766   1.126  13.185 -0.4199 -0.1539 -0.0542
  551TMC3     O 8178   1.797   1.046  13.096  0.0345 -0.2092  0.1571
  551TMC3     H 8179   1.994   1.172  13.078 -0.6356 -0.6087  0.5417
  551TMC3    H1 8180   1.779   1.219  13.447  1.2032 -1.9190 -0.7164
  551TMC3    H2 8181   2.149   1.425  13.377 -1.2601  1.2304  0.2119
  551TMC3    C7 8182   1.970   1.351  13.564  0.8064 -0.2942 -0.0155
  551TMC3    C8 8183   2.143   1.363  13.098  0.6954  0.4440 -0.2855
  551TMC3    O1 8184   2.081   1.359  13.618  0.1356 -0.6523  0.4449
  551TMC3    O2 8185   2.190   1.290  13.009  0.2481 -0.2413  0.7683
  552MPD2     C 8186   3.609   3.570  14.187  0.4804 -0.2372  0.3284
  552MPD2    C1 8187   3.631   3.436  14.180  0.0655 -0.3660 -0.4917
  552MPD2    C2 8188   3.734   3.381  14.257  0.2672  0.3271  0.0039
  552MPD2    C3 8189   3.823   3.467  14.325  0.0523 -0.3759 -1.1163
  552MPD2    C4 8190   3.786   3.595  14.337 -0.3408  0.2956 -0.0638
  552MPD2    C5 8191   3.685   3.652  14.269  0.3254  0.2086 -0.1002
  552MPD2     H 8192   3.746   3.273  14.258  1.3590  0.4548  1.9990
  552MPD2    H1 8193   3.853   3.663  14.388 -1.6206  1.5574 -0.0584
  552MPD2    H2 8194   3.533   3.616  14.126  0.5458 -1.8344 -0.9569
  552MPD2    H3 8195   3.664   3.757  14.286  0.6689  0.2663 -0.0447
  552MPD2     N 8196   3.940   3.420  14.393  0.0028 -0.0025 -0.1557
  552MPD2    H5 8197   3.990   3.489  14.448  3.2861 -2.1535 -0.4458
  552MPD2    N1 8198   3.556   3.349  14.104 -0.1624 -0.2999  0.6081
  552MPD2    H7 8199   3.559   3.251  14.131  1.6280 -0.4097  0.0198
  553TMC3    C1 8200   3.431   3.275  13.920 -0.6921  0.0817  0.4112
  553TMC3    C2 8201   3.417   3.294  13.789 -0.1691  0.4445 -0.3132
  553TMC3    C3 8202   3.357   3.197  13.713  0.2260 -0.1762 -0.3851
  553TMC3    C4 8203   3.379   3.165  13.992  0.5338  0.7582  0.4174
  553TMC3    C5 8204   3.315   3.074  13.915 -0.7187 -0.2452  0.4392
  553TMC3    C6 8205   3.300   3.095  13.781 -0.2133  0.2159 -0.3617
  553TMC3     C 8206   3.484   3.389  13.992 -0.3201 -0.2697  0.4166
  553TMC3     O 8207   3.481   3.500  13.939 -0.2199  0.1129 -0.3921
  553TMC3     H 8208   3.467   3.381  13.748  1.1456 -0.1473  0.0544
  553TMC3    H1 8209   3.369   3.163  14.100  2.3369 -0.9131  0.5653
  553TMC3    H2 8210   3.261   3.015  13.719 -1.0775  0.6585 -0.3926
  553TMC3    C7 8211   3.356   2.943  13.931  0.7468 -0.4240  0.0217
  553TMC3    C8 8212   3.453   3.153  13.612 -0.4374 -0.2932  0.1374
  553TMC3    O1 8213   3.286   2.859  13.879 -0.0365  0.8269  0.5760
  553TMC3    O2 8214   3.558   3.217  13.602  0.3001  0.4735 -0.2237
  554TMC3    C1 8215   1.087   2.498  11.458  0.3278  0.4299  0.0659
  554TMC3    C2 8216   1.049   2.404  11.361  0.5057 -0.5296 -0.2699
  554TMC3    C3 8217   1.131   2.386  11.258  0.3154  0.6384 -0.1781
  554TMC3    C4 8218   1.200   2.565  11.442 -0.0146 -0.3067 -0.0081
  554TMC3    C5 8219   1.277   2.552  11.324  0.1464  0.3529 -0.2891
  554TMC3    C6 8220   1.239   2.462  11.233  0.2202  0.2945 -0.0971
  554TMC3     C 8221   1.068   2.463  11.602 -0.1720 -0.4108 -0.3398
  554TMC3     O 8222   1.159   2.496  11.679 -0.3405  0.2053 -0.8163
  554TMC3     H 8223   0.972   2.331  11.378  1.0452 -0.8485  0.8004
  554TMC3    H1 8224   1.245   2.633  11.514 -1.0478 -1.1146  1.3733
  554TMC3    H2 8225   1.303   2.447  11.147  0.5206 -0.3696  0.2392
  554TMC3    C7 8226   1.338   2.666  11.258  0.7664  0.5875  0.6060
  554TMC3    C8 8227   1.063   2.330  11.136 -0.3508 -0.0179 -0.9291
  554TMC3    O1 8228   1.389   2.649  11.149  1.1744  0.0978 -0.1123
  554TMC3    O2 8229   1.099   2.381  11.030  0.9259 -0.2551  0.2643
  555TMC3    C1 8230   4.597   2.288  15.349 -0.4143 -0.3894  0.2351
  555TMC3    C2 8231   4.600   2.341  15.470 -0.2147 -0.5860 -0.5880
  555TMC3    C3 8232   4.587   2.265  15.583 -0.1904  0.2509 -0.2715
  555TMC3    C4 8233   4.589   2.152  15.333  0.8731 -0.1058 -0.1015
  555TMC3    C5 8234   4.582   2.079  15.448 -0.0213  0.7442 -0.0825
  555TMC3    C6 8235   4.588   2.130  15.571 -0.5362 -0.6827  0.3127
  555TMC3     C 8236   4.575   2.383  15.239 -0.1094 -0.1714 -0.0936
  555TMC3     O 8237   4.632   2.492  15.258  0.0837  0.1853 -0.3132
  555TMC3     H 8238   4.629   2.445  15.480  0.0405 -0.9262  2.4231
  555TMC3    H1 8239   4.593   2.095  15.241 -0.7957  0.3724 -0.4736
  555TMC3    H2 8240   4.573   2.067  15.657 -1.5527 -0.7834  0.0594
  555TMC3    C7 8241   4.564   1.937  15.423  0.6790 -0.3361 -0.0623
  555TMC3    C8 8242   4.577   2.334  15.706 -0.0289 -0.0164 -0.1359
  555TMC3    O1 8243   4.488   1.885  15.502  0.0868 -0.6071  0.5559
  555TMC3    O2 8244   4.576   2.456  15.703  0.5670 -0.0257  0.1178
  556MPD2     C 8245   3.055   3.030  11.305 -0.2272 -0.1217  0.5429
  556MPD2    C1 8246   2.930   2.985  11.311  0.1504 -0.1075  0.4299
  556MPD2    C2 8247   2.903   2.881  11.232 -0.7436  0.6916 -0.2238
  556MPD2    C3 8248   2.997   2.807  11.160 -0.8483 -0.6421 -0.0726
  556MPD2    C4 8249   3.124   2.847  11.160 -0.6779  0.6385  0.3159
  556MPD2    C5 8250   3.153   2.959  11.233 -0.1272 -0.9305  0.7345
  556MPD2     H 8251   2.803   2.840  11.225 -0.5776  0.2733 -0.1423
  556MPD2    H1 8252   3.204   2.795  11.110 -2.7227  1.0203 -3.3387
  556MPD2    H2 8253   3.097   3.112  11.363  0.5542  0.9913 -1.6279
  556MPD2    H3 8254   3.257   2.989  11.235 -0.7582  1.2737  0.4100
  556MPD2     N 8255   2.962   2.687  11.097  0.3364  0.0397 -0.5235
  556MPD2    H5 8256   2.863   2.670  11.108  0.4672 -0.7810 -0.6337
  556MPD2    N1 8257   2.832   3.063  11.383 -0.8105 -0.3406  0.4589
  556MPD2    H7 8258   2.869   3.143  11.433 -2.1435 -0.6863  1.9901
  557TMC3    C1 8259   2.965   2.488  10.957 -0.8068  0.7031  0.1846
  557TMC3    C2 8260   3.051   2.392  10.903 -0.9018 -0.5073  0.0447
  557TMC3    C3 8261   2.996   2.295  10.824  0.3735 -0.3473  0.2613
  557TMC3    C4 8262   2.828   2.486  10.937 -0.3903  0.1406  0.9320
  557TMC3    C5 8263   2.774   2.387  10.858 -0.4607 -1.5501  0.3074
  557TMC3    C6 8264   2.856   2.295  10.801  0.1660 -0.1298  0.1986
  557TMC3     C 8265   3.040   2.593  11.034  0.6682  0.7464 -0.0826
  557TMC3     O 8266   3.161   2.572  11.045  0.5816  0.2314  0.7885
  557TMC3     H 8267   3.158   2.396  10.918 -1.0029  0.2097  0.5786
  557TMC3    H1 8268   2.762   2.563  10.977 -2.1592 -1.3400  0.8494
  557TMC3    H2 8269   2.818   2.211  10.744  0.9127  0.6789 -1.4918
  557TMC3    C7 8270   2.632   2.399  10.824 -0.6244  0.5219  0.0803
  557TMC3    C8 8271   3.090   2.231  10.723  0.2982 -0.2280  0.7765
  557TMC3    O1 8272   2.590   2.515  10.818  0.4612  0.0755  0.2059
  557TMC3    O2 8273   3.208   2.222  10.757  0.1406 -0.0832 -0.1459
  558TMC3    C1 8274   0.914   0.696   9.674  0.7801  0.5124  0.5699
  558TMC3    C2 8275   0.789   0.651   9.707 -0.0937 -0.3604  0.4551
  558TMC3    C3 8276   0.685   0.673   9.623 -1.3350 -0.1316  0.2887
  558TMC3    C4 8277   0.940   0.740   9.552 -0.1459 -0.5024  0.1080
  558TMC3    C5 8278   0.835   0.761   9.471  0.2237  0.0765 -0.0516
  558TMC3    C6 8279   0.711   0.722   9.497  0.3282  1.1187 -0.6624
  558TMC3     C 8280   1.000   0.751   9.778 -0.3012  0.1423 -0.1926
  558TMC3     O 8281   1.060   0.852   9.756 -0.2728 -0.0596 -0.2449
  558TMC3     H 8282   0.760   0.624   9.808 -1.6379  0.0902  0.1401
  558TMC3    H1 8283   1.035   0.788   9.535 -0.9829  0.9574 -0.4942
  558TMC3    H2 8284   0.631   0.732   9.424  0.6454  0.1647 -1.1397
  558TMC3    C7 8285   0.864   0.817   9.347  0.2085 -0.2294 -0.1025
  558TMC3    C8 8286   0.545   0.694   9.661 -0.1251  0.1443  0.4842
  558TMC3    O1 8287   0.982   0.799   9.315 -0.3160  0.0629  0.1026
  558TMC3    O2 8288   0.459   0.667   9.577  0.8630  0.2386 -0.6584
  559MPD2     C 8289   0.781   1.844  10.398 -0.3698  0.1718  0.7432
  559MPD2    C1 8290   0.720   1.753  10.482 -0.5551 -0.2688 -0.9682
  559MPD2    C2 8291   0.793   1.677  10.566  0.5237 -0.0342  0.2147
  559MPD2    C3 8292   0.928   1.700  10.584 -0.6440  0.2872 -0.0303
  559MPD2    C4 8293   0.987   1.796  10.500  0.1405  0.8947  0.0209
  559MPD2    C5 8294   0.915   1.863  10.408 -0.1335  0.0385  0.6993
  559MPD2     H 8295   0.746   1.600  10.626 -0.2563  0.9261  0.8350
  559MPD2    H1 8296   1.094   1.816  10.502  0.4065 -0.6718  1.2765
  559MPD2    H2 8297   0.722   1.904  10.330  1.3776 -0.0437 -0.9353
  559MPD2    H3 8298   0.972   1.937  10.354  0.0927 -0.0840  0.7674
  559MPD2     N 8299   0.990   1.635  10.694 -0.4998  0.7616  0.0050
  559MPD2    H5 8300   0.937   1.559  10.737  3.6497 -1.1875  1.6917
  559MPD2    N1 8301   0.581   1.735  10.475  0.1405 -0.1706  0.2879
  559MPD2    H7 8302   0.525   1.813  10.442  2.8314  2.9227  2.9749
  560TMC3    C1 8303   1.102   1.617  10.895 -0.2996 -0.1343 -0.2013
  560TMC3    C2 8304   1.034   1.502  10.909  0.2013  0.4667 -0.3989
  560TMC3    C3 8305   0.973   1.482  11.021 -0.3261  0.1494 -0.5404
  560TMC3    C4 8306   1.102   1.727  10.981 -0.7610 -0.0708  0.2692
  560TMC3    C5 8307   1.032   1.707  11.093 -0.5230  0.3385  0.1086
  560TMC3    C6 8308   0.965   1.585  11.116 -0.1636  0.0483 -0.2082
  560TMC3     C 8309   1.103   1.675  10.757  0.1957  0.1526  0.3021
  560TMC3     O 8310   1.165   1.778  10.738  0.7791 -0.4859 -0.5637
  560TMC3     H 8311   1.046   1.435  10.825 -2.2866 -0.1027 -0.2941
  560TMC3    H1 8312   1.168   1.811  10.963 -0.2065 -0.6633 -0.4538
  560TMC3    H2 8313   0.900   1.580  11.203  0.6031 -0.7207  0.3175
  560TMC3    C7 8314   1.073   1.776  11.215 -0.4879  0.3970 -0.2976
  560TMC3    C8 8315   0.851   1.402  10.998 -0.4168  1.0315 -0.0094
  560TMC3    O1 8316   1.046   1.721  11.318 -0.2892  0.5078 -0.4570
  560TMC3    O2 8317   0.865   1.309  10.922  0.0750 -0.2332  0.2587
  561TMC3    C1 8318   3.553   0.846  11.596 -0.4217  0.0606  1.0663
  561TMC3    C2 8319   3.455   0.756  11.623 -0.4516  0.4496  0.2243
  561TMC3    C3 8320   3.325   0.801  11.604 -0.3354  0.1566  0.1678
  561TMC3    C4 8321   3.527   0.969  11.535 -0.1332 -0.1901 -0.2156
  561TMC3    C5 8322   3.397   1.010  11.523  0.5772  0.1774 -0.4393
  561TMC3    C6 8323   3.295   0.926  11.560 -0.4192 -0.2720  0.0275
  561TMC3     C 8324   3.687   0.819  11.654 -0.3268  0.1651  0.5882
  561TMC3     O 8325   3.761   0.918  11.676 -0.0278 -0.2378  0.1827
  561TMC3     H 8326   3.462   0.660  11.673 -0.0130  0.9900  1.2061
  561TMC3    H1 8327   3.610   1.032  11.504 -1.9192  1.1457 -2.2839
  561TMC3    H2 8328   3.195   0.963  11.540 -0.0915  0.8926  0.5693
  561TMC3    C7 8329   3.358   1.140  11.473  0.0212 -0.6974 -0.3226
  561TMC3    C8 8330   3.220   0.724  11.665  0.1940  0.0106 -0.3906
  561TMC3    O1 8331   3.254   1.189  11.519 -0.0839 -0.1459 -0.0093
  561TMC3    O2 8332   3.242   0.605  11.679 -0.3286 -0.1075 -0.3244
  562TMC3    C1 8333   4.455   2.050  16.319 -0.1840  0.0592  0.1180
  562TMC3    C2 8334   4.365   2.148  16.287  1.2345 -0.3699  0.4544
  562TMC3    C3 8335   4.313   2.154  16.157  0.9754  0.4314  0.1998
  562TMC3    C4 8336   4.483   1.955  16.230  0.8562 -0.3496 -0.2211
  562TMC3    C5 8337   4.420   1.951  16.107 -0.5076  0.1639  0.2037
  562TMC3    C6 8338   4.330   2.046  16.067 -0.8869 -0.0966 -0.2950
  562TMC3     C 8339   4.455   2.013  16.460 -0.0543  0.2436  0.7964
  562TMC3     O 8340   4.478   1.897  16.488 -0.0995 -0.1356 -0.0950
  562TMC3     H 8341   4.330   2.212  16.368  0.5260 -0.0053 -0.1408
  562TMC3    H1 8342   4.569   1.892  16.249  1.1405  0.5870  1.5488
  562TMC3    H2 8343   4.282   2.038  15.970  3.2388  0.3772 -2.3618
  562TMC3    C7 8344   4.497   1.901  15.993  0.3645  0.3559  0.6314
  562TMC3    C8 8345   4.256   2.280  16.121  0.0410  0.4447  0.1515
  562TMC3    O1 8346   4.495   1.976  15.897 -0.7880  0.1938 -0.7008
  562TMC3    O2 8347   4.256   2.371  16.206 -0.6585  0.2989 -0.3793
  563MPD2     C 8348   1.738   3.726  15.659  0.2497  0.1462  1.2036
  563MPD2    C1 8349   1.788   3.782  15.776  0.3015 -0.2970 -0.1946
  563MPD2    C2 8350   1.919   3.765  15.813  0.4221  0.2450 -0.1306
  563MPD2    C3 8351   2.006   3.693  15.735  0.3402  0.0903  0.5852
  563MPD2    C4 8352   1.966   3.629  15.620 -0.0446 -0.3258  0.5674
  563MPD2    C5 8353   1.832   3.646  15.585 -0.4398 -0.3983  0.2548
  563MPD2     H 8354   1.957   3.800  15.908 -1.2723  1.4397  0.1208
  563MPD2    H1 8355   2.033   3.572  15.558 -1.2055  0.0160 -0.9975
  563MPD2    H2 8356   1.639   3.735  15.615  0.3186 -0.8843  0.8435
  563MPD2    H3 8357   1.814   3.607  15.486 -0.9440  1.9721 -0.5950
  563MPD2     N 8358   2.133   3.673  15.791  0.0710  0.0004  0.3665
  563MPD2    H5 8359   2.152   3.708  15.884 -0.9410 -2.5358  1.5242
  563MPD2    N1 8360   1.693   3.844  15.863 -0.1088  0.2544 -0.5787
  563MPD2    H7 8361   1.597   3.848  15.827 -0.9924 -2.1940  1.5572
  564TMC3    C1 8362   1.631   3.868  16.092 -0.4314  0.3465 -0.4041
  564TMC3    C2 8363   1.502   3.846  16.055  0.2407 -0.6168  0.6666
  564TMC3    C3 8364   1.430   3.761  16.132  0.0375  0.0106  0.4729
  564TMC3    C4 8365   1.684   3.814  16.202 -0.2199 -0.3103  0.7572
  564TMC3    C5 8366   1.619   3.723  16.273 -0.3515 -0.4178  0.1230
  564TMC3    C6 8367   1.491   3.694  16.237  0.4614  0.7609 -0.4078
  564TMC3     C 8368   1.723   3.895  15.989 -0.1615  0.0401 -0.4867
  564TMC3     O 8369   1.834   3.930  16.023 -0.3029 -0.0420 -0.0677
  564TMC3     H 8370   1.457   3.894  15.969 -1.4559 -0.3932  1.6860
  564TMC3    H1 8371   1.783   3.838  16.240  0.3020  0.9178 -1.3550
  564TMC3    H2 8372   1.435   3.618  16.290 -1.8703  1.6993 -1.5417
  564TMC3    C7 8373   1.690   3.605  16.317  0.7013  0.7736 -0.2889
  564TMC3    C8 8374   1.345   3.684  16.054  0.3040  1.2039  0.2355
  564TMC3    O1 8375   1.791   3.616  16.378 -0.1944 -0.1338 -0.1254
  564TMC3    O2 8376   1.258   3.625  16.117 -0.1189 -0.1931 -0.0884
  565TMC3    C1 8377   1.237   0.555   9.302 -1.0108 -0.8431 -0.7933
  565TMC3    C2 8378   1.304   0.449   9.363 -1.0418  0.2122 -0.0819
  565TMC3    C3 8379   1.241   0.328   9.384 -0.1869  0.2171  0.3898
  565TMC3    C4 8380   1.111   0.542   9.253 -0.2049  0.5525  0.3513
  565TMC3    C5 8381   1.048   0.425   9.287 -0.2804  0.3869 -0.1622
  565TMC3    C6 8382   1.111   0.322   9.355 -0.0046  0.2025 -0.4026
  565TMC3     C 8383   1.323   0.662   9.263  0.1984  0.2694  0.5238
  565TMC3     O 8384   1.441   0.645   9.255  0.2677 -0.5611  0.1156
  565TMC3     H 8385   1.411   0.452   9.384 -0.9868  0.6510 -0.4231
  565TMC3    H1 8386   1.064   0.617   9.190 -0.9492 -0.9391 -0.8659
  565TMC3    H2 8387   1.058   0.227   9.362  1.6847 -0.7851 -0.9047
  565TMC3    C7 8388   0.904   0.424   9.308 -0.1444  0.1399 -0.3488
  565TMC3    C8 8389   1.315   0.228   9.457 -0.5732  0.1704  0.4293
  565TMC3    O1 8390   0.864   0.381   9.416 -0.1525  0.4056  0.6560
  565TMC3    O2 8391   1.441   0.238   9.477 -0.0555 -0.2267  0.1071
  566MPD2     C 8392   4.572   1.076  14.165  0.5379  0.1483 -0.3310
  566MPD2    C1 8393   4.553   1.193  14.228  0.0452  0.4443 -1.1362
  566MPD2    C2 8394   4.423   1.221  14.268 -0.0680  0.1671  0.1405
  566MPD2    C3 8395   4.314   1.138  14.238  0.6897  0.1442 -0.4569
  566MPD2    C4 8396   4.336   1.014  14.186  0.3777 -1.1924  0.2158
  566MPD2    C5 8397   4.471   0.982  14.156  0.7289 -0.3990 -0.7837
  566MPD2     H 8398   4.393   1.314  14.314 -0.6130 -0.1175  0.3625
  566MPD2    H1 8399   4.253   0.946  14.169  1.0069 -1.7412 -0.7000
  566MPD2    H2 8400   4.676   1.050  14.147  0.3121 -0.4570 -0.7629
  566MPD2    H3 8401   4.488   0.881  14.122  1.9576 -0.6769  0.6512
  566MPD2     N 8402   4.183   1.195  14.255 -0.0227 -0.1087 -0.8702
  566MPD2    H5 8403   4.185   1.289  14.294  0.4962 -1.3308  1.9883
  566MPD2    N1 8404   4.661   1.291  14.255  0.1761 -0.0216 -0.2509
  566MPD2    H7 8405   0.025   1.283  14.200  1.4958  0.9000  1.6315
  567TMC3    C1 8406   0.055   1.474  14.378 -0.0881  0.3838 -0.8185
  567TMC3    C2 8407   0.115   1.516  14.260 -0.1958  0.6453  0.0040
  567TMC3    C3 8408   0.184   1.634  14.274  0.0176 -0.0365  0.8696
  567TMC3    C4 8409   0.053   1.539  14.498 -0.1043 -0.2694 -0.4388
  567TMC3    C5 8410   0.123   1.655  14.502 -0.7346  0.2519 -0.5184
  567TMC3    C6 8411   0.194   1.697  14.394  0.1585  0.1083  0.0985
  567TMC3     C 8412   4.656   1.385  14.358 -0.3687  0.5473 -0.3386
  567TMC3     O 8413   4.570   1.399  14.446  0.2300 -0.2104 -0.4863
  567TMC3     H 8414   0.103   1.473  14.161  1.8945  0.6207 -0.2208
  567TMC3    H1 8415   0.002   1.493  14.583 -0.2034 -0.4434 -0.5937
  567TMC3    H2 8416   0.228   1.800  14.397  1.7489 -0.2775 -4.1255
  567TMC3    C7 8417   0.127   1.746  14.616  0.1859  0.9168  0.3885
  567TMC3    C8 8418   0.164   1.726  14.160 -0.3088 -0.9469  0.6138
  567TMC3    O1 8419   0.201   1.840  14.618  0.5457 -0.4209  0.0493
  567TMC3    O2 8420   0.093   1.823  14.181  0.0392  0.0586 -0.3865
  568MPD2     C 8421   2.157   2.849  16.501  0.3790  0.0459  0.0423
  568MPD2    C1 8422   2.082   2.931  16.575 -0.5121 -0.7511  0.4919
  568MPD2    C2 8423   1.950   2.950  16.531 -0.6655 -1.0282  0.3965
  568MPD2    C3 8424   1.904   2.896  16.416 -0.3343  0.4997 -0.6131
  568MPD2    C4 8425   1.996   2.823  16.340  0.3357 -0.9985 -0.1909
  568MPD2    C5 8426   2.126   2.807  16.382  0.3082 -0.8218  0.3531
  568MPD2     H 8427   1.884   3.005  16.598  0.7147  0.1533  0.7935
  568MPD2    H1 8428   1.961   2.763  16.257 -1.8782  0.2520 -0.1516
  568MPD2    H2 8429   2.259   2.827  16.531 -0.4404 -3.5479  0.2174
  568MPD2    H3 8430   2.195   2.757  16.316 -1.3883 -1.6037 -0.8224
  568MPD2     N 8431   1.773   2.925  16.389  0.0100 -0.5767 -0.0206
  568MPD2    H5 8432   1.726   2.967  16.468 -0.0957  0.6262 -0.7315
  568MPD2    N1 8433   2.129   2.980  16.698 -0.7354 -0.2161  0.5177
  568MPD2    H7 8434   2.205   2.924  16.735  0.2957  0.2199 -0.9577
  569TMC3    C1 8435   1.572   2.929  16.258 -0.7377  0.4950 -0.2637
  569TMC3    C2 8436   1.512   3.007  16.351  0.0593  0.0762 -0.2725
  569TMC3    C3 8437   1.394   3.063  16.319 -0.0314  0.7731 -0.2558
  569TMC3    C4 8438   1.514   2.902  16.132 -0.7218  0.1429 -0.2010
  569TMC3    C5 8439   1.394   2.963  16.103 -0.4609  0.0626 -0.2791
  569TMC3    C6 8440   1.330   3.038  16.198  0.3892 -0.0295 -0.3544
  569TMC3     C 8441   1.713   2.889  16.273  0.4799 -0.6219 -0.4929
  569TMC3     O 8442   1.759   2.830  16.175 -0.5013 -0.1531  0.0500
  569TMC3     H 8443   1.551   3.023  16.451 -0.3067  2.0089 -0.4449
  569TMC3    H1 8444   1.563   2.845  16.054  0.8437 -0.4594  1.2461
  569TMC3    H2 8445   1.228   3.071  16.179 -0.0960  0.2706  2.6601
  569TMC3    C7 8446   1.387   3.028  15.974  0.0578  0.4080 -0.2862
  569TMC3    C8 8447   1.349   3.188  16.375  0.2650 -0.5925  0.5533
  569TMC3    O1 8448   1.445   2.973  15.882  0.4303 -0.0098 -0.2498
  569TMC3    O2 8449   1.266   3.243  16.306 -0.1849 -0.4122  0.3320
  570TMC3    C1 8450   0.863   1.551  16.186  1.0121  0.0197  0.0244
  570TMC3    C2 8451   0.933   1.508  16.078 -0.1925 -0.0890  0.4302
  570TMC3    C3 8452   1.002   1.598  16.004  0.0192 -0.1431 -0.2465
  570TMC3    C4 8453   0.842   1.683  16.218  0.2597 -1.0993  0.0895
  570TMC3    C5 8454   0.921   1.766  16.150  0.0587  0.1946  0.6813
  570TMC3    C6 8455   1.004   1.729  16.047  0.1136  0.4112 -0.4667
  570TMC3     C 8456   0.825   1.452  16.282  0.1738 -0.4574 -0.6049
  570TMC3     O 8457   0.850   1.331  16.260  0.7737 -0.8531  0.4307
  570TMC3     H 8458   0.926   1.406  16.041 -2.5182  0.3575 -0.3332
  570TMC3    H1 8459   0.783   1.726  16.298 -0.4995 -1.4538 -0.2791
  570TMC3    H2 8460   1.073   1.797  15.998 -0.2144  1.9366  1.1967
  570TMC3    C7 8461   0.891   1.904  16.163  0.3279 -0.1285  0.6204
  570TMC3    C8 8462   1.115   1.559  15.923  0.2223 -0.3759  0.1787
  570TMC3    O1 8463   0.881   1.947  16.277 -0.2964 -0.3239 -0.0331
  570TMC3    O2 8464   1.166   1.657  15.866 -0.4827  0.3024  0.3965
  571MPD2     C 8465   3.845   3.044  17.477  0.6143  0.5273  0.0926
  571MPD2    C1 8466   3.728   3.079  17.541  0.0117  0.6104  0.3812
  571MPD2    C2 8467   3.726   3.086  17.682 -0.0334 -0.0581  0.3554
  571MPD2    C3 8468   3.843   3.067   0.064 -0.2286 -0.7653 -0.8250
  571MPD2    C4 8469   3.959   3.027   0.000 -0.5559  0.3340 -0.4845
  571MPD2    C5 8470   3.957   3.014  17.549  0.2231 -0.3032 -0.1498
  571MPD2     H 8471   3.642   3.120   0.055  0.1175 -2.6807  2.0801
  571MPD2    H1 8472   4.049   2.998   0.053 -0.7366  1.6481  0.5400
  571MPD2    H2 8473   3.851   3.049  17.369  0.4304 -0.0699  0.0552
  571MPD2    H3 8474   4.048   2.982  17.499  0.3563 -0.4307  0.1779
  571MPD2     N 8475   3.835   3.086   0.206  0.1823  0.1552 -0.1379
  571MPD2    H5 8476   3.746   3.110   0.249  1.0975  1.4914  1.0051
  571MPD2    N1 8477   3.625   3.124  17.459  0.0743  0.6505 -0.2320
  571MPD2    H7 8478   3.644   3.127  17.360 -2.0383  3.1125 -0.5835
  572TMC3    C1 8479   3.916   3.136   0.419  0.0232 -0.2816  0.0064
  572TMC3    C2 8480   3.796   3.116   0.473 -0.0383 -0.0615 -0.3555
  572TMC3    C3 8481   3.751   3.205   0.570 -1.0786  0.3259 -0.1087
  572TMC3    C4 8482   3.997   3.243   0.443 -0.3908  0.7457  0.2435
  572TMC3    C5 8483   3.950   3.331   0.531  0.0718 -0.0420 -0.1085
  572TMC3    C6 8484   3.827   3.318   0.597  0.0584 -0.1257  0.3231
  572TMC3     C 8485   3.943   3.074   0.292  0.9943  0.2551  0.7607
  572TMC3     O 8486   4.056   3.029   0.278 -0.0112 -0.2019 -0.4131
  572TMC3     H 8487   3.745   3.021   0.464  0.4498 -0.1772 -1.8651
  572TMC3    H1 8488   4.096   3.253   0.400 -1.2404  1.4054 -1.5711
  572TMC3    H2 8489   3.804   3.397   0.667 -0.6276  0.1582 -0.2241
  572TMC3    C7 8490   3.995   3.464   0.487  0.1631  0.4272  0.0562
  572TMC3    C8 8491   3.639   3.177   0.651 -0.0670  0.9578  0.1189
  572TMC3    O1 8492   3.982   3.477   0.367 -0.6858 -0.6259  0.1714
  572TMC3    O2 8493   3.619   3.059   0.676 -0.7154 -0.3200 -0.1767
  573MPD2     C 8494   1.067   4.304   1.665 -0.0585  0.4763  0.1532
  573MPD2    C1 8495   0.966   4.389   1.703  0.2737  0.7368 -0.1825
  573MPD2    C2 8496   0.862   4.406   1.610  0.0976 -0.7541  0.7886
  573MPD2    C3 8497   0.852   4.340   1.491  0.0941  0.3069  0.4518
  573MPD2    C4 8498   0.959   4.267   1.456  0.7239 -0.4673 -0.7530
  573MPD2    C5 8499   1.062   4.245   1.539  0.1999  0.1804  0.9320
  573MPD2     H 8500   0.788   4.481   1.637 -0.5517 -0.2583 -2.3637
  573MPD2    H1 8501   0.968   4.208   1.366 -0.9777 -1.4656 -0.2850
  573MPD2    H2 8502   1.152   4.277   1.728 -1.3404 -1.2938  1.1364
  573MPD2    H3 8503   1.137   4.177   1.500 -0.4181  0.4851 -0.7729
  573MPD2     N 8504   0.749   4.340   1.396  0.1508  0.9728 -0.5479
  573MPD2    H5 8505   0.751   4.286   1.310 -2.0450  0.0044  0.0002
  573MPD2    N1 8506   0.982   4.461   1.821  0.4324  0.3204  0.3269
  573MPD2    H7 8507   1.063   4.436   1.877 -1.0694 -0.7484  1.9922
  574TMC3    C1 8508   0.533   4.397   1.314  0.5051 -0.8653  0.5183
  574TMC3    C2 8509   0.401   4.370   1.333  0.1174 -0.8405  1.0883
  574TMC3    C3 8510   0.320   4.376   1.227 -0.0997 -0.4790 -0.2820
  574TMC3    C4 8511   0.585   4.428   1.193 -0.4760  0.4931 -0.3573
  574TMC3    C5 8512   0.503   4.425   1.092  0.1525 -0.1096  0.7736
  574TMC3    C6 8513   0.368   4.408   1.105 -0.3266  0.2855  0.2197
  574TMC3     C 8514   0.627   4.398   1.425  0.4089 -0.0562 -0.2870
  574TMC3     O 8515   0.586   4.448   1.525  0.5382 -0.1278  0.7967
  574TMC3     H 8516   0.363   4.338   1.430  0.4190  0.3031  1.5946
  574TMC3    H1 8517   0.677   4.486   1.183  0.6204 -0.9532  1.3164
  574TMC3    H2 8518   0.296   4.421   1.025  0.8951  0.5803 -0.8340
  574TMC3    C7 8519   0.551   4.457   0.958  0.1297 -0.5939  0.1651
  574TMC3    C8 8520   0.194   4.311   1.251  0.1051  0.7418 -0.2491
  574TMC3    O1 8521   0.661   4.514   0.953 -0.9347  0.6001 -0.0562
  574TMC3    O2 8522   0.157   4.285   1.364  0.3300 -0.2476  0.1014
  575TMC3    C1 8523   2.043   4.479   9.556 -0.0391  0.7459 -0.6791
  575TMC3    C2 8524   2.076   4.428   9.680  0.4109  0.1674  0.3414
  575TMC3    C3 8525   1.972   4.409   9.767 -0.0233 -0.0670  0.3735
  575TMC3    C4 8526   1.915   4.518   9.524  0.3152  0.5017 -0.1286
  575TMC3    C5 8527   1.815   4.491   9.618  0.6098 -0.1892  0.3046
  575TMC3    C6 8528   1.839   4.440   9.744  0.2780  0.6314  0.0244
  575TMC3     C 8529   2.152   4.509   9.463  0.2569 -0.6473  0.0068
  575TMC3     O 8530   2.260   4.477   9.498  0.0549 -0.1239 -0.5665
  575TMC3     H 8531   2.177   4.390   9.694 -0.2179 -0.6936  2.5562
  575TMC3    H1 8532   1.890   4.540   9.421 -0.4484  0.6745  0.0962
  575TMC3    H2 8533   1.767   4.420   9.822 -1.6716  0.8952 -1.6972
  575TMC3    C7 8534   1.694   4.562   9.591 -0.1786 -0.0464  0.2043
  575TMC3    C8 8535   1.995   4.335   9.886 -0.0070 -0.3145  0.6497
  575TMC3    O1 8536   1.695   4.659   9.518 -0.0209 -0.9240 -0.3730
  575TMC3    O2 8537   1.897   4.277   9.932 -0.1750 -0.0473 -0.3527
  576MPD2     C 8538   2.065   1.120  12.486 -0.1958 -0.2070 -0.0134
  576MPD2    C1 8539   2.117   1.224  12.416 -0.1125  0.0811  0.3723
  576MPD2    C2 8540   2.082   1.347  12.470 -0.4868  0.4549 -0.0508
  576MPD2    C3 8541   2.012   1.368  12.591 -0.1192  0.2815  0.0817
  576MPD2    C4 8542   1.962   1.255  12.652  0.2906  0.6259 -0.2967
  576MPD2    C5 8543   1.987   1.134  12.595 -0.5147 -0.1023 -0.3772
  576MPD2     H 8544   2.124   1.435  12.423 -1.4443  0.8475 -0.1779
  576MPD2    H1 8545   1.898   1.248  12.739  0.7501 -1.4810 -0.1223
  576MPD2    H2 8546   2.086   1.019  12.451  0.6256 -0.0698  0.0958
  576MPD2    H3 8547   1.946   1.049  12.648 -0.6024  0.4134  0.3827
  576MPD2     N 8548   1.981   1.501  12.631 -0.0135 -0.5039 -0.5025
  576MPD2    H5 8549   2.004   1.571  12.561 -1.4887 -0.5512 -1.0386
  576MPD2    N1 8550   2.197   1.214  12.308  0.0461 -0.1606  0.2023
  576MPD2    H7 8551   2.210   1.304  12.262  0.7806 -0.0981  0.5371
  577TMC3    C1 8552   2.356   1.129  12.163 -0.2160  0.8053 -0.4113
  577TMC3    C2 8553   2.461   1.049  12.157  0.4809 -0.2336 -0.0308
  577TMC3    C3 8554   2.540   1.045  12.046 -0.3289 -0.0743  0.5550
  577TMC3    C4 8555   2.316   1.210  12.061  0.1833  0.2914  0.4660
  577TMC3    C5 8556   2.395   1.207  11.949  0.2394 -0.0029  0.6377
  577TMC3    C6 8557   2.513   1.131  11.945  0.2227  0.1621  0.7793
  577TMC3     C 8558   2.272   1.101  12.276  0.2492  0.3289 -0.6181
  577TMC3     O 8559   2.288   0.995  12.334 -0.5229  0.2567  0.3100
  577TMC3     H 8560   2.504   0.999  12.243 -2.2088 -0.1937  1.3349
  577TMC3    H1 8561   2.218   1.257  12.057  0.0747  0.1137  1.0200
  577TMC3    H2 8562   2.575   1.136  11.856 -0.4235 -0.9473  0.2723
  577TMC3    C7 8563   2.359   1.297  11.836  0.8255  1.2990  0.1353
  577TMC3    C8 8564   2.624   0.927  12.033  0.4178 -0.1395 -0.8706
  577TMC3    O1 8565   2.299   1.399  11.860 -0.1763 -0.1001  0.4238
  577TMC3    O2 8566   2.604   0.842  12.119  0.2413 -0.0652 -0.2088
  578MPD2     C 8567   0.245   1.398   0.354 -0.2667  0.0077 -0.6126
  578MPD2    C1 8568   0.249   1.430   0.487  0.5250 -0.1194  0.9078
  578MPD2    C2 8569   0.332   1.364   0.574  0.6941 -0.8070 -0.4972
  578MPD2    C3 8570   0.421   1.271   0.523 -0.2510 -0.0128 -0.0700
  578MPD2    C4 8571   0.418   1.242   0.383 -0.8197 -0.0726 -0.2486
  578MPD2    C5 8572   0.319   1.292   0.308  0.2613 -0.1462 -0.1492
  578MPD2     H 8573   0.325   1.383   0.680 -1.3028  0.1042 -0.7968
  578MPD2    H1 8574   0.479   1.166   0.336  0.9058  1.1877 -0.0717
  578MPD2    H2 8575   0.182   1.443   0.278 -2.1178 -0.6425  0.5340
  578MPD2    H3 8576   0.309   1.255   0.207 -0.0161 -1.0498  0.2119
  578MPD2     N 8577   0.512   1.203   0.614 -0.2126  0.2320 -0.4246
  578MPD2    H5 8578   0.501   1.219   0.713 -0.7659 -2.3625 -0.0502
  578MPD2    N1 8579   0.162   1.536   0.525  0.3129 -0.5459 -0.1043
  578MPD2    H7 8580   0.089   1.558   0.458 -0.6234 -0.0794  1.0670
  579TMC3    C1 8581   0.722   1.121   0.691 -0.2723 -0.7626  0.0605
  579TMC3    C2 8582   0.858   1.117   0.681 -0.6879  0.8327  0.0418
  579TMC3    C3 8583   0.921   1.032   0.765 -0.0766 -0.1906  0.1485
  579TMC3    C4 8584   0.650   1.031   0.773  0.2928  0.4605 -0.7063
  579TMC3    C5 8585   0.727   0.944   0.844  0.3393 -0.2388  0.0082
  579TMC3    C6 8586   0.862   0.948   0.849  0.3792  0.1476  0.5608
  579TMC3     C 8587   0.642   1.175   0.579  0.7330  0.5824  0.2434
  579TMC3     O 8588   0.700   1.205   0.478  0.5498 -0.1982 -0.1135
  579TMC3     H 8589   0.903   1.188   0.612  1.3419 -0.5600 -0.0637
  579TMC3    H1 8590   0.543   1.048   0.777 -0.1928 -3.0206  1.5809
  579TMC3    H2 8591   0.913   0.873   0.908 -3.1767 -3.1360 -0.5045
  579TMC3    C7 8592   0.659   0.854   0.945 -0.2962  0.3811  1.0145
  579TMC3    C8 8593   1.057   1.007   0.733  0.4442 -0.0923  0.0440
  579TMC3    O1 8594   0.724   0.822   1.041 -0.3148 -0.2727  0.0816
  579TMC3    O2 8595   1.096   0.891   0.732  0.0630  0.0555  0.0364
  580TMC3    C1 8596   4.561   0.306  11.709 -0.0460  0.4899 -0.4414
  580TMC3    C2 8597   4.581   0.291  11.574 -0.1910 -0.0801  0.4155
  580TMC3    C3 8598   4.704   0.233  11.538  0.8020 -0.6568  0.8867
  580TMC3    C4 8599   4.639   0.251  11.809 -0.1873 -0.2604 -0.2193
  580TMC3    C5 8600   0.034   0.192  11.764  0.1150  0.3344 -0.0608
  580TMC3    C6 8601   0.068   0.189  11.633  0.5958  0.1422 -0.3778
  580TMC3     C 8602   4.495   0.430  11.738  0.2392  0.0369  0.7400
  580TMC3     O 8603   4.437   0.439  11.848  0.5558  0.4679 -0.2111
  580TMC3     H 8604   4.516   0.336  11.500  0.4593  0.3461  0.0985
  580TMC3    H1 8605   4.617   0.270  11.913 -1.8756  1.5106 -0.9017
  580TMC3    H2 8606   0.156   0.137  11.598  0.4607 -0.1432 -0.2969
  580TMC3    C7 8607   0.102   0.112  11.869 -0.1864 -0.3572  0.3063
  580TMC3    C8 8608   0.043   0.270  11.418  0.2798 -0.5524 -0.5241
  580TMC3    O1 8609   0.077   0.136  11.988 -0.4524 -0.0986  0.6650
  580TMC3    O2 8610   4.682   0.289  11.329  0.1867  0.2707  0.2509
  581MPD2     C 8611   3.235   4.628  15.136  0.6452 -0.0879 -0.6857
  581MPD2    C1 8612   3.110   4.576  15.156  0.5104  0.5910  0.6534
  581MPD2    C2 8613   3.025   4.584  15.048  0.1989 -0.2253  0.4271
  581MPD2    C3 8614   3.062   4.632  14.923 -0.0077  0.0745 -0.3904
  581MPD2    C4 8615   3.186   4.684  14.903  0.4271  0.6133 -0.2485
  581MPD2    C5 8616   3.270   4.689  15.015  0.3024 -0.1328 -0.2827
  581MPD2     H 8617   2.928   4.537  15.046 -0.6171  1.4297  0.7503
  581MPD2    H1 8618   3.208   0.015  14.811 -1.3812  1.2089 -0.3391
  581MPD2    H2 8619   3.318   4.601  15.201 -1.0631 -2.5239  0.4889
  581MPD2    H3 8620   3.372   0.004  15.015 -0.3293  1.6337 -0.6148
  581MPD2     N 8621   2.963   4.649  14.825  0.2186  0.2322  0.5852
  581MPD2    H5 8622   2.866   4.636  14.849 -0.8731 -0.0747 -4.0578
  581MPD2    N1 8623   3.065   4.508  15.271 -0.5185 -0.2598 -0.6400
  581MPD2    H7 8624   2.967   4.483  15.278 -0.8487  1.1527 -0.2155
  582TMC3    C1 8625   3.073   4.402  15.490 -0.8167 -0.4661  0.2633
  582TMC3    C2 8626   3.084   4.440  15.620 -0.7276  0.8440  0.0759
  582TMC3    C3 8627   2.974   4.425  15.699 -0.0567 -0.0094 -0.7383
  582TMC3    C4 8628   2.961   4.336  15.445  0.2860  0.2321  0.2653
  582TMC3    C5 8629   2.867   4.295  15.536  0.1163  0.6429  0.0996
  582TMC3    C6 8630   2.866   4.355  15.658  0.5136  0.0956  0.3415
  582TMC3     C 8631   3.140   4.494  15.393 -0.4030 -0.0260  0.0483
  582TMC3     O 8632   3.244   4.550  15.426  0.2197  0.0841  0.0674
  582TMC3     H 8633   3.147   4.525  15.643 -1.3300  1.7479 -1.6136
  582TMC3    H1 8634   2.951   4.301  15.343 -1.6800  1.4254  0.0479
  582TMC3    H2 8635   2.791   4.329  15.731  0.1478 -0.7030 -0.3228
  582TMC3    C7 8636   2.740   4.259  15.482 -0.1173  0.7435  0.3511
  582TMC3    C8 8637   2.974   4.468  15.838  0.1136 -0.3012  0.1608
  582TMC3    O1 8638   2.734   4.174  15.394 -0.1863  0.0599  0.3251
  582TMC3    O2 8639   2.864   4.463  15.889 -0.3245  0.1153 -0.8223
  583MPD2     C 8640   2.952   1.951  16.901  0.1835 -0.7070  0.3599
  583MPD2    C1 8641   2.923   2.067  16.826 -0.1379 -0.8084  0.0961
  583MPD2    C2 8642   2.886   2.183  16.897  0.7219  0.4776  0.3135
  583MPD2    C3 8643   2.875   2.183  17.035 -0.2560 -0.6643  0.9264
  583MPD2    C4 8644   2.902   2.073  17.107  0.2346  0.5517  0.5440
  583MPD2    C5 8645   2.947   1.962  17.039  0.2178 -0.6643  0.5176
  583MPD2     H 8646   2.852   2.273  16.848 -0.2686 -0.4171 -0.6639
  583MPD2    H1 8647   2.858   2.055  17.204 -1.2244  1.5659  0.0646
  583MPD2    H2 8648   2.975   1.858  16.850 -0.5816 -0.8151  0.2039
  583MPD2    H3 8649   2.949   1.871  17.098  2.3425 -2.1028 -1.7498
  583MPD2     N 8650   2.820   2.297  17.095  0.1319 -0.3292  0.1782
  583MPD2    H5 8651   2.793   2.364  17.024 -1.7598 -1.7680 -0.4768
  583MPD2    N1 8652   2.926   2.076  16.690 -0.0421 -0.2990 -0.0606
  583MPD2    H7 8653   2.895   2.162  16.646 -1.8636 -0.9996 -0.1323
  584TMC3    C1 8654   2.780   2.465  17.258  0.4697 -0.0739  0.3847
  584TMC3    C2 8655   2.766   2.554  17.154  0.1309 -0.1260 -0.3918
  584TMC3    C3 8656   2.720   2.681  17.192 -0.0301 -0.3729  0.0355
  584TMC3    C4 8657   2.750   2.501  17.387  0.3202 -0.5703  0.0972
  584TMC3    C5 8658   2.693   2.621  17.410 -0.5560 -0.0331 -0.2042
  584TMC3    C6 8659   2.679   2.718  17.319  0.1909 -0.6933 -0.4120
  584TMC3     C 8660   2.812   2.325  17.229 -0.2414 -0.5295  0.4518
  584TMC3     O 8661   2.801   2.244  17.324 -0.1786 -0.9895  0.2841
  584TMC3     H 8662   2.800   2.540  17.052  1.4737 -1.5040  0.2382
  584TMC3    H1 8663   2.760   2.425  17.464  3.1121 -1.6961 -1.3717
  584TMC3    H2 8664   2.619   2.804  17.346 -1.1191 -1.8843  0.4880
  584TMC3    C7 8665   2.657   2.653  17.550  0.2282 -0.6231 -0.1108
  584TMC3    C8 8666   2.705   2.779  17.083  0.2195 -0.3704 -0.0142
  584TMC3    O1 8667   2.678   2.560  17.629  1.0833 -0.0381  0.0476
  584TMC3    O2 8668   2.717   2.737  16.970 -0.8289 -0.3584  1.1333
  585MPD2     C 8669   1.793   1.334   0.060 -0.1961  0.1973  0.2443
  585MPD2    C1 8670   1.910   1.352  17.669 -0.2333 -0.2156 -0.3202
  585MPD2    C2 8671   1.904   1.302  17.540  0.0734 -1.0216 -0.2666
  585MPD2    C3 8672   1.802   1.229  17.500 -0.8797  0.1797 -0.2609
  585MPD2    C4 8673   1.697   1.206  17.581 -0.1810  0.4697 -0.3774
  585MPD2    C5 8674   1.692   1.258   0.020 -0.1518 -0.4234 -0.2811
  585MPD2     H 8675   1.982   1.328  17.469  1.9115 -1.9165  1.4152
  585MPD2    H1 8676   1.616   1.141  17.552 -0.1280  0.5283 -0.6588
  585MPD2    H2 8677   1.802   1.375   0.160  0.8208 -0.5393  0.4496
  585MPD2    H3 8678   1.609   1.251   0.090  0.5282 -1.5729  0.4167
  585MPD2     N 8679   1.791   1.159  17.372  0.3738 -0.2803 -0.3839
  585MPD2    H5 8680   1.701   1.112  17.363 -0.2949  0.7064  1.0891
  585MPD2    N1 8681   2.004   1.442   0.032  0.2072 -0.4328  0.2042
  585MPD2    H7 8682   1.972   1.487   0.118  2.0581  2.6464 -0.7011
  586TMC3    C1 8683   1.879   1.068  17.170  0.2413  0.5667 -0.2945
  586TMC3    C2 8684   1.980   1.077  17.075  0.1181  0.4812  0.0594
  586TMC3    C3 8685   1.979   0.981  16.982 -0.8682 -0.2091  0.3014
  586TMC3    C4 8686   1.797   0.955  17.190  0.3565  0.2723 -0.6623
  586TMC3    C5 8687   1.823   0.851  17.104 -0.4225  0.0109  0.5036
  586TMC3    C6 8688   1.907   0.866  16.997 -1.5137  0.9228 -0.4374
  586TMC3     C 8689   1.879   1.171  17.270  0.1659  0.7291  0.9817
  586TMC3     O 8690   1.959   1.262  17.254 -0.8608  0.0213  0.2454
  586TMC3     H 8691   2.043   1.165  17.065 -0.9344  1.2575  0.2736
  586TMC3    H1 8692   1.720   0.944  17.265  1.9331  0.5267  0.9812
  586TMC3    H2 8693   1.906   0.794  16.916 -1.8992  1.2331 -0.7065
  586TMC3    C7 8694   1.763   0.725  17.131  0.6348 -0.7245 -0.6540
  586TMC3    C8 8695   2.114   0.934  16.945 -0.1584 -0.0472 -0.2444
  586TMC3    O1 8696   1.666   0.714  17.206  0.3934 -0.2416  0.3285
  586TMC3    O2 8697   2.130   0.810  16.934 -0.1850  0.5716 -0.0531
  587TMC3    C1 8698   4.391   4.155  16.622 -0.1179  0.2805 -0.0085
  587TMC3    C2 8699   4.359   4.284  16.607 -0.4842 -0.4288 -0.1108
  587TMC3    C3 8700   4.469   4.366  16.606 -0.3646 -0.4005  0.0623
  587TMC3    C4 8701   4.504   4.108  16.674  0.4783 -0.0924  0.4227
  587TMC3    C5 8702   4.603   4.197  16.684 -0.0553 -0.3219 -0.4890
  587TMC3    C6 8703   4.591   4.326  16.641 -0.2202 -0.7039 -0.1274
  587TMC3     C 8704   4.309   4.049  16.583  0.5012 -0.3020 -0.7619
  587TMC3     O 8705   4.350   3.974  16.495 -0.2275 -0.0724  0.4158
  587TMC3     H 8706   4.258   4.313  16.582 -0.0122  0.6685 -0.7470
  587TMC3    H1 8707   4.519   4.007  16.710  1.1721  0.1013  0.6774
  587TMC3    H2 8708   4.678   4.391  16.643 -1.6247  1.1794 -0.4993
  587TMC3    C7 8709   0.008   4.138  16.716  0.0400  0.3006 -0.2229
  587TMC3    C8 8710   4.460   4.505  16.559  0.0930  0.2294  0.4608
  587TMC3    O1 8711   0.004   4.025  16.764 -0.5781  0.0619 -0.1624
  587TMC3    O2 8712   4.558   4.548  16.508  0.3371  0.3992  0.2193
  588TMC3    C1 8713   2.096   1.323   9.783  0.1323 -0.6144  0.7946
  588TMC3    C2 8714   2.064   1.198   9.753  0.1626  0.0599 -1.1161
  588TMC3    C3 8715   2.165   1.107   9.761 -0.4019 -0.3869 -0.0002
  588TMC3    C4 8716   2.227   1.358   9.803 -0.1302 -0.0919 -0.1321
  588TMC3    C5 8717   2.329   1.266   9.809 -0.2953  0.5675 -0.1172
  588TMC3    C6 8718   2.294   1.134   9.795 -0.5293  0.2248  0.0574
  588TMC3     C 8719   1.995   1.419   9.796  0.1117  0.1825  0.9037
  588TMC3     O 8720   1.887   1.406   9.740  0.3512  0.1271 -0.1255
  588TMC3     H 8721   1.961   1.171   9.738  0.3786 -2.0910  1.2552
  588TMC3    H1 8722   2.259   1.458   9.774 -2.2341  0.1016 -1.8137
  588TMC3    H2 8723   2.377   1.064   9.795 -1.3046 -0.6823  1.4216
  588TMC3    C7 8724   2.447   1.303   9.874 -0.5998 -0.9045 -0.2769
  588TMC3    C8 8725   2.131   0.967   9.736 -0.4189 -0.4826  0.7160
  588TMC3    O1 8726   2.546   1.243   9.832 -0.0622  0.9902  0.2564
  588TMC3    O2 8727   2.023   0.949   9.675  0.1623 -0.0166  0.0581
  589TMC3    C1 8728   1.382   0.228   1.506  0.1591 -0.6508 -0.7684
  589TMC3    C2 8729   1.491   0.291   1.561 -0.2956  0.4919  0.3292
  589TMC3    C3 8730   1.606   0.224   1.546 -0.6668  0.3400 -0.5025
  589TMC3    C4 8731   1.382   0.100   1.441  0.0476  0.6178 -0.2056
  589TMC3    C5 8732   1.501   0.040   1.436  0.5549  0.3418 -0.1470
  589TMC3    C6 8733   1.615   0.100   1.480 -0.2449  0.6835 -0.4312
  589TMC3     C 8734   1.257   0.298   1.487 -0.2572  1.2316  0.4927
  589TMC3     O 8735   1.185   0.254   1.403  0.4897 -0.4667  0.6255
  589TMC3     H 8736   1.500   0.391   1.601  0.5257  0.4751  0.1840
  589TMC3    H1 8737   1.286   0.058   1.413  0.1179  0.3581 -0.0532
  589TMC3    H2 8738   1.711   0.052   1.464 -1.6863 -1.9792 -1.0809
  589TMC3    C7 8739   1.508   4.624   1.381 -0.7841 -0.2779  0.4488
  589TMC3    C8 8740   1.726   0.278   1.612 -0.8726  0.1680  0.1593
  589TMC3    O1 8741   1.587   4.546   1.420 -0.0532  0.5495  0.4158
  589TMC3    O2 8742   1.708   0.323   1.724 -0.0928  0.6730 -0.0816
  590MPD2     C 8743   0.541   2.971  16.827  0.0110 -0.3754  0.3539
  590MPD2    C1 8744   0.472   3.019  16.722  0.4785  0.8425 -0.6268
  590MPD2    C2 8745   0.543   3.051  16.604 -0.4709 -0.5938 -0.3732
  590MPD2    C3 8746   0.687   3.038  16.605 -0.1330  1.2661  0.3198
  590MPD2    C4 8747   0.748   2.994  16.721 -0.2272 -0.0438 -0.6173
  590MPD2    C5 8748   0.683   2.948  16.819  0.4844  0.1330 -0.5120
  590MPD2     H 8749   0.497   3.069  16.507  0.3683  1.1415 -0.4653
  590MPD2    H1 8750   0.857   2.988  16.724 -0.2079  1.8262  1.8781
  590MPD2    H2 8751   0.494   2.949  16.923 -1.0863 -0.0125 -0.1095
  590MPD2    H3 8752   0.726   2.903  16.908  0.8648 -0.3721 -0.9543
  590MPD2     N 8753   0.755   3.079  16.496  0.6748  0.3265 -0.1969
  590MPD2    H5 8754   0.695   3.097  16.416 -0.3547 -0.7014  0.3480
  590MPD2    N1 8755   0.334   3.028  16.728  0.2778 -0.5623 -0.0204
  590MPD2    H7 8756   0.292   3.012  16.819  0.7155  1.7830  0.5815
  591TMC3    C1 8757   0.914   3.197  16.378  0.1690 -0.7419  0.2860
  591TMC3    C2 8758   0.933   3.149  16.258  0.2885  0.3767 -0.3116
  591TMC3    C3 8759   0.963   3.244  16.167 -0.5712  0.9304  0.6003
  591TMC3    C4 8760   0.944   3.323  16.419  0.2382  0.2313  0.1238
  591TMC3    C5 8761   0.983   3.421  16.327  0.0132 -0.0419  0.4333
  591TMC3    C6 8762   0.983   3.377  16.193 -0.0138 -0.5865 -0.1848
  591TMC3     C 8763   0.890   3.105  16.488 -0.4397 -0.6594  0.0181
  591TMC3     O 8764   0.973   3.088  16.574  0.3388 -0.8272 -0.1615
  591TMC3     H 8765   0.921   3.044  16.235  2.2838  0.2599 -0.8119
  591TMC3    H1 8766   0.934   3.342  16.526 -1.6095 -0.3456  0.0546
  591TMC3    H2 8767   1.013   3.444  16.114 -1.4339 -0.4117 -0.5639
  591TMC3    C7 8768   0.955   3.560  16.355 -0.1119  0.1980 -0.3783
  591TMC3    C8 8769   0.982   3.196  16.030  0.3722 -0.3121 -0.6611
  591TMC3    O1 8770   0.922   3.580  16.473  0.3283 -0.1201 -0.8733
  591TMC3    O2 8771   0.975   3.071  16.021 -0.5005  0.3286 -0.1326
  592MPD2     C 8772   1.243   0.001  11.042  0.0030 -0.0175  0.2162
  592MPD2    C1 8773   1.225   0.073  11.157 -0.0403 -0.1561  0.0313
  592MPD2    C2 8774   1.147   0.024  11.262  0.1723  0.0503 -0.2446
  592MPD2    C3 8775   1.060   4.636  11.239  0.3335 -0.7250 -0.4521
  592MPD2    C4 8776   1.064   4.584  11.108  0.2365  0.2214  0.6237
  592MPD2    C5 8777   1.158   4.622  11.018  0.1015  0.2007  0.5706
  592MPD2     H 8778   1.162   0.069  11.360 -0.3732 -0.3150  0.0105
  592MPD2    H1 8779   1.011   4.494  11.079  0.9197 -0.5296  1.7214
  592MPD2    H2 8780   1.330   0.021  10.982  0.4748 -2.5912  0.0550
  592MPD2    H3 8781   1.184   4.566  10.929 -1.3102  0.6689 -0.1241
  592MPD2     N 8782   0.977   4.594  11.343  0.0367  0.1100  0.5005
  592MPD2    H5 8783   0.982   4.653  11.425  1.5420 -0.1155  0.5559
  592MPD2    N1 8784   1.310   0.180  11.168 -0.3800  0.1400 -0.4194
  592MPD2    H7 8785   1.359   0.217  11.087 -1.3540  2.4247  0.0310
  593TMC3    C1 8786   1.409   0.382  11.257  0.1487  0.0320 -1.4197
  593TMC3    C2 8787   1.411   0.480  11.354 -0.3733  0.9836 -0.1897
  593TMC3    C3 8788   1.504   0.583  11.342 -0.3134  0.1603 -0.5352
  593TMC3    C4 8789   1.504   0.376  11.157  0.2168  0.0343  0.3035
  593TMC3    C5 8790   1.583   0.490  11.141  0.1239  0.4677 -0.5796
  593TMC3    C6 8791   1.585   0.593  11.233  0.1927  0.3936 -0.0129
  593TMC3     C 8792   1.313   0.271  11.278  0.8321  0.1812 -0.0968
  593TMC3     O 8793   1.277   0.254  11.395  0.3532  0.2461 -0.2204
  593TMC3     H 8794   1.352   0.470  11.444 -2.0637  2.7837 -1.0943
  593TMC3    H1 8795   1.507   0.289  11.092  0.2338 -1.0556  1.7569
  593TMC3    H2 8796   1.635   0.687  11.212 -1.1379  1.3723  1.1822
  593TMC3    C7 8797   1.681   0.488  11.032 -0.4897  1.0621 -0.5050
  593TMC3    C8 8798   1.503   0.674  11.451 -0.2187  0.7883  0.4664
  593TMC3    O1 8799   1.762   0.573  11.031 -0.0086  0.0618  0.5295
  593TMC3    O2 8800   1.400   0.674  11.518  0.1129 -0.5655  0.1995
  594MPD2     C 8801   4.552   3.566  14.158  0.3235  0.3406 -0.9056
  594MPD2    C1 8802   4.537   3.591  14.290  0.2275  0.0168  0.4039
  594MPD2    C2 8803   4.641   3.659  14.358  0.2724 -0.0690 -0.1069
  594MPD2    C3 8804   0.037   3.694  14.293  0.7106  0.8823  0.3545
  594MPD2    C4 8805   0.041   3.673  14.161 -0.2755 -0.0947 -0.0223
  594MPD2    C5 8806   4.664   3.613  14.092  0.0284 -0.0072 -0.0487
  594MPD2     H 8807   4.637   3.676  14.465  0.4845  0.4982 -0.1878
  594MPD2    H1 8808   0.125   3.703  14.099 -0.5960  1.0705  0.0976
  594MPD2    H2 8809   4.491   3.501  14.097  1.4421  0.7356 -2.4531
  594MPD2    H3 8810   4.684   3.574  13.992 -3.3155  0.3138 -0.8359
  594MPD2     N 8811   0.131   3.767  14.371  0.1296 -0.2142 -0.4433
  594MPD2    H5 8812   0.098   3.761  14.467 -0.7737  1.6299 -0.6351
  594MPD2    N1 8813   4.429   3.521  14.348 -0.7194  0.8717  0.6805
  594MPD2    H7 8814   4.362   3.496  14.276 -2.4354 -0.5439  2.8004
  595TMC3    C1 8815   0.547   3.944  14.512 -0.1740 -0.1151  0.7355
  595TMC3    C2 8816   0.481   3.865  14.409 -0.0393  0.3623  0.4569
  595TMC3    C3 8817   0.346   3.854  14.434 -0.6930  0.5437 -0.2968
  595TMC3    C4 8818   0.487   3.970  14.633  0.0983  0.5131  0.7721
  595TMC3    C5 8819   0.354   3.945  14.648  0.9483 -0.5878  0.1940
  595TMC3    C6 8820   0.279   3.890  14.546  0.6289 -0.8107 -0.3388
  595TMC3     C 8821   0.684   3.999  14.506  0.9120 -0.0038 -0.4192
  595TMC3     O 8822   0.708   4.090  14.594 -0.4732  0.1086  0.4212
  595TMC3     H 8823   0.525   3.841  14.313 -0.2343 -3.9334  1.4386
  595TMC3    H1 8824   0.550   3.989  14.719  1.9576 -2.5373  0.1154
  595TMC3    H2 8825   0.174   3.881  14.568  0.4636  2.7269  0.3610
  595TMC3    C7 8826   0.288   4.050  14.715  0.0820 -0.3349 -0.1609
  595TMC3    C8 8827   0.258   3.809  14.326 -0.3388 -0.3615 -0.3725
  595TMC3    O1 8828   0.167   4.047  14.714  0.4599 -0.1722 -0.4689
  595TMC3    O2 8829   0.304   3.803  14.215  0.5196 -0.2874 -0.1371
  596MPD2     C 8830   3.675   2.049  16.979  0.2548  0.5718 -0.0400
  596MPD2    C1 8831   3.642   2.141  16.881 -0.7835 -0.5626 -0.3748
  596MPD2    C2 8832   3.655   2.102  16.750 -0.3894  0.0358  0.2618
  596MPD2    C3 8833   3.710   1.983  16.718 -0.0908 -1.1197  0.7355
  596MPD2    C4 8834   3.753   1.889  16.821 -0.1382 -0.2748  0.1086
  596MPD2    C5 8835   3.740   1.934  16.950  0.2638 -0.7803  0.3831
  596MPD2     H 8836   3.644   2.171  16.668 -0.5582  1.3570  1.3861
  596MPD2    H1 8837   3.787   1.788  16.799  1.1971 -0.0777  1.2481
  596MPD2    H2 8838   3.687   2.084  17.081 -2.1829 -1.2421  0.8762
  596MPD2    H3 8839   3.780   1.867  17.025  0.4623 -0.7372  0.3156
  596MPD2     N 8840   3.734   1.942  16.582  0.2246  0.5756  0.1374
  596MPD2    H5 8841   3.789   1.859  16.563 -0.0736 -0.2408  2.7937
  596MPD2    N1 8842   3.586   2.270  16.897  0.8675 -0.1019 -0.1745
  596MPD2    H7 8843   3.564   2.321  16.812 -1.0703 -1.3127 -0.3927
  597TMC3    C1 8844   3.513   2.461  17.001  0.2222  0.1275  0.0941
  597TMC3    C2 8845   3.518   2.532  16.885  0.1796  0.1143 -0.1226
  597TMC3    C3 8846   3.439   2.646  16.889 -0.5071 -0.1412  0.1342
  597TMC3    C4 8847   3.439   2.497  17.111 -0.0837  0.6553  0.6411
  597TMC3    C5 8848   3.377   2.619  17.109 -0.3146  0.1708  0.8604
  597TMC3    C6 8849   3.376   2.691  17.000 -1.1909  0.2721 -0.3124
  597TMC3     C 8850   3.578   2.329  17.013 -1.4593  0.1826  0.2037
  597TMC3     O 8851   3.595   2.284  17.121  0.7643  0.6148 -0.1930
  597TMC3     H 8852   3.587   2.503  16.806 -3.1008 -2.5901 -1.9703
  597TMC3    H1 8853   3.417   2.419  17.184 -1.4608 -0.5371 -1.0550
  597TMC3    H2 8854   3.309   2.776  16.989 -1.4558  0.0081 -0.7661
  597TMC3    C7 8855   3.297   2.655  17.226  0.0589 -0.0173  0.2388
  597TMC3    C8 8856   3.452   2.744  16.788 -0.3227 -0.6827 -0.3146
  597TMC3    O1 8857   3.283   2.566  17.309 -0.6487 -0.0168 -0.6517
  597TMC3    O2 8858   3.365   2.826  16.775 -0.4573  0.1269 -0.6550
  598TMC3    C1 8859   1.733   3.157  15.591 -0.2984 -0.0678  0.1781
  598TMC3    C2 8860   1.678   3.039  15.631 -0.7221  0.2894  0.5252
  598TMC3    C3 8861   1.605   2.975  15.536 -0.6543  0.1300  0.5172
  598TMC3    C4 8862   1.723   3.218  15.472 -0.2107 -0.0543 -0.2129
  598TMC3    C5 8863   1.654   3.145  15.380  0.2596 -0.3678  0.0950
  598TMC3    C6 8864   1.595   3.027  15.406  0.0349  0.3213 -0.3992
  598TMC3     C 8865   1.853   3.205  15.667  0.5045  0.0997  0.4114
  598TMC3     O 8866   1.906   3.303  15.616  0.5658  0.6929 -0.0894
  598TMC3     H 8867   1.700   2.995  15.728 -0.7607  0.1951  0.4912
  598TMC3    H1 8868   1.762   3.318  15.451  1.0332 -0.1087  1.7725
  598TMC3    H2 8869   1.558   2.968  15.323  1.9245 -1.4032 -0.0149
  598TMC3    C7 8870   1.648   3.196  15.235  0.3093  0.3254 -1.3447
  598TMC3    C8 8871   1.582   2.830  15.540 -0.2644 -0.2254  0.2531
  598TMC3    O1 8872   1.630   3.110  15.144 -0.0006 -0.4398 -0.2411
  598TMC3    O2 8873   1.591   2.768  15.431 -0.8344  0.3101  0.7841
  599MPD2     C 8874   2.069   1.141  16.144 -0.8742 -0.4663  0.4405
  599MPD2    C1 8875   1.981   1.057  16.086  0.0458 -0.3715 -0.0814
  599MPD2    C2 8876   1.842   1.072  16.097  0.2736  0.2099 -0.0975
  599MPD2    C3 8877   1.795   1.192  16.159 -0.0624 -0.0331 -0.0950
  599MPD2    C4 8878   1.887   1.283  16.198 -0.2449  0.5323 -0.1725
  599MPD2    C5 8879   2.022   1.258  16.196  0.5028  0.9277 -0.6485
  599MPD2     H 8880   1.774   0.999  16.056 -0.8403  2.0472 -1.5110
  599MPD2    H1 8881   1.855   1.368  16.257 -0.6615 -1.0985  1.9407
  599MPD2    H2 8882   2.175   1.123  16.140 -0.8256 -0.2774  0.9999
  599MPD2    H3 8883   2.093   1.314  16.257  0.1012 -0.9073  1.5128
  599MPD2     N 8884   1.659   1.226  16.170 -0.2544 -0.0453  0.2659
  599MPD2    H5 8885   1.636   1.322  16.195  1.9083 -0.4197  3.7954
  599MPD2    N1 8886   2.044   0.942  16.037  0.0174  0.9471  0.1937
  599MPD2    H7 8887   2.145   0.939  16.044 -0.1483  0.1100  2.3266
  600TMC3    C1 8888   1.419   1.202  16.186  0.3206  0.3503 -0.3364
  600TMC3    C2 8889   1.313   1.114  16.188 -0.2227  0.2599  0.4925
  600TMC3    C3 8890   1.197   1.146  16.258 -0.6328 -0.3211 -0.7952
  600TMC3    C4 8891   1.406   1.320  16.243  0.3261 -0.8036  0.1360
  600TMC3    C5 8892   1.291   1.358  16.310 -0.4666  0.0343 -0.1020
  600TMC3    C6 8893   1.186   1.269  16.315 -0.2647  0.1112 -0.3353
  600TMC3     C 8894   1.551   1.146  16.148 -0.2687  0.5999 -0.2830
  600TMC3     O 8895   1.550   1.027  16.114 -0.1734  0.2853  0.1430
  600TMC3     H 8896   1.311   1.016  16.142  1.5293  0.2160  0.5279
  600TMC3    H1 8897   1.493   1.385  16.250 -0.5489  0.3937 -0.0023
  600TMC3    H2 8898   1.093   1.309  16.353 -1.2572 -2.0743 -0.4284
  600TMC3    C7 8899   1.256   1.501  16.317 -0.1291 -0.3792  0.6890
  600TMC3    C8 8900   1.103   1.040  16.300  0.0421  0.5317  0.7100
  600TMC3    O1 8901   1.156   1.532  16.383 -0.1128 -1.0071 -0.5433
  600TMC3    O2 8902   1.068   0.952  16.225  0.5257 -0.2442  0.0587
  601MPD2     C 8903   4.024   3.976   0.506 -1.2682 -0.2975 -0.3221
  601MPD2    C1 8904   3.997   3.885   0.403  0.3274  0.6947  0.2674
  601MPD2    C2 8905   3.995   3.749   0.433  0.4800  0.0890  0.3474
  601MPD2    C3 8906   4.006   3.696   0.563  0.1902 -0.7814  0.4773
  601MPD2    C4 8907   4.014   3.791   0.663  0.2622  0.0178 -0.0363
  601MPD2    C5 8908   4.032   3.927   0.631  0.5515 -0.1284 -0.0349
  601MPD2     H 8909   3.984   3.686   0.346  3.5894 -0.1287  0.1064
  601MPD2    H1 8910   4.029   3.757   0.765  0.1511 -2.0496 -0.7198
  601MPD2    H2 8911   4.044   4.080   0.482  0.5454 -0.4362  0.5936
  601MPD2    H3 8912   4.049   4.000   0.709 -0.3527  1.0199 -0.9004
  601MPD2     N 8913   4.000   3.555   0.589  0.3170  0.2635 -0.1662
  601MPD2    H5 8914   4.006   3.525   0.686  0.5332  1.3221  0.1454
  601MPD2    N1 8915   3.973   3.918   0.267  0.0025 -0.0985  0.4056
  601MPD2    H7 8916   3.953   3.845   0.199 -0.8069  0.1889  0.3322
  602TMC3    C1 8917   3.949   4.048   0.080  0.3603 -0.7250  0.1204
  602TMC3    C2 8918   4.007   4.160   0.027  0.1376  0.7252 -0.0808
  602TMC3    C3 8919   3.935   4.219  17.610  0.1857 -0.1329  0.4665
  602TMC3    C4 8920   3.826   3.993   0.044  0.3060 -0.2051  0.2476
  602TMC3    C5 8921   3.761   4.067  17.633  0.6261  0.8526  0.4566
  602TMC3    C6 8922   3.815   4.176  17.566  0.2002 -0.0157  0.0602
  602TMC3     C 8923   3.972   4.043   0.215 -0.2009 -0.3732  0.4762
  602TMC3     O 8924   3.985   4.147   0.275 -0.0368 -0.0566 -0.1015
  602TMC3     H 8925   4.106   4.186   0.063  0.2097  1.8308 -1.0794
  602TMC3    H1 8926   3.778   3.907   0.089 -0.1125 -0.7899 -1.3182
  602TMC3    H2 8927   3.770   4.219  17.478 -0.8832  0.2340  0.7389
  602TMC3    C7 8928   3.621   4.039  17.621  0.6653 -0.2964  0.2183
  602TMC3    C8 8929   3.991   4.340  17.549 -0.4365 -0.0035  0.2769
  602TMC3    O1 8930   3.588   3.937  17.680 -0.0879 -0.0935  1.0902
  602TMC3    O2 8931   4.110   4.344  17.520  0.3511 -0.0625  0.4459
  603TMC3    C1 8932   2.283   3.866  11.237 -0.1913 -0.0534 -0.7171
  603TMC3    C2 8933   2.317   3.892  11.367 -0.2711 -0.2397  0.5108
  603TMC3    C3 8934   2.289   4.014  11.414  0.0984 -0.4888  0.1870
  603TMC3    C4 8935   2.228   3.965  11.157 -0.3398 -0.0928 -0.3378
  603TMC3    C5 8936   2.204   4.086  11.214 -0.5903  0.6924  0.2039
  603TMC3    C6 8937   2.242   4.120  11.338 -0.4018 -0.2338  0.7913
  603TMC3     C 8938   2.274   3.731  11.185  0.3214 -0.4249 -0.9587
  603TMC3     O 8939   2.261   3.722  11.062  0.0650  0.1071 -0.1651
  603TMC3     H 8940   2.351   3.817  11.437 -1.1662 -1.0030  0.1305
  603TMC3    H1 8941   2.219   3.951  11.049  0.3758  0.7677 -0.5067
  603TMC3    H2 8942   2.176   4.194  11.383  0.9881  1.0012  0.7923
  603TMC3    C7 8943   2.188   4.199  11.130  0.5017 -0.3099 -0.4573
  603TMC3    C8 8944   2.282   4.022  11.562  0.3968  0.2599  0.1557
  603TMC3    O1 8945   2.236   4.306  11.170  0.4654  1.0237  0.0378
  603TMC3    O2 8946   2.293   3.915  11.619 -0.6107  0.2825 -0.2438
  604MPD2     C 8947   2.792   3.252  16.214  0.4693  0.3222 -0.3503
  604MPD2    C1 8948   2.715   3.142  16.204 -1.1021 -0.3902 -0.4969
  604MPD2    C2 8949   2.750   3.052  16.104  0.2923 -0.0126 -0.1166
  604MPD2    C3 8950   2.858   3.076  16.020 -0.2098 -0.0053 -0.2687
  604MPD2    C4 8951   2.932   3.189  16.034  0.2000 -0.6041 -0.8527
  604MPD2    C5 8952   2.896   3.276  16.130  0.4942 -1.1289 -0.2533
  604MPD2     H 8953   2.699   2.957  16.087 -0.9886  0.7313 -0.4292
  604MPD2    H1 8954   3.023   3.216  15.982  0.1643 -0.1519 -0.6822
  604MPD2    H2 8955   2.761   3.329  16.283  0.4156  1.7561 -1.9570
  604MPD2    H3 8956   2.961   3.361  16.142 -0.5199 -0.1178 -1.9210
  604MPD2     N 8957   2.886   2.986  15.911 -0.2786 -0.1696  0.0486
  604MPD2    H5 8958   2.828   2.903  15.919 -0.4806 -0.1502 -1.1633
  604MPD2    N1 8959   2.606   3.129  16.292 -0.3709 -0.1345 -0.2069
  604MPD2    H7 8960   2.592   3.200  16.363 -1.9909 -1.3078  0.6681
  605TMC3    C1 8961   2.412   3.062  16.405 -0.2715 -0.0404  0.4431
  605TMC3    C2 8962   2.462   3.074  16.532 -0.1118  0.2896  0.9629
  605TMC3    C3 8963   2.410   3.175  16.607  0.5790  0.2481 -0.4017
  605TMC3    C4 8964   2.306   3.136  16.363 -0.2813 -0.8463 -0.2002
  605TMC3    C5 8965   2.243   3.218  16.445  0.4746  0.8928 -0.0484
  605TMC3    C6 8966   2.296   3.242  16.569  0.9109 -0.0376 -0.3295
  605TMC3     C 8967   2.502   3.038  16.294  0.3111  0.1551 -0.8500
  605TMC3     O 8968   2.480   2.957  16.212 -0.1558  0.7450  0.4422
  605TMC3     H 8969   2.550   3.019  16.565  0.4373  0.7724  0.3009
  605TMC3    H1 8970   2.283   3.140  16.257  0.8473  1.4558 -0.3418
  605TMC3    H2 8971   2.254   3.320  16.631  2.9561  0.8365 -0.0194
  605TMC3    C7 8972   2.109   3.270  16.415  0.5781 -0.8785 -0.3203
  605TMC3    C8 8973   2.518   3.261  16.659  0.7305 -0.2922  0.3520
  605TMC3    O1 8974   2.080   3.363  16.490 -0.4402  0.0357  0.3099
  605TMC3    O2 8975   2.608   3.274  16.582 -0.0831 -0.2346  0.4224
  606TMC3    C1 8976   4.249   1.195  17.022  0.1900  0.6026  0.5817
  606TMC3    C2 8977   4.381   1.214  17.048  0.7218  0.1278 -0.4739
  606TMC3    C3 8978   4.424   1.160  17.161  0.6642 -0.3735 -0.3385
  606TMC3    C4 8979   4.155   1.135  17.097  0.6104 -0.4176  0.4090
  606TMC3    C5 8980   4.204   1.089  17.216  0.4388 -0.1216 -0.1538
  606TMC3    C6 8981   4.335   1.100  17.247  0.2505 -0.2257  0.0519
  606TMC3     C 8982   4.218   1.228  16.889 -0.2609  0.2162 -0.2153
  606TMC3     O 8983   4.299   1.195  16.802 -0.8614 -0.9538 -0.1137
  606TMC3     H 8984   4.443   1.241  16.963  0.9968 -0.1508 -0.3619
  606TMC3    H1 8985   4.053   1.120  17.061  0.8054 -2.4274  0.6672
  606TMC3    H2 8986   4.373   1.067  17.343  1.7221 -0.8717 -0.7527
  606TMC3    C7 8987   4.117   1.075  17.333  0.0616 -1.1398 -0.2493
  606TMC3    C8 8988   4.519   1.244  17.231 -0.2631 -0.4882  0.9072
  606TMC3    O1 8989   4.170   1.061  17.444 -0.0244 -0.2281  0.2077
  606TMC3    O2 8990   4.528   1.363  17.205  0.3132  0.3927  0.7941
  607MPD2     C 8991   0.965   4.225  11.791  0.3494 -0.6264 -0.0194
  607MPD2    C1 8992   1.013   4.315  11.881 -0.1781 -0.0185  0.2353
  607MPD2    C2 8993   0.962   4.305  12.011  0.0979 -0.9705 -0.1251
  607MPD2    C3 8994   0.904   4.190  12.068 -0.2071 -0.1539 -0.0905
  607MPD2    C4 8995   0.876   4.086  11.982 -0.0885  0.1107  0.5179
  607MPD2    C5 8996   0.904   4.113  11.845 -0.0295  0.3546  0.3042
  607MPD2     H 8997   0.987   4.383  12.083  0.3397 -1.6440  0.5243
  607MPD2    H1 8998   0.823   3.998  12.017  1.1280 -1.2812 -1.1349
  607MPD2    H2 8999   0.973   4.247  11.685  0.9757  2.0883  0.5782
  607MPD2    H3 9000   0.863   4.044  11.772  0.6793  0.6372 -0.3659
  607MPD2     N 9001   0.887   4.189  12.212 -0.2620 -0.0036 -0.7234
  607MPD2    H5 9002   0.920   4.269  12.266 -1.1810  0.5833 -1.0415
  607MPD2    N1 9003   1.083   4.435  11.852 -0.1261 -0.3096 -0.8884
  607MPD2    H7 9004   1.103   4.490  11.935 -1.2621  1.9206 -2.0850
  608TMC3    C1 9005   1.233   4.583  11.747  0.8858  0.0963  0.2679
  608TMC3    C2 9006   1.250   4.634  11.875 -0.0915  0.1465 -0.2271
  608TMC3    C3 9007   1.363   4.705  11.900  0.1700  0.3433 -0.1526
  608TMC3    C4 9008   1.337   4.596  11.654  0.4304 -0.0784 -0.2190
  608TMC3    C5 9009   1.440   4.682  11.689  0.0019 -0.7653 -1.0286
  608TMC3    C6 9010   1.458   0.017  11.811  0.2353 -0.4977  0.0822
  608TMC3     C 9011   1.147   4.472  11.734  0.2466 -0.7142  0.1700
  608TMC3     O 9012   1.137   4.414  11.627 -0.0853  0.3098  0.5622
  608TMC3     H 9013   1.162   4.642  11.938 -1.6583 -1.0354 -2.2705
  608TMC3    H1 9014   1.343   4.544  11.560 -1.5649 -2.9098  1.2167
  608TMC3    H2 9015   1.545   0.073  11.842 -0.3798  0.7780 -0.5120
  608TMC3    C7 9016   1.527   0.010  11.579  0.8512 -0.1733  0.1326
  608TMC3    C8 9017   1.383   0.030  12.037  0.1787  0.2426  0.1550
  608TMC3    O1 9018   1.523   4.668  11.475  0.5128 -0.1752 -0.1880
  608TMC3    O2 9019   1.464   0.125  12.059 -0.5390  0.0133  0.1701
  609TMC3    C1 9020   4.667   2.716   9.179 -1.0198 -0.1677  0.2543
  609TMC3    C2 9021   4.618   2.608   9.109 -0.0130  0.0118 -0.1722
  609TMC3    C3 9022   4.706   2.533   9.034 -0.5547  0.4176  0.1092
  609TMC3    C4 9023   0.079   2.746   9.185 -0.8420 -0.5549 -0.2819
  609TMC3    C5 9024   0.160   2.678   9.095  0.7216 -0.8434 -0.3648
  609TMC3    C6 9025   0.118   2.571   9.023  0.8557  0.1487 -0.2344
  609TMC3     C 9026   4.575   2.804   9.250 -0.0862 -0.1603 -0.1532
  609TMC3     O 9027   4.621   2.882   9.335 -0.0972 -0.0203 -0.6723
  609TMC3     H 9028   4.514   2.578   9.112  0.3496 -1.2114  0.5877
  609TMC3    H1 9029   0.122   2.813   9.259  2.3930 -0.2578 -2.4201
  609TMC3    H2 9030   0.178   2.508   8.960 -0.3853  0.0640 -1.3364
  609TMC3    C7 9031   0.296   2.721   9.092 -0.2182 -0.4174 -0.0642
  609TMC3    C8 9032   4.658   2.448   8.933 -0.1210 -0.2623  0.2362
  609TMC3    O1 9033   0.378   2.631   9.093 -0.0987 -0.7611 -0.6212
  609TMC3    O2 9034   4.718   2.455   8.821  0.4741  0.2321 -0.8593
  610TMC3    C1 9035   1.902   4.398  12.408  0.4962 -0.6716 -0.2265
  610TMC3    C2 9036   1.944   4.486  12.310  0.1406 -0.3650 -0.1487
  610TMC3    C3 9037   2.080   4.518  12.304  0.0015  0.1108  0.9434
  610TMC3    C4 9038   1.990   4.362  12.505  0.6746 -0.0852 -0.6580
  610TMC3    C5 9039   2.122   4.388  12.495  0.2244  0.0603  0.1005
  610TMC3    C6 9040   2.171   4.464  12.392  0.1025  0.0669 -0.1288
  610TMC3     C 9041   1.768   4.353  12.416  0.2597  0.0142 -0.3529
  610TMC3     O 9042   1.730   4.316  12.525 -0.2227 -0.0940  0.1413
  610TMC3     H 9043   1.872   4.542  12.252  1.0797  0.8422 -0.1421
  610TMC3    H1 9044   1.955   4.308  12.592 -1.1515  1.8363 -0.2072
  610TMC3    H2 9045   2.276   4.460  12.366  0.8605  0.3763  2.8424
  610TMC3    C7 9046   2.211   4.335  12.596  0.1859 -0.1859 -0.0245
  610TMC3    C8 9047   2.132   4.587  12.191 -0.2638  0.2248  0.2324
  610TMC3    O1 9048   2.163   4.251  12.669 -0.5953  0.1169 -0.1102
  610TMC3    O2 9049   2.251   4.604  12.192  0.1026 -0.4918 -0.9974
  611MPD2     C 9050   1.110   3.894  10.683 -0.0507 -0.1273 -0.0222
  611MPD2    C1 9051   1.116   3.894  10.539 -0.2033  0.6809 -0.6113
  611MPD2    C2 9052   1.228   3.946  10.482 -0.2261 -0.3684  0.1753
  611MPD2    C3 9053   1.339   3.983  10.553  0.3859 -0.0393 -0.7984
  611MPD2    C4 9054   1.336   3.968  10.686  0.0080  0.4484  0.1619
  611MPD2    C5 9055   1.224   3.926  10.752 -0.2631 -0.3207 -0.3676
  611MPD2     H 9056   1.222   3.947  10.374 -0.1464  0.3332  0.1777
  611MPD2    H1 9057   1.425   3.987  10.746  0.8351  0.2964 -1.0070
  611MPD2    H2 9058   1.021   3.864  10.738 -0.2636 -2.6938 -1.7679
  611MPD2    H3 9059   1.225   3.940  10.860  1.7719 -1.1261 -0.2825
  611MPD2     N 9060   1.457   4.050  10.502  0.2181  0.0188  0.8769
  611MPD2    H5 9061   1.521   4.095  10.566  0.4135  0.0595  0.6540
  611MPD2    N1 9062   0.999   3.839  10.470  0.1913  0.3951  0.0732
  611MPD2    H7 9063   0.915   3.818  10.522 -0.4873  0.2488 -1.0606
  612TMC3    C1 9064   1.580   4.176  10.338  0.1252 -0.0031 -0.1002
  612TMC3    C2 9065   1.685   4.192  10.429 -0.5228  0.0911  0.0853
  612TMC3    C3 9066   1.777   4.292  10.394 -0.2482  0.5567  0.0244
  612TMC3    C4 9067   1.566   4.253  10.223 -0.2708 -0.2234 -0.0661
  612TMC3    C5 9068   1.662   4.338  10.188 -1.2158  0.7295 -0.2862
  612TMC3    C6 9069   1.769   4.361  10.275 -0.0088 -0.0073  0.4990
  612TMC3     C 9070   1.468   4.093  10.369  0.0400  0.3988 -0.4373
  612TMC3     O 9071   1.381   4.087  10.289 -0.2251  0.2781 -0.7957
  612TMC3     H 9072   1.705   4.141  10.522  1.5412  0.3085 -0.2435
  612TMC3    H1 9073   1.489   4.238  10.148  0.0224  1.5316 -0.7155
  612TMC3    H2 9074   1.843   4.436  10.250  1.3403 -1.1604  1.0722
  612TMC3    C7 9075   1.640   4.426  10.075 -0.4843  0.2103  0.3362
  612TMC3    C8 9076   1.904   4.303  10.471  0.4842  0.5750 -0.2598
  612TMC3    O1 9077   1.544   4.404  10.006 -0.2002 -0.1325 -0.7297
  612TMC3    O2 9078   1.990   4.346  10.391 -0.0977 -0.1338 -0.4189
  613MPD2     C 9079   0.231   1.583  16.666  0.2216  0.1558  0.3362
  613MPD2    C1 9080   0.316   1.640  16.573 -0.3219 -0.1965  0.2873
  613MPD2    C2 9081   0.349   1.559  16.472 -0.2505  0.1094 -0.6226
  613MPD2    C3 9082   0.297   1.431  16.456 -0.1422 -0.1197 -0.2120
  613MPD2    C4 9083   0.206   1.381  16.547 -0.3512 -0.5286  0.1927
  613MPD2    C5 9084   0.178   1.462  16.652  0.0906  0.3060 -0.1968
  613MPD2     H 9085   0.406   1.618  16.401 -0.4063  1.2789  0.2219
  613MPD2    H1 9086   0.159   1.286  16.526  1.1814 -1.2026 -0.1930
  613MPD2    H2 9087   0.181   1.642  16.743  1.0045  0.5572  0.5365
  613MPD2    H3 9088   0.110   1.422  16.726 -0.1788  1.3039  0.0822
  613MPD2     N 9089   0.321   1.352  16.343 -0.3259 -0.0578 -0.6450
  613MPD2    H5 9090   0.263   1.268  16.339 -0.3359 -0.1447  1.3635
  613MPD2    N1 9091   0.360   1.772  16.576 -0.2142  0.1315 -0.0627
  613MPD2    H7 9092   0.420   1.805  16.501 -1.4375  1.8634 -0.2895
  614TMC3    C1 9093   0.339   1.996  16.582 -0.1315 -0.0035  0.8434
  614TMC3    C2 9094   0.450   1.986  16.506 -0.1862  0.4649 -0.9505
  614TMC3    C3 9095   0.427   2.013  16.373  0.0493  0.7163 -0.0869
  614TMC3    C4 9096   0.226   2.058  16.544 -0.3362 -0.4278  0.2948
  614TMC3    C5 9097   0.219   2.097  16.421 -0.1075  0.4063  0.0566
  614TMC3    C6 9098   0.320   2.077  16.327 -0.0847 -1.0323  0.2969
  614TMC3     C 9099   0.318   1.877  16.652 -0.5070 -0.2358  0.3268
  614TMC3     O 9100   0.246   1.878  16.750 -0.4131 -0.4925  1.1204
  614TMC3     H 9101   0.541   1.939  16.539 -2.1830 -1.4809  1.7936
  614TMC3    H1 9102   0.132   2.051  16.599 -0.5696  1.1351  0.1033
  614TMC3    H2 9103   0.316   2.086  16.219  0.8233  0.5095  0.3828
  614TMC3    C7 9104   0.100   2.167  16.369 -0.1176 -0.5102 -0.1992
  614TMC3    C8 9105   0.499   1.925  16.283  0.2072  0.3467  0.0571
  614TMC3    O1 9106   0.036   2.225  16.454  0.2267  0.0063  0.3232
  614TMC3    O2 9107   0.527   1.812  16.326  0.1584 -0.0838 -0.2317
  615MPD2     C 9108   4.134   3.280  15.961  0.7063  0.2606 -0.4572
  615MPD2    C1 9109   4.095   3.167  16.021 -0.1345  1.2150 -0.7402
  615MPD2    C2 9110   4.022   3.072  15.946  0.2562  0.2410  0.4247
  615MPD2    C3 9111   4.007   3.089  15.810 -0.2189 -0.5640 -0.1213
  615MPD2    C4 9112   4.057   3.202  15.746 -0.3577 -0.6382 -0.2001
  615MPD2    C5 9113   4.115   3.292  15.824 -0.2758 -0.9883  0.3523
  615MPD2     H 9114   3.980   2.986  15.997 -1.3068  0.7818  0.0419
  615MPD2    H1 9115   4.049   3.213  15.638  1.3236 -0.2051 -0.2707
  615MPD2    H2 9116   4.176   3.370  16.004  0.0729  0.0201  0.6591
  615MPD2    H3 9117   4.145   3.385  15.777  1.7644 -0.9878  1.6651
  615MPD2     N 9118   3.943   3.001  15.728 -0.4098  0.3547  0.6036
  615MPD2    H5 9119   3.935   3.028  15.630 -1.7418 -0.3941  0.4956
  615MPD2    N1 9120   4.104   3.158  16.160 -0.0919 -0.1977 -0.0255
  615MPD2    H7 9121   4.074   3.066  16.191  1.1019 -0.8313 -0.7846
  616TMC3    C1 9122   4.186   3.186  16.392 -0.1603 -0.2749  0.3340
  616TMC3    C2 9123   4.263   3.252  16.479  0.1824 -0.2698  0.0471
  616TMC3    C3 9124   4.274   3.196  16.598  0.6185 -0.3358  0.9008
  616TMC3    C4 9125   4.115   3.072  16.428 -0.2930  0.5904  0.3622
  616TMC3    C5 9126   4.136   3.016  16.555  0.4722 -0.2122  0.3358
  616TMC3    C6 9127   4.216   3.083  16.644  0.9968 -0.6738 -1.0792
  616TMC3     C 9128   4.157   3.246  16.254 -0.4919 -0.1025  0.0475
  616TMC3     O 9129   4.225   3.345  16.228  0.0546 -0.1181 -0.1933
  616TMC3     H 9130   4.306   3.350  16.459  0.2519  0.3025  3.0059
  616TMC3    H1 9131   4.063   3.018  16.350  2.3444 -0.3626 -0.7479
  616TMC3    H2 9132   4.238   3.048  16.743  0.2480 -0.1454 -0.7202
  616TMC3    C7 9133   4.119   2.871  16.564 -0.3806 -0.1457 -0.6167
  616TMC3    C8 9134   4.350   3.265  16.697 -0.2220  0.9969 -0.6212
  616TMC3    O1 9135   4.093   2.817  16.456  0.4019 -0.0292 -0.4415
  616TMC3    O2 9136   4.302   3.262  16.810  0.2542 -0.5238 -0.0965
  617MPD2     C 9137   2.705   1.388  14.054 -0.3527  0.0900 -0.1327
  617MPD2    C1 9138   2.724   1.270  14.125 -0.7731 -0.5018 -0.0929
  617MPD2    C2 9139   2.613   1.187  14.155 -0.3767 -0.1689  0.8258
  617MPD2    C3 9140   2.486   1.213  14.108 -0.7028  0.2442 -0.4583
  617MPD2    C4 9141   2.473   1.322  14.023 -0.0008 -0.2845  0.0941
  617MPD2    C5 9142   2.577   1.406  14.000  0.1258  1.1000 -0.1622
  617MPD2     H 9143   2.633   1.094  14.205  0.2379  2.5228  5.5902
  617MPD2    H1 9144   2.379   1.342  13.973  0.8361  1.4410 -0.7963
  617MPD2    H2 9145   2.779   1.466  14.041 -0.1352 -0.3929 -1.7996
  617MPD2    H3 9146   2.556   1.493  13.940  3.9339  0.1421 -2.8415
  617MPD2     N 9147   2.372   1.130  14.134 -0.6364  0.3687  0.2508
  617MPD2    H5 9148   2.281   1.164  14.102 -1.1867  1.4018  2.8854
  617MPD2    N1 9149   2.856   1.246  14.168 -0.1017  0.4658  0.7818
  617MPD2    H7 9150   2.922   1.310  14.125 -2.1451  0.1858 -2.7674
  618TMC3    C1 9151   3.040   1.119  14.261 -0.1266  1.0050  0.1651
  618TMC3    C2 9152   3.085   0.984  14.274  0.1931 -0.0135 -0.4284
  618TMC3    C3 9153   3.218   0.969  14.301  0.1213 -0.0210 -0.1092
  618TMC3    C4 9154   3.117   1.227  14.277 -0.3371  0.1159 -0.1722
  618TMC3    C5 9155   3.247   1.209  14.318  1.0188 -0.4954  0.3935
  618TMC3    C6 9156   3.298   1.082  14.310  0.0166 -1.0654 -0.3011
  618TMC3     C 9157   2.894   1.147  14.255 -1.0041  0.1630 -0.3143
  618TMC3     O 9158   2.827   1.061  14.312 -0.4067  0.0191  0.0039
  618TMC3     H 9159   3.023   0.897  14.257 -1.4726  1.4219 -1.6827
  618TMC3    H1 9160   3.078   1.328  14.272  1.0328  0.5666 -1.9237
  618TMC3    H2 9161   3.406   1.080  14.318  0.0346 -0.3305 -0.3483
  618TMC3    C7 9162   3.327   1.321  14.312  0.4201  0.0042 -0.1295
  618TMC3    C8 9163   3.280   0.848  14.255  0.4399 -0.1625  0.5532
  618TMC3    O1 9164   3.359   1.388  14.411 -0.4977 -0.0766 -0.0108
  618TMC3    O2 9165   3.376   0.807  14.322 -0.3950 -0.3980  0.1267
  619MPD2     C 9166   3.893   2.276  13.576  0.3346 -0.3043 -0.8284
  619MPD2    C1 9167   3.836   2.395  13.568  0.1419  0.5540  0.0961
  619MPD2    C2 9168   3.701   2.413  13.590  0.1137  0.5849 -0.1487
  619MPD2    C3 9169   3.617   2.316  13.640  0.6737 -0.6781 -0.4166
  619MPD2    C4 9170   3.674   2.191  13.647 -0.5524  0.2586 -0.1707
  619MPD2    C5 9171   3.811   2.172  13.608 -0.6646 -0.1079  0.3672
  619MPD2     H 9172   3.659   2.511  13.570 -0.6079  0.3515  0.2327
  619MPD2    H1 9173   3.622   2.107  13.691 -0.0613  0.0762  0.0607
  619MPD2    H2 9174   4.000   2.259  13.572  0.4619  0.5489 -0.9615
  619MPD2    H3 9175   3.852   2.072  13.621 -1.2642 -0.3745  0.1779
  619MPD2     N 9176   3.478   2.329  13.673  0.6520 -0.5075 -0.8886
  619MPD2    H5 9177   3.431   2.248  13.711  1.5756 -0.4391  0.4157
  619MPD2    N1 9178   3.907   2.514  13.533 -0.5782  0.2477  0.1416
  619MPD2    H7 9179   3.854   2.601  13.531  0.4442  0.8240 -2.1146
  620TMC3    C1 9180   4.077   2.654  13.500  0.2019 -0.2328 -0.0016
  620TMC3    C2 9181   4.001   2.717  13.406 -0.0019  0.0457 -0.0789
  620TMC3    C3 9182   4.025   2.857  13.394 -0.1066 -0.1503  0.1604
  620TMC3    C4 9183   4.165   2.706  13.586  0.2381 -0.4538  0.3510
  620TMC3    C5 9184   4.188   2.841  13.581  0.3551 -0.1678  0.1244
  620TMC3    C6 9185   4.114   2.917  13.488  0.0736 -0.5863 -0.3986
  620TMC3     C 9186   4.042   2.526  13.544  0.1856  0.6258  0.8945
  620TMC3     O 9187   4.134   2.442  13.571 -0.4346  0.2354  0.1255
  620TMC3     H 9188   3.937   2.657  13.341 -2.9516  0.5654  2.3433
  620TMC3    H1 9189   4.194   2.646  13.671  0.9527 -3.7572 -2.2020
  620TMC3    H2 9190   4.152   3.016  13.465 -0.6437 -0.0330  0.8052
  620TMC3    C7 9191   4.183   2.907  13.712  0.1644 -0.4448 -0.3246
  620TMC3    C8 9192   3.915   2.946  13.376 -0.7112 -0.2726  0.0236
  620TMC3    O1 9193   4.275   2.897  13.789 -0.5300  0.6006 -0.3719
  620TMC3    O2 9194   3.915   3.046  13.452 -0.0158 -0.4408  0.2218
  621MPD2     C 9195   0.067   1.941   9.890  0.0611 -0.0501  0.9182
  621MPD2    C1 9196   0.109   1.988  10.019  0.4711  0.5930  0.5147
  621MPD2    C2 9197   0.109   2.119  10.051  0.1487 -0.6592 -0.5246
  621MPD2    C3 9198   0.079   2.210   9.954  0.7552  0.3798  0.2249
  621MPD2    C4 9199   0.033   2.165   9.833 -0.8066  0.5983  0.7431
  621MPD2    C5 9200   0.030   2.038   9.799 -0.2719 -0.1059  0.2763
  621MPD2     H 9201   0.153   2.146  10.147 -2.4103  0.1544  0.4093
  621MPD2    H1 9202   0.002   2.230   9.752  1.3666  1.3808  0.5469
  621MPD2    H2 9203   0.074   1.838   9.858 -0.1971  0.1546  0.2146
  621MPD2    H3 9204   4.713   1.997   9.706  0.2370  0.2738 -0.0980
  621MPD2     N 9205   0.092   2.348   9.984 -0.0151  0.4138  0.1775
  621MPD2    H5 9206   0.132   2.371  10.075  0.1575  1.1867 -0.0941
  621MPD2    N1 9207   0.143   1.891  10.120 -0.3561 -0.3573 -0.4048
  621MPD2    H7 9208   0.165   1.913  10.217  0.0353 -1.8519 -0.1407
  622TMC3    C1 9209   0.172   1.670  10.200 -1.1426  1.1014 -0.4629
  622TMC3    C2 9210   0.057   1.680  10.274  0.2825  0.1279  0.2982
  622TMC3    C3 9211   0.016   1.562  10.339 -0.5303  0.8016  0.3225
  622TMC3    C4 9212   0.226   1.549  10.173 -0.2719  0.6859  0.2032
  622TMC3    C5 9213   0.170   1.435  10.217 -0.3646  0.0558  0.1510
  622TMC3    C6 9214   0.077   1.438  10.313  0.1866  0.1834  0.1654
  622TMC3     C 9215   0.170   1.760  10.087  0.9262  0.2008  0.1160
  622TMC3     O 9216   0.199   1.716   9.981  0.5145 -0.3962 -0.4681
  622TMC3     H 9217   0.001   1.773  10.271  0.3426  0.1912  0.9963
  622TMC3    H1 9218   0.317   1.548  10.114  0.0771  0.2120  0.7437
  622TMC3    H2 9219   0.049   1.346  10.362  1.4333 -1.6545 -2.5470
  622TMC3    C7 9220   0.143   1.342  10.104  0.0176 -1.2335  0.3731
  622TMC3    C8 9221   4.598   1.558  10.373  0.6757  1.0999 -0.5344
  622TMC3    O1 9222   0.121   1.225  10.130  0.1801  0.0890 -0.0104
  622TMC3    O2 9223   4.545   1.451  10.352  0.4256  0.0901  0.3502
  623MPD2     C 9224   2.971   3.681  15.885  0.7906  0.2242  0.1773
  623MPD2    C1 9225   2.897   3.624  15.986  0.4818 -0.1049 -0.4123
  623MPD2    C2 9226   2.945   3.629  16.114  0.0726 -0.0565 -0.2692
  623MPD2    C3 9227   3.061   3.697  16.143 -0.0523  0.3305  0.0413
  623MPD2    C4 9228   3.135   3.755  16.035 -0.4470  0.1216  0.2883
  623MPD2    C5 9229   3.086   3.745  15.909  0.5591 -0.5322  0.1163
  623MPD2     H 9230   2.896   3.595  16.205  0.4862 -1.4002 -0.5437
  623MPD2    H1 9231   3.227   3.809  16.053  0.2641 -1.1434  0.4489
  623MPD2    H2 9232   2.942   3.659  15.783  1.8842 -0.6577  0.0469
  623MPD2    H3 9233   3.144   3.780  15.825 -0.7635 -0.1631 -0.6474
  623MPD2     N 9234   3.085   3.720  16.276  0.1776  0.1318  0.2151
  623MPD2    H5 9235   3.017   3.671  16.334 -0.4375  1.7811  0.8657
  623MPD2    N1 9236   2.764   3.569  15.969 -0.1050 -0.0844  0.0777
  623MPD2    H7 9237   2.720   3.544  16.056 -0.4503  0.4494  0.0569
  624TMC3    C1 9238   3.261   3.718  16.669  0.6872 -0.0277 -0.2348
  624TMC3    C2 9239   3.138   3.693  16.722  0.2645 -0.7184 -0.1113
  624TMC3    C3 9240   3.025   3.720  16.644 -0.3211 -0.0549 -0.0819
  624TMC3    C4 9241   3.279   3.763  16.544 -0.3084  0.1044 -0.5436
  624TMC3    C5 9242   3.168   3.802  16.473  0.4975  0.4350 -0.1527
  624TMC3    C6 9243   3.040   3.772  16.515 -0.5341 -0.1250 -0.4226
  624TMC3     C 9244   3.377   3.711  16.755  0.7154 -0.8512  0.0941
  624TMC3     O 9245   3.365   3.677  16.871  0.5226 -0.4016 -0.0434
  624TMC3     H 9246   3.127   3.645  16.819 -2.1668  1.3066  0.6223
  624TMC3    H1 9247   3.376   3.766  16.495 -0.1650  0.6127 -0.2239
  624TMC3    H2 9248   2.951   3.797  16.457 -1.7325  0.2237  1.5639
  624TMC3    C7 9249   3.179   3.805  16.335 -0.1018 -0.1102 -0.2562
  624TMC3    C8 9250   2.922   3.633  16.652 -0.1345 -0.3296 -0.0699
  624TMC3    O1 9251   3.270   3.872  16.283  0.4824  0.2196  0.1895
  624TMC3    O2 9252   2.897   3.563  16.554  0.4214 -0.8417  0.8444
  625MPD2     C 9253   3.032   4.455   0.410  0.0558  0.0993 -0.0413
  625MPD2    C1 9254   3.072   4.525   0.522 -0.3758 -0.1539  0.0514
  625MPD2    C2 9255   3.167   4.472   0.600 -0.1935  0.7161 -0.4358
  625MPD2    C3 9256   3.207   4.346   0.587 -0.5534  0.0407  0.1166
  625MPD2    C4 9257   3.167   4.265   0.486  0.5513 -0.6219  0.2026
  625MPD2    C5 9258   3.082   4.328   0.396  0.3613 -0.0987 -0.5924
  625MPD2     H 9259   3.195   4.528   0.689  1.5927  1.1290 -1.2505
  625MPD2    H1 9260   3.206   4.168   0.460 -0.7829 -1.4189  1.1507
  625MPD2    H2 9261   2.961   4.495   0.339  1.5784  0.9219 -1.1133
  625MPD2    H3 9262   3.047   4.274   0.309 -0.3097 -1.6476  0.6410
  625MPD2     N 9263   3.292   4.296   0.696  0.3722  0.0223  0.5974
  625MPD2    H5 9264   3.317   4.362   0.770  2.5429 -1.6050  1.2984
  625MPD2    N1 9265   3.027   4.655   0.554  0.3546 -0.0815  0.3195
  625MPD2    H7 9266   3.078   4.701   0.629  2.0312 -0.1276 -0.7915
  626TMC3    C1 9267   2.914   0.128   0.532  0.8927 -0.7955 -0.7269
  626TMC3    C2 9268   2.886   0.225   0.443  0.3835 -0.0832 -0.2118
  626TMC3    C3 9269   2.915   0.350   0.497  0.3903  0.5219 -0.2353
  626TMC3    C4 9270   2.926   0.142   0.664 -0.1930 -0.2659  0.2995
  626TMC3    C5 9271   2.927   0.267   0.713 -0.1729  0.5468  0.1872
  626TMC3    C6 9272   2.926   0.370   0.628  0.2469 -0.9454  0.2262
  626TMC3     C 9273   2.944   0.002   0.475  0.1501 -0.3394  0.5756
  626TMC3     O 9274   2.924   4.703   0.358  0.4602 -0.2199 -0.0743
  626TMC3     H 9275   2.874   0.207   0.336  2.6940  0.4243 -0.5417
  626TMC3    H1 9276   2.897   0.069   0.739 -1.6327  0.8044  0.7915
  626TMC3    H2 9277   2.940   0.471   0.666 -1.0934 -0.1761 -1.2867
  626TMC3    C7 9278   2.868   0.287   0.848 -0.6861  0.5591 -1.0073
  626TMC3    C8 9279   2.894   0.457   0.400  0.2040 -0.5835 -0.1107
  626TMC3    O1 9280   2.903   0.211   0.936  0.0862 -0.5812  0.0377
  626TMC3    O2 9281   2.869   0.423   0.283  0.3748 -0.1214 -0.2257
  627MPD2     C 9282   2.635   4.571  14.025 -0.0529 -0.3305  0.7345
  627MPD2    C1 9283   2.559   4.594  14.142  0.3077 -0.7657  0.0005
  627MPD2    C2 9284   2.422   4.567  14.148 -0.5818 -0.4653  0.0194
  627MPD2    C3 9285   2.355   4.516  14.038 -0.5273 -0.4585 -0.0702
  627MPD2    C4 9286   2.435   4.489  13.925  0.5340  0.8419 -0.6829
  627MPD2    C5 9287   2.571   4.513  13.920  0.6447  0.0265 -0.3576
  627MPD2     H 9288   2.367   4.576  14.241  1.6665 -2.3741  1.5388
  627MPD2    H1 9289   2.383   4.458  13.835 -1.0703 -0.4170  0.6944
  627MPD2    H2 9290   2.742   4.587  14.021 -0.3145  0.7800 -1.8171
  627MPD2    H3 9291   2.629   4.497  13.830  1.8176 -1.7733  0.7147
  627MPD2     N 9292   2.213   4.503  14.043  0.0183  0.1045  0.3804
  627MPD2    H5 9293   2.173   4.526  14.133 -1.6574  0.8647 -0.5500
  627MPD2    N1 9294   2.616   4.639  14.264 -0.9738 -0.0196  0.3403
  627MPD2    H7 9295   2.556   4.673  14.339  0.1271  1.0073  0.7518
  628TMC3    C1 9296   2.770   0.001  14.411  0.5079 -0.5909 -0.2552
  628TMC3    C2 9297   2.871   4.671  14.486  0.7029 -1.1338 -0.9613
  628TMC3    C3 9298   2.866   4.698  14.616 -0.1591 -0.1775 -0.3058
  628TMC3    C4 9299   2.673   0.086  14.460 -0.5853  0.3810  0.0088
  628TMC3    C5 9300   2.675   0.116  14.599 -1.0121 -0.2962  0.2681
  628TMC3    C6 9301   2.768   0.053  14.679 -0.2493  0.0169 -0.1270
  628TMC3     C 9302   2.748   4.646  14.293 -0.2500  0.2054  0.2834
  628TMC3     O 9303   2.845   4.604  14.231 -0.4924 -0.4159  0.2595
  628TMC3     H 9304   2.945   4.600  14.452  1.4152  0.4619 -2.7656
  628TMC3    H1 9305   2.597   0.125  14.393 -0.6235  0.5448  0.1470
  628TMC3    H2 9306   2.788   0.084  14.781  1.3650 -1.5628  0.0404
  628TMC3    C7 9307   2.556   0.171  14.653 -0.1771  0.0134 -0.7327
  628TMC3    C8 9308   2.986   4.665  14.689 -0.7452  0.0712  0.3106
  628TMC3    O1 9309   2.525   0.139  14.766 -0.6191  0.1900 -0.0617
  628TMC3    O2 9310   3.087   4.640  14.622 -0.2395  0.4066 -0.1852
  629MPD2     C 9311   0.108   3.366  16.859  0.3683  0.1819 -0.2465
  629MPD2    C1 9312   0.101   3.394  16.719  0.1994  0.0294  0.1709
  629MPD2    C2 9313   4.698   3.372  16.658 -0.3750  0.6046 -0.9096
  629MPD2    C3 9314   4.590   3.331  16.723 -0.0375  0.0418  0.5102
  629MPD2    C4 9315   4.594   3.304  16.857  0.4190 -0.1297  0.1248
  629MPD2    C5 9316   4.715   3.320  16.921 -0.2302  0.2304 -0.5022
  629MPD2     H 9317   4.695   3.407  16.555 -1.2874 -1.0894 -1.4612
  629MPD2    H1 9318   4.509   3.261  16.910  1.0506 -0.9839  0.4530
  629MPD2    H2 9319   0.203   3.374  16.909  0.1075  0.9549  0.1361
  629MPD2    H3 9320   4.712   3.288  17.024 -0.1954  0.7358 -0.3457
  629MPD2     N 9321   4.471   3.301  16.647  0.2255  0.2634  0.0705
  629MPD2    H5 9322   4.481   3.296  16.546 -1.2515 -0.6944 -0.0274
  629MPD2    N1 9323   0.216   3.445  16.659 -0.1230 -0.4844 -0.5717
  629MPD2    H7 9324   0.293   3.455  16.723 -0.5980  1.7692 -0.3296
  630TMC3    C1 9325   0.334   3.612  16.537 -0.1681 -0.5789 -0.1484
  630TMC3    C2 9326   0.325   3.705  16.441 -0.8477  0.4824 -0.5117
  630TMC3    C3 9327   0.438   3.785  16.414 -0.3838  0.6142 -0.0609
  630TMC3    C4 9328   0.453   3.579  16.607  0.3201  0.0504 -0.2028
  630TMC3    C5 9329   0.560   3.666  16.580 -0.3794  0.7824  0.3149
  630TMC3    C6 9330   0.557   3.750  16.479 -0.5851  0.9250  0.2349
  630TMC3     C 9331   0.216   3.523  16.545  0.3110  0.5198  0.3622
  630TMC3     O 9332   0.130   3.534  16.459  0.3346 -0.0345  0.0834
  630TMC3     H 9333   0.228   3.721  16.395 -1.4920  0.2426  0.7878
  630TMC3    H1 9334   0.450   3.515  16.695  0.9436 -0.2603 -0.4060
  630TMC3    H2 9335   0.638   3.822  16.467 -0.7879  0.8990 -1.3969
  630TMC3    C7 9336   0.651   3.701  16.689 -0.1274 -0.4739  0.7580
  630TMC3    C8 9337   0.426   3.925  16.374 -0.6994  0.0622 -0.5339
  630TMC3    O1 9338   0.728   3.792  16.666  0.1474 -0.2596 -0.0582
  630TMC3    O2 9339   0.525   3.997  16.380  0.3495  0.0431 -0.4851
  631MPD2     C 9340   3.329   3.481  15.602  0.1766 -0.5476  0.3755
  631MPD2    C1 9341   3.431   3.470  15.509  0.0426  0.1648  0.0498
  631MPD2    C2 9342   3.468   3.347  15.465 -1.0718 -0.0860 -0.4748
  631MPD2    C3 9343   3.428   3.240  15.533 -0.3958 -0.6902  0.1600
  631MPD2    C4 9344   3.331   3.244  15.628  0.1390  0.5124  0.7434
  631MPD2    C5 9345   3.276   3.367  15.661 -0.2839  0.3969  0.4271
  631MPD2     H 9346   3.546   3.336  15.391  0.1148  1.8093  0.5078
  631MPD2    H1 9347   3.294   3.154  15.675  0.9801 -0.0643  0.2981
  631MPD2    H2 9348   3.300   3.578  15.641 -0.8423 -0.4507 -0.6010
  631MPD2    H3 9349   3.195   3.383  15.731 -1.0911 -1.8808  0.0136
  631MPD2     N 9350   3.504   3.120  15.506 -0.0102 -0.4669  0.0945
  631MPD2    H5 9351   3.583   3.124  15.443  0.8778  0.0530  1.2474
  631MPD2    N1 9352   3.495   3.594  15.467  0.0905 -0.0948  0.1802
  631MPD2    H7 9353   3.459   3.679  15.509  1.4933  0.6644 -0.1480
  632TMC3    C1 9354   3.636   3.749  15.344  0.2043  0.0318  0.3465
  632TMC3    C2 9355   3.635   3.829  15.457  0.5963 -0.7958 -0.0400
  632TMC3    C3 9356   3.681   3.955  15.447 -0.8150 -0.4846 -0.1388
  632TMC3    C4 9357   3.711   3.772  15.235 -0.3161 -0.8182  0.2056
  632TMC3    C5 9358   3.757   3.907  15.233 -0.2792 -0.1003  0.0563
  632TMC3    C6 9359   3.742   4.000  15.335 -0.6315  0.3763 -0.5245
  632TMC3     C 9360   3.588   3.609  15.364 -0.1249 -0.0484 -0.1744
  632TMC3     O 9361   3.618   3.525  15.283 -0.0244 -0.1192 -0.2209
  632TMC3     H 9362   3.588   3.797  15.550 -1.0147  1.8108  0.0370
  632TMC3    H1 9363   3.708   3.713  15.144  0.4108 -2.1882  1.0693
  632TMC3    H2 9364   3.773   4.103  15.320  0.8226 -0.0559 -0.5108
  632TMC3    C7 9365   3.802   3.951  15.103  0.0274 -0.0347 -0.1368
  632TMC3    C8 9366   3.632   4.055  15.535  0.4969 -0.2037  0.0987
  632TMC3    O1 9367   3.756   3.895  15.001 -0.4331 -0.7849  0.1070
  632TMC3    O2 9368   3.706   4.152  15.557 -0.4002 -0.6784 -0.2432
  633MPD2     C 9369   3.066   1.841  17.335  1.0708 -0.6585 -0.1829
  633MPD2    C1 9370   3.152   1.777  17.249 -0.1446  0.6185  0.2480
  633MPD2    C2 9371   3.143   1.637  17.245 -0.6927  0.4170 -0.5531
  633MPD2    C3 9372   3.060   1.561  17.337  0.6540 -0.6780 -0.2599
  633MPD2    C4 9373   2.992   1.636  17.432 -0.9454  0.2108 -0.1465
  633MPD2    C5 9374   3.000   1.773  17.431  0.3350  0.1261 -0.4979
  633MPD2     H 9375   3.208   1.588  17.174  0.0847  1.0037 -0.2516
  633MPD2    H1 9376   2.927   1.595  17.509  0.2921 -0.8826  0.3190
  633MPD2    H2 9377   3.071   1.949  17.348  1.5319 -0.9177  1.7256
  633MPD2    H3 9378   2.952   1.839  17.503  0.7455  0.0033 -0.1173
  633MPD2     N 9379   3.052   1.417  17.337 -0.3388  0.4914  0.0402
  633MPD2    H5 9380   2.993   1.379  17.411 -0.2007 -1.8807 -1.0754
  633MPD2    N1 9381   3.231   1.840  17.157 -0.2572  0.3446 -0.2998
  633MPD2    H7 9382   3.288   1.777  17.100 -0.8012 -0.4879  0.0746
  634TMC3    C1 9383   3.299   2.001  17.010  0.2238  0.1977  0.1234
  634TMC3    C2 9384   3.338   1.899  16.924 -0.0758  0.8542  0.4059
  634TMC3    C3 9385   3.346   1.931  16.790  0.0405  0.2126 -0.5907
  634TMC3    C4 9386   3.278   2.128  16.966 -0.4839 -0.1108  0.7968
  634TMC3    C5 9387   3.271   2.146  16.831 -0.0617 -0.0138 -0.0663
  634TMC3    C6 9388   3.303   2.050  16.738 -0.5405 -0.1595 -0.0240
  634TMC3     C 9389   3.258   1.973  17.150 -0.0964  0.8104  0.3555
  634TMC3     O 9390   3.215   2.066  17.219 -0.2590  0.3565 -0.2993
  634TMC3     H 9391   3.375   1.804  16.961  0.1762  0.6698 -0.3313
  634TMC3    H1 9392   3.266   2.207  17.040  1.2976  1.0486 -0.1632
  634TMC3    H2 9393   3.302   2.070  16.632  0.9937 -1.4128 -0.2728
  634TMC3    C7 9394   3.238   2.280  16.782 -0.0884 -0.0185  0.0043
  634TMC3    C8 9395   3.385   1.819  16.694 -0.6657  0.2679  0.1099
  634TMC3    O1 9396   3.262   2.294  16.663 -0.5313 -0.4397 -0.1466
  634TMC3    O2 9397   3.395   1.709  16.746 -0.8286  0.0213 -0.4718
  635TMC3    C1 9398   3.423   3.225  17.400 -0.0241  0.3617 -0.2843
  635TMC3    C2 9399   3.416   3.155  17.286 -0.8440 -0.1858 -1.5012
  635TMC3    C3 9400   3.302   3.176  17.219  0.6223 -0.0056  0.6418
  635TMC3    C4 9401   3.316   3.301  17.446  0.4605 -0.4020 -0.8575
  635TMC3    C5 9402   3.204   3.322  17.370  0.5348 -0.1526 -0.3441
  635TMC3    C6 9403   3.187   3.250  17.256  0.8959 -0.2550  0.1794
  635TMC3     C 9404   3.510   3.185  17.502 -0.2577  0.0438  0.5469
  635TMC3     O 9405   3.486   3.210  17.620 -0.0604  0.3789 -0.0451
  635TMC3     H 9406   3.495   3.092  17.247 -0.0733 -1.4821  2.1716
  635TMC3    H1 9407   3.337   3.352  17.540  1.4036 -1.7737 -0.3176
  635TMC3    H2 9408   3.098   3.261  17.195  0.7427  2.2634  0.8931
  635TMC3    C7 9409   3.079   3.341  17.449 -0.2115  0.4567 -0.4518
  635TMC3    C8 9410   3.290   3.129  17.083  0.1961  0.5850  0.2654
  635TMC3    O1 9411   2.977   3.291  17.401  0.5061  0.3202  0.1435
  635TMC3    O2 9412   3.297   3.008  17.065 -0.4041  0.1828 -0.3497
  636MPD2     C 9413   4.592   1.709  15.783  0.5654 -0.0563  0.0048
  636MPD2    C1 9414   4.614   1.699  15.922 -0.0334  1.1666 -0.4538
  636MPD2    C2 9415   4.689   1.586  15.959 -0.2141 -0.0831 -0.3351
  636MPD2    C3 9416   0.009   1.483  15.874 -0.5251  0.5993  0.4497
  636MPD2    C4 9417   4.714   1.512  15.737  0.2977 -0.3307  0.2521
  636MPD2    C5 9418   4.634   1.617  15.690 -0.5205  0.2865  0.5706
  636MPD2     H 9419   4.695   1.567  16.066 -1.6723 -1.1251 -0.4356
  636MPD2    H1 9420   0.022   1.437  15.664 -0.5777  0.5366 -0.9969
  636MPD2    H2 9421   4.534   1.795  15.751 -0.0388 -0.9190 -1.1905
  636MPD2    H3 9422   4.606   1.625  15.585  3.4116  2.0634 -0.3520
  636MPD2     N 9423   0.094   1.387  15.927 -0.3407 -0.7675  0.1116
  636MPD2    H5 9424   0.116   1.405  16.025  1.2543  0.5011 -0.4995
  636MPD2    N1 9425   4.571   1.791  16.019 -0.1031  0.4837 -0.0846
  636MPD2    H7 9426   4.573   1.749  16.111  4.6971  1.3804  0.2115
  637TMC3    C1 9427   0.295   1.273  15.919  0.2280  0.0046  0.1422
  637TMC3    C2 9428   0.299   1.272  16.062 -0.3400  0.1674 -0.1260
  637TMC3    C3 9429   0.418   1.299  16.124 -0.4176  0.8268 -0.1228
  637TMC3    C4 9430   0.405   1.291  15.844 -0.6912 -0.4083 -0.5033
  637TMC3    C5 9431   0.518   1.333  15.913  0.4773 -0.0443  0.3548
  637TMC3    C6 9432   0.526   1.321  16.051  0.0395  0.0124 -0.0402
  637TMC3     C 9433   0.175   1.301  15.855 -0.8612 -0.5456  0.2713
  637TMC3     O 9434   0.177   1.266  15.739 -0.0237 -0.3295  0.3989
  637TMC3     H 9435   0.211   1.247  16.121  0.4392  0.5434  1.1889
  637TMC3    H1 9436   0.390   1.306  15.738 -0.5853 -0.4417 -0.5229
  637TMC3    H2 9437   0.621   1.349  16.096 -0.6567 -0.5485  1.8068
  637TMC3    C7 9438   0.589   1.445  15.849  0.5868  0.3974 -0.1129
  637TMC3    C8 9439   0.402   1.392  16.235 -0.9146 -1.0249 -0.2249
  637TMC3    O1 9440   0.588   1.450  15.731  1.0318  0.2108 -0.5066
  637TMC3    O2 9441   0.476   1.488  16.224 -0.2344  0.7406 -0.2419
  638MPD2     C 9442   3.973   1.068  14.817  0.0499  0.3566 -0.6859
  638MPD2    C1 9443   4.080   0.985  14.830  0.1434 -0.6829  0.4438
  638MPD2    C2 9444   4.059   0.869  14.904  0.4525  0.6324 -0.4559
  638MPD2    C3 9445   3.944   0.831  14.970  0.6733 -0.2647 -0.3195
  638MPD2    C4 9446   3.833   0.907  14.944 -0.3946 -0.0487 -0.0203
  638MPD2    C5 9447   3.850   1.029  14.877 -1.0935  0.5357 -0.1233
  638MPD2     H 9448   4.146   0.804  14.900 -0.5879 -0.7789 -0.1083
  638MPD2    H1 9449   3.736   0.877  14.982  0.1775 -1.0850  0.5946
  638MPD2    H2 9450   3.968   1.158  14.756 -1.1014  1.8582  1.6180
  638MPD2    H3 9451   3.759   1.087  14.864 -0.3901  1.7207  0.1730
  638MPD2     N 9452   3.933   0.714  15.049 -0.1572  0.3460  0.1948
  638MPD2    H5 9453   3.840   0.677  15.067  0.0069  0.7533  1.8648
  638MPD2    N1 9454   4.197   0.990  14.752 -0.1311 -0.3035 -0.5259
  638MPD2    H7 9455   4.256   0.908  14.763 -0.8503 -0.8902 -1.0165
  639TMC3    C1 9456   4.010   0.506  15.138 -0.4299 -0.0450 -0.2381
  639TMC3    C2 9457   3.932   0.429  15.056  0.2197 -0.2770 -0.0236
  639TMC3    C3 9458   3.939   0.294  15.061  0.1705 -0.5548 -0.3659
  639TMC3    C4 9459   4.095   0.447  15.222 -0.3913  0.5056  0.2771
  639TMC3    C5 9460   4.095   0.305  15.225 -0.1766  0.1995 -0.1973
  639TMC3    C6 9461   4.013   0.225  15.150 -0.6862 -0.4400 -0.0872
  639TMC3     C 9462   4.038   0.646  15.099  0.2230  0.4704 -1.1894
  639TMC3     O 9463   4.149   0.695  15.122 -0.1062 -0.1631  0.1740
  639TMC3     H 9464   3.865   0.467  14.980 -0.4212  0.2312  0.7916
  639TMC3    H1 9465   4.157   0.506  15.289 -0.2016 -0.7971  1.2586
  639TMC3    H2 9466   4.032   0.118  15.153 -0.6578 -0.4595 -0.7971
  639TMC3    C7 9467   4.212   0.239  15.278  0.0870 -0.3746 -0.0735
  639TMC3    C8 9468   3.918   0.219  14.936  0.4704 -0.2834  0.0311
  639TMC3    O1 9469   4.207   0.118  15.306 -0.0748  0.0540  0.1576
  639TMC3    O2 9470   3.958   0.263  14.828  0.5672  0.0387 -0.3964
  640MPD2     C 9471   0.594   4.008  10.043 -0.7002  0.0619  0.2948
  640MPD2    C1 9472   0.592   3.931   9.928  0.4070 -0.0127  0.0883
  640MPD2    C2 9473   0.472   3.906   9.864  0.1665 -0.3086 -0.2193
  640MPD2    C3 9474   0.354   3.950   9.911  1.0892 -0.6841  0.2875
  640MPD2    C4 9475   0.354   4.017  10.034  0.0558  0.9071 -0.1852
  640MPD2    C5 9476   0.476   4.056  10.082  0.0392 -0.7179  0.0207
  640MPD2     H 9477   0.475   3.856   9.768  0.7008 -0.9117  0.1149
  640MPD2    H1 9478   0.263   4.054  10.081  0.8864  1.1953  1.2019
  640MPD2    H2 9479   0.682   4.034  10.101  0.1538  0.9576 -1.3926
  640MPD2    H3 9480   0.474   4.110  10.176 -1.0881 -0.0719 -0.3768
  640MPD2     N 9481   0.231   3.940   9.841 -0.6476  0.2560  0.9525
  640MPD2    H5 9482   0.152   3.989   9.880 -0.1866  1.6033  0.1921
  640MPD2    N1 9483   0.712   3.865   9.892  0.0550 -0.2537 -0.0507
  640MPD2    H7 9484   0.799   3.901   9.929 -0.4619 -0.7496  1.6502
  641TMC3    C1 9485   0.840   3.729   9.769  0.6078  0.3799  0.2436
  641TMC3    C2 9486   0.848   3.601   9.729  0.7779 -0.4595 -0.0735
  641TMC3    C3 9487   0.921   3.579   9.617 -0.0877  0.9661 -0.0397
  641TMC3    C4 9488   0.889   3.826   9.685  0.5856  0.0648 -0.3458
  641TMC3    C5 9489   0.957   3.792   9.566  0.1769  0.6531  0.7791
  641TMC3    C6 9490   0.975   3.666   9.526  0.0325 -0.4201 -0.6849
  641TMC3     C 9491   0.712   3.753   9.811  0.4362  0.3006  0.9542
  641TMC3     O 9492   0.617   3.682   9.783  0.3014 -0.2518  0.6757
  641TMC3     H 9493   0.777   3.529   9.769  1.3174 -0.7141  0.4094
  641TMC3    H1 9494   0.868   3.932   9.696  2.4198  0.3167  0.6384
  641TMC3    H2 9495   1.001   3.638   9.424 -0.6823 -1.1420 -0.6694
  641TMC3    C7 9496   0.976   3.896   9.463  0.0595 -0.3488 -0.2463
  641TMC3    C8 9497   0.962   3.446   9.608  0.1671 -0.8986  0.2570
  641TMC3    O1 9498   0.900   3.986   9.474 -0.5385 -0.1442 -0.0425
  641TMC3    O2 9499   1.007   3.408   9.494 -0.9061  0.5360  0.2130
  642TMC3    C1 9500   1.235   0.686  12.021 -0.6479  0.0945  0.3293
  642TMC3    C2 9501   1.359   0.668  12.077 -0.1683  0.3925 -0.3419
  642TMC3    C3 9502   1.386   0.542  12.125 -0.2241 -1.1757 -0.6909
  642TMC3    C4 9503   1.141   0.588  11.994 -0.4251 -0.3864  0.0443
  642TMC3    C5 9504   1.165   0.471  12.050 -0.4541 -0.4825  0.3607
  642TMC3    C6 9505   1.289   0.444  12.107 -0.5648  0.4473 -0.1658
  642TMC3     C 9506   1.179   0.812  12.037 -0.3558 -0.5579 -0.6713
  642TMC3     O 9507   1.233   0.898  11.973  0.0976  0.5409  0.6303
  642TMC3     H 9508   1.416   0.756  12.107  2.5898 -0.6699 -2.4710
  642TMC3    H1 9509   1.046   0.616  11.951 -1.0339 -1.7299  0.5286
  642TMC3    H2 9510   1.313   0.343  12.137 -0.1776  0.7539  0.5755
  642TMC3    C7 9511   1.080   0.361  12.017 -0.2138  0.7964 -1.0935
  642TMC3    C8 9512   1.501   0.511  12.210 -0.6740 -0.1412 -0.1831
  642TMC3    O1 9513   1.004   0.385  11.925 -0.5168 -0.0172  0.0745
  642TMC3    O2 9514   1.502   0.429  12.298  0.3682  0.4511 -0.4954
  643TMC3    C1 9515   0.447   0.294   0.496 -0.1082 -0.1095 -0.3562
  643TMC3    C2 9516   0.377   0.383   0.416  0.3147  0.4336 -0.1890
  643TMC3    C3 9517   0.253   0.342   0.382  0.8308  0.7759 -0.0433
  643TMC3    C4 9518   0.397   0.172   0.532  0.4487 -0.2337  0.1151
  643TMC3    C5 9519   0.271   0.137   0.491 -0.2084  0.0982 -0.4066
  643TMC3    C6 9520   0.197   0.224   0.421 -0.4840  0.5775 -0.1787
  643TMC3     C 9521   0.586   0.317   0.534 -0.2374  0.2642 -0.1513
  643TMC3     O 9522   0.656   0.225   0.575  0.9111  0.2939  0.0485
  643TMC3     H 9523   0.432   0.463   0.367  1.1496  0.7149  1.1878
  643TMC3    H1 9524   0.447   0.104   0.599  0.6525 -2.8577 -2.6909
  643TMC3    H2 9525   0.091   0.211   0.404 -0.6796  1.6659  0.1745
  643TMC3    C7 9526   0.220   0.004   0.511  0.0849 -0.3239 -0.3707
  643TMC3    C8 9527   0.179   0.407   0.274  0.8685  0.6505 -0.0157
  643TMC3    O1 9528   0.237   4.685   0.627 -0.4227 -0.4592  0.1096
  643TMC3    O2 9529   0.064   0.374   0.251  0.2719 -0.6683 -0.4110
  644MPD2     C 9530   1.218   4.673   9.165 -0.4075 -0.0408 -0.0550
  644MPD2    C1 9531   1.152   4.583   9.242 -0.6268  0.0417 -0.0403
  644MPD2    C2 9532   1.018   4.604   9.264 -0.3188  0.4279 -0.2800
  644MPD2    C3 9533   0.955   4.707   9.199 -0.4576  0.4041 -0.0196
  644MPD2    C4 9534   1.024   0.076   9.113  0.0978  0.4054 -0.3037
  644MPD2    C5 9535   1.156   0.050   9.093 -0.0004  0.2825  0.7143
  644MPD2     H 9536   0.962   4.544   9.335 -1.9797  0.0819 -1.8814
  644MPD2    H1 9537   0.981   0.154   9.052 -1.4279 -0.2762 -0.1107
  644MPD2    H2 9538   1.323   4.662   9.141 -0.5473 -1.0598 -0.1947
  644MPD2    H3 9539   1.211   0.117   9.028  0.2083  1.8363  2.5088
  644MPD2     N 9540   0.815   0.003   9.227 -0.0575 -0.0001  0.1397
  644MPD2    H5 9541   0.781   4.672   9.308  2.4001 -0.9750  0.5462
  644MPD2    N1 9542   1.236   4.485   9.302 -0.7179  0.3812  0.4193
  644MPD2    H7 9543   1.337   4.493   9.291 -0.4678 -0.7321  2.0640
  645TMC3    C1 9544   0.592   0.089   9.205 -0.0529  0.0031 -0.1654
  645TMC3    C2 9545   0.515   0.187   9.147 -0.7706 -0.0639 -0.3454
  645TMC3    C3 9546   0.375   0.172   9.139 -0.2196  0.4792  0.4151
  645TMC3    C4 9547   0.531   4.699   9.262 -0.4038  0.3860  0.6989
  645TMC3    C5 9548   0.394   4.694   9.270 -0.5433  0.3539  0.3000
  645TMC3    C6 9549   0.320   0.068   9.206 -0.2295 -0.2236  0.1553
  645TMC3     C 9550   0.733   0.100   9.167 -0.0034 -0.2818  0.1285
  645TMC3     O 9551   0.760   0.171   9.070 -0.3345 -0.1220 -0.5787
  645TMC3     H 9552   0.564   0.269   9.096 -1.7656  2.0067  1.9995
  645TMC3    H1 9553   0.594   4.623   9.305  0.6196 -0.3613 -2.1033
  645TMC3    H2 9554   0.213   0.053   9.199 -0.7557  3.1705  0.9724
  645TMC3    C7 9555   0.336   4.561   9.270  0.7747 -0.0045  0.3013
  645TMC3    C8 9556   0.299   0.225   9.030 -0.4274 -0.5637  0.1832
  645TMC3    O1 9557   0.247   4.534   9.188  0.1303  0.7534  0.2582
  645TMC3    O2 9558   0.189   0.171   9.009  0.9477  0.2654  0.3136
  646MPD2     C 9559   4.714   4.249  14.518  1.0947  0.8497 -0.5125
  646MPD2    C1 9560   4.601   4.186  14.568 -0.2916 -0.3940  0.3344
  646MPD2    C2 9561   4.472   4.229  14.519  0.3896  0.8003  0.0288
  646MPD2    C3 9562   4.464   4.335  14.431 -0.0369  0.7043  0.4562
  646MPD2    C4 9563   4.577   4.397  14.392 -0.0479 -0.5229  0.5223
  646MPD2    C5 9564   4.700   4.349  14.431  0.5110  0.4436  0.1697
  646MPD2     H 9565   4.378   4.181  14.544  2.1230 -1.5311  2.1802
  646MPD2    H1 9566   4.575   4.478  14.319  1.5960  0.3674  1.4498
  646MPD2    H2 9567   0.091   4.216  14.548  0.6156  0.2863  0.4494
  646MPD2    H3 9568   0.073   4.394  14.401  2.1855 -1.9842  1.7775
  646MPD2     N 9569   4.327   4.373  14.393  0.2177 -0.2908 -0.5590
  646MPD2    H5 9570   4.245   4.331  14.435 -0.2996  2.3070  1.0378
  646MPD2    N1 9571   4.625   4.089  14.668 -0.5627  0.4987  0.3115
  646MPD2    H7 9572   4.720   4.082  14.704  0.3235 -0.7425 -2.2797
  647TMC3    C1 9573   4.563   3.902  14.811 -0.6106  0.6946 -0.4785
  647TMC3    C2 9574   4.515   3.775  14.797  0.4647 -0.5335 -1.3437
  647TMC3    C3 9575   4.582   3.666  14.846  0.1018 -0.2557 -0.3986
  647TMC3    C4 9576   4.678   3.923  14.884  0.2520  0.8723  0.0227
  647TMC3    C5 9577   0.029   3.812  14.923 -0.0850  0.1981 -0.1810
  647TMC3    C6 9578   4.715   3.683  14.889  0.0612  0.1376 -0.2061
  647TMC3     C 9579   4.530   3.996  14.708 -0.3053 -0.4681 -0.0609
  647TMC3     O 9580   4.412   3.986  14.672 -0.2823  0.4002 -0.1798
  647TMC3     H 9581   4.434   3.758  14.727 -1.6192 -1.8899  1.4029
  647TMC3    H1 9582   4.717   4.023  14.899  0.1109  0.9894 -0.3954
  647TMC3    H2 9583   0.045   3.600  14.937  0.0581  1.8116  2.6869
  647TMC3    C7 9584   0.168   3.835  14.966  0.4064  0.1062 -0.3970
  647TMC3    C8 9585   4.526   3.542  14.899  0.6955 -0.7749 -0.1808
  647TMC3    O1 9586   0.185   3.935  15.035 -0.0823  0.6113  0.4055
  647TMC3    O2 9587   4.602   3.459  14.945 -0.0490 -0.2107 -0.2784
  648TMC3    C1 9588   3.705   1.959  16.344 -0.0370  0.6533 -0.2084
  648TMC3    C2 9589   3.776   1.846  16.321 -0.5623 -0.0547  0.0575
  648TMC3    C3 9590   3.804   1.804  16.190  0.3139  0.4476 -0.2011
  648TMC3    C4 9591   3.650   2.027  16.236  0.1299  0.3108 -0.1130
  648TMC3    C5 9592   3.671   1.978  16.108  0.2773 -0.9683  0.1169
  648TMC3    C6 9593   3.752   1.874  16.079 -0.3151  0.3660 -0.0089
  648TMC3     C 9594   3.663   2.000  16.479  0.0069 -0.6677 -0.3376
  648TMC3     O 9595   3.570   2.078  16.488  0.2760  0.0672 -0.8910
  648TMC3     H 9596   3.842   1.804  16.396 -1.8013 -1.5676  0.3131
  648TMC3    H1 9597   3.585   2.110  16.259 -0.8995  0.0127 -2.0200
  648TMC3    H2 9598   3.771   1.838  15.979  0.6863  1.7708 -0.3173
  648TMC3    C7 9599   3.603   2.041  15.990  0.1268 -0.1836 -0.4390
  648TMC3    C8 9600   3.898   1.691  16.175 -0.7275 -0.1978  0.5569
  648TMC3    O1 9601   3.659   2.024  15.882 -0.3471  0.0297  0.0759
  648TMC3    O2 9602   3.963   1.663  16.276  0.2277 -0.1783  0.2430
  649TMC3    C1 9603   2.256   2.651  12.514  1.1074 -0.1080 -0.2040
  649TMC3    C2 9604   2.355   2.681  12.427 -0.0380  0.3076  0.1829
  649TMC3    C3 9605   2.485   2.669  12.463  0.4522 -0.2781 -0.2238
  649TMC3    C4 9606   2.287   2.606  12.640  0.4395  0.5757 -0.1857
  649TMC3    C5 9607   2.417   2.595  12.678 -0.0217 -0.6343 -0.0762
  649TMC3    C6 9608   2.517   2.619  12.582  0.1362  0.0059  0.1941
  649TMC3     C 9609   2.132   2.709  12.498  0.3160 -0.0196 -0.0762
  649TMC3     O 9610   2.059   2.729  12.596 -0.2463 -0.2850  0.1890
  649TMC3     H 9611   2.337   2.731  12.333  1.0682  1.3516  0.5292
  649TMC3    H1 9612   2.208   2.588  12.712  0.0145  0.9993 -0.5537
  649TMC3    H2 9613   2.621   2.603  12.609  0.3130  0.5822 -0.1547
  649TMC3    C7 9614   2.438   2.518  12.800 -0.0239 -0.4453  0.9047
  649TMC3    C8 9615   2.572   2.743  12.382 -0.0773  0.5642 -0.2688
  649TMC3    O1 9616   2.338   2.476  12.860  0.0755  0.0782 -0.2754
  649TMC3    O2 9617   2.569   2.734  12.262  0.0891  0.1876 -0.4025
  650TMC3    C1 9618   0.567   4.445  12.655  1.0958 -0.1937 -1.0435
  650TMC3    C2 9619   0.548   4.575  12.701  0.2134 -0.7145 -0.7166
  650TMC3    C3 9620   0.526   4.669  12.605  0.3912 -0.0741  0.1705
  650TMC3    C4 9621   0.542   4.412  12.524  0.7087 -0.0907 -0.2013
  650TMC3    C5 9622   0.488   4.509  12.437 -0.1757 -0.5776  0.6184
  650TMC3    C6 9623   0.490   4.638  12.472 -0.2860  0.1310 -0.4092
  650TMC3     C 9624   0.644   4.361  12.744  0.2757  0.8759 -0.1145
  650TMC3     O 9625   0.697   4.414  12.839  0.3705 -0.1956 -0.1565
  650TMC3     H 9626   0.562   4.590  12.808 -1.8194  1.4251 -0.7793
  650TMC3    H1 9627   0.563   4.310  12.496  0.6571 -0.4991  1.2367
  650TMC3    H2 9628   0.479   4.720  12.401  0.3522  1.2315  0.7586
  650TMC3    C7 9629   0.476   4.476  12.298 -1.0495  0.4463 -0.6788
  650TMC3    C8 9630   0.523   0.088  12.646  0.3286  0.5586  0.0513
  650TMC3    O1 9631   0.539   4.374  12.274 -0.2834 -0.2035 -0.4926
  650TMC3    O2 9632   0.518   0.176  12.559 -0.0818  0.1136 -0.3920
  651MPD2     C 9633   4.364   1.258  10.708  0.5227  0.5143  0.5360
  651MPD2    C1 9634   4.354   1.390  10.754 -0.1540  0.0710 -0.8969
  651MPD2    C2 9635   4.471   1.463  10.763  0.5626 -0.2972 -0.3126
  651MPD2    C3 9636   4.595   1.417  10.717  0.0733  0.5552  0.0771
  651MPD2    C4 9637   4.598   1.290  10.660 -0.1440  0.5561 -0.0940
  651MPD2    C5 9638   4.485   1.213  10.665  0.0078 -0.7963  0.6733
  651MPD2     H 9639   4.472   1.550  10.828  0.5221 -0.9213  0.5191
  651MPD2    H1 9640   4.688   1.235  10.635  0.4930  1.2302  0.7146
  651MPD2    H2 9641   4.276   1.194  10.707  1.8508 -1.3048  0.2594
  651MPD2    H3 9642   4.500   1.112  10.627 -1.7801 -0.1532 -1.7619
  651MPD2     N 9643   4.714   1.498  10.723  0.9422  0.1473 -0.0283
  651MPD2    H5 9644   4.708   1.588  10.770  3.0227 -0.7183  1.8815
  651MPD2    N1 9645   4.230   1.452  10.783  0.1558  0.0894 -0.2474
  651MPD2    H7 9646   4.235   1.542  10.830  0.7761 -0.4266  0.6549
  652TMC3    C1 9647   0.382   1.661  10.563  0.2751  0.3263  0.4179
  652TMC3    C2 9648   0.306   1.551  10.588  0.0562  0.1941 -0.0140
  652TMC3    C3 9649   0.215   1.561  10.691  0.3828  0.6139  0.1849
  652TMC3    C4 9650   0.366   1.775  10.645 -0.0133  0.5958 -0.0131
  652TMC3    C5 9651   0.278   1.770  10.750 -0.1384 -0.1742 -0.2484
  652TMC3    C6 9652   0.199   1.661  10.780  0.5253  0.1794  0.1694
  652TMC3     C 9653   0.513   1.624  10.526 -0.5452 -0.3973 -0.4070
  652TMC3     O 9654   0.556   1.522  10.578  0.2656  0.6016  0.0438
  652TMC3     H 9655   0.322   1.462  10.529  0.5548 -1.3496  2.4522
  652TMC3    H1 9656   0.432   1.859  10.623  0.9504 -0.3041 -0.5814
  652TMC3    H2 9657   0.123   1.651  10.857 -0.3680 -0.7980 -0.8346
  652TMC3    C7 9658   0.295   1.871  10.856  0.7000 -0.0252 -0.2672
  652TMC3    C8 9659   0.118   1.456  10.677  0.0837  0.5144  0.0216
  652TMC3    O1 9660   0.243   1.852  10.965 -0.5639 -0.1608  0.2333
  652TMC3    O2 9661   0.153   1.350  10.634 -0.0385  0.3378 -0.0326
  653MPD2     C 9662   2.749   2.151   0.242  0.0077 -0.4207 -0.1263
  653MPD2    C1 9663   2.759   2.248   0.146 -0.9409  0.2612 -0.0940
  653MPD2    C2 9664   2.744   2.213   0.011  0.6880  0.1330 -0.6316
  653MPD2    C3 9665   2.733   2.078  17.669 -0.1574 -0.3195 -0.9026
  653MPD2    C4 9666   2.736   1.981   0.082 -0.0207 -0.5277 -0.5035
  653MPD2    C5 9667   2.754   2.019   0.212 -0.1053  0.1081  0.1650
  653MPD2     H 9668   2.758   2.287  17.620 -0.3092 -0.5271 -1.4391
  653MPD2    H1 9669   2.738   1.874   0.065 -1.3458 -0.6677  0.2473
  653MPD2    H2 9670   2.751   2.183   0.345  3.6685  0.3640 -0.4402
  653MPD2    H3 9671   2.753   1.945   0.292 -1.7840 -0.4394 -0.3619
  653MPD2     N 9672   2.696   2.040  17.540 -0.4183  0.4342  0.3537
  653MPD2    H5 9673   2.684   2.125  17.485 -0.5672  1.3845  1.8553
  653MPD2    N1 9674   2.778   2.386   0.169  0.1907  0.1897  0.6684
  653MPD2    H7 9675   2.749   2.460   0.106 -0.3456 -1.1860 -0.7360
  654TMC3    C1 9676   2.641   1.932  17.344  0.5506 -0.0223  0.4493
  654TMC3    C2 9677   2.572   2.039  17.297  0.7574 -0.9186  0.4468
  654TMC3    C3 9678   2.553   2.040  17.162 -0.1051  0.3053 -0.1002
  654TMC3    C4 9679   2.674   1.820  17.271 -0.1952 -0.4404  0.3469
  654TMC3    C5 9680   2.637   1.819  17.144 -0.3356 -0.5617 -0.1743
  654TMC3    C6 9681   2.586   1.934  17.081 -0.2492 -0.1523  1.4553
  654TMC3     C 9682   2.677   1.919  17.485  0.0183 -0.0014 -0.8603
  654TMC3     O 9683   2.698   1.807  17.527  0.0203 -0.3158  0.1272
  654TMC3     H 9684   2.540   2.124  17.356  3.4212  1.4186 -1.4606
  654TMC3    H1 9685   2.730   1.736  17.311  0.2521 -0.7114 -0.8294
  654TMC3    H2 9686   2.562   1.933  16.975  1.1613 -1.1350  1.1457
  654TMC3    C7 9687   2.664   1.704  17.058  0.2210 -0.0103  0.1671
  654TMC3    C8 9688   2.481   2.156  17.109 -0.2316 -0.0573 -0.1944
  654TMC3    O1 9689   2.625   1.714  16.942  0.2928  0.5921 -0.5779
  654TMC3    O2 9690   2.432   2.232  17.192  0.5663 -0.3974  0.1324
  655MPD2     C 9691   4.149   1.814  15.880  0.5293  0.4741 -0.0610
  655MPD2    C1 9692   4.073   1.895  15.801 -0.5611 -0.0766 -0.7792
  655MPD2    C2 9693   4.066   1.854  15.669  0.2900 -0.0514  0.0457
  655MPD2    C3 9694   4.143   1.753  15.613  0.2638 -0.3015  0.3730
  655MPD2    C4 9695   4.228   1.681  15.693  0.0298 -0.3251 -0.1429
  655MPD2    C5 9696   4.234   1.713  15.828  0.0355  0.1389 -0.8046
  655MPD2     H 9697   4.008   1.915  15.602 -1.3515 -1.7535 -0.0977
  655MPD2    H1 9698   4.298   1.618  15.641 -1.0048  0.0142 -1.9486
  655MPD2    H2 9699   4.154   1.827  15.988  2.2444 -2.7812  0.2412
  655MPD2    H3 9700   4.295   1.666  15.905 -1.7885 -2.3400 -0.8875
  655MPD2     N 9701   4.150   1.721  15.478 -0.2277  0.4393  0.3135
  655MPD2    H5 9702   4.232   1.669  15.449 -0.2770  0.3141  0.3992
  655MPD2    N1 9703   4.002   2.011  15.846 -0.1967  0.9608  0.3798
  655MPD2    H7 9704   3.953   2.054  15.768  2.0446 -0.4474 -1.8077
  656TMC3    C1 9705   3.929   2.196  15.975 -0.3367  0.0160 -0.2970
  656TMC3    C2 9706   3.901   2.259  16.096 -0.0031  0.3812  0.2271
  656TMC3    C3 9707   3.839   2.378  16.103 -0.6123 -0.1931  0.3351
  656TMC3    C4 9708   3.898   2.261  15.856  0.3460  0.2261 -0.1226
  656TMC3    C5 9709   3.827   2.377  15.866 -0.1381  1.1042  0.4342
  656TMC3    C6 9710   3.794   2.438  15.984 -0.6148 -0.4946  0.1803
  656TMC3     C 9711   3.997   2.065  15.972 -0.4136  0.4970 -0.0890
  656TMC3     O 9712   4.041   2.010  16.075 -0.7797  0.4697  0.1209
  656TMC3     H 9713   3.915   2.194  16.181  0.2633 -0.8270 -0.7375
  656TMC3    H1 9714   3.911   2.216  15.758 -1.8592 -0.4594 -0.0963
  656TMC3    H2 9715   3.765   2.543  15.989 -1.2732 -0.7179  1.1173
  656TMC3    C7 9716   3.796   2.439  15.734  0.3155  0.5863 -0.7548
  656TMC3    C8 9717   3.765   2.394  16.227 -0.3071  0.0529  0.9004
  656TMC3    O1 9718   3.872   2.407  15.641  0.2635  0.2839 -0.4202
  656TMC3    O2 9719   3.756   2.303  16.310 -0.1367 -0.9356  0.1658
  657TMC3    C1 9720   2.859   1.212  15.014  0.3196  0.0471 -0.3319
  657TMC3    C2 9721   2.975   1.220  15.079 -0.9776 -0.2568  0.7743
  657TMC3    C3 9722   3.055   1.329  15.049 -0.3206 -0.0118 -0.2392
  657TMC3    C4 9723   2.822   1.310  14.924  0.4271  0.2900  0.5635
  657TMC3    C5 9724   2.907   1.415  14.895  0.3819  0.3841 -0.4611
  657TMC3    C6 9725   3.030   1.425  14.957  0.2453  1.4340 -0.2056
  657TMC3     C 9726   2.779   1.093  15.020  0.3415 -0.0683  0.1549
  657TMC3     O 9727   2.665   1.098  14.979  0.3081 -0.4522  0.0969
  657TMC3     H 9728   2.995   1.160  15.167  0.1874 -1.0319 -0.0180
  657TMC3    H1 9729   2.731   1.299  14.866  0.6590 -0.9418  0.4350
  657TMC3    H2 9730   3.101   1.506  14.944  0.9128  0.7260 -1.0033
  657TMC3    C7 9731   2.876   1.484  14.778 -0.0538 -0.2132 -1.1884
  657TMC3    C8 9732   3.159   1.348  15.151  0.4717  0.0449 -0.5211
  657TMC3    O1 9733   2.757   1.484  14.744  0.1920  0.1901  0.1807
  657TMC3    O2 9734   3.171   1.464  15.185  0.0004  0.1430 -0.0498
  658MPD2     C 9735   4.560   1.974  14.967  0.3286  0.1309  0.7893
  658MPD2    C1 9736   4.513   1.845  14.947 -0.0175  0.3296  0.0223
  658MPD2    C2 9737   4.581   1.757  14.859  0.2834 -0.6996 -0.2080
  658MPD2    C3 9738   4.693   1.807  14.794  0.3352 -0.5312  0.0080
  658MPD2    C4 9739   0.016   1.935  14.808  0.3967 -0.3087  0.1804
  658MPD2    C5 9740   4.663   2.016  14.891  0.1519  0.3178  0.2748
  658MPD2     H 9741   4.537   1.662  14.832 -0.1983 -0.3420 -0.6679
  658MPD2    H1 9742   0.092   1.985  14.749 -1.1115  0.1409 -1.3781
  658MPD2    H2 9743   4.518   2.062  15.014 -2.8741  0.2279 -2.3503
  658MPD2    H3 9744   4.688   2.121  14.901 -0.0618  0.4503 -0.5072
  658MPD2     N 9745   0.023   1.719  14.703  0.0404  0.5254  0.1531
  658MPD2    H5 9746   4.686   1.638  14.680  1.3806 -0.5115  0.4278
  658MPD2    N1 9747   4.402   1.802  15.027  0.2746 -0.5482 -0.0494
  658MPD2    H7 9748   4.362   1.865  15.095  0.0958  0.3151 -0.9555
  659TMC3    C1 9749   4.216   1.681  15.082 -0.8478 -0.4992 -0.7905
  659TMC3    C2 9750   4.205   1.713  15.217  1.4199 -0.3159  0.0432
  659TMC3    C3 9751   4.076   1.693  15.259 -0.4191  0.9526 -0.2327
  659TMC3    C4 9752   4.113   1.636  14.999  0.5654 -0.0641 -0.7583
  659TMC3    C5 9753   3.989   1.622  15.057 -0.3563  0.2378  0.5564
  659TMC3    C6 9754   3.971   1.650  15.187 -0.6764 -0.0732 -0.1165
  659TMC3     C 9755   4.338   1.682  15.015 -0.1722 -0.1867 -0.0107
  659TMC3     O 9756   4.354   1.590  14.940  0.7152 -0.1305  0.6581
  659TMC3     H 9757   4.290   1.737  15.280  0.3053  0.0893  1.3855
  659TMC3    H1 9758   4.136   1.648  14.893 -1.1410  1.0710 -1.0079
  659TMC3    H2 9759   3.877   1.625  15.235 -0.4569  0.5896  0.6595
  659TMC3    C7 9760   3.872   1.589  14.974  0.6855 -0.5278  0.0135
  659TMC3    C8 9761   4.052   1.741  15.395  0.3272  0.2055 -0.0813
  659TMC3    O1 9762   3.764   1.622  15.021  0.1409  0.1659  0.1094
  659TMC3    O2 9763   3.937   1.791  15.416  0.0202  0.6749  0.5417
  660MPD2     C 9764   2.618   0.552  12.275  0.4760 -0.5009  0.4643
  660MPD2    C1 9765   2.478   0.561  12.258  0.6023 -0.0185 -0.0934
  660MPD2    C2 9766   2.396   0.539  12.365  0.3903 -0.3292 -0.4408
  660MPD2    C3 9767   2.454   0.477  12.480  0.0750 -0.0477 -0.0747
  660MPD2    C4 9768   2.588   0.446  12.486 -0.9041 -0.4436  0.6885
  660MPD2    C5 9769   2.671   0.486  12.378 -0.0330 -0.4537  0.0579
  660MPD2     H 9770   2.292   0.570  12.352  0.3522 -0.2521  0.0468
  660MPD2    H1 9771   2.643   0.397  12.565  2.2231 -1.0078 -1.8227
  660MPD2    H2 9772   2.678   0.589  12.192 -1.0460 -0.8225 -0.7780
  660MPD2    H3 9773   2.777   0.465  12.385  0.4144  1.6792 -0.4170
  660MPD2     N 9774   2.381   0.459  12.602 -0.0116  0.1367 -0.0684
  660MPD2    H5 9775   2.415   0.399  12.676  1.0571  0.3022 -0.4291
  660MPD2    N1 9776   2.425   0.616  12.139  0.0812  0.1264 -0.8696
  660MPD2    H7 9777   2.495   0.668  12.086  2.1556  1.0674  2.7926
  661TMC3    C1 9778   2.275   0.711  11.985 -0.7656  0.0866 -0.0599
  661TMC3    C2 9779   2.379   0.730  11.898  0.5900  0.2385  0.0665
  661TMC3    C3 9780   2.363   0.825  11.798  0.0674  0.1889  0.3794
  661TMC3    C4 9781   2.165   0.791  11.986 -0.7560  0.2639  0.3953
  661TMC3    C5 9782   2.148   0.874  11.885  0.1344  0.4464  0.2410
  661TMC3    C6 9783   2.243   0.900  11.786 -0.4772  0.0046 -0.5617
  661TMC3     C 9784   2.291   0.618  12.098 -0.7446 -0.1199  0.6189
  661TMC3     O 9785   2.197   0.562  12.144  0.2363 -0.2354  0.1073
  661TMC3     H 9786   2.476   0.682  11.899  0.9429  0.9620  0.5388
  661TMC3    H1 9787   2.096   0.773  12.068 -0.3910  0.0329  0.6552
  661TMC3    H2 9788   2.222   0.969  11.705 -1.6043 -0.5547 -0.7410
  661TMC3    C7 9789   2.013   0.928  11.869 -0.6045  0.0391  0.6663
  661TMC3    C8 9790   2.465   0.853  11.702 -0.3104 -0.4586  0.2705
  661TMC3    O1 9791   1.951   0.930  11.975 -0.4220 -0.0889  0.0508
  661TMC3    O2 9792   2.467   0.968  11.664 -0.0874  0.2548 -0.3845
  662MPD2     C 9793   2.589   0.950  16.756  0.5802  0.2529  0.2558
  662MPD2    C1 9794   2.528   0.864  16.845  0.0855  0.5827 -0.7584
  662MPD2    C2 9795   2.399   0.886  16.895  0.4272 -0.5421 -0.0135
  662MPD2    C3 9796   2.334   1.004  16.867  0.2164 -0.8133  0.4391
  662MPD2    C4 9797   2.402   1.096  16.791  0.3429 -0.2359  0.4230
  662MPD2    C5 9798   2.531   1.076  16.735  0.0596 -0.2861 -0.2550
  662MPD2     H 9799   2.356   0.806  16.955  2.7304 -1.0770  0.9171
  662MPD2    H1 9800   2.360   1.193  16.768 -0.3666 -0.4111  0.9612
  662MPD2    H2 9801   2.688   0.925  16.720  1.1805  0.9569  1.4232
  662MPD2    H3 9802   2.582   1.148  16.673 -1.4626  0.5757 -0.4951
  662MPD2     N 9803   2.202   1.032  16.905  0.0682 -0.0012 -0.0993
  662MPD2    H5 9804   2.156   1.118  16.874  0.7267 -0.1374 -1.4605
  662MPD2    N1 9805   2.585   0.747  16.904  0.0107  0.4674 -0.1594
  662MPD2    H7 9806   2.525   0.694  16.966 -0.8799 -0.9481 -2.2367
  663TMC3    C1 9807   2.718   0.566  16.937  0.6735 -0.3788 -0.2829
  663TMC3    C2 9808   2.675   0.584  17.070 -0.0737 -0.5917 -0.6473
  663TMC3    C3 9809   2.600   0.488  17.123  0.1883  0.0881  0.0455
  663TMC3    C4 9810   2.700   0.443  16.873 -0.5253 -0.6842 -0.5652
  663TMC3    C5 9811   2.628   0.350  16.938 -0.4384  0.2997  0.0708
  663TMC3    C6 9812   2.590   0.365  17.068  0.6570  0.5941 -0.5049
  663TMC3     C 9813   2.692   0.680  16.856 -0.5488  0.0242  0.5927
  663TMC3     O 9814   2.737   0.680  16.742  0.8059  0.1775 -0.0394
  663TMC3     H 9815   2.670   0.683  17.115 -0.6198 -1.8035  1.9730
  663TMC3    H1 9816   2.722   0.435  16.768 -1.7722 -0.2735 -0.8622
  663TMC3    H2 9817   2.503   0.309  17.101 -0.0558  1.4058 -1.0379
  663TMC3    C7 9818   2.604   0.221  16.872 -0.1685 -0.0635  0.0371
  663TMC3    C8 9819   2.470   0.538  17.158 -0.0547  0.0789 -0.3089
  663TMC3    O1 9820   2.648   0.211  16.757  0.1069 -0.2610  0.2487
  663TMC3    O2 9821   2.445   0.635  17.088  0.2403 -0.2765 -0.0165
  664MPD2     C 9822   0.703   3.956   0.079 -0.7495  0.4402 -0.7020
  664MPD2    C1 9823   0.771   4.079   0.086  0.6381 -0.0350 -0.4403
  664MPD2    C2 9824   0.787   4.134   0.215 -0.0980 -0.2313  0.1353
  664MPD2    C3 9825   0.746   4.065   0.328 -0.1516  0.4875 -1.1586
  664MPD2    C4 9826   0.684   3.942   0.313  0.0359  0.6753  0.0032
  664MPD2    C5 9827   0.661   3.884   0.186  0.3140  0.0770  0.4361
  664MPD2     H 9828   0.835   4.231   0.220 -0.3732 -0.0441 -0.7862
  664MPD2    H1 9829   0.660   3.884   0.402  0.0662  0.5534 -0.0670
  664MPD2    H2 9830   0.664   3.918  17.671  0.6330 -0.2901 -0.9703
  664MPD2    H3 9831   0.608   3.791   0.169  1.2522 -0.5198  0.7798
  664MPD2     N 9832   0.772   4.127   0.454  0.0909  0.2087  0.5038
  664MPD2    H5 9833   0.835   4.207   0.454  0.2251  0.1006  1.4607
  664MPD2    N1 9834   0.815   4.145  17.652  0.1130 -0.2589 -0.4585
  664MPD2    H7 9835   0.847   4.240  17.665 -1.2333  0.2113 -0.5843
  665TMC3    C1 9836   0.755   4.166   0.692  1.0442  0.3805  0.0567
  665TMC3    C2 9837   0.745   4.092   0.807  0.7429 -0.5669 -0.1959
  665TMC3    C3 9838   0.800   4.151   0.927  0.0938 -0.0020  0.2697
  665TMC3    C4 9839   0.832   4.286   0.690  0.0865  0.9662 -0.4458
  665TMC3    C5 9840   0.871   4.341   0.806  0.2621  0.2022  0.0632
  665TMC3    C6 9841   0.865   4.272   0.922  0.2876  0.3324 -0.2991
  665TMC3     C 9842   0.711   4.098   0.572  0.7670 -0.2223  0.7524
  665TMC3     O 9843   0.613   4.019   0.580 -1.0179  0.4823  0.2726
  665TMC3     H 9844   0.715   3.988   0.809  0.6529 -0.5816 -2.5644
  665TMC3    H1 9845   0.836   4.349   0.601  2.5535  0.0422 -0.9919
  665TMC3    H2 9846   0.914   4.312   1.010  0.8358 -0.1177 -0.4005
  665TMC3    C7 9847   0.955   4.459   0.808 -0.9889  0.7219  0.3611
  665TMC3    C8 9848   0.751   4.115   1.058 -0.6233  0.1754 -0.4536
  665TMC3    O1 9849   1.042   4.467   0.722  0.3102  0.0137  1.0445
  665TMC3    O2 9850   0.805   4.164   1.155 -0.2072  0.0801 -0.3966
  666TMC3    C1 9851   0.128   2.583   9.930 -0.1498  0.4863 -0.5330
  666TMC3    C2 9852   0.236   2.590  10.013  0.4832 -0.7070  0.1471
  666TMC3    C3 9853   0.285   2.706  10.047 -0.4281  0.5254  0.4256
  666TMC3    C4 9854   0.054   2.696   9.909 -0.7641 -1.1640  0.1761
  666TMC3    C5 9855   0.097   2.813   9.963 -0.4471  0.1499  0.4152
  666TMC3    C6 9856   0.220   2.825  10.027  0.0430  0.0761  0.7820
  666TMC3     C 9857   0.072   2.452   9.887  0.3036  0.5069 -0.2240
  666TMC3     O 9858   0.005   2.450   9.785  0.0483 -0.2999 -0.4649
  666TMC3     H 9859   0.296   2.505  10.045  0.4138 -1.1843 -1.0023
  666TMC3    H1 9860   4.688   2.688   9.845 -0.0955  3.3270 -1.3348
  666TMC3    H2 9861   0.256   2.918  10.070  1.5912  0.1685 -0.6761
  666TMC3    C7 9862   0.044   2.944   9.946 -0.0584 -1.1075 -0.0030
  666TMC3    C8 9863   0.401   2.703  10.137  0.4426  0.0303 -0.6342
  666TMC3    O1 9864   0.076   3.027  10.029 -0.1207  0.2784  0.8041
  666TMC3    O2 9865   0.413   2.601  10.206 -0.5838  0.3334 -1.0919
  667MPD2     C 9866   1.263   3.262  14.686 -0.1509  0.1594 -1.7693
  667MPD2    C1 9867   1.181   3.359  14.749 -0.4603  0.5806  0.1272
  667MPD2    C2 9868   1.049   3.333  14.783 -0.2983 -0.5065 -0.1326
  667MPD2    C3 9869   1.004   3.200  14.758 -0.4968 -0.7601  0.1515
  667MPD2    C4 9870   1.086   3.108  14.697 -0.1330  0.7323 -0.3291
  667MPD2    C5 9871   1.217   3.133  14.666  0.4514 -0.3211  0.7982
  667MPD2     H 9872   0.978   3.403  14.825  1.9714  2.2555 -0.9626
  667MPD2    H1 9873   1.046   3.010  14.673 -0.1497 -0.1584  3.4408
  667MPD2    H2 9874   1.365   3.275  14.652 -0.4099  1.9818 -1.8198
  667MPD2    H3 9875   1.286   3.054  14.641  1.5124 -0.3591  3.9154
  667MPD2     N 9876   0.869   3.161  14.775 -0.0454  0.1535  0.0994
  667MPD2    H5 9877   0.846   3.062  14.773  2.0240 -0.3571  1.3027
  667MPD2    N1 9878   1.226   3.483  14.786  0.4329 -0.3037  0.0540
  667MPD2    H7 9879   1.166   3.543  14.842  1.6929  0.1097  0.9593
  668TMC3    C1 9880   1.391   3.649  14.846  0.1665  0.7782 -0.0794
  668TMC3    C2 9881   1.477   3.746  14.803 -0.3968 -0.4385 -0.5732
  668TMC3    C3 9882   1.536   3.810  14.903 -0.8122  0.1282  0.1644
  668TMC3    C4 9883   1.360   3.621  14.971  0.0121  0.1993  1.0095
  668TMC3    C5 9884   1.408   3.702  15.069  0.3008 -0.1695 -0.0082
  668TMC3    C6 9885   1.508   3.785  15.038  0.6982  0.1273 -0.0557
  668TMC3     C 9886   1.342   3.547  14.752  0.0262 -0.2914 -0.4685
  668TMC3     O 9887   1.406   3.531  14.650 -0.6894  0.1687 -0.2377
  668TMC3     H 9888   1.502   3.765  14.699  0.1542  2.2711  0.0424
  668TMC3    H1 9889   1.287   3.548  15.005  1.0401 -0.6994  1.2737
  668TMC3    H2 9890   1.565   3.833  15.116  0.8582 -1.3991  0.7821
  668TMC3    C7 9891   1.351   3.704  15.198  0.2600 -0.2348 -0.8038
  668TMC3    C8 9892   1.641   3.909  14.879  0.0105 -0.1592  0.0498
  668TMC3    O1 9893   1.421   3.727  15.294 -0.3583  0.3393  0.1671
  668TMC3    O2 9894   1.684   3.983  14.966  0.7527  0.5749 -0.6961
  669TMC3    C1 9895   4.252   3.212  14.641 -0.2015 -0.2394  0.4416
  669TMC3    C2 9896   4.139   3.200  14.564  0.1926 -0.2273 -0.7459
  669TMC3    C3 9897   4.107   3.295  14.476  0.6794 -0.8691  0.7123
  669TMC3    C4 9898   4.331   3.322  14.625 -0.3391 -0.7309  1.0214
  669TMC3    C5 9899   4.305   3.407  14.523  0.6254  0.4337 -0.2940
  669TMC3    C6 9900   4.185   3.399  14.456 -0.1784  0.0689 -0.3668
  669TMC3     C 9901   4.264   3.125  14.754 -0.1504 -0.2312  0.3324
  669TMC3     O 9902   4.184   3.036  14.761 -0.3797  0.4243  0.0436
  669TMC3     H 9903   4.078   3.111  14.574  0.3378 -0.2152  0.2680
  669TMC3    H1 9904   4.426   3.336  14.676 -0.3463 -0.5855  0.9950
  669TMC3    H2 9905   4.172   3.471  14.376 -1.3034  0.5152  0.2150
  669TMC3    C7 9906   4.417   3.494  14.486 -0.1785  0.5289 -0.0173
  669TMC3    C8 9907   3.988   3.292  14.397 -1.3993  0.9896  0.2321
  669TMC3    O1 9908   4.504   3.507  14.571 -0.3567  0.1990 -0.2048
  669TMC3    O2 9909   3.932   3.184  14.368  0.1267  0.2150  0.3418
  670MPD2     C 9910   2.843   1.311  13.320 -0.8758  0.2128  0.1971
  670MPD2    C1 9911   2.932   1.303  13.418 -0.5513 -0.2616  0.4797
  670MPD2    C2 9912   2.896   1.240  13.536  0.4062 -0.6074  0.6530
  670MPD2    C3 9913   2.769   1.191  13.553 -0.0771 -0.3741 -0.3404
  670MPD2    C4 9914   2.679   1.204  13.443  0.5690 -0.1251  0.3311
  670MPD2    C5 9915   2.716   1.270  13.331  0.1453 -0.2407  0.8006
  670MPD2     H 9916   2.972   1.238  13.613  1.2638 -2.3803 -0.2404
  670MPD2    H1 9917   2.579   1.165  13.450 -0.0502  1.2497 -0.8159
  670MPD2    H2 9918   2.866   1.346  13.220 -1.4623 -0.0481 -0.0329
  670MPD2    H3 9919   2.656   1.279  13.242  0.7038 -0.8949  0.3581
  670MPD2     N 9920   2.737   1.114  13.671  0.4005  0.0027 -0.6258
  670MPD2    H5 9921   2.817   1.091  13.728  0.1190 -1.7231 -0.9453
  670MPD2    N1 9922   3.068   1.351  13.406  0.6973 -0.3669  0.4959
  670MPD2    H7 9923   3.127   1.332  13.486  1.3200  0.6721  0.2786
  671TMC3    C1 9924   2.608   1.024  13.840 -0.4255  0.3530 -0.6663
  671TMC3    C2 9925   2.719   0.991  13.914  0.4989  1.0557  0.4066
  671TMC3    C3 9926   2.707   0.888  14.007  0.8019  0.3233 -0.2289
  671TMC3    C4 9927   2.496   0.953  13.857  0.0309  0.3938 -0.7878
  671TMC3    C5 9928   2.490   0.846  13.951  0.2565 -0.3498  0.8905
  671TMC3    C6 9929   2.595   0.821  14.034 -0.5854 -1.0797 -0.1836
  671TMC3     C 9930   2.610   1.105  13.722  0.8505 -0.0284  0.1452
  671TMC3     O 9931   2.506   1.145  13.680 -0.1057  0.1715 -0.4443
  671TMC3     H 9932   2.811   1.048  13.912  0.4511  1.1443  0.6865
  671TMC3    H1 9933   2.416   0.968  13.786 -2.1284  1.4166  1.8240
  671TMC3    H2 9934   2.610   0.724  14.079 -1.5494 -2.0650 -1.9448
  671TMC3    C7 9935   2.442   0.724  13.885 -0.9087 -0.1256 -0.0777
  671TMC3    C8 9936   2.834   0.831  14.041  0.3093  0.4633  0.1601
  671TMC3    O1 9937   2.422   0.745  13.763  0.4462  0.1375 -0.1169
  671TMC3    O2 9938   2.924   0.858  13.964 -0.5549 -0.1216 -0.0491
  672MPD2     C 9939   1.969   1.551   1.007 -0.5920 -0.0959  0.2765
  672MPD2    C1 9940   2.053   1.632   0.941 -0.8004 -0.7958  1.1560
  672MPD2    C2 9941   2.121   1.729   1.013  0.4310 -0.1448  0.4422
  672MPD2    C3 9942   2.115   1.736   1.157 -0.3131 -0.4501  0.3380
  672MPD2    C4 9943   2.024   1.648   1.214 -0.5923  0.4285 -0.3110
  672MPD2    C5 9944   1.955   1.563   1.146 -0.1778  0.2228 -1.0374
  672MPD2     H 9945   2.198   1.783   0.959 -0.3178  0.2103 -0.2615
  672MPD2    H1 9946   2.008   1.640   1.321  2.2644 -0.0947  0.0756
  672MPD2    H2 9947   1.922   1.461   0.970  1.6733 -0.5067 -1.6221
  672MPD2    H3 9948   1.887   1.491   1.191  0.5411  0.0291 -0.2733
  672MPD2     N 9949   2.193   1.822   1.236 -0.2491  0.3884 -0.1507
  672MPD2    H5 9950   2.193   1.807   1.337 -1.7142 -0.4263 -0.2792
  672MPD2    N1 9951   2.088   1.614   0.804  0.4771  0.3351 -0.0693
  672MPD2    H7 9952   2.170   1.660   0.765  0.3574  1.6760  1.2709
  673TMC3    C1 9953   2.110   1.485   0.599  0.2479  0.2700 -0.4542
  673TMC3    C2 9954   2.154   1.357   0.577  0.6828  0.1285  0.0392
  673TMC3    C3 9955   2.227   1.332   0.464 -0.0535  0.3244  0.0610
  673TMC3    C4 9956   2.144   1.584   0.517 -0.1167 -0.4623 -0.8621
  673TMC3    C5 9957   2.227   1.556   0.410  0.0491 -0.4130  0.1552
  673TMC3    C6 9958   2.274   1.433   0.386  0.7462  0.9274 -0.0879
  673TMC3     C 9959   2.039   1.510   0.727  0.3149  0.4149  0.4014
  673TMC3     O 9960   1.949   1.429   0.746 -0.2283  0.2344 -0.1358
  673TMC3     H 9961   2.120   1.281   0.646 -2.0708 -0.4336 -1.9219
  673TMC3    H1 9962   2.105   1.684   0.535  0.7713 -0.3812  0.5874
  673TMC3    H2 9963   2.329   1.395   0.301 -1.9079  2.3708 -2.4650
  673TMC3    C7 9964   2.302   1.656   0.331 -0.0780  0.2861  0.7298
  673TMC3    C8 9965   2.315   1.216   0.468  0.4309 -0.4621  0.1356
  673TMC3    O1 9966   2.379   1.613   0.246  0.8123  0.0512  0.6875
  673TMC3    O2 9967   2.350   1.175   0.359 -0.4428  0.2472 -0.0257
  674MPD2     C 9968   2.358   1.356  17.052  0.4848 -0.3919  0.4769
  674MPD2    C1 9969   2.333   1.292  17.167  0.4414 -0.2920  0.1698
  674MPD2    C2 9970   2.324   1.375  17.278  0.9900 -0.8676  0.5078
  674MPD2    C3 9971   2.336   1.510  17.272  0.0598 -0.2861 -0.4314
  674MPD2    C4 9972   2.353   1.574  17.148 -0.3257  0.0771  0.1402
  674MPD2    C5 9973   2.364   1.492  17.042 -0.2199  0.4724  0.5493
  674MPD2     H 9974   2.275   1.345  17.370  0.5776 -0.2440  0.4871
  674MPD2    H1 9975   2.358   1.682  17.142 -0.6858  0.0159 -1.2091
  674MPD2    H2 9976   2.376   1.294  16.966 -2.9472 -0.2741 -0.3244
  674MPD2    H3 9977   2.381   1.534  16.944  0.9734 -3.1475 -0.8115
  674MPD2     N 9978   2.320   1.582  17.392 -0.0534 -0.3900  0.5915
  674MPD2    H5 9979   2.308   1.526  17.476  0.8850 -3.0861 -1.0575
  674MPD2    N1 9980   2.320   1.149  17.162 -0.4612 -0.1627 -0.1910
  674MPD2    H7 9981   2.329   1.110  17.068  0.3626 -0.3397 -0.0441
  675TMC3    C1 9982   2.285   1.102  17.394 -0.1357 -0.6194  0.3539
  675TMC3    C2 9983   2.194   1.047  17.472  1.0451 -0.0761  0.8945
  675TMC3    C3 9984   2.209   1.058  17.610 -0.0050 -0.5013  0.5067
  675TMC3    C4 9985   2.406   1.153  17.443 -0.5766 -0.0578 -0.0386
  675TMC3    C5 9986   2.409   1.173  17.578 -0.3255 -0.3908  0.7728
  675TMC3    C6 9987   2.313   1.132  17.662  0.1969  0.0861  0.3310
  675TMC3     C 9988   2.289   1.057  17.261 -0.5298 -0.4639 -0.6849
  675TMC3     O 9989   2.271   0.934  17.249  0.1401  0.6339 -0.4288
  675TMC3     H 9990   2.120   0.985  17.424 -2.1061  3.3898  1.2880
  675TMC3    H1 9991   2.489   1.183  17.380 -0.5471 -0.9623 -0.4295
  675TMC3    H2 9992   2.298   1.182   0.070  1.3712 -0.4248  0.7771
  675TMC3    C7 9993   2.521   1.245  17.633  0.1241  0.3301  0.0771
  675TMC3    C8 9994   2.108   0.998   0.006  0.3168  0.1435 -0.1181
  675TMC3    O1 9995   2.585   1.311  17.554 -0.2894  0.3702  0.2848
  675TMC3    O2 9996   2.007   0.970  17.631  0.1827  0.2530  0.7218
  676MPD2     C 9997   0.396   4.270  10.730  0.0864  0.6194 -0.8478
  676MPD2    C1 9998   0.336   4.205  10.837 -0.8063  0.3168 -0.1273
  676MPD2    C2 9999   0.355   4.068  10.847  0.6611 -0.2897 -0.6391
  676MPD2    C310000   0.443   4.003  10.762 -0.5365 -0.5586 -1.1398
  676MPD2    C410001   0.509   4.072  10.663 -0.8118  0.6086  0.2875
  676MPD2    C510002   0.491   4.205  10.652 -0.0144 -0.1570 -0.4489
  676MPD2     H10003   0.293   3.998  10.902  2.0280 -0.6604  0.4291
  676MPD2    H110004   0.577   4.020  10.596  0.6862  2.0123  0.7058
  676MPD2    H210005   0.386   4.376  10.711 -0.5248  0.7450  0.1621
  676MPD2    H310006   0.558   4.258  10.586  2.2043 -1.9544  0.3712
  676MPD2     N10007   0.458   3.862  10.779 -0.0786  0.2531 -0.0046
  676MPD2    H510008   0.516   3.808  10.715  0.3588  1.5966 -0.7340
  676MPD2    N110009   0.256   4.276  10.934  0.0802  0.5663  0.6124
  676MPD2    H710010   0.215   4.217  11.005 -0.0802 -0.6472 -0.4940
  677TMC3    C110011   0.176   4.443  11.089  0.5831  0.3582 -0.6322
  677TMC3    C210012   0.102   4.344  11.131 -0.4135 -0.1854 -0.1039
  677TMC3    C310013   0.049   4.360  11.252 -0.2509 -0.3957  0.0886
  677TMC3    C410014   0.211   4.556  11.163  0.3046  0.2937 -0.3106
  677TMC3    C510015   0.151   4.579  11.282 -0.1463 -0.0796 -0.3607
  677TMC3    C610016   0.068   4.475  11.329 -0.7830 -0.0056 -0.3226
  677TMC3     C10017   0.250   4.411  10.961  0.1081  0.3386  0.3061
  677TMC3     O10018   0.311   4.498  10.898  0.2162  0.0059 -0.0997
  677TMC3     H10019   0.086   4.254  11.072  2.7863  0.8991 -2.6435
  677TMC3    H110020   0.285   4.619  11.115  1.3460 -0.2718  0.5500
  677TMC3    H210021   0.016   4.490  11.422  1.7120  3.3590  0.5233
  677TMC3    C710022   0.211   4.663  11.380  0.6527  0.3693  0.1963
  677TMC3    C810023   4.676   4.258  11.275 -0.2819 -0.0045  0.3356
  677TMC3    O110024   0.153   4.662  11.488 -0.2824  0.4254  0.2602
  677TMC3    O210025   4.585   4.268  11.201 -0.1147  0.2782 -0.5895
  678MPD2     C10026   2.235   0.295   1.689 -0.3374  0.1810 -1.0424
  678MPD2    C110027   2.209   0.250   1.557 -0.4975  0.2315 -0.3860
  678MPD2    C210028   2.076   0.243   1.511 -0.1644  0.3542  0.5436
  678MPD2    C310029   1.973   0.266   1.597  0.3862  0.4968  0.2793
  678MPD2    C410030   2.005   0.302   1.722  0.2821 -0.2763  0.2309
  678MPD2    C510031   2.131   0.332   1.771  0.2085 -0.5809 -0.6450
  678MPD2     H10032   2.061   0.224   1.405  1.2062 -0.0307  0.4277
  678MPD2    H110033   1.922   0.306   1.791  0.8231 -2.3205  0.9931
  678MPD2    H210034   2.333   0.322   1.727 -1.4314  3.4878 -0.5510
  678MPD2    H310035   2.145   0.368   1.872 -1.4418 -0.3094 -0.5112
  678MPD2     N10036   1.840   0.254   1.546  0.0409  0.7244  0.2383
  678MPD2    H510037   1.841   0.223   1.450 -0.7601 -1.1868  0.8594
  678MPD2    N110038   2.311   0.219   1.460  0.2082  0.1318  0.4317
  678MPD2    H710039   2.284   0.193   1.366 -0.5828 -0.4375  0.8186
  679TMC3    C110040   2.701   0.043   1.292  0.7325 -0.0140  0.0244
  679TMC3    C210041   2.625   0.083   1.393 -0.0443 -1.0169 -0.1657
  679TMC3    C310042   2.531   0.185   1.371 -0.2811  0.9512 -0.4053
  679TMC3    C410043   2.679   0.097   1.170 -0.3770  0.8334 -0.6189
  679TMC3    C510044   2.574   0.183   1.143 -0.2273 -0.3494 -0.1790
  679TMC3    C610045   2.504   0.236   1.247 -0.2562 -0.2710 -0.9073
  679TMC3     C10046   2.755   4.630   1.298 -0.4125  0.4448 -0.1859
  679TMC3     O10047   2.780   4.585   1.185  0.1675  0.8530  0.0676
  679TMC3     H10048   2.636   0.037   1.490 -1.2105  0.8173  0.8330
  679TMC3    H110049   2.738   0.057   1.089  0.6704 -0.6307  0.8625
  679TMC3    H210050   2.424   0.308   1.234 -0.5454 -0.5633 -0.7468
  679TMC3    C710051   2.509   0.177   1.008  0.2396  0.8045  0.1362
  679TMC3    C810052   2.449   0.218   1.488  0.3656  0.7646 -0.6896
  679TMC3    O110053   2.419   0.259   0.977  0.2136 -0.4327 -0.1907
  679TMC3    O210054   2.509   0.227   1.595  0.4465  1.0386  0.3523
  680MPD2     C10055   1.870   2.315  13.434 -0.1249  0.0122 -0.0782
  680MPD2    C110056   2.006   2.335  13.421 -0.4612 -0.1599  0.1965
  680MPD2    C210057   2.053   2.458  13.456 -0.5041 -0.3367 -0.2587
  680MPD2    C310058   1.970   2.556  13.508 -0.4217  0.0575  0.0925
  680MPD2    C410059   1.834   2.535  13.515  0.0897 -0.1378 -0.4231
  680MPD2    C510060   1.790   2.417  13.474 -0.6228 -0.1251 -0.3503
  680MPD2     H10061   2.157   2.479  13.435  0.3113 -2.5879  1.4761
  680MPD2    H110062   1.765   2.607  13.558  0.0181  0.4865 -1.5654
  680MPD2    H210063   1.815   2.225  13.408  0.9995 -0.5700 -0.4361
  680MPD2    H310064   1.686   2.398  13.499 -0.3138 -2.5558 -0.8448
  680MPD2     N10065   2.024   2.687  13.533 -0.0695  0.2611 -0.1116
  680MPD2    H510066   1.952   2.757  13.549 -0.4765 -0.3825  0.8606
  680MPD2    N110067   2.093   2.228  13.388 -0.5542 -0.1375 -0.1554
  680MPD2    H710068   2.187   2.255  13.414 -0.3726 -0.2316 -0.7172
  681TMC3    C110069   2.191   2.025  13.340  0.0149  0.7696  0.0088
  681TMC3    C210070   2.212   1.933  13.440 -0.1170 -0.4393  0.2422
  681TMC3    C310071   2.321   1.938  13.520 -0.1812 -0.5195  0.3260
  681TMC3    C410072   2.287   2.114  13.305  0.4884 -0.6065  0.1255
  681TMC3    C510073   2.405   2.108  13.378 -1.4018 -0.0725 -0.6122
  681TMC3    C610074   2.422   2.024  13.483  0.3194 -0.3812 -0.5441
  681TMC3     C10075   2.066   2.097  13.356 -0.6740 -0.2746  0.2276
  681TMC3     O10076   1.962   2.035  13.367 -0.8575 -0.2712 -0.4091
  681TMC3     H10077   2.124   1.874  13.462  0.6621 -1.2614  1.1756
  681TMC3    H110078   2.272   2.186  13.225  1.2331  0.5427  1.0216
  681TMC3    H210079   2.518   2.031  13.533  0.0609 -1.0046  0.0418
  681TMC3    C710080   2.525   2.188  13.352  0.1387  0.6260 -0.8206
  681TMC3    C810081   2.288   1.981  13.652 -0.1722 -0.6118 -0.0671
  681TMC3    O110082   2.605   2.206  13.440 -0.4462  0.0288 -0.5013
  681TMC3    O210083   2.358   2.075  13.691  0.2474 -1.1497 -0.2604
  682MPD2     C10084   4.555   4.163  10.361 -0.1866 -0.9299 -0.1003
  682MPD2    C110085   4.438   4.097  10.397  0.1032  0.5212  0.5726
  682MPD2    C210086   4.354   4.159  10.489  0.7061 -0.8668  0.4033
  682MPD2    C310087   4.364   4.292  10.517  0.4650  0.7950 -0.0127
  682MPD2    C410088   4.463   4.367  10.455 -0.0426  0.5840  0.1519
  682MPD2    C510089   4.560   4.297  10.384  0.6286 -0.3360 -0.5838
  682MPD2     H10090   4.275   4.096  10.528 -0.4215 -0.6019 -1.4100
  682MPD2    H110091   4.460   4.475  10.454  0.1016  0.5882  0.1741
  682MPD2    H210092   4.634   4.119  10.300  0.1802  0.9854 -0.9862
  682MPD2    H310093   4.648   4.351  10.352 -0.2719 -0.4723 -3.2487
  682MPD2     N10094   4.272   4.357  10.598 -0.3693  0.5445 -0.4036
  682MPD2    H510095   4.298   4.453  10.621 -0.7656  0.6005 -0.1958
  682MPD2    N110096   4.411   3.968  10.344  0.2200  0.5049  1.0319
  682MPD2    H710097   4.339   3.912  10.389  0.3725 -1.2780 -0.9019
  683TMC3    C110098   4.089   4.522  10.916  0.5062  0.3214 -0.3900
  683TMC3    C210099   3.954   4.513  10.921  0.3214  0.0614 -0.6251
  683TMC3    C310100   3.890   4.420  10.848 -0.8939 -1.2111  0.0295
  683TMC3    C410101   4.161   4.470  10.816  0.3267  0.6262  0.3597
  683TMC3    C510102   4.092   4.393  10.727 -0.0501 -0.1545 -0.4232
  683TMC3    C610103   3.961   4.361  10.750 -0.0394  0.1207 -0.8285
  683TMC3     C10104   4.155   4.548  11.043  0.4583  0.1615 -0.7449
  683TMC3     O10105   4.265   4.497  11.055  0.4120 -0.3800 -0.0668
  683TMC3     H10106   3.896   4.548  11.006 -3.3990 -0.6200 -2.8868
  683TMC3    H110107   4.262   4.508  10.812  0.3655  0.2433 -2.4064
  683TMC3    H210108   3.914   4.283  10.691 -1.9193 -0.8572  1.9515
  683TMC3    C710109   4.150   4.309  10.630  0.3735  0.1801 -0.1050
  683TMC3    C810110   3.820   4.328  10.935 -0.2628 -0.2069  0.2621
  683TMC3    O110111   4.098   4.198  10.607  0.2668 -0.2198 -0.6709
  683TMC3    O210112   3.739   4.373  11.018 -0.4915  0.0348  0.3960
  684MPD2     C10113   2.337   3.578  16.460  0.8745  0.7535  0.3388
  684MPD2    C110114   2.346   3.665  16.352  0.4198  0.6370 -0.0806
  684MPD2    C210115   2.344   3.803  16.377 -0.0827 -0.9949 -0.3035
  684MPD2    C310116   2.352   3.859  16.506 -0.0284  0.1882  0.3314
  684MPD2    C410117   2.353   3.769  16.607  0.3925 -0.1158  0.4550
  684MPD2    C510118   2.346   3.631  16.590 -0.2284 -0.0841 -1.0339
  684MPD2     H10119   2.349   3.874  16.294 -1.8367  1.3668  1.6184
  684MPD2    H110120   2.372   3.797  16.710  0.3513  0.6786  0.2519
  684MPD2    H210121   2.337   3.470  16.451  0.2508  0.5116  3.2074
  684MPD2    H310122   2.348   3.568  16.678  0.6720 -0.6853 -1.4887
  684MPD2     N10123   2.362   3.999  16.524  0.3877  0.4495 -0.3846
  684MPD2    H510124   2.368   4.030  16.621  2.2501  1.2530 -0.7650
  684MPD2    N110125   2.341   3.617  16.216  0.2273 -0.2852  0.1678
  684MPD2    H710126   2.340   3.690  16.145  3.5525 -2.1473 -1.7864
  685TMC3    C110127   2.403   3.494  16.037  0.2362 -0.1040 -0.1134
  685TMC3    C210128   2.314   3.555  15.961  0.0472  0.0496  0.4897
  685TMC3    C310129   2.349   3.580  15.830  0.0237 -0.0279  0.3929
  685TMC3    C410130   2.530   3.471  16.002  0.1382 -0.3054  0.2867
  685TMC3    C510131   2.565   3.510  15.874 -0.7348 -0.3258 -0.2762
  685TMC3    C610132   2.477   3.565  15.781 -0.4164  0.2779 -0.2720
  685TMC3     C10133   2.377   3.494  16.178  0.2265  0.9534 -0.5107
  685TMC3     O10134   2.432   3.408  16.249  0.4585  0.0980  0.0607
  685TMC3     H10135   2.211   3.570  15.992  0.1055  0.9841  0.2251
  685TMC3    H110136   2.599   3.433  16.076  0.5909  1.6470  0.8785
  685TMC3    H210137   2.498   3.580  15.676 -1.0322  0.8205 -0.3211
  685TMC3    C710138   2.703   3.544  15.853  0.1060  0.3527  0.7565
  685TMC3    C810139   2.246   3.610  15.735  0.7994  0.4920  0.2718
  685TMC3    O110140   2.727   3.588  15.744  0.1135 -0.2412  0.1495
  685TMC3    O210141   2.263   3.576  15.619 -0.6253  0.4005  0.1119
  686MPD2     C10142   3.755   3.253  15.103  1.4004 -0.4884 -0.7815
  686MPD2    C110143   3.805   3.223  15.225 -0.6009 -0.3399  0.2284
  686MPD2    C210144   3.845   3.096  15.244  0.4720 -0.4938  0.0075
  686MPD2    C310145   3.821   2.989  15.162 -0.3140 -1.0990 -0.0030
  686MPD2    C410146   3.756   3.020  15.044  0.1358  0.4734  0.7633
  686MPD2    C510147   3.726   3.151  15.018 -0.1335 -0.7911  0.6064
  686MPD2     H10148   3.914   3.075  15.325  0.8208  1.3302  0.1877
  686MPD2    H110149   3.705   2.947  14.983  1.8214 -1.2421  1.3884
  686MPD2    H210150   3.719   3.354  15.083  0.2377 -1.0667 -1.5582
  686MPD2    H310151   3.684   3.184  14.923  0.6113 -0.6482  0.3217
  686MPD2     N10152   3.832   2.847  15.189 -0.3876 -0.3407  0.4887
  686MPD2    H510153   3.859   2.789  15.110  1.4734  0.9166  0.2064
  686MPD2    N110154   3.815   3.320  15.326  0.1799  0.0749 -0.4397
  686MPD2    H710155   3.789   3.415  15.300  2.0989  0.9008  0.6444
  687TMC3    C110156   3.801   2.852  15.428 -0.2454 -0.4666 -0.6049
  687TMC3    C210157   3.672   2.906  15.422  1.0785 -0.0916  0.5493
  687TMC3    C310158   3.609   2.918  15.547  0.1962 -0.7142 -0.3230
  687TMC3    C410159   3.869   2.829  15.547 -0.3552  0.4872  0.0553
  687TMC3    C510160   3.794   2.843  15.657 -0.7838 -0.0667 -0.1646
  687TMC3    C610161   3.666   2.879  15.666 -0.6307  0.2468 -0.0141
  687TMC3     C10162   3.863   2.788  15.312  0.0481 -0.4507 -0.3965
  687TMC3     O10163   3.922   2.682  15.325 -0.6025 -0.1424  0.1418
  687TMC3     H10164   3.626   2.934  15.328  0.0254 -0.0766  1.0686
  687TMC3    H110165   3.961   2.772  15.544 -0.3649  0.5752 -2.1358
  687TMC3    H210166   3.617   2.885  15.762 -0.7095  0.5171 -0.0702
  687TMC3    C710167   3.872   2.891  15.768  0.2132  0.0794 -0.1897
  687TMC3    C810168   3.491   2.996  15.568  0.0439 -0.1694 -0.3497
  687TMC3    O110169   3.853   2.842  15.879 -0.4437 -0.1809 -0.1852
  687TMC3    O210170   3.422   2.965  15.666 -0.3211  0.1993 -0.0519
  688MPD2     C10171   2.943   2.947  17.448  0.2544  0.1474 -0.2155
  688MPD2    C110172   3.003   2.828  17.490 -0.1541  0.3399  0.2518
  688MPD2    C210173   3.081   2.760  17.407  0.2302  0.3635  0.4885
  688MPD2    C310174   3.109   2.810  17.278  0.8457  0.3700 -0.0316
  688MPD2    C410175   3.037   2.917  17.230  0.2048 -1.1910  0.0791
  688MPD2    C510176   2.958   2.989  17.316 -0.3628  0.1416  0.5126
  688MPD2     H10177   3.130   2.672  17.447  1.7302  0.0991 -1.8692
  688MPD2    H110178   3.047   2.945  17.125 -4.7955  0.9498  0.2235
  688MPD2    H210179   2.874   3.013  17.499 -0.7100  0.3700 -1.8037
  688MPD2    H310180   2.901   3.073  17.279 -0.6697  1.1389  3.2362
  688MPD2     N10181   3.217   2.765  17.196 -0.4448 -0.4329  0.4079
  688MPD2    H510182   3.246   2.804  17.107 -0.3130  0.2916  0.7685
  688MPD2    N110183   2.990   2.777  17.625 -0.3457 -0.0681 -1.0937
  688MPD2    H710184   3.027   2.685  17.647 -0.6833 -0.0593 -0.4700
  689TMC3    C110185   2.929   2.770   0.164  0.7013  0.2179  0.2148
  689TMC3    C210186   2.924   2.840   0.277 -0.3061 -0.2599  0.2292
  689TMC3    C310187   2.926   2.781   0.405  0.2778 -0.5687 -0.2347
  689TMC3    C410188   2.902   2.633   0.159 -0.3822 -0.0837  0.0070
  689TMC3    C510189   2.871   2.581   0.280  0.1357  0.3309  0.4438
  689TMC3    C610190   2.891   2.649   0.400 -0.1738  0.6893  0.1535
  689TMC3     C10191   2.949   2.848   0.041  1.2536  0.0949 -0.1072
  689TMC3     O10192   2.920   2.967   0.049  0.5777 -0.4951  0.0117
  689TMC3     H10193   2.954   2.944   0.265  1.5159 -0.9370 -1.0814
  689TMC3    H110194   2.877   2.588   0.063  0.7987 -0.6152 -0.0499
  689TMC3    H210195   2.893   2.593   0.492  1.6602 -0.5231 -0.6311
  689TMC3    C710196   2.841   2.433   0.282 -0.7953 -0.2355 -0.5449
  689TMC3    C810197   2.841   2.852   0.499 -0.0817  0.3321  0.1261
  689TMC3    O110198   2.884   2.366   0.380 -0.3021  0.0359 -0.0248
  689TMC3    O210199   2.784   2.799   0.590  0.2132 -0.0262  0.2645
  690MPD2     C10200   0.508   4.534  16.025 -0.7532 -0.0373  0.4279
  690MPD2    C110201   0.456   4.479  15.918  0.0141 -0.3797  0.0382
  690MPD2    C210202   0.521   4.472  15.795 -0.0609 -0.1379  0.8889
  690MPD2    C310203   0.642   4.542  15.778 -0.0662 -0.1418  0.1497
  690MPD2    C410204   0.694   4.612  15.888  0.0387  0.1577  0.3697
  690MPD2    C510205   0.632   4.598  16.013 -0.1908  0.6308 -0.5110
  690MPD2     H10206   0.489   4.419  15.706  1.0701  0.5368  0.0886
  690MPD2    H110207   0.772   4.687  15.882  0.6781 -0.4694  0.8679
  690MPD2    H210208   0.459   4.559  16.118 -3.4433  0.2418 -1.0648
  690MPD2    H310209   0.672   4.673  16.080  0.5669 -1.0845  0.9734
  690MPD2     N10210   0.687   4.556  15.646 -0.0720  0.1337  0.0708
  690MPD2    H510211   0.618   4.533  15.575  0.9769 -0.7279 -0.6739
  690MPD2    N110212   0.329   4.416  15.923 -0.6575  0.0769  0.6556
  690MPD2    H710213   0.281   4.367  15.848  0.5382  0.3491 -0.2770
  691TMC3    C110214   0.168   4.297  16.013  0.3248 -0.3422 -0.1633
  691TMC3    C210215   0.033   4.307  16.033  0.0846  0.5109  0.2032
  691TMC3    C310216   4.678   4.191  16.025  0.3398 -0.2017  0.1815
  691TMC3    C410217   0.226   4.179  15.988  0.2957 -0.0959  0.2235
  691TMC3    C510218   0.148   4.069  15.980  0.2030  0.3756 -0.1200
  691TMC3    C610219   0.012   4.073  16.002  0.1233  0.1934 -0.3890
  691TMC3     C10220   0.255   4.407  16.039 -0.2693 -0.0765  0.2351
  691TMC3     O10221   0.209   4.495  16.110  0.3581 -0.1536  0.2525
  691TMC3     H10222   4.717   4.399  16.076 -0.8761 -0.4596  1.4346
  691TMC3    H110223   0.333   4.172  15.979  0.6171  2.2467  2.4572
  691TMC3    H210224   4.677   3.980  16.005 -1.2074  1.0439  1.2083
  691TMC3    C710225   0.211   3.932  15.988 -0.4906 -0.2378  0.1793
  691TMC3    C810226   4.537   4.195  16.054  0.3536  0.4952  0.1850
  691TMC3    O110227   0.327   3.929  16.028 -0.6402  0.1855  0.2607
  691TMC3    O210228   4.476   4.091  16.067  0.0438  0.8491  0.2995
  692TMC3    C110229   2.078   0.717  15.964 -0.1390 -0.0811  0.8142
  692TMC3    C210230   2.212   0.752  15.953  0.2860  0.2713  0.5013
  692TMC3    C310231   2.305   0.650  15.937 -0.1380 -0.1965 -0.2501
  692TMC3    C410232   2.032   0.589  15.981  0.1658 -0.8795  0.0788
  692TMC3    C510233   2.128   0.491  15.971  0.4459  0.4066 -0.2601
  692TMC3    C610234   2.266   0.522  15.950 -0.2528  0.1902 -0.6015
  692TMC3     C10235   1.979   0.825  15.988 -0.4852 -0.8840  0.7349
  692TMC3     O10236   1.861   0.790  15.972  0.0059 -0.4893  0.9114
  692TMC3     H10237   2.236   0.848  15.909  2.7221 -1.2062 -1.3854
  692TMC3    H110238   1.927   0.569  16.000  0.3838 -3.1061 -1.0449
  692TMC3    H210239   2.346   0.451  15.968 -0.2577  0.4763  0.5342
  692TMC3    C710240   2.083   0.348  16.004 -0.0102 -0.0933 -0.7556
  692TMC3    C810241   2.418   0.676  16.010  0.3104  0.0153 -0.6519
  692TMC3    O110242   1.964   0.335  15.974 -0.1347 -0.3102  0.3078
  692TMC3    O210243   2.517   0.720  15.950  0.5763 -0.1803 -0.0962
  693MPD2     C10244   1.800   3.418  10.748 -1.0437 -0.2129 -0.0679
  693MPD2    C110245   1.751   3.324  10.651  0.7265 -0.3491 -0.5413
  693MPD2    C210246   1.805   3.198  10.642 -0.1031 -0.1596 -0.0487
  693MPD2    C310247   1.912   3.159  10.719 -0.1564 -0.3713  0.4247
  693MPD2    C410248   1.965   3.257  10.808  0.1588  0.0332 -0.1447
  693MPD2    C510249   1.914   3.382  10.816 -0.0643  0.5495  0.3505
  693MPD2     H10250   1.748   3.121  10.592 -1.0185  1.4316 -1.4558
  693MPD2    H110251   2.055   3.234  10.863 -0.0170  0.9283  0.5111
  693MPD2    H210252   1.754   3.516  10.755 -0.1815  0.1767  0.1144
  693MPD2    H310253   1.968   3.460  10.867 -2.2141  1.5024  1.1391
  693MPD2     N10254   1.957   3.030  10.728 -0.1250 -0.6818  0.7315
  693MPD2    H510255   2.019   3.004  10.804 -2.2263 -0.2906  2.5802
  693MPD2    N110256   1.625   3.359  10.591 -0.7117  0.8592  0.2471
  693MPD2    H710257   1.578   3.444  10.623 -1.0198  1.5442 -2.0012
  694TMC3    C110258   1.421   3.254  10.530  0.6034  0.0920  0.4742
  694TMC3    C210259   1.367   3.143  10.464 -0.1154 -0.0153 -0.3538
  694TMC3    C310260   1.286   3.055  10.531 -0.5428  0.2021  0.5570
  694TMC3    C410261   1.382   3.272  10.660 -0.2245 -0.3379  0.3782
  694TMC3    C510262   1.291   3.186  10.714 -0.1621  0.8875 -0.0621
  694TMC3    C610263   1.250   3.074  10.658 -0.4270 -0.5183 -0.2594
  694TMC3     C10264   1.561   3.278  10.497 -0.0645 -0.0084  0.4574
  694TMC3     O10265   1.602   3.198  10.418  0.0653 -0.4941  0.2235
  694TMC3     H10266   1.396   3.121  10.362 -0.2601 -2.8903  0.2233
  694TMC3    H110267   1.414   3.352  10.726 -0.9416  1.3421 -1.3158
  694TMC3    H210268   1.170   3.012  10.698 -0.1895 -0.1116  0.8594
  694TMC3    C710269   1.276   3.195  10.857  0.9929  1.4068 -0.1120
  694TMC3    C810270   1.223   2.941  10.462  0.6333  0.1353 -0.3442
  694TMC3    O110271   1.269   3.305  10.904 -0.3160  0.2388 -0.1293
  694TMC3    O210272   1.126   2.887  10.520  0.3515 -0.1266  0.2933
  695MPD2     C10273   3.046   0.399  13.171  0.5696 -0.1488  0.6132
  695MPD2    C110274   2.999   0.350  13.293  0.1009 -0.5726 -0.9036
  695MPD2    C210275   2.863   0.321  13.304 -0.2746  0.7900 -0.0114
  695MPD2    C310276   2.771   0.360  13.201  0.3295 -0.3595  0.0984
  695MPD2    C410277   2.816   0.411  13.077 -0.7274  0.8641 -0.8637
  695MPD2    C510278   2.953   0.428  13.070 -0.6743  0.4013 -0.4904
  695MPD2     H10279   2.823   0.287  13.399 -0.4772 -1.1548 -0.7821
  695MPD2    H110280   2.755   0.440  12.993 -1.3935  0.6320 -0.4561
  695MPD2    H210281   3.147   0.427  13.146 -0.3899  1.8462 -1.1102
  695MPD2    H310282   2.987   0.467  12.975  0.2190 -2.6381 -1.4164
  695MPD2     N10283   2.637   0.329  13.213  0.3348  0.6630 -0.3575
  695MPD2    H510284   2.608   0.287  13.302  0.2401 -0.3273 -0.8538
  695MPD2    N110285   3.078   0.332  13.402 -0.3038 -0.5497  0.5160
  695MPD2    H710286   3.032   0.294  13.484  1.3864 -1.3112  1.1121
  696TMC3    C110287   2.409   0.336  13.196 -0.4251 -0.0357  0.5972
  696TMC3    C210288   2.400   0.249  13.302 -0.1686 -0.3303  0.0817
  696TMC3    C310289   2.282   0.249  13.372 -0.2521  0.4745 -0.0051
  696TMC3    C410290   2.309   0.427  13.168 -0.0233  0.3488  0.4460
  696TMC3    C510291   2.205   0.437  13.251 -0.1030  1.1223  0.5352
  696TMC3    C610292   2.188   0.347  13.351 -0.7488  0.0490  0.2218
  696TMC3     C10293   2.535   0.352  13.122 -0.1388 -0.3426  0.6616
  696TMC3     O10294   2.522   0.408  13.015 -0.1452  0.3000 -0.1842
  696TMC3     H10295   2.466   0.165  13.321  1.0908  0.1562 -2.1363
  696TMC3    H110296   2.330   0.500  13.090  3.2486 -0.8415  0.2116
  696TMC3    H210297   2.097   0.346  13.410 -0.3921 -0.3611  0.7716
  696TMC3    C710298   2.177   0.573  13.283 -0.4324 -0.1051 -0.2999
  696TMC3    C810299   2.308   0.214  13.516  0.4683 -0.0060  0.2027
  696TMC3    O110300   2.188   0.664  13.202 -0.0396  0.6383 -0.3089
  696TMC3    O210301   2.268   0.103  13.544  0.6089 -0.7931  0.1299
  697MPD2     C10302   2.150   2.096  15.623  0.1978 -0.2123  0.3459
  697MPD2    C110303   2.131   2.033  15.503 -0.3592  0.1550 -0.4491
  697MPD2    C210304   2.197   2.074  15.391 -0.0136 -0.4342  0.2927
  697MPD2    C310305   2.292   2.173  15.408  0.1155  0.0700  0.1343
  697MPD2    C410306   2.316   2.230  15.531  0.1068  0.1713  0.2360
  697MPD2    C510307   2.241   2.200  15.640  0.4754  0.2370 -0.8014
  697MPD2     H10308   2.186   2.022  15.297 -2.1214 -2.9971  1.9624
  697MPD2    H110309   2.364   2.325  15.550  1.0201  0.4153 -3.2757
  697MPD2    H210310   2.110   2.055  15.715 -1.9128  0.6003 -0.2053
  697MPD2    H310311   2.254   2.242  15.739 -0.3056  0.2909 -0.7209
  697MPD2     N10312   2.365   2.213  15.287  1.1621 -0.0427  0.1510
  697MPD2    H510313   2.347   2.175  15.194 -0.6164 -1.0689  0.9337
  697MPD2    N110314   2.031   1.934  15.486  0.7729  0.2842 -0.4785
  697MPD2    H710315   2.030   1.894  15.393  1.4505 -0.3654 -0.2037
  698TMC3    C110316   2.525   2.341  15.165  0.4401  0.4876  0.3195
  698TMC3    C210317   2.646   2.408  15.166 -0.4397 -0.7232  0.8054
  698TMC3    C310318   2.694   2.462  15.047 -0.2760 -0.4727  0.2828
  698TMC3    C410319   2.443   2.341  15.054 -0.3752 -0.2872 -0.0459
  698TMC3    C510320   2.499   2.402  14.944 -0.0347  0.4721  0.6515
  698TMC3    C610321   2.618   2.467  14.928  0.8920  0.1584  0.3221
  698TMC3     C10322   2.467   2.302  15.291 -0.0026 -0.9336  0.2737
  698TMC3     O10323   2.539   2.321  15.388 -0.8854  0.5178  0.1715
  698TMC3     H10324   2.690   2.422  15.265  1.0098  1.9929 -0.2311
  698TMC3    H110325   2.343   2.301  15.045  0.3271 -2.0642  0.0328
  698TMC3    H210326   2.647   2.521  14.839  0.0052 -2.3846 -1.5127
  698TMC3    C710327   2.416   2.405  14.825 -0.2076  0.2371  0.0541
  698TMC3    C810328   2.801   2.562  15.051  0.4032  0.5774 -0.4277
  698TMC3    O110329   2.297   2.388  14.844  0.1843 -0.2340  0.2281
  698TMC3    O210330   2.873   2.557  15.150 -0.0165 -0.1821  0.0645
  699TMC3    C110331   2.182   0.462  12.736  0.7792 -0.4099 -0.3087
  699TMC3    C210332   2.208   0.340  12.788  0.7167 -0.0639  0.9110
  699TMC3    C310333   2.135   0.301  12.893  0.0776 -0.3314  0.5015
  699TMC3    C410334   2.075   0.535  12.780  0.3511  0.3896 -0.2409
  699TMC3    C510335   2.001   0.482  12.883  0.7715  0.3970 -0.5828
  699TMC3    C610336   2.032   0.377  12.952 -0.2120 -0.0006 -1.2004
  699TMC3     C10337   2.257   0.513  12.623 -0.3856  0.1434  0.3345
  699TMC3     O10338   2.194   0.601  12.567 -0.1188 -0.0062 -0.5166
  699TMC3     H10339   2.289   0.284  12.744  0.0483  0.6172 -1.2230
  699TMC3    H110340   2.047   0.634  12.748 -0.9119 -0.1711 -0.8865
  699TMC3    H210341   1.981   0.340  13.041  0.0351  0.3954 -0.8938
  699TMC3    C710342   1.872   0.542  12.908 -0.3481 -0.0904 -0.4480
  699TMC3    C810343   2.175   0.185  12.972  0.2384 -0.5416  0.7137
  699TMC3    O110344   1.835   0.555  13.026 -0.4235  0.5248  0.2508
  699TMC3    O210345   2.104   0.161  13.065  0.2645  0.1049  0.0661
  700TMC3    C110346   1.030   2.972  17.227  0.4416  0.3150  0.1310
  700TMC3    C210347   1.112   2.863  17.213 -0.7464 -0.2809 -0.1628
  700TMC3    C310348   1.183   2.828  17.321  0.0898 -0.3646  0.0004
  700TMC3    C410349   1.009   3.031  17.346  0.3809 -0.1157 -0.0674
  700TMC3    C510350   1.071   2.979  17.453 -0.4009  0.0048  0.4002
  700TMC3    C610351   1.165   2.881  17.449  0.2905 -0.4911  0.5196
  700TMC3     C10352   0.975   3.040  17.114  0.6287  0.1085  0.2682
  700TMC3     O10353   0.959   2.968  17.018  0.2596 -0.3146  0.5315
  700TMC3     H10354   1.138   2.837  17.111 -0.5011 -1.3313  0.1755
  700TMC3    H110355   0.928   3.102  17.352  0.0248 -0.5241 -0.0849
  700TMC3    H210356   1.223   2.846  17.533  1.0852 -0.2496  0.0723
  700TMC3    C710357   1.079   3.073  17.562  0.1016  0.2011  0.2084
  700TMC3    C810358   1.318   2.788  17.288  0.2858  0.2972  0.0381
  700TMC3    O110359   0.980   3.146  17.581  0.1180 -0.2936  0.0130
  700TMC3    O210360   1.410   2.827  17.357 -0.0295 -0.0687 -0.1646
  701TMC3    C110361   1.249   1.472  15.507  0.2030  0.5066 -0.7579
  701TMC3    C210362   1.317   1.454  15.384  0.2892 -0.7051  0.2664
  701TMC3    C310363   1.375   1.557  15.316  0.7157  0.3265  0.1406
  701TMC3    C410364   1.250   1.601  15.556  0.2850  0.1976 -0.2595
  701TMC3    C510365   1.317   1.706  15.494 -0.3847 -0.1632 -0.5665
  701TMC3    C610366   1.376   1.681  15.371 -0.3762  0.5488 -0.2847
  701TMC3     C10367   1.138   1.380  15.532  0.2776  0.1651 -1.0055
  701TMC3     O10368   1.043   1.412  15.611  0.2355  0.1690  0.2220
  701TMC3     H10369   1.329   1.360  15.332  2.4619  0.2888 -1.0125
  701TMC3    H110370   1.190   1.616  15.645  2.3344 -0.1627  1.1867
  701TMC3    H210371   1.415   1.757  15.305  2.1557 -0.2384  0.2712
  701TMC3    C710372   1.324   1.840  15.541  0.7145 -0.1565 -0.7680
  701TMC3    C810373   1.373   1.532  15.174  0.0039  0.0935 -0.0082
  701TMC3    O110374   1.387   1.924  15.478  0.3527  0.2136  0.4870
  701TMC3    O210375   1.443   1.442  15.132  1.0817 -0.2285  0.4014
  702MPD2     C10376   0.456   3.265  10.451  0.1621  0.9256 -0.0179
  702MPD2    C110377   0.562   3.351  10.469  0.2444 -0.0594 -0.1620
  702MPD2    C210378   0.643   3.385  10.364 -1.0027 -0.3317  0.3213
  702MPD2    C310379   0.618   3.341  10.238  0.4064  0.0701  0.6751
  702MPD2    C410380   0.523   3.239  10.228  0.2707  0.3665  0.2521
  702MPD2    C510381   0.441   3.207  10.331 -0.1255  0.5009 -0.0895
  702MPD2     H10382   0.709   3.470  10.382 -0.7243 -0.5460  0.3203
  702MPD2    H110383   0.510   3.184  10.135  1.9667  0.4197 -0.0140
  702MPD2    H210384   0.380   3.246  10.526  0.6848  0.9233  0.5060
  702MPD2    H310385   0.357   3.141  10.310 -1.4941  2.1443  0.2524
  702MPD2     N10386   0.685   3.376  10.113 -0.1183 -0.1126 -0.5490
  702MPD2    H510387   0.652   3.321  10.034 -1.8678 -2.4841  1.8288
  702MPD2    N110388   0.570   3.412  10.592  0.0159 -0.0707 -0.3530
  702MPD2    H710389   0.625   3.498  10.592  1.1903 -0.8181 -1.3574
  703TMC3    C110390   0.757   3.603  10.167 -0.5137  0.7853 -0.4355
  703TMC3    C210391   0.642   3.652  10.202  0.1702  0.0570  0.6250
  703TMC3    C310392   0.632   3.744  10.301  0.8069  0.3487  0.6609
  703TMC3    C410393   0.872   3.658  10.214 -0.2473 -0.3516  0.1186
  703TMC3    C510394   0.868   3.752  10.305 -0.2825 -0.5360 -0.5239
  703TMC3    C610395   0.746   3.803  10.345 -0.5780 -0.5284 -0.7756
  703TMC3     C10396   0.784   3.471  10.102  0.3997 -0.8824  0.3054
  703TMC3     O10397   0.865   3.483  10.010  0.2938  0.0350  0.2999
  703TMC3     H10398   0.553   3.623  10.146 -1.4643 -1.1486  3.8125
  703TMC3    H110399   0.964   3.620  10.171 -0.9210 -1.1337 -0.6043
  703TMC3    H210400   0.738   3.894  10.404  1.1695  0.3670 -1.9211
  703TMC3    C710401   0.985   3.825  10.334 -0.0590  0.6745 -0.7150
  703TMC3    C810402   0.509   3.761  10.374 -0.1739  0.2489  0.1939
  703TMC3    O110403   1.072   3.829  10.253  0.1859  0.0882 -0.0761
  703TMC3    O210404   0.507   3.867  10.435 -0.1155 -0.1383  0.3672
  704TMC3    C110405   2.697   1.836  11.954 -0.2654 -0.3213 -0.1954
  704TMC3    C210406   2.765   1.928  12.034  0.0016 -0.5284  0.1115
  704TMC3    C310407   2.750   1.912  12.171 -0.1841  0.1899 -0.2870
  704TMC3    C410408   2.604   1.750  11.995 -0.5187  0.3756  0.3381
  704TMC3    C510409   2.589   1.743  12.133  0.1767  0.1685 -0.1880
  704TMC3    C610410   2.656   1.826  12.218  0.2720  0.5458 -0.0701
  704TMC3     C10411   2.753   1.806  11.822 -0.0816 -0.2646  0.1086
  704TMC3     O10412   2.713   1.701  11.763 -0.4849  0.0363 -0.3873
  704TMC3     H10413   2.821   2.012  11.995  1.9346 -1.3525  1.1378
  704TMC3    H110414   2.579   1.660  11.939 -1.8811  0.8787  0.1627
  704TMC3    H210415   2.636   1.809  12.324 -2.9163  0.6573 -0.6651
  704TMC3    C710416   2.573   1.610  12.192  0.2047 -0.8829  0.0026
  704TMC3    C810417   2.857   1.967  12.256 -0.4386  0.1988  0.3432
  704TMC3    O110418   2.505   1.611  12.293  0.2152 -0.4032  0.2480
  704TMC3    O210419   2.948   2.024  12.201 -0.2261 -0.4294  0.0909
  705MPD2     C10420   2.238   4.692  16.563 -0.4113  0.7617 -0.4453
  705MPD2    C110421   2.246   0.109  16.538 -0.8135 -0.4153 -0.5074
  705MPD2    C210422   2.132   0.182  16.548 -0.6134  0.4299  0.1214
  705MPD2    C310423   2.008   0.129  16.584 -0.6555 -0.5209 -0.3522
  705MPD2    C410424   2.007   4.720  16.618 -0.4567  0.1471 -0.0613
  705MPD2    C510425   2.120   4.647  16.620 -0.0953  0.0492  1.4057
  705MPD2     H10426   2.143   0.289  16.536  1.2217  0.2434  0.2077
  705MPD2    H110427   1.910   4.675  16.632 -0.8987  0.9913 -0.3752
  705MPD2    H210428   2.314   4.620  16.533 -0.1144  0.4937  0.9447
  705MPD2    H310429   2.110   4.539  16.630 -1.2499 -0.2307 -2.6947
  705MPD2     N10430   1.896   0.212  16.600  0.0620  0.3584 -0.3820
  705MPD2    H510431   1.809   0.168  16.630  0.1584 -0.1432 -0.8470
  705MPD2    N110432   2.370   0.172  16.507  0.0181 -0.1039  0.3240
  705MPD2    H710433   2.370   0.271  16.487  0.7279 -0.2629 -0.4528
  706TMC3    C110434   2.841   0.193  16.418 -0.3443  0.2467  0.0491
  706TMC3    C210435   2.852   0.330  16.437 -1.0993  0.2411 -0.4857
  706TMC3    C310436   2.733   0.399  16.437 -0.0491 -0.2200 -0.8866
  706TMC3    C410437   2.726   0.119  16.425  0.4954 -0.0336 -0.0386
  706TMC3    C510438   2.606   0.188  16.442 -0.1158  0.7721 -0.4215
  706TMC3    C610439   2.614   0.326  16.442  0.1176 -0.6737  0.5798
  706TMC3     C10440   2.970   0.125  16.381  0.2887  0.4220  0.0515
  706TMC3     O10441   3.072   0.163  16.428 -0.1515  0.6112 -0.3840
  706TMC3     H10442   2.947   0.375  16.409 -0.9870  1.3394  1.7112
  706TMC3    H110443   2.723   0.011  16.423  0.0577 -0.0921  3.1320
  706TMC3    H210444   2.523   0.381  16.461  0.3485 -0.2824  0.5598
  706TMC3    C710445   2.491   0.109  16.499 -0.9134 -0.0746  0.3350
  706TMC3    C810446   2.720   0.502  16.336 -0.6739  0.3179  0.0019
  706TMC3    O110447   2.517   4.711  16.503 -0.1727 -0.1221  0.3474
  706TMC3    O210448   2.630   0.489  16.255 -0.2573  0.3949  0.0476
  707TMC3    C110449   0.022   0.248   2.357  0.5536 -0.4222  0.1719
  707TMC3    C210450   0.040   0.184   2.235 -0.3566 -0.0473 -0.2422
  707TMC3    C310451   4.648   0.172   2.165 -0.4768 -0.6741 -0.2872
  707TMC3    C410452   4.629   0.295   2.404 -0.3401  0.5786  0.3743
  707TMC3    C510453   4.513   0.282   2.328  0.4815  0.6172  0.2899
  707TMC3    C610454   4.521   0.222   2.204  0.1590 -0.3006 -0.1177
  707TMC3     C10455   0.138   0.300   2.428 -0.2111  0.0555 -0.2021
  707TMC3     O10456   0.129   0.385   2.515  0.2779  0.0806 -0.1171
  707TMC3     H10457   0.134   0.154   2.191  0.1563  1.0364  0.0979
  707TMC3    H110458   4.619   0.349   2.497  2.7494  1.1621  0.3609
  707TMC3    H210459   4.433   0.212   2.142 -0.2307 -2.4759  0.7520
  707TMC3    C710460   4.375   0.306   2.386 -0.3743 -0.2885  0.1119
  707TMC3    C810461   4.645   0.096   2.040 -0.3791  1.0660  0.0828
  707TMC3    O110462   4.283   0.249   2.326 -0.8280  0.1576 -0.1499
  707TMC3    O210463   4.543   0.100   1.971 -0.3691 -0.2307 -0.2589
  708MPD2     C10464   0.956   3.119  13.839 -0.0437  0.0783 -0.0249
  708MPD2    C110465   0.942   3.254  13.852  0.2451 -1.4036  0.4188
  708MPD2    C210466   0.984   3.319  13.966 -1.1220  0.0421 -0.1228
  708MPD2    C310467   1.041   3.244  14.068  0.1599 -0.5756 -0.4797
  708MPD2    C410468   1.056   3.106  14.056  0.6416 -0.2694  0.0800
  708MPD2    C510469   1.003   3.052  13.950  0.1220  0.0910  0.2301
  708MPD2     H10470   0.958   3.422  13.988 -1.1690 -0.0919  0.4347
  708MPD2    H110471   1.092   3.041  14.135  0.9172  0.7404  0.7803
  708MPD2    H210472   0.927   3.061  13.752 -1.9817  1.3081 -0.1974
  708MPD2    H310473   1.006   2.945  13.935 -0.1303  0.2018 -0.6192
  708MPD2     N10474   1.062   3.314  14.187 -0.1544 -0.0910  0.5817
  708MPD2    H510475   1.070   3.415  14.185 -0.8579 -0.0580 -0.5420
  708MPD2    N110476   0.869   3.327  13.752  0.0376  0.4452 -0.0079
  708MPD2    H710477   0.815   3.267  13.691 -1.0018  2.6020 -1.2070
  709TMC3    C110478   0.698   3.489  13.756 -0.0705  0.2705  0.0418
  709TMC3    C210479   0.622   3.396  13.689 -0.2322  0.1317  0.4004
  709TMC3    C310480   0.494   3.394  13.724  0.8419  0.0931  0.1428
  709TMC3    C410481   0.651   3.590  13.831 -0.2095 -0.3592 -0.4626
  709TMC3    C510482   0.525   3.572  13.867  0.3488  0.1064  0.2698
  709TMC3    C610483   0.433   3.482  13.816  0.4574  0.4673 -0.2675
  709TMC3     C10484   0.838   3.465  13.761  0.7818  0.4834 -0.5023
  709TMC3     O10485   0.908   3.548  13.812  0.4574  0.5240 -1.5890
  709TMC3     H10486   0.661   3.316  13.628 -1.1276  0.9943 -1.2956
  709TMC3    H110487   0.715   3.661  13.881 -0.1074 -1.5019  1.0450
  709TMC3    H210488   0.328   3.490  13.841  0.7622 -0.3728  1.2931
  709TMC3    C710489   0.502   3.598  14.010 -0.0476 -0.5506  0.6095
  709TMC3    C810490   0.403   3.312  13.642 -0.4769 -0.1933 -0.2984
  709TMC3    O110491   0.580   3.668  14.061 -0.2944  0.9597  0.0233
  709TMC3    O210492   0.294   3.291  13.691  0.4266  0.2436  0.2290
  710TMC3    C110493   2.053   0.558   0.386  0.1240  0.9056 -0.6098
  710TMC3    C210494   2.080   0.545   0.248  0.0110 -0.6314  0.2813
  710TMC3    C310495   2.187   0.463   0.215 -0.5567  0.3709 -0.0404
  710TMC3    C410496   2.123   0.484   0.475 -0.4905  0.3440  0.6676
  710TMC3    C510497   2.227   0.410   0.439  0.2927 -0.0626  0.1724
  710TMC3    C610498   2.264   0.398   0.306 -0.7305 -0.0361  0.0321
  710TMC3     C10499   1.921   0.620   0.424  0.2510  0.4323 -0.7495
  710TMC3     O10500   1.842   0.631   0.329  0.6583 -0.4784 -0.5032
  710TMC3     H10501   2.023   0.616   0.188 -2.2433  0.8906  4.2291
  710TMC3    H110502   2.097   0.502   0.579  1.7979 -1.3032  1.5043
  710TMC3    H210503   2.341   0.331   0.269 -0.5609  0.1866 -0.0193
  710TMC3    C710504   2.300   0.352   0.546  0.4601 -0.3820  0.3417
  710TMC3    C810505   2.249   0.480   0.082 -0.3060  1.1076  0.8696
  710TMC3    O110506   2.271   0.384   0.662 -0.6075  0.0096  0.3167
  710TMC3    O210507   2.369   0.459   0.080 -0.1905 -0.7516  0.1010
  711TMC3    C110508   1.540   1.007  15.048 -0.1096 -0.1358 -0.0680
  711TMC3    C210509   1.597   1.108  15.122 -0.8728 -1.0436 -0.1743
  711TMC3    C310510   1.728   1.107  15.146 -0.6519 -0.1655  0.0611
  711TMC3    C410511   1.613   0.903  14.997 -0.0602  0.5261  0.2852
  711TMC3    C510512   1.748   0.902  15.012  0.3217 -0.0601 -0.6718
  711TMC3    C610513   1.804   1.002  15.091  0.2771 -0.0448 -0.3118
  711TMC3     C10514   1.399   0.993  15.010  0.9150  0.2684 -0.3707
  711TMC3     O10515   1.357   0.889  14.953 -0.0364  0.0713 -0.0248
  711TMC3     H10516   1.533   1.180  15.171 -0.7708 -2.0783  1.4777
  711TMC3    H110517   1.569   0.832  14.928  0.6896 -0.5404  0.9080
  711TMC3    H210518   1.912   0.998  15.090  0.3239  0.7489  1.6075
  711TMC3    C710519   1.816   0.773  15.008  0.0703  0.3532 -0.8479
  711TMC3    C810520   1.768   1.153  15.280 -0.4054  0.7060  0.0180
  711TMC3    O110521   1.915   0.767  15.076  0.2641  0.3942 -0.0924
  711TMC3    O210522   1.694   1.216  15.352 -0.8133  0.2614 -0.3317
  712MPD2     C10523   3.116   1.689  13.858  0.1395 -0.0624  0.4867
  712MPD2    C110524   3.036   1.771  13.777  0.4013 -0.1863 -0.2740
  712MPD2    C210525   3.045   1.907  13.799  0.7676 -0.3438 -0.5853
  712MPD2    C310526   3.135   1.964  13.895  0.0964  0.5067 -0.2586
  712MPD2    C410527   3.207   1.879  13.981  0.4578  0.2271  0.6346
  712MPD2    C510528   3.195   1.744  13.962  0.8638  0.0906 -0.5512
  712MPD2     H10529   2.985   1.973  13.738  0.7557  0.4825  0.3267
  712MPD2    H110530   3.267   1.910  14.065  2.1237 -0.9077 -0.1222
  712MPD2    H210531   3.131   1.582  13.844  1.9144  0.1816  0.5995
  712MPD2    H310532   3.254   1.681  14.027 -2.5149 -0.9465  1.4960
  712MPD2     N10533   3.146   2.103  13.908  0.2159  0.2479  0.1249
  712MPD2    H510534   3.227   2.140  13.957  0.0805  0.3732  0.2562
  712MPD2    N110535   2.953   1.718  13.674 -0.5897 -0.5883  0.2003
  712MPD2    H710536   2.908   1.778  13.605 -0.1815  2.9400  2.9896
  713TMC3    C110537   3.110   2.320  13.843 -0.3942 -0.5598  0.5713
  713TMC3    C210538   3.236   2.325  13.791 -0.2352 -0.2243  0.8319
  713TMC3    C310539   3.280   2.443  13.728  0.6255 -0.0069 -0.1647
  713TMC3    C410540   3.016   2.419  13.821  1.3946  0.3805  0.1416
  713TMC3    C510541   3.068   2.538  13.771 -1.0079  0.4885 -0.5524
  713TMC3    C610542   3.198   2.554  13.728  0.0634 -0.0102  0.8896
  713TMC3     C10543   3.058   2.193  13.866 -0.2017 -0.1463 -0.0244
  713TMC3     O10544   2.938   2.175  13.841 -0.3951  0.1623  0.3586
  713TMC3     H10545   3.298   2.236  13.798 -1.4800 -1.1363  0.2923
  713TMC3    H110546   2.910   2.402  13.834  2.3109 -2.2618  4.1525
  713TMC3    H210547   3.236   2.651  13.695  0.9190  0.0938  2.2221
  713TMC3    C710548   2.966   2.629  13.730  0.3806 -0.0820  0.2783
  713TMC3    C810549   3.405   2.444  13.657 -0.2585  0.4912 -0.2247
  713TMC3    O110550   2.849   2.594  13.735 -0.4064  0.1457 -0.0445
  713TMC3    O210551   3.435   2.550  13.606 -0.2232 -0.2756  0.1966
  714MPD2     C10552   0.767   1.219   1.057  0.4289  0.0621 -0.5973
  714MPD2    C110553   0.713   1.137   1.155 -0.4986 -0.2027  0.5970
  714MPD2    C210554   0.574   1.116   1.161  0.1506  0.1128  0.5940
  714MPD2    C310555   0.492   1.172   1.068  0.5146 -0.1109  0.4496
  714MPD2    C410556   0.550   1.267   0.977 -0.0941  0.6785 -0.0378
  714MPD2    C510557   0.684   1.294   0.980 -0.2908 -0.0710  0.0546
  714MPD2     H10558   0.535   1.039   1.227 -0.4118  0.9336  1.2226
  714MPD2    H110559   0.488   1.324   0.909 -2.3208  1.4071  2.6204
  714MPD2    H210560   0.875   1.224   1.059  0.4514 -0.4120 -0.9317
  714MPD2    H310561   0.726   1.371   0.917  0.8915  0.8237  1.9435
  714MPD2     N10562   0.357   1.141   1.069 -0.3249 -0.2321 -0.0906
  714MPD2    H510563   0.311   1.100   1.150 -0.5696  0.4298  0.1064
  714MPD2    N110564   0.818   1.073   1.240 -0.1586  0.3314  0.3725
  714MPD2    H710565   0.918   1.082   1.224 -0.8059  3.9976 -1.5972
  715TMC3    C110566   0.895   0.938   1.412 -0.1269  0.6910  0.7350
  715TMC3    C210567   0.989   0.877   1.333 -0.6146 -0.0939 -0.7617
  715TMC3    C310568   1.096   0.810   1.394 -0.4368 -0.2863  0.7827
  715TMC3    C410569   0.914   0.939   1.545 -0.2098 -1.0818  0.4788
  715TMC3    C510570   1.013   0.868   1.600 -0.0840  0.3480 -0.6976
  715TMC3    C610571   1.107   0.803   1.528 -0.4059  0.8877  0.0860
  715TMC3     C10572   0.782   1.014   1.357  0.6528 -0.4204  0.2412
  715TMC3     O10573   0.690   1.039   1.433 -0.5389 -0.1666 -0.0416
  715TMC3     H10574   0.984   0.892   1.226 -0.5800  1.0590 -0.5955
  715TMC3    H110575   0.846   0.998   1.605 -0.5260  0.5382 -1.4785
  715TMC3    H210576   1.172   0.732   1.578 -1.3053  0.2184  0.3192
  715TMC3    C710577   1.044   0.878   1.745 -0.1680 -1.0770 -0.1945
  715TMC3    C810578   1.169   0.722   1.307  0.1170 -0.3334 -0.0541
  715TMC3    O110579   1.154   0.835   1.773 -0.5562 -0.1851  0.0352
  715TMC3    O210580   1.133   0.720   1.187  0.0786  0.0857 -0.1683
  716MPD2     C10581   0.947   3.182   9.871  0.2264  0.6088  0.6160
  716MPD2    C110582   0.962   3.234   9.744 -0.3273 -0.0155  0.0705
  716MPD2    C210583   1.017   3.143   9.652  0.2133 -0.0940  0.4809
  716MPD2    C310584   1.033   3.008   9.670 -0.6731  0.0638 -0.3341
  716MPD2    C410585   1.009   2.956   9.794 -0.3156  0.2029 -0.0867
  716MPD2    C510586   0.968   3.042   9.891 -0.0096  0.6725  0.1549
  716MPD2     H10587   1.050   3.175   9.554  2.1937 -2.0849  0.4915
  716MPD2    H110588   1.018   2.851   9.820 -1.1947  0.1981  0.2169
  716MPD2    H210589   0.930   3.249   9.954  0.2851 -1.7926  2.5936
  716MPD2    H310590   0.963   3.005   9.993 -0.4616  0.1534 -0.0542
  716MPD2     N10591   1.029   2.929   9.554 -0.1939  0.7256 -0.2942
  716MPD2    H510592   1.018   2.963   9.458  2.1755 -0.5771 -1.0313
  716MPD2    N110593   0.945   3.371   9.724 -0.0005  0.4169 -0.3108
  716MPD2    H710594   0.918   3.421   9.808 -0.3699 -1.2984  0.5825
  717TMC3    C110595   1.019   2.726   9.430 -0.4633  0.4588  0.6302
  717TMC3    C210596   0.931   2.776   9.336  0.0015  0.0192 -0.5462
  717TMC3    C310597   0.915   2.707   9.222  0.3266 -0.0891  0.0244
  717TMC3    C410598   1.069   2.599   9.412  0.6948 -0.3088  0.4535
  717TMC3    C510599   1.062   2.535   9.293 -0.6088  0.0975 -0.1433
  717TMC3    C610600   0.983   2.588   9.200 -0.3344  0.4100  0.5749
  717TMC3     C10601   1.039   2.794   9.559 -0.1881  0.0056  0.7096
  717TMC3     O10602   1.088   2.727   9.650  0.2818  0.0464  0.3477
  717TMC3     H10603   0.873   2.862   9.368 -1.8985 -1.7762  0.8525
  717TMC3    H110604   1.139   2.556   9.483 -0.8665  0.3092  2.3553
  717TMC3    H210605   0.976   2.539   9.104  0.8694  0.8101  0.2855
  717TMC3    C710606   1.083   2.391   9.285  0.0572 -0.3094  0.0703
  717TMC3    C810607   0.810   2.739   9.136 -0.2086 -0.2240 -0.1999
  717TMC3    O110608   1.074   2.345   9.172 -0.1691 -0.3198 -0.4035
  717TMC3    O210609   0.749   2.642   9.092 -0.3988 -0.1017 -0.3194
  718MPD2     C10610   4.709   2.446  12.480  0.3368 -0.7204  0.3738
  718MPD2    C110611   4.604   2.517  12.430  0.3087 -0.4734  0.2257
  718MPD2    C210612   4.500   2.554  12.519  0.3504 -0.5092  0.7305
  718MPD2    C310613   4.504   2.521  12.653 -0.5612  0.2327 -0.6717
  718MPD2    C410614   4.606   2.440  12.696 -0.1726 -0.2740  0.3701
  718MPD2    C510615   4.699   2.398  12.607  0.0652 -0.2755 -0.0607
  718MPD2     H10616   4.417   2.616  12.485  0.0488 -1.5428 -0.4067
  718MPD2    H110617   4.610   2.390  12.792  1.4046 -0.4401  0.2199
  718MPD2    H210618   0.063   2.408  12.411  1.7201 -0.3264  1.6643
  718MPD2    H310619   0.055   2.325  12.631  0.3978 -0.3389 -1.3354
  718MPD2     N10620   4.401   2.574  12.736  0.5554  0.0842 -0.0579
  718MPD2    H510621   4.337   2.632  12.683 -0.0644  1.2372  1.9442
  718MPD2    N110622   4.599   2.567  12.301  0.1282  0.1309 -0.1579
  718MPD2    H710623   4.524   2.634  12.285 -0.4634 -0.4070  0.3524
  719TMC3    C110624   4.674   2.652  12.099 -0.3777  0.1783  0.7677
  719TMC3    C210625   4.543   2.698  12.110 -0.0071  0.0937 -0.7423
  719TMC3    C310626   4.523   2.836  12.110  0.0504 -0.5338 -0.2331
  719TMC3    C410627   0.059   2.738  12.075 -0.0275  0.1422  0.4355
  719TMC3    C510628   0.029   2.872  12.073 -0.3753  1.0169  0.4776
  719TMC3    C610629   4.625   2.921  12.088  0.2562 -0.0195  0.1108
  719TMC3     C10630   4.702   2.560  12.204  0.0494  0.1177  0.0119
  719TMC3     O10631   0.082   2.493  12.208 -0.2685 -0.3654 -0.1320
  719TMC3     H10632   4.468   2.620  12.113  0.1050  0.0884  2.1544
  719TMC3    H110633   0.160   2.701  12.071  0.2927  0.7899  2.4502
  719TMC3    H210634   4.620   3.026  12.112 -0.3607 -0.1460  0.5380
  719TMC3    C710635   0.143   2.952  12.059  0.1867  0.4444 -0.4990
  719TMC3    C810636   4.420   2.856  12.210  0.0548  0.0582  0.1092
  719TMC3    O110637   0.239   2.929  12.127  0.7456 -0.2344  0.4949
  719TMC3    O210638   4.391   2.752  12.274  0.3105  0.5114  0.3461
  720MPD2     C10639   3.253   3.850  13.974  0.0114  0.2680 -0.5642
  720MPD2    C110640   3.333   3.923  13.884  0.5203  0.1103 -0.4590
  720MPD2    C210641   3.447   3.985  13.936 -0.2438  0.3599  0.0409
  720MPD2    C310642   3.491   3.965  14.071 -0.0902  0.6391 -0.0418
  720MPD2    C410643   3.414   3.884  14.147 -0.0560 -0.4167  0.2275
  720MPD2    C510644   3.294   3.841  14.100  0.1087  0.3750  0.7866
  720MPD2     H10645   3.499   4.059  13.876 -0.3164  1.0971  0.8946
  720MPD2    H110646   3.436   3.862  14.251 -0.4941 -1.7112  0.0551
  720MPD2    H210647   3.168   3.794  13.937 -0.3837  0.0164  0.7215
  720MPD2    H310648   3.227   3.793  14.172 -1.6421 -2.1872 -2.5121
  720MPD2     N10649   3.605   4.033  14.115 -0.5147 -0.5270  0.2874
  720MPD2    H510650   3.653   4.080  14.039 -1.0341  0.0890  0.3428
  720MPD2    N110651   3.293   3.954  13.755  1.0258 -0.1663 -0.2009
  720MPD2    H710652   3.351   4.014  13.697 -0.0973  1.2824  0.1725
  721TMC3    C110653   3.800   4.063  14.246  0.4242 -0.0459 -0.0577
  721TMC3    C210654   3.845   4.093  14.374 -0.1265 -0.0279 -0.6277
  721TMC3    C310655   3.976   4.125  14.388  0.5444  0.5902 -0.4735
  721TMC3    C410656   3.889   4.045  14.141  0.1397 -0.2401  0.4887
  721TMC3    C510657   4.021   4.073  14.164  0.4249  0.8113 -0.0669
  721TMC3    C610658   4.062   4.118  14.286  0.3389  0.5126  0.7713
  721TMC3     C10659   3.660   4.020  14.241 -0.4147 -0.3888 -0.4872
  721TMC3     O10660   3.606   3.987  14.344 -0.0412  0.0849  0.2387
  721TMC3     H10661   3.778   4.100  14.458  0.2363  0.5234 -0.3844
  721TMC3    H110662   3.843   4.037  14.043 -0.7208  0.5905  0.8191
  721TMC3    H210663   4.170   4.127  14.295  0.5176  0.3125 -1.1306
  721TMC3    C710664   4.124   4.031  14.068 -0.1721 -0.0896  0.5727
  721TMC3    C810665   4.023   4.179  14.518  0.3218  0.0994  0.0275
  721TMC3    O110666   4.234   4.079  14.080 -0.1621  0.0671  0.6311
  721TMC3    O210667   4.134   4.229  14.510  0.0102 -0.2872 -0.1743
  722MPD2     C10668   2.122   2.623  13.155 -0.2962  0.0024 -0.4260
  722MPD2    C110669   2.071   2.750  13.159  0.0979  0.0355 -0.9032
  722MPD2    C210670   1.937   2.762  13.131  0.2650 -0.8916  0.6990
  722MPD2    C310671   1.852   2.655  13.116 -0.6403 -0.6209  0.4497
  722MPD2    C410672   1.909   2.532  13.116  0.1526  0.1435 -0.1265
  722MPD2    C510673   2.043   2.514  13.128  0.7009  0.4765  0.3508
  722MPD2     H10674   1.895   2.862  13.122  0.0989 -1.0138  0.1069
  722MPD2    H110675   1.854   2.442  13.091 -0.1145 -0.1625  1.5598
  722MPD2    H210676   2.228   2.605  13.167  0.1640  1.8267 -1.6480
  722MPD2    H310677   2.088   2.415  13.129 -0.6244 -0.1182  1.5433
  722MPD2     N10678   1.721   2.672  13.086  0.5019 -0.0867  0.4536
  722MPD2    H510679   1.698   2.770  13.068 -1.6052 -0.6442  0.1930
  722MPD2    N110680   2.147   2.862  13.178  0.5134 -0.0447 -0.7673
  722MPD2    H710681   2.098   2.951  13.178 -0.5043 -0.6049  0.9896
  723TMC3    C110682   1.493   2.624  13.044  0.2661 -0.3722  0.1419
  723TMC3    C210683   1.418   2.539  12.963  0.4845  0.4809  0.0910
  723TMC3    C310684   1.323   2.589  12.878  0.9130  0.2204  0.1401
  723TMC3    C410685   1.485   2.755  13.038 -0.5747 -0.1907  0.3716
  723TMC3    C510686   1.401   2.805  12.942 -0.0520 -0.2810 -0.4961
  723TMC3    C610687   1.311   2.726  12.870  0.3279  0.4530  0.4161
  723TMC3     C10688   1.626   2.576  13.080 -0.7035 -0.2993  0.0160
  723TMC3     O10689   1.628   2.458  13.123  0.4214  0.1601 -0.2977
  723TMC3     H10690   1.427   2.431  12.965  2.2349  0.6638  1.6713
  723TMC3    H110691   1.512   2.814  13.125  3.6634  0.8875 -1.6618
  723TMC3    H210692   1.231   2.763  12.808  0.3421 -0.1018  0.0614
  723TMC3    C710693   1.392   2.948  12.929  0.6065  0.6266 -0.8259
  723TMC3    C810694   1.255   2.505  12.778  0.2062  0.2933 -0.0440
  723TMC3    O110695   1.458   3.004  13.011  0.4080 -0.2299  0.0901
  723TMC3    O210696   1.168   2.563  12.716  0.0576 -0.1015  0.2289
  724TMC3    C110697   1.520   1.021   9.378  0.0698 -1.0787  0.4148
  724TMC3    C210698   1.576   1.105   9.283 -0.1094  0.1648 -0.4691
  724TMC3    C310699   1.705   1.074   9.233 -0.1014 -0.2590  0.3482
  724TMC3    C410700   1.592   0.915   9.427 -0.0544 -0.0836 -0.2611
  724TMC3    C510701   1.714   0.882   9.378 -0.4418 -0.5519 -0.6132
  724TMC3    C610702   1.773   0.969   9.285 -0.4679 -0.3074  0.5400
  724TMC3     C10703   1.391   1.040   9.437  0.7022 -0.0414 -0.2912
  724TMC3     O10704   1.367   0.982   9.541 -0.7568  0.0582 -0.1304
  724TMC3     H10705   1.530   1.201   9.263  1.6488  0.9180 -1.0016
  724TMC3    H110706   1.558   0.845   9.502  1.8599  0.3013  0.9819
  724TMC3    H210707   1.874   0.952   9.249 -0.7436 -0.9181  0.0461
  724TMC3    C710708   1.797   0.767   9.424 -0.1551  0.2353  0.1050
  724TMC3    C810709   1.769   1.157   9.131 -0.0661  0.3522  0.2587
  724TMC3    O110710   1.912   0.756   9.384  0.0203  0.1148 -0.5741
  724TMC3    O210711   1.692   1.231   9.069 -0.2612  0.1273  0.1184
  725TMC3    C110712   3.488   4.036  12.672  0.3098  0.2035 -0.0605
  725TMC3    C210713   3.383   4.114  12.617 -0.1381  0.5920 -0.8017
  725TMC3    C310714   3.323   4.059  12.501 -0.4226 -0.6519 -0.0342
  725TMC3    C410715   3.503   3.909  12.626  0.6176 -0.2177 -0.4020
  725TMC3    C510716   3.421   3.852  12.526  0.4134 -0.5319  0.0800
  725TMC3    C610717   3.349   3.936  12.453  0.3022  0.8723 -0.7345
  725TMC3     C10718   3.595   4.097  12.747 -0.1841  0.1569  0.1731
  725TMC3     O10719   3.554   4.196  12.807  0.1108  0.0422  0.4715
  725TMC3     H10720   3.354   4.212  12.652 -1.0298 -0.1797  0.5869
  725TMC3    H110721   3.570   3.842  12.678  0.3940  0.1110  0.3172
  725TMC3    H210722   3.295   3.895  12.368  0.1607 -0.5168  0.0199
  725TMC3    C710723   3.454   3.720  12.483  0.2814 -0.3913  0.4347
  725TMC3    C810724   3.256   4.151  12.420 -0.4886  0.5386  0.6916
  725TMC3    O110725   3.464   3.709  12.361 -0.0406 -0.1900  0.1018
  725TMC3    O210726   3.178   4.096  12.344 -0.4097 -0.2105  0.2584
  726MPD2     C10727   2.264   0.613  10.218  0.3138  0.6480  0.3008
  726MPD2    C110728   2.227   0.722  10.294 -0.2155 -0.2894 -0.0032
  726MPD2    C210729   2.105   0.729  10.348 -0.4210  0.0208 -0.4133
  726MPD2    C310730   2.009   0.635  10.319 -1.0356 -0.8785 -0.1294
  726MPD2    C410731   2.036   0.536  10.233  0.7936  0.2145 -1.1837
  726MPD2    C510732   2.169   0.521  10.192 -0.2741 -0.5984  0.4536
  726MPD2     H10733   2.078   0.816  10.406  2.1196 -0.1613  1.0403
  726MPD2    H110734   1.970   0.461  10.192 -1.4204  1.3435  0.3363
  726MPD2    H210735   2.358   0.602  10.166 -0.8242  0.3004 -1.6934
  726MPD2    H310736   2.195   0.425  10.151  0.2912  0.2462 -1.1700
  726MPD2     N10737   1.879   0.639  10.363 -0.4432 -0.4911  0.4749
  726MPD2    H510738   1.817   0.567  10.327 -0.1260  0.4372 -1.9029
  726MPD2    N110739   2.317   0.829  10.321 -0.7440 -0.4867 -0.5182
  726MPD2    H710740   2.284   0.919  10.354  0.3881  0.2273 -1.3508
  727TMC3    C110741   2.524   0.939  10.321 -0.1681  0.2773 -0.3770
  727TMC3    C210742   2.646   0.929  10.376  0.4255  0.0578 -0.2748
  727TMC3    C310743   2.718   1.039  10.410 -0.0626 -0.2367  0.4132
  727TMC3    C410744   2.467   1.065  10.306 -0.3797 -0.3295 -0.1877
  727TMC3    C510745   2.534   1.173  10.352  0.3127 -0.4020  0.3455
  727TMC3    C610746   2.663   1.166  10.398 -0.0247 -0.0456  0.3838
  727TMC3     C10747   2.452   0.812  10.303  0.0714 -0.0317 -0.2599
  727TMC3     O10748   2.519   0.711  10.282 -0.1756  0.2672 -0.1304
  727TMC3     H10749   2.691   0.832  10.392 -0.3206 -0.5262 -1.7076
  727TMC3    H110750   2.369   1.071  10.260  0.4581  0.8808 -1.8445
  727TMC3    H210751   2.718   1.254  10.428 -2.7990  1.4200  1.1207
  727TMC3    C710752   2.460   1.303  10.340 -0.1553 -0.3901 -0.4575
  727TMC3    C810753   2.858   1.016  10.450  0.7319 -0.0400  0.1609
  727TMC3    O110754   2.360   1.294  10.263  0.6368  0.9142 -0.2381
  727TMC3    O210755   2.894   0.899  10.463  0.0370  0.1023 -0.4899
  728TMC3    C110756   0.842   4.639  15.491  0.4490  0.0464  0.5769
  728TMC3    C210757   0.977   4.662  15.469  0.0963 -0.4720  0.2518
  728TMC3    C310758   1.014   4.707  15.340  0.1681 -0.0544 -0.0768
  728TMC3    C410759   0.742   4.669  15.396  0.6134 -0.4502  0.7796
  728TMC3    C510760   0.785   4.703  15.269  0.3140  1.0891  0.0256
  728TMC3    C610761   0.920   0.008  15.246 -0.2142  0.6498  0.0672
  728TMC3     C10762   0.814   4.598  15.624 -0.3602  0.2539 -0.2016
  728TMC3     O10763   0.905   4.604  15.705 -0.2786 -0.2996  0.2940
  728TMC3     H10764   1.051   4.642  15.546  0.6771 -0.2328 -0.2398
  728TMC3    H110765   0.635   4.658  15.412  0.8285 -2.4292  0.8043
  728TMC3    H210766   0.955   0.050  15.152 -0.5888  2.1938  0.6181
  728TMC3    C710767   0.678   0.013  15.169  0.3366 -0.2515 -0.3135
  728TMC3    C810768   1.157   4.687  15.302 -0.1630  0.4917 -0.2909
  728TMC3    O110769   0.565   4.698  15.210 -0.0853 -0.2850 -0.3769
  728TMC3    O210770   1.180   4.662  15.184 -0.1646  0.2930 -0.5836
  729MPD2     C10771   3.116   1.001  16.529 -0.2834  0.6561  0.5377
  729MPD2    C110772   3.241   0.996  16.594  0.4317  1.0926  0.3543
  729MPD2    C210773   3.245   0.977  16.733 -0.2737 -0.3036  0.4311
  729MPD2    C310774   3.131   0.973  16.806 -0.4834  0.3941 -0.1609
  729MPD2    C410775   3.012   0.967  16.734  0.3076  0.3533  0.2606
  729MPD2    C510776   3.001   0.982  16.599 -0.6026 -1.8835 -0.3058
  729MPD2     H10777   3.339   0.997  16.784  0.4310  2.5363 -1.9607
  729MPD2    H110778   2.920   0.958  16.790 -1.6772  0.5825 -2.9408
  729MPD2    H210779   3.113   1.026  16.424 -0.0282  2.6527  1.0043
  729MPD2    H310780   2.903   0.978  16.553 -1.7438  0.6065  1.9339
  729MPD2     N10781   3.129   0.990  16.943  0.0230  0.9801  0.3182
  729MPD2    H510782   3.034   0.981  16.977 -0.1775 -1.6325 -0.9404
  729MPD2    N110783   3.349   1.011  16.514 -0.2890  0.4328  0.1654
  729MPD2    H710784   3.331   1.032  16.417 -0.5819  0.3043  0.1921
  730TMC3    C110785   3.199   1.016  17.163 -0.2493 -0.2724 -0.7723
  730TMC3    C210786   3.287   0.995  17.261 -0.5791 -0.5230  0.1726
  730TMC3    C310787   3.286   1.068  17.374  0.1494 -0.2962  0.1239
  730TMC3    C410788   3.123   1.130  17.171 -0.1630 -0.4921 -0.3710
  730TMC3    C510789   3.118   1.203  17.280 -1.2415  0.1041 -0.2368
  730TMC3    C610790   3.196   1.173  17.389  0.0644 -0.4393  0.0673
  730TMC3     C10791   3.239   0.980  17.027 -0.8099  0.2748  0.2695
  730TMC3     O10792   3.354   0.947  17.000  0.8357  0.3084 -0.0260
  730TMC3     H10793   3.356   0.911  17.259  0.5502  0.4434 -1.7581
  730TMC3    H110794   3.069   1.164  17.084 -0.1703 -0.3442 -0.3085
  730TMC3    H210795   3.201   1.246  17.468 -1.4572  0.6319 -0.8051
  730TMC3    C710796   3.109   1.335  17.241  0.3538  0.4276  0.3371
  730TMC3    C810797   3.400   1.053  17.461  0.3056 -0.2154  0.3617
  730TMC3    O110798   3.153   1.364  17.128 -0.3810  0.3808  0.4229
  730TMC3    O210799   3.384   1.058  17.583 -0.1291 -0.0050  0.0658
  731MPD2     C10800   3.132   3.434  12.247 -0.5007 -0.3122 -0.5206
  731MPD2    C110801   3.154   3.301  12.230 -0.1819 -0.3696 -0.9004
  731MPD2    C210802   3.176   3.225  12.345  0.0309 -0.2085  0.6209
  731MPD2    C310803   3.154   3.273  12.474 -0.0618  0.0831  0.4044
  731MPD2    C410804   3.129   3.407  12.477  0.5190 -0.6078 -0.3985
  731MPD2    C510805   3.112   3.486  12.367 -0.0575 -0.0024  0.2234
  731MPD2     H10806   3.200   3.121  12.321  1.8855  0.3079  0.1822
  731MPD2    H110807   3.111   3.462  12.569  1.2475  1.0672 -1.2620
  731MPD2    H210808   3.112   3.506  12.168 -1.1449  1.0691  0.9002
  731MPD2    H310809   3.086   3.590  12.377 -0.7387 -0.1625  0.1278
  731MPD2     N10810   3.164   3.182  12.588 -0.0561 -0.6479  0.5242
  731MPD2    H510811   3.191   3.085  12.573  1.5940 -0.0487 -0.3182
  731MPD2    N110812   3.167   3.251  12.102  0.2244  0.5175  0.3042
  731MPD2    H710813   3.140   3.324  12.036 -0.3136 -1.2737 -1.4658
  732TMC3    C110814   3.199   3.106  11.923  0.6051 -0.0603 -0.9988
  732TMC3    C210815   3.076   3.123  11.861 -0.3286 -0.1111  0.0623
  732TMC3    C310816   3.054   3.076  11.737 -0.1336 -0.3639 -0.6014
  732TMC3    C410817   3.303   3.051  11.855  0.7312 -0.0733 -0.3943
  732TMC3    C510818   3.276   3.000  11.728 -0.1590  0.4650  0.5258
  732TMC3    C610819   3.156   3.016  11.667  0.2298  0.2051 -0.1851
  732TMC3     C10820   3.212   3.124  12.065  0.4438 -0.1985 -0.6610
  732TMC3     O10821   3.261   3.031  12.129 -0.1416  0.4275 -0.4759
  732TMC3     H10822   3.007   3.175  11.926  0.5679  0.0447  0.8877
  732TMC3    H110823   3.399   3.050  11.904  1.2437  0.3930 -1.3821
  732TMC3    H210824   3.132   2.946  11.589  0.5324 -0.6845  0.5111
  732TMC3    C710825   3.389   2.972  11.648  0.1421  0.4989 -0.2457
  732TMC3    C810826   2.920   3.024  11.711 -1.0267  0.7792 -0.3011
  732TMC3    O110827   3.387   3.017  11.533  0.5997  0.2722 -0.4204
  732TMC3    O210828   2.912   2.918  11.648 -0.2616 -0.4525 -0.4268
  733TMC3    C110829   4.096   2.704  13.036  0.3482 -0.6882  0.0307
  733TMC3    C210830   4.220   2.646  13.032 -0.1189 -0.2793 -0.6214
  733TMC3    C310831   4.294   2.679  12.921  0.5328  0.3752 -0.1967
  733TMC3    C410832   4.052   2.799  12.944  0.4723 -0.8207  0.3879
  733TMC3    C510833   4.143   2.839  12.850 -0.3499 -0.1389  0.1720
  733TMC3    C610834   4.266   2.783  12.840  0.3803  0.5943 -0.3073
  733TMC3     C10835   3.977   2.635  13.093 -0.1526  0.0739  0.3222
  733TMC3     O10836   3.879   2.706  13.100  0.1029  0.9731 -0.0631
  733TMC3     H10837   4.259   2.579  13.108  0.4750 -1.1351 -1.6769
  733TMC3    H110838   3.954   2.845  12.953  0.1064 -1.7555  1.1072
  733TMC3    H210839   4.344   2.822  12.775  0.7195  0.1404 -0.1761
  733TMC3    C710840   4.106   2.950  12.763 -1.1380  0.3300 -0.4590
  733TMC3    C810841   4.402   2.583  12.878  0.3536 -0.1401 -0.4216
  733TMC3    O110842   4.065   3.056  12.810  0.1761  0.3081 -0.0616
  733TMC3    O210843   4.435   2.499  12.965 -0.4697  0.6238 -0.1327
  734MPD2     C10844   1.290   4.670  12.545 -0.2535  0.0797  0.0054
  734MPD2    C110845   1.234   4.568  12.469 -0.2751 -1.1343 -0.2462
  734MPD2    C210846   1.257   4.571  12.333 -0.8659  0.7028  0.3204
  734MPD2    C310847   1.314   4.671  12.266  0.0006 -0.5578  0.3356
  734MPD2    C410848   1.357   0.053  12.339 -0.0143 -0.3900 -0.1788
  734MPD2    C510849   1.349   0.053  12.470  0.5571  0.2850 -0.4446
  734MPD2     H10850   1.224   4.480  12.284 -0.8364  0.7111  0.2858
  734MPD2    H110851   1.392   0.140  12.284  0.1891 -1.0604 -1.1135
  734MPD2    H210852   1.288   4.672  12.654 -0.3785  0.5125 -0.0040
  734MPD2    H310853   1.366   0.141  12.530 -0.8114  0.3410 -0.1472
  734MPD2     N10854   1.326   4.662  12.123 -0.2529 -0.1468 -0.4804
  734MPD2    H510855   1.284   4.579  12.083 -2.3773  0.3898  0.6120
  734MPD2    N110856   1.145   4.478  12.532  0.1403  0.0310 -0.1417
  734MPD2    H710857   1.125   4.476  12.631  2.8781  0.2153  0.3994
  735TMC3    C110858   0.978   4.294  12.533  0.2532  0.0530  0.4357
  735TMC3    C210859   0.882   4.248  12.454  0.0515 -0.2082 -0.6018
  735TMC3    C310860   0.883   4.117  12.426  0.1764  0.3499 -0.0451
  735TMC3    C410861   1.067   4.217  12.599 -0.7748  0.6182  0.1624
  735TMC3    C510862   1.049   4.085  12.583 -0.1495 -0.3016 -0.4597
  735TMC3    C610863   0.956   4.031  12.493  0.5617  0.7629  0.3715
  735TMC3     C10864   1.053   4.396  12.461 -0.1975  0.2767 -0.9394
  735TMC3     O10865   1.027   4.393  12.344  0.2496 -0.5940 -0.6148
  735TMC3     H10866   0.815   4.313  12.398 -2.1420 -0.7336  1.4418
  735TMC3    H110867   1.150   4.262  12.653 -0.4641  0.7971 -0.4611
  735TMC3    H210868   0.957   3.928  12.462 -3.1585  1.1017 -0.8402
  735TMC3    C710869   1.168   4.002  12.612  0.2127 -0.0118  0.3431
  735TMC3    C810870   0.861   4.078  12.288  0.0911 -1.0279 -0.2280
  735TMC3    O110871   1.187   3.901  12.545 -0.0024  0.0153  0.1356
  735TMC3    O210872   0.848   3.957  12.259  0.7744 -0.6497  0.1846
  736MPD2     C10873   1.440   4.125  12.811 -0.8774  0.8488  0.5058
  736MPD2    C110874   1.382   4.060  12.708 -0.2470 -0.0414 -0.5585
  736MPD2    C210875   1.462   3.992  12.615  0.3912 -0.5102  0.2618
  736MPD2    C310876   1.596   4.010  12.610  0.4548 -0.0347  0.1692
  736MPD2    C410877   1.649   4.097  12.704 -0.2619 -0.2344 -0.0856
  736MPD2    C510878   1.572   4.154  12.803  0.3865 -0.6685 -0.5827
  736MPD2     H10879   1.412   3.938  12.535  3.8560 -2.2367 -0.7410
  736MPD2    H110880   1.756   4.116  12.700 -0.5504  1.7150  1.2545
  736MPD2    H210881   1.382   4.165  12.893 -0.7806  0.3296  0.8305
  736MPD2    H310882   1.620   4.214  12.880  0.3856 -1.6657  0.1868
  736MPD2     N10883   1.681   3.961  12.508  0.2930 -0.1408 -0.0359
  736MPD2    H510884   1.777   3.993  12.502 -0.3414  1.8293  0.4196
  736MPD2    N110885   1.243   4.063  12.704  0.2981  0.0817  0.0875
  736MPD2    H710886   1.197   4.120  12.774  0.5637  1.9934 -1.3182
  737TMC3    C110887   1.759   3.850  12.331  0.1757 -0.1433 -0.2150
  737TMC3    C210888   1.836   3.958  12.291 -0.1464  0.9048 -0.4404
  737TMC3    C310889   1.930   3.937  12.188  0.0243  0.2409  0.5441
  737TMC3    C410890   1.790   3.719  12.302  0.1425 -0.1826 -0.6215
  737TMC3    C510891   1.891   3.703  12.213  0.4157 -0.2273  0.1197
  737TMC3    C610892   1.958   3.809  12.153 -0.7354  0.0174 -0.2685
  737TMC3     C10893   1.650   3.863  12.422  0.2205 -0.3945  0.2755
  737TMC3     O10894   1.551   3.793  12.422  0.0942 -0.0146  0.6317
  737TMC3     H10895   1.799   4.058  12.310 -1.1127  0.6740 -1.1216
  737TMC3    H110896   1.726   3.637  12.332 -1.3250  1.4107  0.6115
  737TMC3    H210897   2.044   3.788  12.091 -0.4885 -1.4154  0.5563
  737TMC3    C710898   1.946   3.570  12.194  0.2906  0.1484  0.1062
  737TMC3    C810899   1.989   4.049  12.121  0.1244  0.3554 -0.1938
  737TMC3    O110900   1.920   3.486  12.279 -0.4644 -0.6381  0.1802
  737TMC3    O210901   1.951   4.157  12.157  0.1983  0.1203  0.0689
  738MPD2     C10902   3.030   2.742  14.980  0.3054  0.0445  0.3989
  738MPD2    C110903   2.908   2.750  14.921  0.3456 -0.3818 -0.3065
  738MPD2    C210904   2.882   2.850  14.828  0.0890  0.8400  0.3080
  738MPD2    C310905   2.981   2.946  14.793  0.2995  0.5503 -0.3525
  738MPD2    C410906   3.101   2.935  14.864  0.5191 -0.8224  0.0242
  738MPD2    C510907   3.121   2.836  14.956 -1.0853  0.3941 -0.4906
  738MPD2     H10908   2.787   2.853  14.776 -0.2154  2.7324  0.9690
  738MPD2    H110909   3.187   2.997  14.841 -0.8911  1.9548  2.1050
  738MPD2    H210910   3.053   2.676  15.063 -2.6737  0.0462  1.2334
  738MPD2    H310911   3.215   2.830  15.008 -0.6827  1.1446 -1.1231
  738MPD2     N10912   2.966   3.041  14.686  0.2353  0.1391  0.0485
  738MPD2    H510913   3.037   3.113  14.679 -0.6427  1.0242  0.2234
  738MPD2    N110914   2.804   2.653  14.947 -0.0808 -0.3698 -0.1737
  738MPD2    H710915   2.732   2.664  14.876  1.5939  2.1813 -1.4709
  739TMC3    C110916   2.854   3.159  14.509 -0.8963  0.2000  0.8424
  739TMC3    C210917   2.789   3.140  14.389 -0.0611 -0.1172 -0.7160
  739TMC3    C310918   2.773   3.254  14.314 -0.2792 -0.4799 -0.5245
  739TMC3    C410919   2.911   3.278  14.551 -0.3294  0.3094  0.1515
  739TMC3    C510920   2.884   3.378  14.465  0.2766 -0.5926  0.0152
  739TMC3    C610921   2.807   3.375  14.353 -0.2750 -0.1476  0.0157
  739TMC3     C10922   2.865   3.041  14.593  0.1963  0.8839 -0.1520
  739TMC3     O10923   2.802   2.940  14.561  0.3366  0.2079 -0.6300
  739TMC3     H10924   2.745   3.046  14.361  1.3233 -0.4751 -1.7060
  739TMC3    H110925   2.943   3.288  14.654 -1.9437  1.4148  0.5458
  739TMC3    H210926   2.802   3.464  14.292 -2.6323 -1.2087 -1.3117
  739TMC3    C710927   2.900   3.512  14.524  0.7194  0.7294  0.2819
  739TMC3    C810928   2.699   3.233  14.191  0.8471 -0.4492  0.7841
  739TMC3    O110929   2.844   3.608  14.478  0.2109 -0.3527 -0.1453
  739TMC3    O210930   2.607   3.151  14.187 -0.1730  0.3261  0.6373
  740TMC3    C110931   2.889   4.295  14.484 -0.2214 -0.1986  0.4684
  740TMC3    C210932   2.905   4.280  14.620  0.5899  0.7958  1.1603
  740TMC3    C310933   3.033   4.300  14.674  0.2576  0.1672 -0.1631
  740TMC3    C410934   2.998   4.325  14.406  1.0337 -0.2283 -0.1169
  740TMC3    C510935   3.124   4.331  14.461 -0.2377 -0.9095 -0.4327
  740TMC3    C610936   3.147   4.317  14.597  0.9268 -0.6311  0.4222
  740TMC3     C10937   2.756   4.300  14.425  0.3314  0.2883  0.0051
  740TMC3     O10938   2.755   4.314  14.301  0.3453 -0.0911 -0.3545
  740TMC3     H10939   2.821   4.247  14.681  0.7523 -1.4907  0.1353
  740TMC3    H110940   2.980   4.344  14.301  0.2102  0.7448  0.2001
  740TMC3    H210941   3.247   4.309  14.637  1.4416 -0.7899 -0.8899
  740TMC3    C710942   3.246   4.338  14.381 -0.2196 -0.5322  0.2349
  740TMC3    C810943   3.057   4.260  14.809  0.3781  0.4548  0.5019
  740TMC3    O110944   3.352   4.354  14.442 -0.2076  0.0095  0.1046
  740TMC3    O210945   2.963   4.200  14.867  0.2848  0.5596  0.1262
  741TMC3    C110946   2.557   3.845  13.689 -0.4748  0.2807 -0.2346
  741TMC3    C210947   2.435   3.782  13.697 -0.3687 -0.3722  0.1491
  741TMC3    C310948   2.421   3.697  13.799  0.5417  0.6194 -0.7031
  741TMC3    C410949   2.667   3.826  13.779  0.2993  0.0468  0.7910
  741TMC3    C510950   2.646   3.739  13.884  0.5597  0.8264  1.0755
  741TMC3    C610951   2.519   3.673  13.896  0.3512  0.0557 -0.0894
  741TMC3     C10952   2.592   3.917  13.573  0.8067 -0.2916  0.0080
  741TMC3     O10953   2.709   3.945  13.553  0.2087 -0.3102 -0.2404
  741TMC3     H10954   2.355   3.796  13.625  0.0327 -1.6180 -0.5508
  741TMC3    H110955   2.759   3.880  13.758  1.9215 -2.6803  0.8320
  741TMC3    H210956   2.521   3.602  13.978  0.3461 -0.0983 -0.2228
  741TMC3    C710957   2.723   3.748  14.005 -0.2158  0.2751  0.4774
  741TMC3    C810958   2.307   3.609  13.798  0.4907  0.1817  0.3499
  741TMC3    O110959   2.677   3.692  14.104  0.3486  0.6946 -0.2994
  741TMC3    O210960   2.241   3.620  13.697 -0.1605 -0.0477  0.5751
  742TMC3    C110961   2.653   1.977  15.326 -0.3722 -0.0523 -0.7515
  742TMC3    C210962   2.586   1.975  15.209  0.2600 -0.3407  0.6886
  742TMC3    C310963   2.662   1.990  15.095  0.1872  0.2373  0.3642
  742TMC3    C410964   2.789   2.006  15.334 -0.0644 -0.9149  0.1780
  742TMC3    C510965   2.857   2.002  15.217  0.0223  0.0275 -0.4518
  742TMC3    C610966   2.800   1.991  15.100 -0.0672  0.0929 -0.0853
  742TMC3     C10967   2.582   1.919  15.435 -0.1279  0.2640  0.2094
  742TMC3     O10968   2.505   1.827  15.421 -0.6425 -0.2262  0.2808
  742TMC3     H10969   2.489   1.929  15.207  0.6529 -1.1347 -0.2553
  742TMC3    H110970   2.839   1.997  15.429  3.5506  0.9529 -1.5358
  742TMC3    H210971   2.867   1.986  15.015 -0.2191  0.6689 -0.2371
  742TMC3    C710972   2.999   1.956  15.222 -0.2876 -0.4472  0.1699
  742TMC3    C810973   2.594   1.957  14.972  0.0556  0.1005  0.2510
  742TMC3    O110974   3.047   1.928  15.115  0.0459  0.7383  0.1994
  742TMC3    O210975   2.495   1.883  14.985 -0.3650 -0.0084 -0.3438
  743MPD2     C10976   0.870   4.307   2.364  1.1514 -0.1090 -0.0668
  743MPD2    C110977   0.896   4.222   2.257 -0.5262 -0.0482  0.0356
  743MPD2    C210978   1.019   4.155   2.261  0.0390  0.0914  0.2689
  743MPD2    C310979   1.109   4.167   2.369  0.4768  1.4246 -0.3533
  743MPD2    C410980   1.081   4.263   2.462  0.0738  0.4942 -0.0963
  743MPD2    C510981   0.964   4.338   2.453 -0.5347  0.4483  0.6658
  743MPD2     H10982   1.053   4.084   2.186  2.2808  1.6011 -0.1336
  743MPD2    H110983   1.152   4.297   2.536  0.3104 -0.8618  0.2959
  743MPD2    H210984   0.780   4.365   2.376  0.7383 -1.3201  2.8368
  743MPD2    H310985   0.948   4.415   2.528 -1.7291  0.8193  0.0215
  743MPD2     N10986   1.232   4.099   2.365 -0.7667  0.4870 -0.1243
  743MPD2    H510987   1.249   4.044   2.281 -2.1420 -1.5563  0.9374
  743MPD2    N110988   0.801   4.221   2.148  0.2829 -0.4679 -0.2976
  743MPD2    H710989   0.717   4.274   2.172 -0.3265 -2.2772  1.4995
  744TMC3    C110990   0.716   4.193   1.925 -0.0313  0.0175  0.4805
  744TMC3    C210991   0.606   4.264   1.955  0.2795 -0.2360  0.2792
  744TMC3    C310992   0.507   4.276   1.863 -0.1175 -0.1792 -0.2899
  744TMC3    C410993   0.714   4.116   1.813 -0.0783 -0.1562  0.1850
  744TMC3    C510994   0.618   4.130   1.719 -0.3315  0.0828 -0.0823
  744TMC3    C610995   0.510   4.214   1.741  0.0265 -0.5590  0.1408
  744TMC3     C10996   0.824   4.175   2.019 -0.3667 -0.0238  0.0171
  744TMC3     O10997   0.930   4.127   1.982 -0.2290 -0.3020  0.4862
  744TMC3     H10998   0.602   4.326   2.043 -1.5750  0.8439 -0.5833
  744TMC3    H110999   0.793   4.045   1.793  0.3150  0.5470 -0.7432
  744TMC3    H211000   0.433   4.237   1.668  1.3834  1.7446 -0.5740
  744TMC3    C711001   0.627   4.072   1.588  0.4386  0.2153 -0.0422
  744TMC3    C811002   0.400   4.374   1.895  0.5263  0.0168 -0.3148
  744TMC3    O111003   0.735   4.025   1.550  0.4303 -0.4178 -0.2678
  744TMC3    O211004   0.433   4.455   1.984 -0.8606  0.4931  0.0128
  745TMC3    C111005   2.819   1.562  13.557 -0.4798  0.0296 -0.3141
  745TMC3    C211006   2.702   1.514  13.617 -0.2489  0.2511  0.8366
  745TMC3    C311007   2.583   1.536  13.550  1.1195  0.2432  0.2757
  745TMC3    C411008   2.821   1.635  13.446  0.8570 -0.1893 -0.6192
  745TMC3    C511009   2.705   1.659  13.382  0.3680  0.8152  0.0420
  745TMC3    C611010   2.589   1.606  13.434 -0.8565 -0.5163  0.4075
  745TMC3     C11011   2.921   1.585  13.660  0.5116  0.2025 -0.4074
  745TMC3     O11012   2.943   1.495  13.739 -0.1586 -0.3917  0.0577
  745TMC3     H11013   2.702   1.461  13.711 -1.5413  1.3807  1.4835
  745TMC3    H111014   2.918   1.667  13.407  1.0967  0.0235  0.1504
  745TMC3    H211015   2.498   1.637  13.384  0.0897  1.6917  0.0263
  745TMC3    C711016   2.693   1.721  13.249  0.2371  0.1276 -0.0958
  745TMC3    C811017   2.489   1.609  13.639  0.7850 -0.7517  0.4200
  745TMC3    O111018   2.595   1.691  13.182  0.1550  0.9758 -0.2126
  745TMC3    O211019   2.377   1.638  13.599  0.0469 -0.3313 -0.2487
  746TMC3    C111020   0.450   3.647  10.903  0.0715  0.4051 -0.4519
  746TMC3    C211021   0.495   3.588  10.790 -0.3554 -0.3598 -0.3407
  746TMC3    C311022   0.531   3.454  10.815  0.0235 -0.7077  0.6437
  746TMC3    C411023   0.433   3.590  11.026  0.4341 -0.3601  0.1261
  746TMC3    C511024   0.476   3.464  11.047 -0.4690  0.2219  0.1124
  746TMC3    C611025   0.524   3.397  10.939  0.4611 -0.6806 -0.1649
  746TMC3     C11026   0.440   3.798  10.902 -0.5609  0.0705  0.1922
  746TMC3     O11027   0.418   3.858  11.007 -0.3731  0.3269 -0.7390
  746TMC3     H11028   0.488   3.630  10.690 -1.6945 -0.9786 -0.5084
  746TMC3    H111029   0.409   3.652  11.111 -1.0250  0.8032 -1.1264
  746TMC3    H211030   0.549   3.292  10.955  1.7425 -0.5302 -1.1832
  746TMC3    C711031   0.407   3.393  11.143 -0.0259 -0.3290 -0.0275
  746TMC3    C811032   0.510   3.361  10.703  0.0464 -0.4089  0.4086
  746TMC3    O111033   0.291   3.436  11.169 -0.0563 -0.4721  0.0596
  746TMC3    O211034   0.480   3.246  10.734  0.1419 -0.0566  0.1112
  747TMC3    C111035   2.628   3.146  11.462  0.3560 -0.6891  0.4727
  747TMC3    C211036   2.523   3.118  11.553  0.0673  1.1933 -0.5395
  747TMC3    C311037   2.446   3.221  11.604 -0.4590  0.4139  0.0417
  747TMC3    C411038   2.660   3.275  11.434 -0.4601  0.5756 -0.2481
  747TMC3    C511039   2.574   3.372  11.487  0.5121 -0.5656  0.5473
  747TMC3    C611040   2.477   3.349  11.575  0.3308  0.2844 -0.1535
  747TMC3     C11041   2.698   3.031  11.394  0.2033  0.2898  0.8106
  747TMC3     O11042   2.645   2.923  11.384  0.4201  0.3186 -0.7592
  747TMC3     H11043   2.489   3.017  11.570 -1.5618  1.7565 -0.4743
  747TMC3    H111044   2.735   3.302  11.361  1.3159 -0.7109  1.0945
  747TMC3    H211045   2.429   3.438  11.613 -0.5624 -0.3715  0.2395
  747TMC3    C711046   2.584   3.505  11.432 -0.5711  0.1081 -0.5106
  747TMC3    C811047   2.338   3.191  11.699  0.8494  0.1203  0.0658
  747TMC3    O111048   2.540   3.593  11.502 -0.7398  0.1968  0.1431
  747TMC3    O211049   2.293   3.082  11.707  0.9437  0.1482 -0.1430
  748MPD2     C11050   3.903   0.753   2.204 -0.5112  0.2375  0.5288
  748MPD2    C111051   3.893   0.686   2.088  0.3284 -0.0037  0.2516
  748MPD2    C211052   4.006   0.611   2.058  0.7803 -0.5152  0.5799
  748MPD2    C311053   4.126   0.626   2.126 -0.0194  0.0677 -0.2216
  748MPD2    C411054   4.130   0.703   2.245 -0.5523 -0.6097 -0.2321
  748MPD2    C511055   4.011   0.764   2.287 -0.0029 -0.4514 -0.0282
  748MPD2     H11056   4.015   0.550   1.968 -0.2900  0.1626  0.0177
  748MPD2    H111057   4.223   0.718   2.299 -0.0169 -1.2014 -0.9739
  748MPD2    H211058   3.812   0.798   2.243 -1.6297 -0.4513 -1.2753
  748MPD2    H311059   4.004   0.815   2.382  0.0806 -0.9296  0.2371
  748MPD2     N11060   4.242   0.557   2.075 -0.2375 -0.3767  0.4744
  748MPD2    H511061   4.225   0.513   1.985 -1.5478  0.4300  0.3151
  748MPD2    N111062   3.766   0.687   2.018  0.3327  0.7799 -0.8792
  748MPD2    H711063   3.692   0.749   2.048 -1.5000 -0.8959 -1.9593
  749TMC3    C111064   4.472   0.519   2.039  0.7565 -0.6811 -0.3212
  749TMC3    C211065   4.593   0.513   2.092 -0.7462 -0.3825 -0.1759
  749TMC3    C311066   4.693   0.476   2.000  0.3923 -0.2282  0.2672
  749TMC3    C411067   4.442   0.493   1.910 -0.2451  0.2936  0.4277
  749TMC3    C511068   4.544   0.467   1.821 -0.5491  0.3325 -0.3140
  749TMC3    C611069   4.673   0.458   1.863 -0.1635 -0.1231  0.3752
  749TMC3     C11070   4.372   0.558   2.128 -0.1796  0.5995  0.5404
  749TMC3     O11071   4.410   0.589   2.237  0.2396  0.7946  0.3581
  749TMC3     H11072   4.625   0.542   2.192 -0.3236 -3.0119  0.4600
  749TMC3    H111073   4.344   0.511   1.866  1.4546  1.2383 -2.9253
  749TMC3    H211074   0.031   0.429   1.794  0.4270  2.7543 -0.1737
  749TMC3    C711075   4.520   0.472   1.684  0.5018  0.4162 -0.3569
  749TMC3    C811076   0.103   0.459   2.062 -0.5862 -0.8161  0.3518
  749TMC3    O111077   4.612   0.500   1.606 -0.5651 -0.3053 -0.2979
  749TMC3    O211078   0.113   0.502   2.174  0.2882 -0.2047  0.1127
  750MPD2     C11079   0.527   0.916  10.856  0.0267 -0.0298  0.3840
  750MPD2    C111080   0.399   0.883  10.904 -0.0296  0.0805  0.1111
  750MPD2    C211081   0.321   0.779  10.850  0.4071  0.2180 -0.0641
  750MPD2    C311082   0.377   0.699  10.749 -0.6789 -0.3548 -0.2136
  750MPD2    C411083   0.499   0.743  10.695  0.2469 -0.1364  0.5235
  750MPD2    C511084   0.572   0.842  10.751 -0.2095  0.2780  0.1371
  750MPD2     H11085   0.224   0.760  10.893  1.3351 -2.3196  0.9249
  750MPD2    H111086   0.539   0.685  10.612 -0.3288  0.1172  0.0698
  750MPD2    H211087   0.587   0.994  10.903  0.2787  1.5341 -2.5810
  750MPD2    H311088   0.680   0.849  10.736  0.4884 -1.2035  4.5408
  750MPD2     N11089   0.328   0.573  10.699 -0.0985  0.8253  0.1946
  750MPD2    H511090   0.383   0.528  10.627 -0.4363  0.7087  0.0070
  750MPD2    N111091   0.363   0.951  11.019 -0.5726  0.2232 -0.6216
  750MPD2    H711092   0.437   1.001  11.067 -0.6407 -1.5655  1.3737
  751TMC3    C111093   0.167   0.406  10.655 -0.3564  0.7932 -0.0100
  751TMC3    C211094   0.041   0.359  10.681 -0.3183  0.3366 -0.0781
  751TMC3    C311095   0.001   0.254  10.604 -0.2874 -0.7282  0.1724
  751TMC3    C411096   0.256   0.343  10.567  0.5090 -0.5370  0.7233
  751TMC3    C511097   0.203   0.240  10.493  0.4000 -0.5022 -0.1733
  751TMC3    C611098   0.075   0.193  10.509 -0.4798  0.3121 -0.1563
  751TMC3     C11099   0.203   0.525  10.729  0.1928 -0.0118  0.0587
  751TMC3     O11100   0.139   0.557  10.824  0.3014  0.1758  0.0541
  751TMC3     H11101   4.687   0.411  10.738 -1.5343 -1.2689 -0.2094
  751TMC3    H111102   0.362   0.366  10.559 -0.1072  2.5264  1.1504
  751TMC3    H211103   0.037   0.109  10.452 -0.8463  0.2152  0.2325
  751TMC3    C711104   0.300   0.164  10.428 -0.1658 -0.5389 -0.1003
  751TMC3    C811105   4.627   0.162  10.666 -0.0178  0.4159 -0.9559
  751TMC3    O111106   0.405   0.218  10.396  0.3080 -0.3965  0.2046
  751TMC3    O211107   4.571   0.079  10.592  0.8783  1.0783  0.5085
  752TMC3    C111108   4.157   0.708  17.187 -0.9141 -0.5694 -0.1939
  752TMC3    C211109   4.026   0.733  17.223 -0.1554  1.2109  0.1706
  752TMC3    C311110   3.990   0.707  17.354 -0.0170 -0.5640  0.3352
  752TMC3    C411111   4.250   0.653  17.276 -0.7147 -0.6765 -0.0875
  752TMC3    C511112   4.203   0.631  17.410 -0.3610 -0.4257 -0.4060
  752TMC3    C611113   4.076   0.664  17.454 -0.4211 -0.4128  0.1105
  752TMC3     C11114   4.205   0.762  17.064  0.3602  0.1099 -0.2031
  752TMC3     O11115   4.326   0.748  17.042  0.1623  0.4106  0.1464
  752TMC3     H11116   3.951   0.756  17.148 -1.2977  1.6334  1.4415
  752TMC3    H111117   4.354   0.635  17.250 -0.9348 -1.3508 -0.4870
  752TMC3    H211118   4.040   0.635  17.552  0.5136  0.6126  0.7668
  752TMC3    C711119   4.296   0.580  17.508 -0.3794  0.2142 -0.0063
  752TMC3    C811120   3.846   0.723  17.385 -0.2737  0.2726 -0.2608
  752TMC3    O111121   4.277   0.598  17.627  0.1943  0.2409  0.7421
  752TMC3    O211122   3.776   0.760  17.294 -1.1200  0.2690 -0.3315
  753TMC3    C111123   1.131   2.139  13.447  0.4448  0.1270 -0.3251
  753TMC3    C211124   1.155   2.114  13.582  1.0484  0.7087  0.6727
  753TMC3    C311125   1.138   1.986  13.631  0.7281 -0.0209  0.4304
  753TMC3    C411126   1.085   2.041  13.366 -0.6876 -0.5221  0.3655
  753TMC3    C511127   1.073   1.913  13.416  0.1693 -1.0895 -0.3118
  753TMC3    C611128   1.095   1.883  13.550  0.9811  0.4230  0.1797
  753TMC3     C11129   1.144   2.269  13.392 -0.3199 -0.6639 -0.7537
  753TMC3     O11130   1.074   2.295  13.294 -0.1442 -0.8438  0.1311
  753TMC3     H11131   1.186   2.197  13.645  0.5126  0.6068  1.0706
  753TMC3    H111132   1.058   2.058  13.262 -1.8541  0.9977  0.9185
  753TMC3    H211133   1.109   1.780  13.580 -1.4002  0.2484  0.7100
  753TMC3    C711134   1.044   1.806  13.329 -0.1780  0.6870 -0.2889
  753TMC3    C811135   1.211   1.942  13.750  0.5080 -0.1582  0.2360
  753TMC3    O111136   1.049   1.846  13.210  0.2486  0.2478 -0.0473
  753TMC3    O211137   1.201   1.824  13.780  0.1371  0.3705 -0.2599
  754MPD2     C11138   4.607   0.442  12.610 -0.5331  0.6654  0.1958
  754MPD2    C111139   4.595   0.328  12.691 -0.8485  0.3134  0.2305
  754MPD2    C211140   4.479   0.260  12.703 -0.0032  0.1456 -0.0251
  754MPD2    C311141   4.372   0.296  12.619  0.7066  0.6199  1.1130
  754MPD2    C411142   4.374   0.410  12.545  0.1244  0.2612  0.3515
  754MPD2    C511143   4.487   0.483  12.549 -0.4857 -0.6694  0.5178
  754MPD2     H11144   4.473   0.168  12.760  0.5905  1.5969  2.4006
  754MPD2    H111145   4.293   0.438  12.480 -0.2704  0.6579  1.0079
  754MPD2    H211146   4.698   0.498  12.595  0.9949 -1.9692 -0.3015
  754MPD2    H311147   4.489   0.579  12.498 -1.3027 -1.6608 -1.3538
  754MPD2     N11148   4.250   0.226  12.610  0.2664 -0.3245 -0.4190
  754MPD2    H511149   4.168   0.255  12.558 -0.3806  0.0665  0.8016
  754MPD2    N111150   4.705   0.267  12.758  0.6237  0.3533  0.6997
  754MPD2    H711151   4.692   0.168  12.777  1.3838  0.0881 -0.1713
  755MPD2     C11152   3.816   0.745  13.136  0.5251 -0.4810 -0.2748
  755MPD2    C111153   3.708   0.664  13.099  0.2168  0.3345  0.0555
  755MPD2    C211154   3.730   0.545  13.025  0.3431 -0.2138  0.3633
  755MPD2    C311155   3.860   0.509  12.989 -0.0639  0.8196 -0.1191
  755MPD2    C411156   3.965   0.595  13.025 -0.6017  0.1033  0.7019
  755MPD2    C511157   3.932   0.713  13.088  0.1277  0.1433  0.0161
  755MPD2     H11158   3.645   0.480  13.006 -0.8836  0.6826  2.7255
  755MPD2    H111159   4.068   0.584  12.994 -0.9796  0.3528 -0.6763
  755MPD2    H211160   3.820   0.833  13.198  2.7743  0.8617 -2.3241
  755MPD2    H311161   4.013   0.781  13.113 -2.4263  2.6799  1.3453
  755MPD2     N11162   3.892   0.395  12.918 -0.1817  0.0188  0.2766
  755MPD2    H511163   3.992   0.376  12.914 -0.1662  0.0576  0.4974
  755MPD2    N111164   3.576   0.694  13.157 -0.6998  0.3620 -0.4192
  755MPD2    H711165   3.505   0.625  13.135  0.0528 -0.7451  0.6136
  756MPD2     C11166   0.861   0.845   9.053 -0.4482 -0.2782 -0.2820
  756MPD2    C111167   0.753   0.873   9.130  0.4911 -0.1676 -0.1914
  756MPD2    C211168   0.629   0.903   9.073  0.5485 -0.0284 -0.0354
  756MPD2    C311169   0.620   0.927   8.940 -0.1915  0.5163 -0.3961
  756MPD2    C411170   0.729   0.900   8.857  0.4164 -0.8812  0.3523
  756MPD2    C511171   0.841   0.851   8.914 -0.2365 -0.7849 -0.3275
  756MPD2     H11172   0.542   0.926   9.133 -0.5704 -1.4997 -1.0777
  756MPD2    H111173   0.720   0.926   8.752  1.8517  0.6146  0.6011
  756MPD2    H211174   0.956   0.811   9.092 -0.4300 -0.9283 -0.8909
  756MPD2    H311175   0.927   0.830   8.851  0.9885 -0.5151  1.2619
  756MPD2     N11176   0.490   0.958   8.891 -0.0893 -0.0269  0.1135
  756MPD2    H511177   0.415   0.983   8.954  0.9896  0.0828  1.3370
  756MPD2    N111178   0.759   0.860   9.270 -0.1292 -0.5318 -0.8333
  756MPD2    H711179   0.679   0.887   9.327 -0.7269  0.4748 -2.1434
  757MPD2     C11180   4.464   0.518   8.881  0.3048  0.7113  0.7019
  757MPD2    C111181   4.560   0.522   8.983 -0.6107  0.0481 -0.2198
  757MPD2    C211182   4.636   0.635   8.985  0.8577  0.1973  0.7486
  757MPD2    C311183   4.624   0.732   8.887 -0.4632  0.5837  0.1629
  757MPD2    C411184   4.520   0.730   8.792 -0.0086  0.4729 -0.0258
  757MPD2    C511185   4.444   0.620   8.797 -0.3083 -0.5082  0.0668
  757MPD2     H11186   4.719   0.642   9.055  0.6237 -0.5088  1.0957
  757MPD2    H111187   4.499   0.804   8.715 -0.3987  0.9634  0.5541
  757MPD2    H211188   4.401   0.430   8.890 -1.1280  1.5127 -1.3016
  757MPD2    H311189   4.362   0.608   8.727 -0.4407  0.9219 -0.0209
  757MPD2     N11190   4.719   0.840   8.883  0.9026 -0.4783 -0.1325
  757MPD2    H511191   0.066   0.843   8.959 -1.4024 -1.9976  1.9903
  757MPD2    N111192   4.570   0.415   9.072 -0.4619 -0.5756  0.6541
  757MPD2    H711193   4.508   0.336   9.055 -1.1356 -0.3651  2.1515
  758MPD2     C11194   4.500   0.401  15.945  0.2075 -0.1349 -0.1817
  758MPD2    C111195   4.586   0.351  16.047 -0.0902 -0.4337 -1.1591
  758MPD2    C211196   4.558   0.386  16.177 -0.0583 -0.3444  0.8215
  758MPD2    C311197   4.450   0.467  16.205  0.0794  0.1731 -0.1049
  758MPD2    C411198   4.374   0.514  16.110  0.1143 -0.1898  0.2613
  758MPD2    C511199   4.400   0.487  15.979 -0.0521  0.2236 -0.7357
  758MPD2     H11200   4.620   0.338  16.253  0.7951 -0.3574  0.1151
  758MPD2    H111201   4.289   0.579  16.130  0.7451 -0.0449  2.4702
  758MPD2    H211202   4.519   0.379  15.841  1.9361 -1.0744  0.3245
  758MPD2    H311203   4.333   0.521  15.901 -2.8366  0.7624  1.8698
  758MPD2     N11204   4.421   0.488  16.343  0.9043 -0.5217 -0.0603
  758MPD2    H511205   4.333   0.538  16.346  0.4313 -1.2596 -1.2599
  758MPD2    N111206   4.703   0.274  16.026 -0.6394 -0.0415  0.8637
  758MPD2    H711207   0.038   0.256  16.108 -0.6986  2.5888  1.4796
  759MPD2     C11208   4.414   2.696  10.356  0.3398  0.2237 -0.0396
  759MPD2    C111209   4.308   2.670  10.273  0.3870 -0.2453  0.7025
  759MPD2    C211210   4.279   2.764  10.171 -0.0024 -0.1860  0.2851
  759MPD2    C311211   4.347   2.884  10.157 -0.2468  0.0154 -0.3465
  759MPD2    C411212   4.460   2.900  10.233 -0.4965  0.0149  0.1521
  759MPD2    C511213   4.492   2.805  10.330 -0.0847  0.5628  0.6000
  759MPD2     H11214   4.203   2.737  10.098  0.5814 -0.4061 -0.2379
  759MPD2    H111215   4.518   2.992  10.235 -1.5113  0.6707 -0.7257
  759MPD2    H211216   4.441   2.633  10.439 -1.7145 -1.6428 -0.8093
  759MPD2    H311217   4.580   2.810  10.392 -0.2716  0.4999  0.8702
  759MPD2     N11218   4.294   2.970  10.063  0.3609  0.0328 -0.5020
  759MPD2    H511219   4.219   2.931  10.007 -0.6312  1.8174 -0.3887
  759MPD2    N111220   4.221   2.557  10.286 -0.1067  0.0489 -0.1476
  759MPD2    H711221   4.142   2.547  10.223  0.7958  0.0351 -1.2684
  760MPD2     C11222   3.318   0.940  11.947 -0.8850 -0.5513 -0.5847
  760MPD2    C111223   3.458   0.927  11.964 -0.7864  0.6002 -0.7779
  760MPD2    C211224   3.511   0.804  11.996 -0.5750 -0.2703  0.0991
  760MPD2    C311225   3.429   0.703  12.023 -0.2927  0.1970  0.8072
  760MPD2    C411226   3.293   0.723  12.019 -0.2779 -0.2383  0.5042
  760MPD2    C511227   3.233   0.840  11.976  0.2375 -0.2739 -0.1467
  760MPD2     H11228   3.620   0.801  11.998 -0.5199  1.1855 -0.8194
  760MPD2    H111229   3.225   0.645  12.051  1.7010 -1.4309  1.7758
  760MPD2    H211230   3.272   1.036  11.929 -0.2780 -0.3431 -1.0288
  760MPD2    H311231   3.125   0.838  11.985  0.3339  2.7329  2.1411
  760MPD2     N11232   3.476   0.580  12.061  0.4722 -0.0565  0.9050
  760MPD2    H511233   3.401   0.511  12.069 -0.7268  0.8833 -2.3263
  760MPD2    N111234   3.547   1.029  11.924 -0.4923  0.6405  0.5394
  760MPD2    H711235   3.647   1.012  11.929 -0.8065 -1.5177 -0.5227
  761MPD2     C11236   4.563   4.605  11.081  1.2066  0.4390  0.1227
  761MPD2    C111237   4.567   4.567  10.951 -0.4330  0.5936  0.0911
  761MPD2    C211238   4.602   4.667  10.859  0.7539  0.8520 -0.1587
  761MPD2    C311239   4.616   0.076  10.894  0.6682  0.1699 -0.0845
  761MPD2    C411240   4.609   0.106  11.030 -0.1138 -0.1370  0.9894
  761MPD2    C511241   4.587   0.010  11.120  0.1860  0.5268  0.5341
  761MPD2     H11242   4.626   4.646  10.756  1.5813  5.7004 -0.9339
  761MPD2    H111243   4.629   0.204  11.072 -2.5515  0.6986  0.2039
  761MPD2    H211244   4.539   4.533  11.159  0.7109 -1.1959 -1.5594
  761MPD2    H311245   4.591   0.026  11.227 -0.2317  0.7722  0.5132
  761MPD2     N11246   4.634   0.174  10.804 -0.4448  0.3545  0.4211
  761MPD2    H511247   4.655   0.267  10.839  1.0255  0.2340 -0.1513
  761MPD2    N111248   4.566   4.424  10.925 -0.7031 -0.1663 -0.1444
  761MPD2    H711249   4.525   4.363  10.995 -0.1594 -1.2663 -0.7926
  762MPD2     C11250   0.049   3.608  10.571  0.1070 -0.2502  0.3980
  762MPD2    C111251   0.119   3.726  10.594  0.5396 -0.0694  0.1394
  762MPD2    C211252   0.238   3.747  10.527  0.5296  0.0151  0.3365
  762MPD2    C311253   0.289   3.650  10.435  0.2261 -0.0753  0.1065
  762MPD2    C411254   0.217   3.531  10.418  0.2229 -0.3083 -1.1085
  762MPD2    C511255   0.099   3.513  10.488 -0.6629 -0.3673  0.1170
  762MPD2     H11256   0.296   3.838  10.541 -0.6183  0.5608  1.5355
  762MPD2    H111257   0.260   3.441  10.376 -1.0338 -0.5415 -1.8784
  762MPD2    H211258   4.681   3.577  10.625 -0.4073 -0.0523 -0.3370
  762MPD2    H311259   0.035   3.426  10.481  0.0932 -0.9862  0.9406
  762MPD2     N11260   0.415   3.663  10.364  0.2947  0.0120 -0.5740
  762MPD2    H511261   0.428   3.585  10.300 -1.5456 -0.4451 -0.4051
  762MPD2    N111262   0.061   3.816  10.682  0.3103  0.6964 -0.6381
  762MPD2    H711263   4.701   3.786  10.736  0.0494 -0.5559 -1.7372
  763MPD2     C11264   1.536   0.291  16.196  0.8631  0.0837  0.9110
  763MPD2    C111265   1.652   0.328  16.143  0.7957 -0.1125  0.8993
  763MPD2    C211266   1.708   0.447  16.197  0.7845 -0.3621  0.6820
  763MPD2    C311267   1.645   0.525  16.291  0.5054 -0.0292 -0.4201
  763MPD2    C411268   1.517   0.488  16.336  0.5711  0.1483  0.7558
  763MPD2    C511269   1.465   0.376  16.278 -0.4614 -0.4043  0.0296
  763MPD2     H11270   1.804   0.472  16.153 -0.0766  1.9609  0.1361
  763MPD2    H111271   1.462   0.544  16.412 -1.2436  0.5118 -0.8311
  763MPD2    H211272   1.489   0.197  16.170  1.7092  0.3214 -1.5149
  763MPD2    H311273   1.377   0.332  16.323 -0.2599 -0.3347  0.4885
  763MPD2     N11274   1.705   0.650  16.340  0.7976  0.5743  0.4168
  763MPD2    H511275   1.650   0.714  16.396 -0.1172 -0.9938  1.3205
  763MPD2    N111276   1.714   0.254  16.042  0.4197  0.1392 -0.7213
  763MPD2    H711277   1.804   0.289  16.013  0.8213 -1.1096 -0.9935
  764MPD2     C11278   3.917   2.179  17.561 -1.3067 -0.3009  0.4879
  764MPD2    C111279   4.022   2.162  17.471  0.4364 -0.2798  0.1796
  764MPD2    C211280   4.130   2.095  17.517  0.1171 -0.0271 -0.8140
  764MPD2    C311281   4.135   2.041  17.643 -0.2705  0.3013  0.2748
  764MPD2    C411282   4.028   2.055   0.041 -0.6604  0.4968  0.1356
  764MPD2    C511283   3.922   2.132   0.004  0.2193 -0.0433  0.9199
  764MPD2     H11284   4.221   2.080  17.460  0.2694  0.6996 -0.7605
  764MPD2    H111285   4.025   2.028   0.146 -0.1315 -0.2199 -0.0332
  764MPD2    H211286   3.821   2.226  17.539 -1.4904  0.1464  2.2528
  764MPD2    H311287   3.847   2.161   0.076 -2.9594 -1.7387 -1.7109
  764MPD2     N11288   4.252   1.969  17.676 -0.1123 -0.7059  0.3056
  764MPD2    H511289   4.334   1.992  17.621  0.6511 -1.7481  1.0084
  764MPD2    N111290   4.018   2.207  17.338  0.1742 -0.5055  0.2862
  764MPD2    H711291   4.093   2.186  17.274  1.2714  3.1728  0.3613
  765MPD2     C11292   4.104   4.446  16.125  0.0453 -0.4945  0.0118
  765MPD2    C111293   4.193   4.521  16.053 -0.8509 -0.4016 -0.4825
  765MPD2    C211294   4.317   4.477  16.034 -0.0475  0.0840  0.2576
  765MPD2    C311295   4.358   4.362  16.091  0.2734 -0.0164 -0.0495
  765MPD2    C411296   4.273   4.278  16.169 -0.0084 -0.7948 -0.3960
  765MPD2    C511297   4.142   4.321  16.176  0.0215 -0.3309  0.9147
  765MPD2     H11298   4.380   4.523  15.960  0.0271 -0.3663  0.0427
  765MPD2    H111299   4.303   4.182  16.210 -1.6331 -0.7484  0.9311
  765MPD2    H211300   4.008   4.485  16.157  0.8131  1.3427  0.0168
  765MPD2    H311301   4.060   4.265  16.219 -1.0275 -0.4463 -1.2637
  765MPD2     N11302   4.491   4.321  16.056  0.1875 -0.2280  0.0900
  765MPD2    H511303   4.560   4.392  16.035  2.6879 -2.6397  0.1938
  765MPD2    N111304   4.147   4.643  16.008 -0.5893 -0.4364  0.1212
  765MPD2    H711305   4.049   4.664  16.023  0.2108  1.3331  2.8165
  766MPD2     C11306   3.886   4.470  15.314  0.6014 -0.1409 -0.2514
  766MPD2    C111307   3.989   4.562  15.315 -0.2864 -0.7433  0.5736
  766MPD2    C211308   4.072   4.564  15.202  0.1936  0.7961  0.3384
  766MPD2    C311309   4.049   4.490  15.092  0.0747  0.1355  0.4173
  766MPD2    C411310   3.938   4.414  15.085 -0.4576 -0.1150  0.3133
  766MPD2    C511311   3.861   4.393  15.194 -0.0608 -0.5355  0.4830
  766MPD2     H11312   4.161   4.626  15.196 -0.5454  1.6870 -1.3920
  766MPD2    H111313   3.919   4.360  14.993 -0.0808 -0.1357  0.2450
  766MPD2    H211314   3.827   4.448  15.403  1.0976 -1.5662 -0.2699
  766MPD2    H311315   3.779   4.322  15.196  0.3020 -0.9708 -0.3112
  766MPD2     N11316   4.133   4.498  14.978  0.2761 -0.0982 -0.3501
  766MPD2    H511317   4.093   4.457  14.894  0.5122 -0.9202 -0.0627
  766MPD2    N111318   4.019   4.642  15.425  0.1554 -0.1514  0.7832
  766MPD2    H711319   4.100   4.700  15.406  0.4720 -1.1810 -0.9996
  767MPD2     C11320   3.750   4.612  14.926 -0.3357  0.0401  0.0383
  767MPD2    C111321   3.838   4.714  14.879 -0.8595  0.3307 -0.0155
  767MPD2    C211322   3.878   4.702  14.747 -0.2996 -0.4772  0.0378
  767MPD2    C311323   3.844   4.590  14.670 -0.0026  0.4680  0.4266
  767MPD2    C411324   3.761   4.493  14.722  0.0702  0.7927  0.1290
  767MPD2    C511325   3.710   4.502  14.851 -0.0112  0.6034 -0.2573
  767MPD2     H11326   3.933   0.065  14.707  2.8795 -1.6500  1.9224
  767MPD2    H111327   3.733   4.406  14.665 -2.4028  1.5754  0.1342
  767MPD2    H211328   3.703   4.623  15.023  0.2218 -1.8803  0.5262
  767MPD2    H311329   3.640   4.435  14.900 -1.4146  1.7893 -0.6253
  767MPD2     N11330   3.898   4.576  14.541  0.8282  0.0025 -0.2311
  767MPD2    H511331   3.977   4.637  14.521  2.3879 -1.1649  2.3108
  767MPD2    N111332   3.864   0.098  14.965 -0.0689  0.1731 -0.1533
  767MPD2    H711333   3.832   0.093  15.061 -0.0092 -0.1612 -0.1536
  768MPD2     C11334   0.346   2.831  10.544 -0.5570  0.3538 -0.5103
  768MPD2    C111335   0.326   2.801  10.677 -0.2778 -0.8176  0.3210
  768MPD2    C211336   0.419   2.844  10.769  0.1528 -0.0859 -0.4281
  768MPD2    C311337   0.538   2.912  10.735  0.8183 -0.5456 -0.8767
  768MPD2    C411338   0.546   2.944  10.600  0.4990 -0.0048 -0.0990
  768MPD2    C511339   0.452   2.907  10.508  0.2003 -0.0507  0.2490
  768MPD2     H11340   0.408   2.829  10.876 -1.8853  1.0720 -0.4806
  768MPD2    H111341   0.630   3.007  10.572 -0.5917  2.1574  1.4598
  768MPD2    H211342   0.278   2.815  10.461  0.0316  3.2261 -1.5303
  768MPD2    H311343   0.468   2.935  10.404 -1.4212 -0.6826 -0.1728
  768MPD2     N11344   0.647   2.937  10.825 -0.3952 -0.2636 -0.2771
  768MPD2    H511345   0.713   3.007  10.794 -1.8799  1.5723  0.7503
  768MPD2    N111346   0.205   2.747  10.732  0.3442  0.3309  0.0571
  768MPD2    H711347   0.197   2.748  10.833  0.0905  1.7820  0.0295
  769MPD2     C11348   1.084   1.525  14.763 -0.0124  0.2671  0.0463
  769MPD2    C111349   1.010   1.593  14.852  0.6606 -0.4978  0.2117
  769MPD2    C211350   1.081   1.628  14.964  0.2187  0.0404  0.0140
  769MPD2    C311351   1.203   1.572  14.997 -0.9773 -0.9391 -0.3567
  769MPD2    C411352   1.278   1.502  14.904 -0.1251  0.0146 -0.5014
  769MPD2    C511353   1.214   1.478  14.787 -0.1834 -0.7254 -0.1446
  769MPD2     H11354   1.030   1.690  15.037 -3.1845 -1.5150 -1.0466
  769MPD2    H111355   1.368   1.444  14.915 -1.6587 -2.3804 -0.6271
  769MPD2    H211356   1.035   1.495  14.671  1.2249  2.3163 -1.2852
  769MPD2    H311357   1.261   1.426  14.704  1.1796  1.1473 -0.5374
  769MPD2     N11358   1.258   1.591  15.122  0.2704 -0.2539 -0.1757
  769MPD2    H511359   1.201   1.648  15.184  1.3709  1.2172 -0.5311
  769MPD2    N111360   0.876   1.621  14.833  0.2504 -0.5717  0.1390
  769MPD2    H711361   0.835   1.593  14.744 -0.4506  0.2504  0.2121
  770MPD2     C11362   0.170   1.117  15.334 -0.3052  0.1446  0.1824
  770MPD2    C111363   0.231   1.065  15.221 -0.0204 -0.7427 -0.1593
  770MPD2    C211364   0.280   1.163  15.136 -0.3724 -0.6322  0.6192
  770MPD2    C311365   0.287   1.301  15.166  0.5678 -1.2830  0.1583
  770MPD2    C411366   0.236   1.345  15.286  0.0511  0.1874  0.3200
  770MPD2    C511367   0.172   1.249  15.368  0.9130 -0.0612 -0.5947
  770MPD2     H11368   0.316   1.143  15.035  1.4870 -2.0993  1.5694
  770MPD2    H111369   0.228   1.451  15.303 -0.1350  0.2281 -0.0146
  770MPD2    H211370   0.132   1.042  15.403  1.6921  0.2426  1.3814
  770MPD2    H311371   0.132   1.269  15.467  0.0567 -2.2668 -0.4807
  770MPD2     N11372   0.345   1.385  15.070 -0.6213  0.1784 -0.4701
  770MPD2    H511373   0.375   1.353  14.978 -0.4528 -1.6608  0.2402
  770MPD2    N111374   0.250   0.927  15.203 -0.9198 -1.3796  0.1627
  770MPD2    H711375   0.216   0.862  15.274 -0.5023 -0.0659  1.5559
  771MPD2     C11376   2.014   3.796  13.565 -0.2232  0.5789  0.2087
  771MPD2    C111377   1.938   3.904  13.547 -0.2763  0.5816 -0.3513
  771MPD2    C211378   1.811   3.889  13.502  0.7482  0.1187 -0.4647
  771MPD2    C311379   1.757   3.767  13.465  0.3968  0.3421 -0.3488
  771MPD2    C411380   1.833   3.655  13.481 -0.1712  0.1540  0.6837
  771MPD2    C511381   1.960   3.674  13.528 -0.4055 -0.2254 -0.7820
  771MPD2     H11382   1.753   3.980  13.490 -1.0164 -0.8094  1.0132
  771MPD2    H111383   1.805   3.554  13.454  0.3819 -0.0073  0.7251
  771MPD2    H211384   2.116   3.800  13.604  0.0783  0.6283 -0.5908
  771MPD2    H311385   2.021   3.585  13.541 -0.3984 -0.1398 -0.2343
  771MPD2     N11386   1.623   3.772  13.411  0.7421  0.0221  0.0814
  771MPD2    H511387   1.581   3.862  13.391 -0.8248 -0.5513  0.8291
  771MPD2    N111388   1.981   4.035  13.562  1.0998  0.2049  0.5445
  771MPD2    H711389   1.916   4.109  13.536 -2.5727 -2.4724  2.1494
  772MPD2     C11390   1.680   4.651  13.717  0.1775 -0.4434 -0.1446
  772MPD2    C111391   1.676   4.533  13.647 -0.4134 -0.1229  0.0182
  772MPD2    C211392   1.560   4.460  13.634  0.1842 -0.3576 -0.3785
  772MPD2    C311393   1.441   4.509  13.694 -0.4039 -0.0017  0.2811
  772MPD2    C411394   1.446   4.632  13.756 -0.6547  0.0258  0.7264
  772MPD2    C511395   1.565   4.693  13.774  0.4988  0.2127  0.0472
  772MPD2     H11396   1.557   4.361  13.591  0.6247  0.7978 -3.0803
  772MPD2    H111397   1.359   4.677  13.801 -1.6665 -0.0332 -1.1653
  772MPD2    H211398   1.762   4.704  13.764 -1.1773  0.5005  1.1619
  772MPD2    H311399   1.565   0.062  13.834  1.2531 -0.2955  0.8203
  772MPD2     N11400   1.326   4.442  13.689  0.2084  0.2171  0.3728
  772MPD2    H511401   1.248   4.477  13.744  0.1799  0.3597  0.2430
  772MPD2    N111402   1.793   4.469  13.605 -0.0745 -0.1013 -0.5231
  772MPD2    H711403   1.788   4.385  13.548 -1.5801  0.7862 -1.7126
  773MPD2     C11404   0.875   1.163   0.223 -0.3511 -0.3399 -0.4679
  773MPD2    C111405   0.844   1.075   0.116  0.2562  0.4867 -0.0876
  773MPD2    C211406   0.890   0.946   0.116  0.2847 -0.2707 -0.1249
  773MPD2    C311407   0.987   0.904   0.197 -0.2357 -0.6115  0.2924
  773MPD2    C411408   1.031   0.988   0.293  0.0641  0.0175  0.0015
  773MPD2    C511409   0.973   1.117   0.310  0.3825  0.7046 -0.5045
  773MPD2     H11410   0.847   0.878   0.043  0.0124  1.4431 -1.5514
  773MPD2    H111411   1.105   0.967   0.369 -0.6597  0.6443  0.8951
  773MPD2    H211412   0.822   1.256   0.242  0.1153 -0.1628 -0.0582
  773MPD2    H311413   1.006   1.190   0.383  1.7661 -0.5749  0.1609
  773MPD2     N11414   1.030   0.765   0.191 -0.3167 -0.7453  0.6855
  773MPD2    H511415   0.975   0.709   0.127  0.3020 -0.3188 -0.2219
  773MPD2    N111416   0.732   1.101   0.023  0.6357 -0.2356 -0.9172
  773MPD2    H711417   0.709   1.027  17.644  0.5789  0.4483 -1.6750
  774MPD2     C11418   0.312   4.114  13.072 -0.1250  0.3328 -0.3272
  774MPD2    C111419   0.217   4.162  13.153 -0.0091  0.5524 -0.0774
  774MPD2    C211420   0.173   4.289  13.138  0.3068  0.3502  0.3893
  774MPD2    C311421   0.238   4.374  13.050  0.5799 -0.0306 -0.2669
  774MPD2    C411422   0.334   4.321  12.968 -0.4533 -0.4925 -1.0996
  774MPD2    C511423   0.368   4.195  12.973  0.2986 -0.0315  0.2098
  774MPD2     H11424   0.086   4.321  13.194  0.1287 -0.6805  0.7173
  774MPD2    H111425   0.382   4.374  12.885  0.3140 -0.5970 -0.7248
  774MPD2    H211426   0.344   4.010  13.073  1.0648  0.7084  0.8247
  774MPD2    H311427   0.445   4.156  12.908  1.1695  1.0328  0.6116
  774MPD2     N11428   0.213   4.518  13.062 -0.5748 -0.1812 -0.0672
  774MPD2    H511429   0.158   4.538  13.145 -2.1513 -0.4868 -1.0442
  774MPD2    N111430   0.171   4.071  13.258 -0.9285 -0.3433 -0.2404
  774MPD2    H711431   0.224   3.985  13.270  1.0652  0.8988 -0.1591
  775MPD2     C11432   1.272   1.235  15.867 -0.9358  0.2129 -0.3424
  775MPD2    C111433   1.273   1.372  15.879  0.4988  0.1092  0.0523
  775MPD2    C211434   1.382   1.452  15.848 -0.3553  1.0844  0.1024
  775MPD2    C311435   1.487   1.377  15.787  0.8879 -0.5416  0.6702
  775MPD2    C411436   1.490   1.239  15.785 -0.2733 -0.0226  0.3823
  775MPD2    C511437   1.385   1.164  15.829 -0.6119  0.1765  0.1226
  775MPD2     H11438   1.381   1.560  15.852 -0.2978  1.0667  0.6515
  775MPD2    H111439   1.585   1.192  15.764 -1.2353 -0.8541 -2.0581
  775MPD2    H211440   1.192   1.172  15.903 -0.0842 -0.0597  1.0499
  775MPD2    H311441   1.396   1.057  15.836  2.4391  0.3503 -2.1234
  775MPD2     N11442   1.592   1.439  15.727 -0.0433 -0.4784  0.0797
  775MPD2    H511443   1.677   1.394  15.696  0.7026  0.9757 -0.0178
  775MPD2    N111444   1.158   1.432  15.932  1.1762  0.2165 -0.0814
  775MPD2    H711445   1.079   1.380  15.969  0.5337  1.0813 -0.2320
  776MPD2     C11446   0.811   1.205  11.307 -0.1510  0.6235  0.2817
  776MPD2    C111447   0.703   1.262  11.363  0.5285  0.1478  0.4641
  776MPD2    C211448   0.706   1.384  11.416 -0.1881 -0.3944 -0.2390
  776MPD2    C311449   0.827   1.450  11.436 -0.0380  0.3884 -0.2237
  776MPD2    C411450   0.941   1.389  11.383 -0.2131  0.2791 -0.3647
  776MPD2    C511451   0.934   1.264  11.320  0.1822  0.2423  0.0851
  776MPD2     H11452   0.620   1.438  11.453  0.6949  1.4210 -0.8209
  776MPD2    H111453   1.035   1.441  11.402 -0.0371 -0.4363  0.6653
  776MPD2    H211454   0.803   1.113  11.252 -0.2589  0.8517 -0.0846
  776MPD2    H311455   1.025   1.216  11.286  0.6925 -1.0691  3.3288
  776MPD2     N11456   0.849   1.571  11.505  0.4006 -0.0015 -0.4978
  776MPD2    H511457   0.940   1.617  11.501  0.9394 -1.2480 -2.5017
  776MPD2    N111458   0.574   1.199  11.344 -0.9124 -0.2787  0.2635
  776MPD2    H711459   0.576   1.121  11.279 -2.2466 -0.6870  0.7128
  777MPD2     C11460   1.135   0.119   1.101  0.6713 -0.4726 -0.5180
  777MPD2    C111461   1.020   0.072   1.166  0.5337  0.6748 -0.0308
  777MPD2    C211462   0.951   4.696   1.097 -0.5914  0.3452  0.8626
  777MPD2    C311463   0.997   4.644   0.979  0.0593  0.2772 -0.7515
  777MPD2    C411464   1.103   4.700   0.912  0.0337 -0.2419  0.2179
  777MPD2    C511465   1.173   0.073   0.976 -0.4754  0.1426  0.1540
  777MPD2     H11466   0.862   4.662   1.149 -0.9771  1.3301  0.8562
  777MPD2    H111467   1.143   4.650   0.824  0.3296 -0.0739  0.2587
  777MPD2    H211468   1.192   0.202   1.141  0.6803 -0.0984 -1.3231
  777MPD2    H311469   1.273   0.098   0.943 -0.3883  1.6512  1.5318
  777MPD2     N11470   0.934   4.529   0.922 -0.0497 -0.1891  0.4053
  777MPD2    H511471   0.849   4.506   0.972 -0.8028 -0.8604 -1.1912
  777MPD2    N111472   0.993   0.120   1.294 -0.4148  0.6296 -0.1567
  777MPD2    H711473   1.070   0.170   1.336 -1.0783 -0.4185  2.2949
  778MPD2     C11474   1.794   4.123  14.748 -0.4576 -0.9873  0.3193
  778MPD2    C111475   1.772   3.999  14.691  0.0953  0.2867  0.0870
  778MPD2    C211476   1.809   3.976  14.562  0.2307  0.0853  0.2260
  778MPD2    C311477   1.867   4.074  14.485  0.0990  0.1838  0.2317
  778MPD2    C411478   1.907   4.192  14.544 -0.1415  0.1178 -0.5139
  778MPD2    C511479   1.863   4.220  14.676 -0.9858  0.5664 -0.0488
  778MPD2     H11480   1.777   3.883  14.516 -1.0665  0.7614 -0.2565
  778MPD2    H111481   1.968   4.266  14.494  0.3557 -0.1398 -0.2993
  778MPD2    H211482   1.764   4.147  14.849 -0.6645 -0.0308  0.0237
  778MPD2    H311483   1.887   4.318  14.718 -2.8053  1.6212 -1.4726
  778MPD2     N11484   1.896   4.028  14.358  0.7710  0.1835  0.6988
  778MPD2    H511485   1.861   3.937  14.331  0.1498  1.6627 -3.4830
  778MPD2    N111486   1.688   3.898  14.748 -0.7223 -0.5641  0.3479
  778MPD2    H711487   1.659   3.821  14.688 -0.2633  0.2197 -0.8659
  779MPD2     C11488   1.579   3.008  14.452  0.0724 -0.9172 -1.1217
  779MPD2    C111489   1.558   2.938  14.332 -0.5494  0.1973  0.5104
  779MPD2    C211490   1.503   3.002  14.218 -0.2415  0.1884  0.3123
  779MPD2    C311491   1.458   3.134  14.228 -0.4725  0.0534  0.3394
  779MPD2    C411492   1.470   3.199  14.352 -0.5902  0.0368  0.1262
  779MPD2    C511493   1.522   3.135  14.460  0.1977  0.5696  0.6895
  779MPD2     H11494   1.492   2.956  14.121 -0.5450 -2.2686  1.4815
  779MPD2    H111495   1.413   3.291  14.364 -0.7721 -0.1361  0.5852
  779MPD2    H211496   1.627   2.969  14.541 -1.0185  1.1689  0.3669
  779MPD2    H311497   1.519   3.183  14.557  3.2891 -0.2880  1.1950
  779MPD2     N11498   1.428   3.195  14.100  0.4022 -0.4570  0.0964
  779MPD2    H511499   1.420   3.142  14.014  2.7260 -1.5356  0.5377
  779MPD2    N111500   1.595   2.803  14.309 -0.4941 -0.3687 -0.3043
  779MPD2    H711501   1.562   2.759  14.224 -0.0534 -0.2718 -0.5239
  780MPD2     C11502   0.722   3.257   0.908  0.2234  0.3287 -0.8891
  780MPD2    C111503   0.750   3.127   0.870  0.1027  0.1362 -0.2746
  780MPD2    C211504   0.818   3.100   0.756 -0.0127 -1.0185  0.0753
  780MPD2    C311505   0.883   3.204   0.687  0.7529  0.5513  0.3120
  780MPD2    C411506   0.840   3.329   0.730  0.2376  0.6788 -0.2421
  780MPD2    C511507   0.760   3.366   0.835 -0.2677 -0.2713 -0.4558
  780MPD2     H11508   0.838   2.996   0.734 -1.3625 -1.0185 -1.0959
  780MPD2    H111509   0.866   3.419   0.674  0.3287 -0.2398 -1.6675
  780MPD2    H211510   0.663   3.275   0.997  2.3906  1.2806  0.3296
  780MPD2    H311511   0.721   3.463   0.861 -0.5253  0.4538 -3.5195
  780MPD2     N11512   0.974   3.170   0.587  0.0842  0.3228  0.5559
  780MPD2    H511513   0.976   3.074   0.553  0.8347  1.5573 -2.8738
  780MPD2    N111514   0.717   3.031   0.968  0.3192 -0.2368  0.2821
  780MPD2    H711515   0.669   3.048   1.056  0.2166 -1.0621  0.3924
  781MPD2     C11516   2.597   4.546  12.082 -0.1265 -0.4102 -0.0066
  781MPD2    C111517   2.632   4.419  12.050 -0.5950 -0.1993 -0.1107
  781MPD2    C211518   2.610   4.371  11.926 -0.3187  0.6891  0.0707
  781MPD2    C311519   2.559   4.459  11.825 -0.2356 -0.7842 -0.5333
  781MPD2    C411520   2.528   4.588  11.861 -0.0997  0.0132 -0.0134
  781MPD2    C511521   2.550   4.634  11.986  0.0419 -0.3775  0.0292
  781MPD2     H11522   2.643   4.270  11.907 -0.3004  0.9601 -1.3861
  781MPD2    H111523   2.486   4.654  11.786 -0.6130 -0.3920 -0.0856
  781MPD2    H211524   2.618   4.590  12.179 -0.4555  0.3791 -0.2965
  781MPD2    H311525   2.517   0.013  12.010 -2.9404 -0.8178 -2.1993
  781MPD2     N11526   2.537   4.425  11.688 -0.1572 -0.2466 -0.0684
  781MPD2    H511527   2.486   4.495  11.635  2.0116  0.4103 -1.2527
  781MPD2    N111528   2.679   4.333  12.144 -0.8737 -0.2494  0.0399
  781MPD2    H711529   2.729   4.250  12.113 -1.4469 -0.0827 -1.3502
  782MPD2     C11530   1.222   0.328   9.909  0.0112  0.4576 -0.2522
  782MPD2    C111531   1.240   0.258  10.023  0.1675 -0.5909 -0.2668
  782MPD2    C211532   1.330   0.314  10.107 -0.3067 -0.4952 -0.1198
  782MPD2    C311533   1.378   0.448  10.098  0.6305 -0.4676  0.7393
  782MPD2    C411534   1.363   0.518   9.985  0.1618  0.0125  0.0823
  782MPD2    C511535   1.291   0.451   9.891  0.1373 -0.0265 -0.1719
  782MPD2     H11536   1.365   0.262  10.196 -1.9753 -2.0451 -0.3741
  782MPD2    H111537   1.397   0.620   9.967  0.5204 -0.0668  0.3127
  782MPD2    H211538   1.161   0.289   9.828  1.3132  1.4213 -1.6974
  782MPD2    H311539   1.280   0.505   9.798 -0.5374 -1.2567 -0.8159
  782MPD2     N11540   1.449   0.507  10.200  0.0057  0.0350  0.0954
  782MPD2    H511541   1.495   0.596  10.180 -0.9139  0.7452  1.1172
  782MPD2    N111542   1.189   0.133  10.057 -0.3909  0.3004 -0.8671
  782MPD2    H711543   1.220   0.073  10.133  2.2465  1.4150 -1.0757
  783MPD2     C11544   0.313   4.523  10.380 -0.5503  0.7637 -0.6782
  783MPD2    C111545   0.356   4.648  10.377  0.5478 -0.4180  0.2370
  783MPD2    C211546   0.480   4.669  10.328  0.1536 -0.3983 -0.3000
  783MPD2    C311547   0.566   4.561  10.297  0.0822 -0.1999  0.7520
  783MPD2    C411548   0.515   4.431  10.311  0.1229 -0.3610 -0.0472
  783MPD2    C511549   0.385   4.412  10.345  0.3815 -0.8374  0.0260
  783MPD2     H11550   0.522   0.048  10.319 -2.6719  0.9635  1.7386
  783MPD2    H111551   0.576   4.347  10.280 -1.0627 -0.4837 -2.0562
  783MPD2    H211552   0.214   4.502  10.418 -0.2050  1.3904  0.5617
  783MPD2    H311553   0.346   4.312  10.360  0.1675 -0.9338 -1.1666
  783MPD2     N11554   0.696   4.591  10.251  0.2716  0.3602 -0.1370
  783MPD2    H511555   0.721   4.687  10.229  0.2654  0.4204  0.1238
  783MPD2    N111556   0.267   0.030  10.424 -0.0892  0.0104  0.1173
  783MPD2    H711557   0.180   4.715  10.462  1.3528 -2.7447  0.8095
  784MPD2     C11558   2.694   0.966   0.677  0.0727 -0.2490  0.2318
  784MPD2    C111559   2.665   1.070   0.760 -0.6876 -0.3207  0.1816
  784MPD2    C211560   2.558   1.151   0.726  0.3703 -0.9419  0.6965
  784MPD2    C311561   2.481   1.128   0.614  0.7148  0.7420 -0.4553
  784MPD2    C411562   2.522   1.025   0.526  0.8313  0.9891  0.6630
  784MPD2    C511563   2.621   0.935   0.562  0.1454 -0.0423 -0.8273
  784MPD2     H11564   2.532   1.241   0.780 -1.1542 -0.2811 -1.1638
  784MPD2    H111565   2.460   0.999   0.441 -0.0418 -1.7574  2.1520
  784MPD2    H211566   2.774   0.896   0.698 -0.0050 -1.0846 -2.3033
  784MPD2    H311567   2.642   0.857   0.490  0.4532  2.2199 -3.1851
  784MPD2     N11568   2.372   1.209   0.585  0.0325  0.0826  0.2372
  784MPD2    H511569   2.351   1.278   0.657  2.7570 -1.9268  2.9827
  784MPD2    N111570   2.744   1.115   0.869 -0.0930  0.1243  0.3701
  784MPD2    H711571   2.707   1.189   0.927 -0.2913  2.0110 -2.1777
  785MPD2     C11572   3.792   3.430  10.128  0.1380 -0.0656 -0.3924
  785MPD2    C111573   3.668   3.436  10.066  0.6398 -0.7535  0.2132
  785MPD2    C211574   3.641   3.335   9.971  0.4628  0.3203  0.6878
  785MPD2    C311575   3.730   3.234   9.949  0.1485 -0.0987  0.8586
  785MPD2    C411576   3.843   3.221  10.029  0.6331 -0.0273  0.8335
  785MPD2    C511577   3.871   3.321  10.119 -0.2050 -0.2270 -0.1138
  785MPD2     H11578   3.545   3.337   9.921  0.9783 -0.3082 -0.3137
  785MPD2    H111579   3.909   3.135  10.033 -1.9896 -2.0127  1.5837
  785MPD2    H211580   3.835   3.502  10.197  1.2766 -1.4339  0.3151
  785MPD2    H311581   3.954   3.315  10.188 -0.1069  0.9994 -0.1313
  785MPD2     N11582   3.689   3.138   9.849  0.0383 -0.5792  0.0707
  785MPD2    H511583   3.604   3.166   9.802 -0.6866 -0.0463  1.6955
  785MPD2    N111584   3.586   3.541  10.083 -0.0232 -0.2447 -0.0365
  785MPD2    H711585   3.502   3.533  10.027  0.6002 -0.1593 -0.9693
  786MPD2     C11586   2.528   1.963  14.465 -0.1998 -0.8798  0.0857
  786MPD2    C111587   2.458   1.890  14.558 -0.3881 -0.0500  0.5844
  786MPD2    C211588   2.488   1.917  14.690  0.6451  0.7788  0.4860
  786MPD2    C311589   2.584   2.007  14.728 -0.2430  0.2125  0.6615
  786MPD2    C411590   2.642   2.083  14.633 -0.5576 -0.3126  0.5226
  786MPD2    C511591   2.612   2.061  14.505 -0.1000 -0.1150  0.1913
  786MPD2     H11592   2.445   1.855  14.768 -0.1102  0.2692 -0.3350
  786MPD2    H111593   2.715   2.161  14.651  0.1463 -0.7066 -0.5740
  786MPD2    H211594   2.500   1.969  14.360  1.1139  0.4008 -0.2006
  786MPD2    H311595   2.660   2.127  14.434 -1.3249 -0.0470 -0.5644
  786MPD2     N11596   2.631   2.027  14.862  0.1963  0.7068 -0.1609
  786MPD2    H511597   2.714   2.085  14.872  0.5193  0.1619  0.3248
  786MPD2    N111598   2.379   1.774  14.526 -1.0122  0.8993  0.2811
  786MPD2    H711599   2.358   1.719  14.610 -0.9480 -1.2214 -1.0887
  787MPD2     C11600   2.049   1.010  14.609 -0.7404 -0.5306 -0.4036
  787MPD2    C111601   2.176   1.068  14.584  0.4058 -0.3576  0.1140
  787MPD2    C211602   2.290   1.001  14.623  0.3845 -0.2506 -0.0043
  787MPD2    C311603   2.276   0.881  14.702  0.1411  0.1104 -0.1762
  787MPD2    C411604   2.145   0.836  14.732  0.0338  1.1721  0.3786
  787MPD2    C511605   2.036   0.898  14.678 -1.2217  0.4582 -0.3936
  787MPD2     H11606   2.387   1.042  14.599  0.8826 -0.2138  2.0245
  787MPD2    H111607   2.124   0.738  14.774 -2.0676  0.8807 -1.3567
  787MPD2    H211608   1.965   1.072  14.581 -2.6769 -2.7902  0.3938
  787MPD2    H311609   1.940   0.849  14.690 -1.2466  0.5136 -0.3662
  787MPD2     N11610   2.393   0.809  14.740  0.4280 -0.1414  0.2495
  787MPD2    H511611   2.482   0.856  14.727  1.4507 -2.1054  0.1835
  787MPD2    N111612   2.181   1.192  14.512 -0.0663  0.0477 -0.0336
  787MPD2    H711613   2.093   1.227  14.477  1.1088  1.9226 -1.1225
  788MPD2     C11614   3.496   4.508   1.347 -0.0643 -0.1732 -0.5240
  788MPD2    C111615   3.441   4.524   1.216  0.4125  0.0608 -0.3790
  788MPD2    C211616   3.418   4.653   1.162  0.1684  0.1640 -0.0521
  788MPD2    C311617   3.448   0.040   1.242  0.3326 -0.2566  0.2704
  788MPD2    C411618   3.499   0.025   1.371 -0.2142  0.0862  0.2501
  788MPD2    C511619   3.531   4.625   1.420 -0.4041 -0.1674 -0.1229
  788MPD2     H11620   3.402   4.660   1.055  0.6973 -1.4986 -0.2476
  788MPD2    H111621   3.513   0.115   1.430 -1.1611  1.2332 -1.2857
  788MPD2    H211622   3.535   4.414   1.385 -1.5602 -1.2060 -1.5686
  788MPD2    H311623   3.559   4.609   1.523 -2.9417  0.8827  0.7412
  788MPD2     N11624   3.449   0.173   1.192 -0.5965 -0.5420 -0.1206
  788MPD2    H511625   3.495   0.243   1.250  0.1407 -1.0104 -0.1305
  788MPD2    N111626   3.416   4.411   1.136 -0.1460  0.4695 -0.3364
  788MPD2    H711627   3.385   4.425   1.040  2.5307 -1.0656 -1.4359
  789MPD2     C11628   4.365   0.036  16.432  0.2186 -0.0750 -0.4740
  789MPD2    C111629   4.296   4.694  16.532 -0.2162  0.8175 -0.1147
  789MPD2    C211630   4.173   0.028  16.578 -0.1097 -0.4513  0.0250
  789MPD2    C311631   4.130   0.150  16.530 -0.1315 -0.3549 -0.2088
  789MPD2    C411632   4.190   0.203  16.420  0.1282  0.3503 -0.0599
  789MPD2    C511633   4.306   0.145  16.370  0.1891 -0.0591  0.0259
  789MPD2     H11634   4.125   4.706  16.666  0.6408 -0.8990  0.2128
  789MPD2    H111635   4.153   0.290  16.367 -1.8188 -1.1505 -1.1339
  789MPD2    H211636   4.460   0.006  16.390 -0.8688 -2.6868 -1.1009
  789MPD2    H311637   4.352   0.191  16.284 -0.2027  2.8471  1.3742
  789MPD2     N11638   4.018   0.218  16.584 -0.6052  0.6327 -0.8522
  789MPD2    H511639   4.006   0.305  16.532  1.6077  0.5420 -1.5338
  789MPD2    N111640   4.333   4.568  16.581  0.5074 -0.4015  0.3812
  789MPD2    H711641   4.271   4.525  16.648 -1.3180 -0.2269 -1.2062
  790MPD2     C11642   0.701   2.043  13.479 -0.1194  0.0532 -0.2032
  790MPD2    C111643   0.706   1.913  13.522 -0.1317  0.1282  0.3144
  790MPD2    C211644   0.692   1.816  13.430  0.1256  0.2884 -0.3378
  790MPD2    C311645   0.642   1.842  13.304  0.3044 -0.2141  0.1344
  790MPD2    C411646   0.642   1.971  13.259  0.7268 -0.6111 -0.5336
  790MPD2    C511647   0.676   2.072  13.347 -0.1744  0.4136 -0.1041
  790MPD2     H11648   0.681   1.715  13.470  1.9290  0.2285 -0.0124
  790MPD2    H111649   0.586   1.982  13.167  0.8060  2.7431 -0.1940
  790MPD2    H211650   0.711   2.125  13.549 -0.0249  3.3250 -4.0479
  790MPD2    H311651   0.671   2.174  13.310 -1.7062  0.1277 -0.6892
  790MPD2     N11652   0.603   1.729  13.232 -0.1902  0.6745  0.1675
  790MPD2    H511653   0.623   1.639  13.274 -0.0612  0.3179 -0.6506
  790MPD2    N111654   0.744   1.885  13.653  0.3393 -0.5061 -0.5806
  790MPD2    H711655   0.739   1.960  13.721  3.3748 -1.5386  0.8268
  791MPD2     C11656   4.622   1.672  12.984  0.3362 -0.0103 -0.0007
  791MPD2    C111657   4.678   1.551  13.002  0.3190 -0.7346  0.2930
  791MPD2    C211658   4.594   1.442  12.997  0.3911  0.5992  0.7604
  791MPD2    C311659   4.457   1.453  12.990 -0.3728  0.4348 -0.4945
  791MPD2    C411660   4.402   1.578  12.976 -0.3588  0.3878  0.2564
  791MPD2    C511661   4.488   1.690  12.971  0.6415 -0.1361  0.9589
  791MPD2     H11662   4.631   1.341  13.015  0.4126  0.6169  0.8154
  791MPD2    H111663   4.294   1.585  12.971 -0.3756 -0.2758 -0.2277
  791MPD2    H211664   4.692   1.756  12.980  0.7479 -0.2793  1.9095
  791MPD2    H311665   4.455   1.793  12.975 -1.8258 -0.8159 -1.6083
  791MPD2     N11666   4.389   1.329  12.978  0.1422 -0.1632 -0.6466
  791MPD2    H511667   4.438   1.242  12.961  2.5342  1.3435 -1.3472
  791MPD2    N111668   0.096   1.536  13.026  0.7582 -0.6482 -1.1240
  791MPD2    H711669   0.148   1.623  13.040 -0.8413  0.2590 -0.8418
  792MPD2     C11670   0.493   1.486  11.082 -0.8604  0.1866  0.5653
  792MPD2    C111671   0.599   1.429  11.009  0.3034 -0.6787  0.5656
  792MPD2    C211672   0.575   1.337  10.911 -0.5421 -0.0423 -0.4873
  792MPD2    C311673   0.452   1.308  10.867  0.0341 -0.6069  0.1896
  792MPD2    C411674   0.352   1.354  10.943 -0.4203 -0.2114 -0.1845
  792MPD2    C511675   0.365   1.440  11.048 -0.5399  0.8719 -0.0254
  792MPD2     H11676   0.655   1.287  10.857 -0.1530  0.5744 -0.4848
  792MPD2    H111677   0.249   1.334  10.914 -0.9608  0.2650  1.3864
  792MPD2    H211678   0.502   1.566  11.154 -0.0875 -0.0027  0.6807
  792MPD2    H311679   0.273   1.483  11.088 -0.6722 -1.9991  2.7117
  792MPD2     N11680   0.417   1.232  10.749  0.2486 -0.3616  0.5968
  792MPD2    H511681   0.319   1.207  10.740  0.9061 -1.7802 -2.5804
  792MPD2    N111682   0.731   1.467  11.046  0.3157 -0.2221  0.4899
  792MPD2    H711683   0.738   1.540  11.116  0.4819  1.0169 -0.8041
  793MPD2     C11684   0.290   0.744   9.796 -0.0957  1.1213 -0.3080
  793MPD2    C111685   0.412   0.773   9.856 -0.4330 -0.8476 -0.1931
  793MPD2    C211686   0.421   0.850   9.969 -1.3108  0.9153 -0.4713
  793MPD2    C311687   0.309   0.922  10.008 -0.3109 -0.0360  1.0637
  793MPD2    C411688   0.193   0.903   9.934  0.2398  0.8326 -0.1083
  793MPD2    C511689   0.179   0.803   9.838  0.1911 -1.1021 -0.1234
  793MPD2     H11690   0.511   0.875  10.024 -1.4570 -1.6232  0.9046
  793MPD2    H111691   0.103   0.944   9.978 -0.2931 -1.4381  0.8688
  793MPD2    H211692   0.281   0.692   9.701 -0.1478  1.1253 -0.3052
  793MPD2    H311693   0.086   0.789   9.784 -1.2629 -1.3699  2.4248
  793MPD2     N11694   0.304   1.011  10.121 -0.1631 -0.1105  0.3850
  793MPD2    H511695   0.219   1.063  10.141 -0.7661 -0.4875 -1.2102
  793MPD2    N111696   0.530   0.733   9.793  0.0600  0.3565  1.1652
  793MPD2    H711697   0.618   0.758   9.838  1.8931 -2.0257 -1.0572
  794MPD2     C11698   0.228   1.637  17.263 -0.2284 -0.3304 -0.1885
  794MPD2    C111699   0.195   1.504  17.242 -0.0521 -0.2167  0.9437
  794MPD2    C211700   0.106   1.480  17.133 -0.7697  0.1941  0.5933
  794MPD2    C311701   0.048   1.585  17.062 -0.2183  1.1231  0.3867
  794MPD2    C411702   0.078   1.716  17.103  1.0180 -0.4049 -1.1513
  794MPD2    C511703   0.185   1.737  17.185  0.0263 -0.2586  0.7035
  794MPD2     H11704   0.084   1.376  17.113  1.0539  0.5923 -3.5295
  794MPD2    H111705   0.033   1.798  17.049  0.3835 -0.2067 -0.3151
  794MPD2    H211706   0.301   1.666  17.337 -0.2619  2.2247 -1.1525
  794MPD2    H311707   0.219   1.839  17.200 -1.3462  0.1815  0.8251
  794MPD2     N11708   4.680   1.572  16.957 -0.1728 -0.4955 -0.4168
  794MPD2    H511709   4.652   1.648  16.896 -0.9354  1.7735  2.7417
  794MPD2    N111710   0.261   1.405  17.313 -0.7924 -0.0854 -0.5044
  794MPD2    H711711   0.257   1.311  17.276  0.8496 -1.0373  1.7091
  795MPD2     C11712   2.835   3.119  13.641  0.3482 -0.2090  0.3476
  795MPD2    C111713   2.784   3.005  13.580  0.1203 -1.1132  0.2515
  795MPD2    C211714   2.835   2.884  13.622  0.7691  0.5210 -0.3553
  795MPD2    C311715   2.939   2.878  13.713 -0.0226 -0.4385 -0.1486
  795MPD2    C411716   2.981   2.995  13.773  0.0849  0.5773 -0.1050
  795MPD2    C511717   2.930   3.118  13.734 -0.0561  0.2636  0.2860
  795MPD2     H11718   2.808   2.793  13.569 -0.0498 -0.5303  1.8252
  795MPD2    H111719   3.054   2.992  13.853 -0.9181 -3.6229  0.6359
  795MPD2    H211720   2.785   3.214  13.622  0.2418 -0.1467  0.9555
  795MPD2    H311721   2.965   3.210  13.778 -0.0540  0.0194  0.7915
  795MPD2     N11722   3.010   2.760  13.750  0.2750 -0.1536 -0.3355
  795MPD2    H511723   3.100   2.780  13.793  0.4169  1.0984 -1.2247
  795MPD2    N111724   2.678   3.012  13.483  0.1526 -0.1314  0.6122
  795MPD2    H711725   2.643   2.921  13.454  0.2417  0.3222 -0.9075
  796MPD2     C11726   2.044   4.629  16.248  0.2076  0.7771 -0.0969
  796MPD2    C111727   2.180   4.637  16.212 -0.3709 -0.4778  0.4906
  796MPD2    C211728   2.219   0.030  16.146 -0.3544  0.2789 -0.3732
  796MPD2    C311729   2.131   0.132  16.127  0.5864 -0.3092 -0.0352
  796MPD2    C411730   1.998   0.122  16.172 -1.5024 -0.1314 -0.6807
  796MPD2    C511731   1.952   0.005  16.228 -0.3821  0.3254  0.2794
  796MPD2     H11732   2.319   0.039  16.106  0.2873 -0.6756  0.9985
  796MPD2    H111733   1.922   0.200  16.170 -0.0043  1.3804  1.6941
  796MPD2    H211734   2.011   4.542  16.304  0.3053  1.3798  0.9160
  796MPD2    H311735   1.862   4.719  16.288 -0.3505  1.3707  0.4456
  796MPD2     N11736   2.173   0.252  16.057 -0.3638 -0.3282 -0.3829
  796MPD2    H511737   2.271   0.276  16.061 -0.5166  0.1795  0.3701
  796MPD2    N111738   2.265   4.531  16.249 -0.2082 -0.6892  0.1782
  796MPD2    H711739   2.227   4.463  16.314 -0.1351  0.2192  1.1691
  797MPD2     C11740   3.334   4.048  17.556 -0.0443  0.2144 -0.5533
  797MPD2    C111741   3.419   4.158  17.552  0.4658  0.4047 -0.0624
  797MPD2    C211742   3.379   4.279  17.504  0.5084  0.3210 -0.3080
  797MPD2    C311743   3.252   4.303  17.459  0.1118 -0.1497  0.5853
  797MPD2    C411744   3.167   4.199  17.457  0.1078  0.3036 -0.5142
  797MPD2    C511745   3.211   4.074  17.501  0.0707  0.4562 -0.6040
  797MPD2     H11746   3.451   4.357  17.481 -2.6935  2.6564 -2.3659
  797MPD2    H111747   3.070   4.210  17.408  0.9565  1.7512 -1.8883
  797MPD2    H211748   3.355   3.955  17.607 -0.7030  1.0021  1.1483
  797MPD2    H311749   3.143   3.989  17.499  0.7819 -0.1536  1.6084
  797MPD2     N11750   3.223   4.434  17.414  0.5480  0.3589 -0.1895
  797MPD2    H511751   3.294   4.507  17.414  1.5738 -0.6289  1.9632
  797MPD2    N111752   3.554   4.149  17.587  0.0941 -0.5169  0.0354
  797MPD2    H711753   3.616   4.229  17.576 -0.4606 -0.1750 -0.5754
  798MPD2     C11754   3.839   4.707  17.208  0.3200  0.6507 -0.0660
  798MPD2    C111755   3.731   4.653  17.275 -0.1966  0.4080  0.1517
  798MPD2    C211756   3.754   4.556  17.374 -0.0849  0.8370 -0.5568
  798MPD2    C311757   3.883   4.515  17.406 -0.1659  0.1739 -0.8609
  798MPD2    C411758   3.990   4.575  17.345 -0.0097 -0.2563  0.9451
  798MPD2    C511759   3.961   4.671  17.249  0.6700 -0.5335 -0.3236
  798MPD2     H11760   3.675   4.496  17.416  0.5801  0.8896  0.7580
  798MPD2    H111761   4.096   4.558  17.366  0.7717  3.3996 -0.1830
  798MPD2    H211762   3.831   0.063  17.133  3.2781 -0.7197 -1.7883
  798MPD2    H311763   4.043   0.001  17.200  0.5797  0.3402  0.4379
  798MPD2     N11764   3.888   4.417  17.507 -0.0637  0.4567  0.8005
  798MPD2    H511765   3.801   4.399  17.556  0.8691 -0.0626  2.2584
  798MPD2    N111766   3.601   4.680  17.225  0.1037 -0.2148 -0.3550
  798MPD2    H711767   3.595   0.011  17.139  0.2091 -1.6421 -1.2233
  799MPD2     C11768   2.297   0.298  14.688  0.2126  0.2895  0.3430
  799MPD2    C111769   2.390   0.331  14.590 -0.4769  0.5960 -0.3167
  799MPD2    C211770   2.342   0.433  14.500  0.3960 -0.1982 -0.3479
  799MPD2    C311771   2.217   0.488  14.506 -0.6749  0.2170  0.0699
  799MPD2    C411772   2.134   0.453  14.609 -0.2249  0.0240  0.4392
  799MPD2    C511773   2.174   0.350  14.691  0.5167 -0.2825 -0.5413
  799MPD2     H11774   2.418   0.467  14.430 -0.5038  1.4104 -0.5489
  799MPD2    H111775   2.030   0.485  14.614 -0.1426  0.1183  1.4054
  799MPD2    H211776   2.303   0.221  14.764  0.7935  0.0352  0.0300
  799MPD2    H311777   2.109   0.296  14.758 -2.3199  3.5329 -0.1912
  799MPD2     N11778   2.161   0.574  14.412 -0.3926  0.0236  0.1320
  799MPD2    H511779   2.067   0.609  14.424  0.6365  2.0269  2.2941
  799MPD2    N111780   2.511   0.277  14.575 -0.4041  0.4018  0.3304
  799MPD2    H711781   2.574   0.297  14.497 -0.9275  0.5477 -0.0521
  800MPD2     C11782   2.441   1.929  14.044 -0.2886  0.6200  0.1151
  800MPD2    C111783   2.574   1.920  14.010  0.5997 -0.5335  0.0970
  800MPD2    C211784   2.616   1.830  13.919  0.0921 -0.4250 -0.1533
  800MPD2    C311785   2.526   1.754  13.846  0.1040  0.3042 -1.0704
  800MPD2    C411786   2.392   1.759  13.881  0.8521 -0.8425 -0.7457
  800MPD2    C511787   2.351   1.842  13.982 -0.0172  0.0094  0.0597
  800MPD2     H11788   2.720   1.806  13.900 -0.3073 -0.3096 -2.4842
  800MPD2    H111789   2.327   1.684  13.838  0.7743  0.5843 -3.1404
  800MPD2    H211790   2.388   1.995  14.112  0.9397 -0.7764  2.4531
  800MPD2    H311791   2.250   1.848  14.021 -0.7377 -1.0717 -1.6056
  800MPD2     N11792   2.570   1.670  13.741  0.9286 -0.3758  0.0216
  800MPD2    H511793   2.670   1.656  13.730  0.6632 -0.6749 -2.0445
  800MPD2    N111794   2.667   1.996  14.082 -0.4119 -0.0961 -0.0475
  800MPD2    H711795   2.623   2.076  14.126 -2.1414 -0.6452 -0.7498
  801MPD2     C11796   2.816   2.708  14.059  0.2169  0.1808 -0.5606
  801MPD2    C111797   2.740   2.590  14.064 -0.6409 -0.1923 -0.0736
  801MPD2    C211798   2.604   2.605  14.046  0.3475 -0.6771 -0.3209
  801MPD2    C311799   2.547   2.731  14.021  0.3945 -0.1565 -0.0869
  801MPD2    C411800   2.624   2.843  14.020  0.1930 -0.7765  0.0328
  801MPD2    C511801   2.757   2.835  14.042 -0.1384  0.4556  0.4513
  801MPD2     H11802   2.548   2.513  14.057 -0.8850 -0.0632 -1.3671
  801MPD2    H111803   2.592   2.945  14.000  0.4061 -0.7936 -0.3866
  801MPD2    H211804   2.922   2.709  14.081 -0.1695  1.9509  1.2976
  801MPD2    H311805   2.823   2.918  14.019 -0.6831  1.1381  1.3418
  801MPD2     N11806   2.405   2.749  14.001  0.2732 -0.4692 -0.1361
  801MPD2    H511807   2.378   2.844  14.023 -0.5560 -0.9842  1.0504
  801MPD2    N111808   2.794   2.464  14.102 -0.2172  0.2000 -0.6173
  801MPD2    H711809   2.730   2.385  14.112 -1.6421  1.7151  2.4878
  802MPD2     C11810   1.489   3.588  17.330 -0.1024 -0.2183  0.4148
  802MPD2    C111811   1.581   3.624  17.433  0.1261 -0.1793 -0.4050
  802MPD2    C211812   1.666   3.526  17.486  0.0321  1.4836 -0.1524
  802MPD2    C311813   1.663   3.393  17.445  0.0248 -0.1749  0.5462
  802MPD2    C411814   1.580   3.362  17.338  0.6387 -0.0415 -0.1158
  802MPD2    C511815   1.496   3.459  17.291 -0.9016 -0.0953  0.4211
  802MPD2     H11816   1.745   3.556  17.554  0.7886 -0.5393 -0.1161
  802MPD2    H111817   1.578   3.259  17.305 -1.6858  0.5932 -1.8859
  802MPD2    H211818   1.424   3.656  17.276  1.9866  1.2035 -0.2857
  802MPD2    H311819   1.431   3.431  17.209  1.0826  1.0411 -1.5151
  802MPD2     N11820   1.768   3.314  17.496 -0.3931 -0.1769  0.1563
  802MPD2    H511821   1.839   3.358  17.554 -0.2107 -2.0328  1.3464
  802MPD2    N111822   1.590   3.748  17.492  0.7512  0.5455  0.0731
  802MPD2    H711823   1.659   3.754  17.566 -1.5112  0.4230  2.2067
  803MPD2     C11824   3.548   1.747  11.971  0.7696  0.0656  0.9165
  803MPD2    C111825   3.578   1.723  12.102  1.3201  0.3888 -0.1842
  803MPD2    C211826   3.537   1.597  12.154  0.4552  0.2343  0.5598
  803MPD2    C311827   3.473   1.505  12.073  0.1626 -0.4433 -0.6267
  803MPD2    C411828   3.439   1.541  11.949  0.3639 -0.4919  0.2412
  803MPD2    C511829   3.478   1.661  11.896 -0.1708 -0.3666 -0.1684
  803MPD2     H11830   3.549   1.584  12.261 -0.6979  2.8896  1.0247
  803MPD2    H111831   3.375   1.478  11.888 -3.9678  1.4537  2.7944
  803MPD2    H211832   3.580   1.833  11.913 -3.2210 -0.1175 -1.5562
  803MPD2    H311833   3.456   1.684  11.792 -4.0823  1.5274  1.0693
  803MPD2     N11834   3.421   1.380  12.117  0.4586 -0.3247  0.0014
  803MPD2    H511835   3.353   1.330  12.060 -0.4557  0.0814  0.7407
  803MPD2    N111836   3.627   1.815  12.194  0.4157  0.2153 -0.4038
  803MPD2    H711837   3.633   1.788  12.292 -0.0370 -1.8539 -0.9376
  804MPD2     C11838   2.797   3.018  16.918 -0.3516  0.5126 -0.6790
  804MPD2    C111839   2.747   3.025  17.041 -0.0474 -0.2268 -0.5744
  804MPD2    C211840   2.748   3.149  17.098 -0.3800  0.6799  0.2832
  804MPD2    C311841   2.813   3.254  17.038  0.1610 -0.1411  0.4251
  804MPD2    C411842   2.855   3.238  16.908  0.1313 -0.1709  0.3740
  804MPD2    C511843   2.847   3.119  16.846 -0.0964 -0.3643 -0.1700
  804MPD2     H11844   2.708   3.152  17.198 -2.6703 -0.3277 -0.6201
  804MPD2    H111845   2.907   3.319  16.859 -0.5204 -0.4416 -0.7730
  804MPD2    H211846   2.810   2.923  16.868 -1.0315  0.1581 -0.1955
  804MPD2    H311847   2.883   3.111  16.745 -1.9199  1.4421 -0.9653
  804MPD2     N11848   2.821   3.369  17.114 -0.2845  0.7511  0.2319
  804MPD2    H511849   2.782   3.365  17.207 -1.0599  1.2042 -0.0795
  804MPD2    N111850   2.705   2.912  17.125 -0.2189 -0.0790  0.1541
  804MPD2    H711851   2.688   2.930  17.223  0.6703 -0.9459  0.4713
  805MPD2     C11852   1.857   1.112  15.560 -0.2836  0.7052  0.7913
  805MPD2    C111853   1.939   1.109  15.455 -0.0954  0.3860  0.3055
  805MPD2    C211854   2.076   1.082  15.467  0.3072 -0.0569 -0.2620
  805MPD2    C311855   2.132   1.082  15.589 -0.3489  0.2756  0.1747
  805MPD2    C411856   2.052   1.124  15.696 -0.0124  0.0215 -0.0626
  805MPD2    C511857   1.915   1.133  15.684 -0.5128 -0.0465  0.6442
  805MPD2     H11858   2.129   1.064  15.374 -0.1854 -1.3493 -0.3024
  805MPD2    H111859   2.080   1.133  15.800  1.1803 -2.3711 -0.1661
  805MPD2    H211860   1.750   1.100  15.557 -0.3194  1.3004 -0.3209
  805MPD2    H311861   1.856   1.146  15.774 -2.5544  1.6987 -0.9592
  805MPD2     N11862   2.274   1.060  15.600 -0.4182  0.3598  0.9992
  805MPD2    H511863   2.320   1.044  15.511 -0.4061 -1.4516  1.3241
  805MPD2    N111864   1.892   1.112  15.323  0.2008  0.4659  0.8278
  805MPD2    H711865   1.946   1.066  15.250 -0.6321  0.0995  0.4394
  806MPD2     C11866   1.886   1.000   0.463 -0.3057 -0.0628  0.2360
  806MPD2    C111867   2.019   0.977   0.490 -0.1329  0.3956 -0.0246
  806MPD2    C211868   2.107   0.962   0.382 -0.6381  0.3624  0.3569
  806MPD2    C311869   2.062   0.979   0.252  0.4687  0.2621 -0.1121
  806MPD2    C411870   1.927   0.992   0.232  1.0889  0.4558 -0.5075
  806MPD2    C511871   1.838   1.008   0.333  0.5443 -0.6191 -0.7963
  806MPD2     H11872   2.211   0.946   0.405 -1.8589 -1.8988  4.3693
  806MPD2    H111873   1.881   1.008   0.135  2.0825 -0.2441 -1.1013
  806MPD2    H211874   1.821   1.010   0.548  0.4939 -1.7508  1.0464
  806MPD2    H311875   1.734   1.021   0.306  0.4345 -0.4925 -0.3277
  806MPD2     N11876   2.150   0.994   0.136  0.5979 -0.1083  0.2879
  806MPD2    H511877   2.250   1.000   0.154  1.2971  0.9092 -3.9224
  806MPD2    N111878   2.059   0.979   0.630 -0.5187  0.5569  0.3743
  806MPD2    H711879   1.994   1.011   0.702 -1.1290  1.0657 -0.3951
  807MPD2     C11880   1.842   1.151   1.345 -0.2649  0.4999 -0.1712
  807MPD2    C111881   1.953   1.075   1.358 -0.9305 -0.4314 -0.1335
  807MPD2    C211882   1.972   1.025   1.483  0.3315  0.5188  0.1978
  807MPD2    C311883   1.912   1.075   1.599 -0.0104 -1.1539  0.5182
  807MPD2    C411884   1.803   1.162   1.581 -0.6064  0.2905  0.1693
  807MPD2    C511885   1.778   1.200   1.454  0.1519  0.5472 -0.0866
  807MPD2     H11886   2.056   0.957   1.495 -0.5119 -0.2674  1.7141
  807MPD2    H111887   1.734   1.194   1.658 -0.6709 -0.5571  0.4576
  807MPD2    H211888   1.800   1.184   1.251 -0.0064  0.2325 -0.3835
  807MPD2    H311889   1.683   1.248   1.432  0.0072  0.0501 -0.5608
  807MPD2     N11890   1.959   1.034   1.726 -0.0010  0.1367  0.2312
  807MPD2    H511891   2.049   0.987   1.729 -0.6579 -1.1906 -0.6364
  807MPD2    N111892   2.039   1.032   1.251  0.2658 -0.3360  0.5086
  807MPD2    H711893   2.109   0.962   1.272  0.6582 -0.3915 -1.0093
  808MPD2     C11894   2.589   2.066   9.390 -0.0220 -0.6404 -0.0909
  808MPD2    C111895   2.701   1.992   9.358  0.0159  0.2665 -0.7004
  808MPD2    C211896   2.827   2.043   9.382 -0.1307  1.0411  0.5817
  808MPD2    C311897   2.843   2.171   9.441 -0.3422  0.0822 -0.3732
  808MPD2    C411898   2.732   2.239   9.476  0.2809 -0.6707 -0.2091
  808MPD2    C511899   2.610   2.189   9.447 -0.2512  0.0075 -0.8986
  808MPD2     H11900   2.913   1.979   9.365  0.0496  1.2319  0.7836
  808MPD2    H111901   2.747   2.327   9.537  0.1244  0.4336 -1.7843
  808MPD2    H211902   2.488   2.039   9.362 -0.9076 -0.6398  3.1369
  808MPD2    H311903   2.517   2.244   9.457 -0.1321 -0.1477  1.2034
  808MPD2     N11904   2.965   2.229   9.478  0.5714 -0.2061  0.1662
  808MPD2    H511905   2.969   2.309   9.539  2.4028  0.8836 -1.3944
  808MPD2    N111906   2.698   1.861   9.305 -0.5329 -0.7377 -0.2616
  808MPD2    H711907   2.786   1.814   9.288 -0.8964 -1.0454 -1.3013
  809MPD2     C11908   3.790   1.678   9.357 -0.0937  0.1332 -0.0930
  809MPD2    C111909   3.827   1.773   9.450  0.0706 -0.5358  0.0450
  809MPD2    C211910   3.732   1.860   9.501 -0.2041  0.7159 -0.1916
  809MPD2    C311911   3.607   1.868   9.444 -0.0206  0.6987 -0.2218
  809MPD2    C411912   3.568   1.781   9.343 -0.1873  0.1208  0.4228
  809MPD2    C511913   3.658   1.680   9.308 -0.1951 -0.1403 -0.0908
  809MPD2     H11914   3.753   1.935   9.576 -1.1244 -1.1220  1.9334
  809MPD2    H111915   3.471   1.783   9.297 -0.1382 -3.3424  0.1352
  809MPD2    H211916   3.864   1.614   9.312  0.1026  0.8153 -0.7402
  809MPD2    H311917   3.620   1.613   9.232  1.1453 -1.8142  0.7207
  809MPD2     N11918   3.523   1.978   9.470 -0.0473 -0.2189  0.1950
  809MPD2    H511919   3.428   1.970   9.436  1.0915 -2.1169 -2.5235
  809MPD2    N111920   3.966   1.794   9.486  0.1348  0.3658  0.3383
  809MPD2    H711921   3.969   1.876   9.547 -3.9519  1.4970 -0.9790
  810MPD2     C11922   3.189   0.259   9.903 -0.1824 -0.2296 -0.3280
  810MPD2    C111923   3.136   0.300  10.020  0.7896  0.1467  0.8823
  810MPD2    C211924   3.219   0.356  10.120 -0.1768 -0.8646 -0.1473
  810MPD2    C311925   3.352   0.366  10.097 -0.2642 -0.3072  0.0472
  810MPD2    C411926   3.406   0.325   9.979 -0.4238  0.3387 -0.0329
  810MPD2    C511927   3.320   0.268   9.883 -0.0605 -0.0348 -0.0159
  810MPD2     H11928   3.174   0.384  10.215  1.6443 -0.6180  0.6461
  810MPD2    H111929   3.512   0.333   9.958 -0.7637  3.8224 -0.4185
  810MPD2    H211930   3.134   0.218   9.819  0.6012 -1.2385 -0.3537
  810MPD2    H311931   3.356   0.257   9.782  0.9541 -0.6280  0.4059
  810MPD2     N11932   3.442   0.424  10.187  0.1519 -0.5605 -0.5691
  810MPD2    H511933   3.535   0.454  10.159 -0.9942  2.9284 -0.6796
  810MPD2    N111934   2.994   0.293  10.035 -0.0508  0.6072 -0.5815
  810MPD2    H711935   2.943   0.275   9.949 -0.8880 -0.2812  0.0906
  811MPD2     C11936   2.197   0.461   9.799 -0.3506  0.4021  0.6820
  811MPD2    C111937   2.314   0.525   9.833  0.7680  0.4976 -0.7628
  811MPD2    C211938   2.320   0.662   9.824  0.3173  0.0651  0.4903
  811MPD2    C311939   2.208   0.732   9.786  0.5604 -0.3398  0.3434
  811MPD2    C411940   2.092   0.668   9.746 -0.2911  0.5110  0.5789
  811MPD2    C511941   2.085   0.536   9.756 -0.1718 -0.1574 -0.7767
  811MPD2     H11942   2.412   0.717   9.844  0.5915 -0.0559 -0.4588
  811MPD2    H111943   2.005   0.723   9.713 -1.7486 -1.0806  1.7504
  811MPD2    H211944   2.186   0.354   9.784  1.2331  0.8685 -3.9426
  811MPD2    H311945   1.990   0.488   9.737 -1.3677  1.6184  0.6672
  811MPD2     N11946   2.218   0.872   9.789 -0.1554 -0.0465  0.1242
  811MPD2    H511947   2.303   0.905   9.833  0.4788 -2.0777  0.4261
  811MPD2    N111948   2.423   0.446   9.883 -0.2186 -0.0540 -0.1738
  811MPD2    H711949   2.401   0.349   9.898  0.7054 -0.2633 -0.1485
  812MPD2     C11950   1.464   1.379  12.002  1.1006 -0.2243 -0.3718
  812MPD2    C111951   1.394   1.429  12.106 -1.2590 -0.3668 -0.3928
  812MPD2    C211952   1.348   1.345  12.211  0.6957 -0.2501  0.3257
  812MPD2    C311953   1.395   1.220  12.215  0.8960  0.3330 -0.6314
  812MPD2    C411954   1.471   1.171  12.111 -0.1483 -0.4527 -0.3193
  812MPD2    C511955   1.501   1.248  12.003  0.3950 -0.7173  0.3379
  812MPD2     H11956   1.293   1.381  12.297 -2.0541  0.0205 -1.5096
  812MPD2    H111957   1.508   1.069  12.105  0.5388 -0.1827 -0.5781
  812MPD2    H211958   1.488   1.450  11.924  2.9319 -1.3193 -0.8083
  812MPD2    H311959   1.570   1.204  11.932  2.1937  0.1913  1.5115
  812MPD2     N11960   1.362   1.139  12.329 -0.5212 -0.3050  0.1431
  812MPD2    H511961   1.319   1.189  12.406 -0.1903 -0.6072  0.5222
  812MPD2    N111962   1.379   1.566  12.105  0.0372  0.7100  0.1129
  812MPD2    H711963   1.425   1.623  12.035  1.9103  1.1607  1.6781
  813MPD2     C11964   4.679   3.581  12.780 -0.1006 -0.5362 -0.2432
  813MPD2    C111965   0.032   3.478  12.832  0.3136 -0.3069  0.2695
  813MPD2    C211966   4.718   3.449  12.961 -0.3544  0.8129 -0.0385
  813MPD2    C311967   4.609   3.505  13.022  0.4923  0.4531  0.5441
  813MPD2    C411968   4.529   3.592  12.957 -0.8539 -0.0229  0.1782
  813MPD2    C511969   4.567   3.630  12.831 -0.0282 -0.2816 -0.4188
  813MPD2     H11970   0.059   3.375  13.009 -0.0499  1.7105  0.9663
  813MPD2    H111971   4.436   3.639  12.990 -1.0125 -0.9185  1.0182
  813MPD2    H211972   4.706   3.614  12.680  1.9155 -2.4818 -0.3387
  813MPD2    H311973   4.514   3.706  12.775 -1.1935 -0.5407  0.3208
  813MPD2     N11974   4.575   3.472  13.156 -0.2180 -0.1334 -0.2701
  813MPD2    H511975   4.654   3.431  13.204  1.2984 -0.8290 -3.3336
  813MPD2    N111976   0.152   3.428  12.779  0.1019  0.0146 -0.5202
  813MPD2    H711977   0.188   3.355  12.839 -1.0153  0.8831  1.2006
  814MPD2     C11978   0.833   4.631  12.075 -0.1255 -0.5376 -0.8192
  814MPD2    C111979   0.871   4.699  11.954  0.8608 -0.6751  0.1716
  814MPD2    C211980   0.948   0.093  11.977 -0.2407 -0.0420  0.3560
  814MPD2    C311981   0.996   0.135  12.100  0.0289 -0.2549  0.1234
  814MPD2    C411982   0.968   0.058  12.210  0.0622 -0.7264 -0.1759
  814MPD2    C511983   0.886   4.671  12.197 -0.1638 -0.0024 -0.1282
  814MPD2     H11984   0.975   0.152  11.891  0.8898 -1.8380 -0.5308
  814MPD2    H111985   1.007   0.084  12.308 -0.0128 -0.2642 -0.2680
  814MPD2    H211986   0.764   4.548  12.084 -0.0378 -0.2484  2.6461
  814MPD2    H311987   0.870   4.616  12.289 -1.9716  0.4679 -0.1518
  814MPD2     N11988   1.081   0.253  12.109 -0.4989  0.1308 -0.2657
  814MPD2    H511989   1.105   0.279  12.204  1.4041  2.9520 -1.5388
  814MPD2    N111990   0.830   4.660  11.826 -0.5979 -0.6035  0.2965
  814MPD2    H711991   0.865   4.707  11.743 -1.3134 -0.0688  0.3018
  815MPD2     C11992   1.516   3.440  11.550  1.3138  0.2264 -0.3014
  815MPD2    C111993   1.488   3.310  11.576  0.1508 -0.8707 -0.2129
  815MPD2    C211994   1.380   3.278  11.658  0.4566 -0.0028  0.2322
  815MPD2    C311995   1.291   3.374  11.707  0.2239 -0.4365 -0.4731
  815MPD2    C411996   1.324   3.504  11.675  0.2641 -0.1013 -0.7178
  815MPD2    C511997   1.440   3.541  11.607  0.5331 -0.2517 -0.2602
  815MPD2     H11998   1.364   3.176  11.693  1.8700 -0.4368 -0.3602
  815MPD2    H111999   1.261   3.581  11.718  0.2092 -0.2204 -0.5864
  815MPD2    H212000   1.594   3.460  11.477  0.9730  0.3960 -0.6230
  815MPD2    H312001   1.466   3.642  11.577 -1.5311  0.4652  0.3316
  815MPD2     N12002   1.189   3.340  11.791  0.0746  0.0102 -0.1119
  815MPD2    H512003   1.190   3.245  11.825 -3.2533  0.6276  1.7747
  815MPD2    N112004   1.562   3.211  11.504 -0.0077 -0.1415  0.7049
  815MPD2    H712005   1.625   3.243  11.431 -3.0727 -1.0594 -2.3457
  816MPD2     C12006   1.452   2.537  17.057  0.3650 -0.4347 -0.5926
  816MPD2    C112007   1.447   2.659  17.127 -0.4621 -0.2353 -0.0006
  816MPD2    C212008   1.567   2.740  17.122  0.4062  0.3208 -0.9007
  816MPD2    C312009   1.673   2.693  17.048  0.3843  0.5853  0.1364
  816MPD2    C412010   1.669   2.571  16.988  0.5079 -0.2625  0.4216
  816MPD2    C512011   1.566   2.491  16.987  0.1718 -0.0764  0.4473
  816MPD2     H12012   1.571   2.833  17.178  0.4089 -0.9694  1.2341
  816MPD2    H112013   1.756   2.529  16.939  1.9475  2.7531  0.3806
  816MPD2    H212014   1.361   2.477  17.054  0.6584 -0.9133 -0.0666
  816MPD2    H312015   1.574   2.395  16.938 -0.7977 -1.0578  2.2026
  816MPD2     N12016   1.788   2.770  17.053 -0.2822 -0.1838  0.9683
  816MPD2    H512017   1.787   2.860  17.100  0.3374 -0.1958  1.0125
  816MPD2    N112018   1.331   2.693  17.193  0.0853  0.3868  0.5714
  816MPD2    H712019   1.244   2.646  17.171  0.9399 -1.4388  1.1842
  817MPD2     C12020   1.199   3.559   9.890  0.9427 -0.2135  1.0380
  817MPD2    C112021   1.294   3.549   9.790 -0.0518 -0.5728 -0.6730
  817MPD2    C212022   1.321   3.661   9.710  0.4743 -0.2397  0.0284
  817MPD2    C312023   1.261   3.783   9.734  0.3729  0.0383 -0.5651
  817MPD2    C412024   1.166   3.793   9.836 -0.0909  0.4851 -0.4411
  817MPD2    C512025   1.139   3.678   9.916 -0.3113 -0.0973 -0.5740
  817MPD2     H12026   1.399   3.658   9.635  0.7223 -2.1030  0.3714
  817MPD2    H112027   1.119   3.886   9.865  0.1651  0.8400 -1.1668
  817MPD2    H212028   1.176   3.476   9.956 -1.9530  0.0585  0.3381
  817MPD2    H312029   1.066   3.680   9.996  1.1781 -2.8297  0.8582
  817MPD2     N12030   1.297   3.892   9.657  0.2034 -0.1014  0.0144
  817MPD2    H512031   1.367   3.871   9.587  0.5696 -0.2632  0.4286
  817MPD2    N112032   1.347   3.423   9.747  0.0270 -0.2965  0.6648
  817MPD2    H712033   1.391   3.425   9.655 -1.5256 -1.0370 -0.0942
  818MPD2     C12034   4.465   3.310   9.750 -0.1663  0.0116  1.1173
  818MPD2    C112035   4.530   3.301   9.871 -0.4078  0.9786 -0.2483
  818MPD2    C212036   4.595   3.186   9.904 -0.2911 -0.5412  0.4171
  818MPD2    C312037   4.602   3.080   9.812 -0.6453 -0.2519 -0.0672
  818MPD2    C412038   4.536   3.092   9.687  0.2128  0.0059 -0.3949
  818MPD2    C512039   4.475   3.209   9.655  0.4284 -0.1836 -0.1721
  818MPD2     H12040   4.640   3.173  10.002  2.0028  0.8380 -0.4578
  818MPD2    H112041   4.554   3.019   9.609 -0.5878  1.6090 -2.0838
  818MPD2    H212042   4.409   3.397   9.716  0.8693  0.5675  0.8292
  818MPD2    H312043   4.427   3.213   9.558  0.8148  0.4286 -0.3447
  818MPD2     N12044   4.679   2.964   9.841 -0.2585 -0.2625  0.8023
  818MPD2    H512045   4.659   2.882   9.784 -2.2070  0.1012  0.9607
  818MPD2    N112046   4.515   3.397   9.969  0.4491  0.4027  0.1862
  818MPD2    H712047   4.537   3.362  10.062  1.1670 -1.9624 -0.8896
  819MPD2     C12048   2.568   0.601  15.471  0.1101 -0.1666 -0.3113
  819MPD2    C112049   2.522   0.516  15.569 -0.6953 -0.3755  1.1847
  819MPD2    C212050   2.589   0.505  15.688 -0.2721  0.7187  0.3926
  819MPD2    C312051   2.701   0.577  15.720  0.7483 -0.2685 -0.9863
  819MPD2    C412052   2.751   0.659  15.621 -0.0644 -0.5209  0.0767
  819MPD2    C512053   2.686   0.677  15.498  0.7093 -0.2787 -0.0480
  819MPD2     H12054   2.558   0.426  15.757  0.0751  1.5541  1.4927
  819MPD2    H112055   2.835   0.725  15.642  0.3085 -0.8138 -0.4932
  819MPD2    H212056   2.517   0.620  15.377  0.3764  0.7900 -0.2671
  819MPD2    H312057   2.714   0.743  15.416  0.8685 -0.4485 -0.1316
  819MPD2     N12058   2.772   0.544  15.838  0.4944  0.1462 -0.0295
  819MPD2    H512059   2.723   0.481  15.900 -0.8828 -0.7053 -1.9847
  819MPD2    N112060   2.412   0.435  15.528  0.3019  1.2398  0.7446
  819MPD2    H712061   2.370   0.449  15.436 -2.4862 -1.0170  1.6631
  820MPD2     C12062   1.730   0.445  14.859  0.8768 -0.1968  0.5208
  820MPD2    C112063   1.787   0.535  14.950  0.2356 -0.3323 -0.5952
  820MPD2    C212064   1.846   0.487  15.065  0.6060 -0.2090 -0.3424
  820MPD2    C312065   1.860   0.351  15.078  0.4146  0.2880  0.9494
  820MPD2    C412066   1.807   0.270  14.985  0.3436  0.1194  0.6887
  820MPD2    C512067   1.754   0.316  14.870  0.4403  0.5550  0.7604
  820MPD2     H12068   1.870   0.557  15.144 -1.5679  1.0598 -0.7936
  820MPD2    H112069   1.821   0.164  15.001  0.3633 -0.3038 -2.1586
  820MPD2    H212070   1.677   0.475  14.769  1.8729 -0.0003 -0.0010
  820MPD2    H312071   1.727   0.239  14.798 -0.1854  2.5000 -1.0957
  820MPD2     N12072   1.936   0.287  15.179 -0.0103  0.1322  0.1975
  820MPD2    H512073   1.934   0.186  15.187 -0.8520  0.2327  1.3520
  820MPD2    N112074   1.758   0.673  14.932  0.4875  0.8952  0.2222
  820MPD2    H712075   1.699   0.695  14.853 -2.1209 -1.3059  1.5490
  821MPD2     C12076   2.717   1.871  12.997  0.2248  0.6238  0.0601
  821MPD2    C112077   2.787   1.901  13.113  0.1984  0.1514  0.4184
  821MPD2    C212078   2.865   2.016  13.121  0.0614  0.8243 -0.6682
  821MPD2    C312079   2.873   2.105  13.013 -0.0528 -0.4474  0.3774
  821MPD2    C412080   2.792   2.081  12.905  0.2114  0.5205  1.2119
  821MPD2    C512081   2.720   1.964  12.898  0.4862  0.4939 -0.0913
  821MPD2     H12082   2.927   2.014  13.210 -1.6818 -0.7076  0.5161
  821MPD2    H112083   2.784   2.155  12.827 -0.1885 -0.0984  0.6671
  821MPD2    H212084   2.656   1.782  12.984  1.4479 -0.0676 -0.9119
  821MPD2    H312085   2.653   1.945  12.815 -0.8673  0.3524  1.0446
  821MPD2     N12086   2.953   2.221  13.010  0.2677 -0.3942 -0.1108
  821MPD2    H512087   2.949   2.259  12.916 -0.9502 -0.0093  0.0888
  821MPD2    N112088   2.786   1.825  13.228  0.3675  0.4491  0.0947
  821MPD2    H712089   2.840   1.868  13.303  0.0675  1.2298 -0.1365
  822MPD2     C12090   3.412   2.176  15.812 -0.5979  0.1121 -0.2202
  822MPD2    C112091   3.411   2.182  15.952 -0.0670  0.3837  0.3851
  822MPD2    C212092   3.336   2.286  16.000 -1.1194  0.2466  0.6521
  822MPD2    C312093   3.267   2.378  15.931 -1.0012 -0.3559 -0.9169
  822MPD2    C412094   3.261   2.363  15.791 -0.1784 -0.9387 -0.0237
  822MPD2    C512095   3.330   2.256  15.737  0.0494  0.5160 -0.5663
  822MPD2     H12096   3.330   2.293  16.108  0.8394  1.3787  0.6854
  822MPD2    H112097   3.205   2.436  15.735  0.3898 -0.0492  0.5669
  822MPD2    H212098   3.444   2.084  15.763  2.3953  1.0079  0.0773
  822MPD2    H312099   3.336   2.228  15.632 -0.2066 -0.6881 -0.2604
  822MPD2     N12100   3.193   2.476  16.001 -0.1544 -0.4136  0.3188
  822MPD2    H512101   3.183   2.464  16.101 -0.0048 -1.1356  0.2496
  822MPD2    N112102   3.500   2.113  16.033  0.1303 -0.5723  0.5474
  822MPD2    H712103   3.480   2.115  16.133 -0.6133 -0.2213  0.3867
  823MPD2     C12104   3.034   2.745  16.754  0.1313  0.0812 -0.7256
  823MPD2    C112105   3.053   2.650  16.658 -0.1012 -0.8402  0.0974
  823MPD2    C212106   3.112   2.530  16.687  0.3779  0.8365 -0.1412
  823MPD2    C312107   3.133   2.498  16.823  0.4631 -0.1518  0.0630
  823MPD2    C412108   3.091   2.580  16.921 -0.1976  0.0714 -0.4591
  823MPD2    C512109   3.047   2.708  16.888 -0.4209 -0.4440  0.5209
  823MPD2     H12110   3.133   2.462  16.605  0.4519 -0.6728  1.1244
  823MPD2    H112111   3.090   2.552  17.026 -0.5094 -0.3295 -0.5714
  823MPD2    H212112   2.995   2.844  16.733  0.7773  0.4868  0.0193
  823MPD2    H312113   3.017   2.781  16.962 -1.5500  0.9540 -1.3295
  823MPD2     N12114   3.182   2.374  16.865 -0.3435  0.5837  0.0731
  823MPD2    H512115   3.169   2.353  16.963 -2.8719  1.9526  0.0282
  823MPD2    N112116   3.030   2.695  16.521 -0.6429  0.1098  0.3686
  823MPD2    H712117   3.021   2.795  16.510 -0.5971  0.1184  0.4102
  824MPD2     C12118   4.004   1.422  16.135 -0.2490 -0.0759 -0.2356
  824MPD2    C112119   3.967   1.502  16.033  0.3372 -0.3812  0.2502
  824MPD2    C212120   3.991   1.462  15.905  1.4700  0.3189  0.2175
  824MPD2    C312121   4.057   1.342  15.880 -0.5748 -0.4948 -0.1112
  824MPD2    C412122   4.109   1.264  15.983 -0.1936  0.2210 -0.0831
  824MPD2    C512123   4.067   1.303  16.110 -0.4381  0.0813 -0.8133
  824MPD2     H12124   3.958   1.530  15.827 -0.9443 -0.0387  0.9203
  824MPD2    H112125   4.173   1.178  15.971 -0.5377 -0.1670  0.9165
  824MPD2    H212126   3.974   1.436  16.238  0.5397 -0.8776  0.1123
  824MPD2    H312127   4.101   1.243  16.194  1.8259  2.2370 -0.2074
  824MPD2     N12128   4.083   1.306  15.742 -0.1099 -0.2832  0.4259
  824MPD2    H512129   4.050   1.372  15.672 -1.9137  1.0942  2.5833
  824MPD2    N112130   3.888   1.616  16.057 -0.2413  0.1569  0.0628
  824MPD2    H712131   3.836   1.656  15.979 -0.5550  0.0868  0.2357
  825MPD2     C12132   4.698   1.506  15.183 -0.1303  0.9403  0.2192
  825MPD2    C112133   4.603   1.518  15.277  1.0633 -0.2354  0.5495
  825MPD2    C212134   4.582   1.645  15.335 -0.1287  0.1328  0.3979
  825MPD2    C312135   4.668   1.749  15.292 -0.0702  0.2472  1.2158
  825MPD2    C412136   0.034   1.729  15.188  0.6887  0.2988  0.1134
  825MPD2    C512137   0.062   1.608  15.135  0.6178  0.4180 -0.1327
  825MPD2     H12138   4.506   1.671  15.407 -0.0320  0.5691  0.3401
  825MPD2    H112139   0.095   1.812  15.155  0.2295 -0.1239 -1.8323
  825MPD2    H212140   4.716   1.408  15.140 -1.1980  0.3397  1.1591
  825MPD2    H312141   0.134   1.601  15.055  1.5191  2.1445  0.5242
  825MPD2     N12142   4.655   1.880  15.333 -0.0990  0.1205  0.8315
  825MPD2    H512143   0.003   1.942  15.291  2.1442 -2.5456  0.5945
  825MPD2    N112144   4.522   1.413  15.312 -0.0543  0.0587  0.0770
  825MPD2    H712145   4.550   1.325  15.269 -0.2101 -0.6306  1.3702
  826MPD2     C12146   3.802   0.853  13.597 -0.2072  0.1101  0.3578
  826MPD2    C112147   3.889   0.954  13.622  0.8547  0.0365 -0.4886
  826MPD2    C212148   3.852   1.047  13.719  0.2818 -0.1919  0.7940
  826MPD2    C312149   3.752   1.021  13.802  0.0306 -0.1059 -0.4852
  826MPD2    C412150   3.674   0.914  13.794 -0.9361 -0.3438  0.3471
  826MPD2    C512151   3.697   0.835  13.684 -0.3113  0.2955 -0.2721
  826MPD2     H12152   3.915   1.133  13.738  0.7065 -0.9572  2.8447
  826MPD2    H112153   3.591   0.897  13.861 -1.2663  0.2834  0.0943
  826MPD2    H212154   3.811   0.790  13.510 -0.6537  0.1003  0.3189
  826MPD2    H312155   3.630   0.750  13.675 -1.5105  1.1753  0.3228
  826MPD2     N12156   3.722   1.102  13.910  0.8276 -0.2458 -0.2627
  826MPD2    H512157   3.661   1.066  13.983  0.8267  2.6984  1.1764
  826MPD2    N112158   4.010   0.964  13.544 -0.3316  0.3696 -0.0709
  826MPD2    H712159   4.027   0.885  13.483 -0.0716  0.3306  0.0485
  827MPD2     C12160   0.487   2.470   9.883  0.1456 -0.3246  0.2923
  827MPD2    C112161   0.501   2.353   9.950  0.8225 -0.3134 -0.5932
  827MPD2    C212162   0.431   2.241   9.904 -0.0304  0.4464 -0.5357
  827MPD2    C312163   0.376   2.239   9.780  0.4282  0.4808  0.1855
  827MPD2    C412164   0.366   2.353   9.707 -0.1695 -0.2979 -0.7290
  827MPD2    C512165   0.411   2.467   9.768  0.3298  0.0519 -0.1636
  827MPD2     H12166   0.453   2.149   9.957 -2.4207 -0.3517 -0.9679
  827MPD2    H112167   0.327   2.365   9.607 -1.2848  0.3154 -0.2195
  827MPD2    H212168   0.533   2.564   9.912  0.7738 -0.9461  1.3241
  827MPD2    H312169   0.390   2.562   9.719  0.9391  0.3080  0.0762
  827MPD2     N12170   0.340   2.111   9.726  0.4242  0.1660  0.0684
  827MPD2    H512171   0.368   2.037   9.790 -0.1067  0.9468  1.2148
  827MPD2    N112172   0.588   2.362  10.066  0.4432  0.3093 -1.2048
  827MPD2    H712173   0.627   2.453  10.089 -0.1553  0.3562 -0.3436
  828MPD2     C12174   3.252   2.258  12.775 -0.4573 -0.2418 -0.1949
  828MPD2    C112175   3.252   2.328  12.654  0.1925  0.5242  0.3172
  828MPD2    C212176   3.367   2.374  12.597  0.1501  0.4040 -0.8221
  828MPD2    C312177   3.489   2.371  12.666 -0.4460 -0.6692 -0.0163
  828MPD2    C412178   3.490   2.315  12.791 -0.1437  0.5379 -0.5621
  828MPD2    C512179   3.376   2.250  12.832  0.0569  0.1452 -0.3159
  828MPD2     H12180   3.361   2.431  12.504  1.4130 -0.6449 -1.5415
  828MPD2    H112181   3.583   2.307  12.845 -0.6157  2.6396  0.5630
  828MPD2    H212182   3.162   2.208  12.811  0.7680 -1.7164  0.7845
  828MPD2    H312183   3.381   2.202  12.929 -0.7122  0.9568  0.1181
  828MPD2     N12184   3.609   2.426  12.614  0.7132 -0.1422 -0.2645
  828MPD2    H512185   3.682   2.414  12.683  0.4306 -0.4981 -0.0253
  828MPD2    N112186   3.134   2.339  12.579 -0.0158  0.2492 -0.5402
  828MPD2    H712187   3.150   2.379  12.487  0.0648  1.9764  0.2144
  829MPD2     C12188   3.122   2.322  11.695 -0.5415  0.8955  0.2701
  829MPD2    C112189   2.994   2.281  11.727  0.2016  0.1166 -1.1694
  829MPD2    C212190   2.942   2.271  11.857  0.1443  0.2635  0.7624
  829MPD2    C312191   3.028   2.312  11.963  0.3135  0.2676  0.1960
  829MPD2    C412192   3.160   2.338  11.933 -0.5312 -0.3375 -0.0084
  829MPD2    C512193   3.203   2.341  11.802 -0.1408  0.1278  0.1467
  829MPD2     H12194   2.843   2.232  11.877  0.6563 -1.0266  0.7616
  829MPD2    H112195   3.230   2.354  12.015 -1.0718 -0.2075  0.4257
  829MPD2    H212196   3.160   2.322  11.593  0.0612 -1.6276  0.5131
  829MPD2    H312197   3.307   2.364  11.785 -0.2916  0.3607 -0.4750
  829MPD2     N12198   2.989   2.331  12.096  0.2971  0.3738 -0.0747
  829MPD2    H512199   3.057   2.358  12.167  0.9135 -0.8150 -0.2321
  829MPD2    N112200   2.918   2.242  11.613  0.0993 -0.0108  0.0289
  829MPD2    H712201   2.964   2.250  11.523 -0.4027 -3.6868 -0.5622
  830MPD2     C12202   2.783   0.023  15.665 -0.1119  0.1647  0.0477
  830MPD2    C112203   2.900   0.078  15.696 -0.1337 -0.2697  0.0440
  830MPD2    C212204   2.998   0.103  15.595 -0.5082 -0.4683 -0.1498
  830MPD2    C312205   2.974   0.054  15.471 -0.7718  0.2210  0.1709
  830MPD2    C412206   2.851   4.715  15.442  0.2655 -0.1768  0.2495
  830MPD2    C512207   2.760   4.694  15.539  0.4549 -0.3567  0.5229
  830MPD2     H12208   3.088   0.162  15.611  0.8535 -2.2419 -1.3485
  830MPD2    H112209   2.827   4.693  15.339  0.5547  2.5245 -0.3758
  830MPD2    H212210   2.705   0.013  15.740 -1.5502  0.0910 -1.4609
  830MPD2    H312211   2.665   4.646  15.517 -0.0596  0.4787  0.8936
  830MPD2     N12212   3.053   0.103  15.366  0.1513 -0.0267  0.1806
  830MPD2    H512213   3.011   0.094  15.274  1.2090 -1.0376 -0.1993
  830MPD2    N112214   2.926   0.113  15.829  0.2799 -0.2268 -0.5341
  830MPD2    H712215   2.848   0.115  15.894  1.6357  2.1710  1.0081
  831MPD2     C12216   3.527   2.654  16.302 -0.0873  0.0576 -0.1407
  831MPD2    C112217   3.567   2.527  16.274  0.1088  0.3577 -0.2354
  831MPD2    C212218   3.484   2.418  16.304  0.2295 -0.4328 -0.2912
  831MPD2    C312219   3.359   2.444  16.352 -0.5213  0.2761 -0.3683
  831MPD2    C412220   3.336   2.570  16.408 -0.4760 -0.3211  0.3169
  831MPD2    C512221   3.417   2.672  16.373 -0.4557  0.3199  0.5325
  831MPD2     H12222   3.520   2.318  16.284  0.4708 -0.8835  2.3967
  831MPD2    H112223   3.254   2.590  16.475  0.4406  2.6031  0.5737
  831MPD2    H212224   3.598   2.736  16.294 -0.6313  0.7962  2.7653
  831MPD2    H312225   3.393   2.769  16.414 -1.6262 -0.5933  2.0005
  831MPD2     N12226   3.258   2.353  16.378  0.3111  0.2998  0.3960
  831MPD2    H512227   3.175   2.397  16.417 -2.0212 -1.3254 -2.7614
  831MPD2    N112228   3.687   2.501  16.210 -0.5882 -0.1177  0.1755
  831MPD2    H712229   3.734   2.576  16.161 -1.6421 -0.9091 -2.0465
  832MPD2     C12230   1.994   3.790  17.320 -0.5910  0.0336  0.7350
  832MPD2    C112231   1.945   3.913  17.287 -1.1108  0.3223  0.1939
  832MPD2    C212232   1.838   3.911  17.199  0.0791 -0.3971  0.3162
  832MPD2    C312233   1.789   3.793  17.143  0.7887 -0.3494  0.6459
  832MPD2    C412234   1.845   3.674  17.178 -0.7279  0.2039  0.3854
  832MPD2    C512235   1.941   3.672  17.278  1.2521  0.4647 -0.1626
  832MPD2     H12236   1.792   4.006  17.175  1.9301  0.0240 -1.5850
  832MPD2    H112237   1.805   3.581  17.141 -0.2200  0.7670 -1.5450
  832MPD2    H212238   2.076   3.778  17.389 -0.3250 -1.7991  0.1002
  832MPD2    H312239   1.995   3.583  17.311 -2.4928 -1.4679  0.6998
  832MPD2     N12240   1.679   3.798  17.048 -0.1261  0.3571 -0.5000
  832MPD2    H512241   1.634   3.709  17.029  1.1478 -0.7703  1.7358
  832MPD2    N112242   2.008   4.030  17.347 -0.9336  0.3238  0.0996
  832MPD2    H712243   2.087   4.012  17.408 -0.9723 -4.3019 -1.1455
  833MPD2     C12244   4.118   4.018  11.975 -0.3043  0.3216  0.3292
  833MPD2    C112245   4.209   4.082  12.052 -0.5097  0.1873  0.3264
  833MPD2    C212246   4.333   4.119  12.006  0.4571  0.2267  0.4567
  833MPD2    C312247   4.344   4.113  11.866 -0.1645  0.3447 -0.0197
  833MPD2    C412248   4.245   4.057  11.787 -0.0684 -0.3991 -0.6737
  833MPD2    C512249   4.133   4.001  11.844 -0.0925 -0.3532 -0.2786
  833MPD2     H12250   4.410   4.169  12.064  1.1188 -0.0769 -0.1527
  833MPD2    H112251   4.266   4.057  11.681  0.2646  1.7082 -0.6009
  833MPD2    H212252   4.034   3.958  12.008  0.1400 -1.4315 -1.7033
  833MPD2    H312253   4.060   3.945  11.787  1.2319 -2.8641  0.4914
  833MPD2     N12254   4.450   4.183  11.814  0.1672 -0.1928  0.0112
  833MPD2    H512255   4.508   4.231  11.883  0.5450  0.2980 -0.6441
  833MPD2    N112256   4.187   4.103  12.193 -0.0090 -0.0794  0.1767
  833MPD2    H712257   4.260   4.154  12.242 -0.7171 -1.6718  2.8834
  834MPD2     C12258   4.041   0.033  11.326  0.6576  0.3978 -0.7567
  834MPD2    C112259   4.129   4.678  11.256  0.8980 -0.6298  0.1923
  834MPD2    C212260   4.247   4.636  11.313 -0.2453 -0.5009  0.1066
  834MPD2    C312261   4.275   4.678  11.443 -0.3904 -0.6423 -0.6227
  834MPD2    C412262   4.194   0.057  11.501 -0.0180 -0.9793  0.6034
  834MPD2    C512263   4.076   0.091  11.443  0.7728  0.3671  0.4053
  834MPD2     H12264   4.315   4.582  11.248  1.1554 -1.6118  2.4855
  834MPD2    H112265   4.214   0.097  11.600 -3.5953  0.6650  0.6721
  834MPD2    H212266   3.957   0.082  11.279  0.0696 -1.4955 -1.7043
  834MPD2    H312267   4.008   0.160  11.490  0.7206  0.4278  0.2431
  834MPD2     N12268   4.389   4.625  11.501 -0.3456 -0.3168 -0.3171
  834MPD2    H512269   4.426   4.545  11.451  3.4980  1.8562 -0.9076
  834MPD2    N112270   4.092   4.647  11.125 -0.5054  0.0191 -0.2018
  834MPD2    H712271   4.004   4.684  11.090 -1.3435 -1.3535  0.4538
  835MPD2     C12272   4.400   2.658  11.036  0.0653  0.3541  0.1703
  835MPD2    C112273   4.272   2.607  11.024  0.2915  0.1087 -0.1937
  835MPD2    C212274   4.195   2.603  11.141 -0.7482 -0.3049 -0.4194
  835MPD2    C312275   4.239   2.656  11.264 -0.7956  0.5398  0.0622
  835MPD2    C412276   4.371   2.699  11.267  0.3983 -0.7653  0.5706
  835MPD2    C512277   4.447   2.698  11.155 -0.3068 -0.0589  0.0410
  835MPD2     H12278   4.093   2.584  11.112 -1.8922  2.1789  2.0353
  835MPD2    H112279   4.416   2.732  11.360 -2.2777  2.2278  0.7998
  835MPD2    H212280   4.465   2.665  10.949  0.8468 -1.3830  0.6043
  835MPD2    H312281   4.553   2.719  11.158 -0.7097  2.0386 -0.6325
  835MPD2     N12282   4.173   2.660  11.387 -0.3193 -0.0619 -0.4268
  835MPD2    H512283   4.214   2.714  11.463  0.5976 -0.6883 -0.4810
  835MPD2    N112284   4.208   2.575  10.902  0.1699  0.4558 -0.0693
  835MPD2    H712285   4.109   2.556  10.906  0.1920  0.5926  0.9642
  836MPD2     C12286   3.409   2.597  11.384 -0.3554 -0.4175 -0.0887
  836MPD2    C112287   3.454   2.596  11.511  0.0897 -0.8579  0.2520
  836MPD2    C212288   3.368   2.636  11.620  0.1405 -0.2970  0.1655
  836MPD2    C312289   3.231   2.654  11.588  1.4804 -0.3292  0.6919
  836MPD2    C412290   3.191   2.647  11.458 -0.5394 -0.1412 -0.5042
  836MPD2    C512291   3.281   2.622  11.357  0.8258 -0.4629  0.0394
  836MPD2     H12292   3.417   2.645  11.716 -0.3283  3.1294  0.0710
  836MPD2    H112293   3.089   2.668  11.429 -0.1351 -0.4982 -2.1830
  836MPD2    H212294   3.465   2.560  11.299  1.4028 -0.0877  0.9389
  836MPD2    H312295   3.241   2.618  11.256  0.6592 -0.7361  0.1145
  836MPD2     N12296   3.134   2.679  11.688 -0.4133 -0.0546  0.4112
  836MPD2    H512297   3.036   2.689  11.663 -0.3170 -0.4526 -0.1286
  836MPD2    N112298   3.599   2.586  11.536 -0.4329 -0.6836  0.4168
  836MPD2    H712299   3.656   2.582  11.452  2.0153  0.5379  2.0244
  837MPD2     C12300   2.664   1.497   9.970 -0.3081 -0.3758  0.2947
  837MPD2    C112301   2.530   1.510  10.000 -0.0105  0.6592  0.2615
  837MPD2    C212302   2.483   1.616  10.065 -0.2765  0.0284 -0.0081
  837MPD2    C312303   2.569   1.722  10.101  0.8597  0.1986 -0.1895
  837MPD2    C412304   2.705   1.710  10.083 -0.5948 -0.5213 -0.7819
  837MPD2    C512305   2.751   1.597  10.017 -0.1994 -0.5276 -0.2488
  837MPD2     H12306   2.380   1.614  10.099  0.3082 -1.5928  1.6701
  837MPD2    H112307   2.766   1.798  10.099  1.3972 -2.6877  3.4887
  837MPD2    H212308   2.705   1.419   9.908  2.2157  2.5907 -1.7527
  837MPD2    H312309   2.851   1.582   9.980 -0.6754 -0.6971 -1.4677
  837MPD2     N12310   2.502   1.825  10.166  0.2635 -0.0311  0.0573
  837MPD2    H512311   2.403   1.810  10.184  1.2979 -1.8864  4.1935
  837MPD2    N112312   2.430   1.417   9.955  0.2711  0.2577 -0.0087
  837MPD2    H712313   2.334   1.443   9.975 -0.6896 -1.8594 -1.8058
  838MPD2     C12314   0.405   0.587  11.189 -0.3000 -0.6172 -0.4618
  838MPD2    C112315   0.448   0.530  11.304  0.1148 -0.0565  0.0755
  838MPD2    C212316   0.367   0.446  11.381 -0.3796 -0.8285 -1.0258
  838MPD2    C312317   0.239   0.407  11.346 -0.3182  0.6919  0.4223
  838MPD2    C412318   0.197   0.464  11.224  0.2468  0.7478  0.0758
  838MPD2    C512319   0.274   0.555  11.155 -0.3703 -0.4288 -0.4781
  838MPD2     H12320   0.406   0.400  11.472 -0.8552  1.5428  0.3582
  838MPD2    H112321   0.096   0.448  11.189  0.5337  0.7756 -0.7590
  838MPD2    H212322   0.454   0.660  11.126 -0.4851 -0.4706 -0.4368
  838MPD2    H312323   0.239   0.596  11.061 -1.4773  1.2055  0.6548
  838MPD2     N12324   0.166   0.325  11.435  0.3378 -0.3868  0.4638
  838MPD2    H512325   0.214   0.306  11.523 -0.5595 -2.0805  0.5895
  838MPD2    N112326   0.579   0.541  11.351 -0.6648 -0.2208 -0.1874
  838MPD2    H712327   0.595   0.483  11.433 -0.1198 -1.5344 -1.2175
  839MPD2     C12328   0.411   0.010  11.566  0.0351  0.0550  0.7165
  839MPD2    C112329   0.429   0.029  11.436  0.0833  0.1539  0.5554
  839MPD2    C212330   0.551   0.091  11.403 -0.4361 -0.9888 -0.5243
  839MPD2    C312331   0.637   0.137  11.503  0.3795 -0.8263 -0.0792
  839MPD2    C412332   0.595   0.123  11.631  0.0551  0.3297  0.3758
  839MPD2    C512333   0.486   0.066  11.664  0.8373 -0.2046 -0.5318
  839MPD2     H12334   0.579   0.103  11.299 -1.3011 -2.5134 -0.9231
  839MPD2    H112335   0.646   0.163  11.718  0.0506  0.1540  0.4587
  839MPD2    H212336   0.332   4.678  11.618 -1.2082  1.5599  0.3612
  839MPD2    H312337   0.463   0.053  11.769 -1.2856 -0.9586 -1.0806
  839MPD2     N12338   0.746   0.223  11.480 -0.0172 -0.2559  0.5410
  839MPD2    H512339   0.791   0.274  11.555 -0.2406  0.7239  0.0026
  839MPD2    N112340   0.337   4.708  11.341 -0.0530 -0.0331 -0.2578
  839MPD2    H712341   0.370   4.689  11.247  0.1931  0.5043 -0.2800
  840MPD2     C12342   1.137   2.665  10.034 -0.1470  0.9248  0.2301
  840MPD2    C112343   1.102   2.640  10.169 -0.7573 -0.0919 -0.7246
  840MPD2    C212344   1.145   2.731  10.269 -0.4693  0.9033  0.7266
  840MPD2    C312345   1.222   2.837  10.234 -0.1087  0.3327 -0.1016
  840MPD2    C412346   1.250   2.862  10.097 -0.2217  0.1580  0.0438
  840MPD2    C512347   1.211   2.771  10.002  0.1220 -0.3354  0.0324
  840MPD2     H12348   1.112   2.720  10.371 -0.7325  1.3267  0.6852
  840MPD2    H112349   1.297   2.953  10.061 -0.1540 -0.7480 -2.2110
  840MPD2    H212350   1.105   2.603   9.952  0.6600  0.4352  0.2787
  840MPD2    H312351   1.229   2.784   9.896  1.4961  0.7371  0.3829
  840MPD2     N12352   1.266   2.928  10.329  1.0934 -0.4708 -0.3065
  840MPD2    H512353   1.338   2.991  10.295 -0.1696  1.5237  0.6833
  840MPD2    N112354   1.023   2.524  10.201 -0.0049 -0.2539  0.4563
  840MPD2    H712355   0.983   2.465  10.128 -0.2257 -0.0969  0.4509
  841MPD2     C12356   4.647   3.083  14.588  0.5010  0.0020  0.2089
  841MPD2    C112357   4.700   2.980  14.670 -0.4862  0.7370  0.2050
  841MPD2    C212358   0.066   3.026  14.771  0.1707  0.1563  0.0578
  841MPD2    C312359   0.109   3.157  14.790 -0.2123 -0.7099  0.4402
  841MPD2    C412360   0.054   3.249  14.705 -0.4592 -0.1732  0.1517
  841MPD2    C512361   4.694   3.209  14.603 -0.0612  0.3592 -0.6721
  841MPD2     H12362   0.117   2.954  14.834 -1.3812 -1.7688 -0.8852
  841MPD2    H112363   0.080   3.354  14.697 -1.3300 -0.0587 -1.3816
  841MPD2    H212364   4.578   3.070  14.505 -2.6801 -1.3492  3.0575
  841MPD2    H312365   4.672   3.283  14.526 -0.6852  1.1288  0.2519
  841MPD2     N12366   0.211   3.192  14.886 -0.0741 -0.2102 -0.2346
  841MPD2    H512367   0.245   3.119  14.947  1.4539  0.1357 -0.6693
  841MPD2    N112368   4.684   2.844  14.647 -0.4877 -0.2877  0.5369
  841MPD2    H712369   0.014   2.782  14.708  0.1026  1.2549  1.6068
  842MPD2     C12370   0.706   3.543  17.012  0.4697  0.2338 -1.6054
  842MPD2    C112371   0.690   3.651  16.929 -0.8817 -0.7233  0.2946
  842MPD2    C212372   0.732   3.780  16.977 -0.4612  0.0945 -0.5199
  842MPD2    C312373   0.779   3.792  17.107  0.4713 -0.6488  0.1168
  842MPD2    C412374   0.804   3.678  17.188  0.1962  0.6356 -0.2187
  842MPD2    C512375   0.770   3.556  17.135  0.1099 -0.2855 -0.0859
  842MPD2     H12376   0.703   3.867  16.918 -0.6739 -1.2030 -2.3332
  842MPD2    H112377   0.819   3.685  17.295 -1.9240 -0.8082  0.1751
  842MPD2    H212378   0.680   3.444  16.976 -0.8283 -0.4172  1.1567
  842MPD2    H312379   0.765   3.461  17.186  4.1187  0.8657  2.4136
  842MPD2     N12380   0.819   3.921  17.166 -0.0228 -0.2978 -0.7271
  842MPD2    H512381   0.833   3.934  17.265 -0.6096 -1.7375 -0.4482
  842MPD2    N112382   0.631   3.628  16.799 -0.1882  0.4123  0.0548
  842MPD2    H712383   0.576   3.543  16.794  1.0860 -0.4459  0.5984
  843MPD2     C12384   2.586   4.391  17.469 -0.2791  0.2063  0.1509
  843MPD2    C112385   2.645   4.333  17.579  0.3201 -0.2599  0.0995
  843MPD2    C212386   2.766   4.384  17.630  0.7701 -0.4154  0.2780
  843MPD2    C312387   2.832   4.501  17.575 -0.1052 -0.4000  0.1661
  843MPD2    C412388   2.759   4.572  17.475 -0.1994  0.8731 -0.2310
  843MPD2    C512389   2.643   4.511  17.425  0.7683 -0.0803 -0.0297
  843MPD2     H12390   2.807   4.339   0.033 -0.2467 -0.4783  0.7091
  843MPD2    H112391   2.809   4.656  17.429 -0.7898  0.7907 -1.0231
  843MPD2    H212392   2.488   4.358  17.438 -0.1392 -0.2667  0.2080
  843MPD2    H312393   2.592   4.569  17.350 -0.7229 -1.0515  0.2396
  843MPD2     N12394   2.957   4.550  17.618  0.3720 -0.1034 -0.3240
  843MPD2    H512395   2.978   4.647  17.599 -0.7112 -0.4194 -3.2153
  843MPD2    N112396   2.568   4.234  17.637  0.6062  0.0482 -0.7039
  843MPD2    H712397   2.481   4.215  17.589 -1.2806 -1.4924  3.3215
  844MPD2     C12398   1.326   3.437  16.534  0.5550  0.1340 -0.0836
  844MPD2    C112399   1.441   3.368  16.518  0.8228  0.3754  0.8582
  844MPD2    C212400   1.555   3.417  16.566 -0.1208 -0.6800 -0.3565
  844MPD2    C312401   1.561   3.543  16.636 -0.1574  0.4081  0.2129
  844MPD2    C412402   1.441   3.604  16.658  0.4397 -0.7140 -0.0299
  844MPD2    C512403   1.318   3.552  16.604 -0.2245 -0.2132  0.6653
  844MPD2     H12404   1.653   3.375  16.547  1.3333  2.8190 -0.6165
  844MPD2    H112405   1.428   3.700  16.706 -1.7842 -0.6360 -0.7831
  844MPD2    H212406   1.232   3.397  16.500  0.1238  1.3468 -0.3434
  844MPD2    H312407   1.226   3.602  16.633  0.2742 -0.5435  2.8730
  844MPD2     N12408   1.683   3.604  16.662 -0.2333 -0.4482 -0.0600
  844MPD2    H512409   1.760   3.541  16.646 -1.2101 -1.7620  0.4617
  844MPD2    N112410   1.444   3.241  16.458 -0.0364 -0.0603  0.2518
  844MPD2    H712411   1.518   3.179  16.487  0.0112 -0.0490  0.1513
  845MPD2     C12412   1.867   4.536  16.985  0.6143  0.5654 -0.5756
  845MPD2    C112413   1.773   4.440  17.001  0.4028  0.6184  0.3410
  845MPD2    C212414   1.792   4.323  16.937  0.4557  0.0072  0.3329
  845MPD2    C312415   1.910   4.288  16.866 -0.5295  0.1496  0.4782
  845MPD2    C412416   2.014   4.376  16.875 -0.1070  0.1547 -0.1536
  845MPD2    C512417   1.991   4.500  16.937 -0.0696 -0.3640 -0.4637
  845MPD2     H12418   1.721   4.241  16.950  0.7327 -0.2225  0.3856
  845MPD2    H112419   2.112   4.357  16.834 -0.2726  1.6451 -1.2315
  845MPD2    H212420   1.843   4.637  17.016  0.5459  1.0731 -2.2887
  845MPD2    H312421   2.071   4.574  16.936  0.7439 -1.2415  0.1359
  845MPD2     N12422   1.914   4.161  16.812 -0.0150  0.2365 -0.2129
  845MPD2    H512423   1.829   4.105  16.811  1.1503 -1.5135 -1.9893
  845MPD2    N112424   1.651   4.461  17.065 -0.7776 -0.2005  0.0139
  845MPD2    H712425   1.636   4.543  17.124 -1.8666 -0.4781  0.1186
  846MPD2     C12426   3.478   4.369  13.942  0.4750 -0.8812 -0.7240
  846MPD2    C112427   3.346   4.391  13.917  0.5339  0.1082 -0.3277
  846MPD2    C212428   3.263   4.378  14.026  0.1509 -0.4004  0.1619
  846MPD2    C312429   3.311   4.355  14.153  0.0826  0.3703  0.0911
  846MPD2    C412430   3.444   4.353  14.171  0.2649  0.2470 -0.3729
  846MPD2    C512431   3.535   4.366  14.067  0.3433 -0.5181 -0.1436
  846MPD2     H12432   3.156   4.387  14.015  0.1579 -1.7526 -1.0367
  846MPD2    H112433   3.498   4.354  14.265  0.4709  2.3061 -0.5128
  846MPD2    H212434   3.544   4.374  13.856  0.0813  1.7334 -0.8821
  846MPD2    H312435   3.642   4.362  14.086  0.7501 -0.8758 -2.4796
  846MPD2     N12436   3.218   4.340  14.250  0.0723  0.4622 -0.7880
  846MPD2    H512437   3.120   4.338  14.225 -0.1302  2.1495 -0.1295
  846MPD2    N112438   3.300   4.402  13.787 -0.0190  0.8245 -0.1563
  846MPD2    H712439   3.200   4.417  13.777 -0.2317 -0.0421  0.6647
  847MPD2     C12440   3.812   0.499  14.225  0.4263  0.2634 -0.3168
  847MPD2    C112441   3.712   0.497  14.317  0.7233  0.1272  0.4831
  847MPD2    C212442   3.642   0.380  14.330  0.3023 -0.2670 -0.0325
  847MPD2    C312443   3.672   0.270  14.258  0.0345  0.4206 -0.6873
  847MPD2    C412444   3.770   0.276  14.162  0.1622  0.4680  0.1142
  847MPD2    C512445   3.831   0.394  14.143 -0.4253  0.8122 -0.5480
  847MPD2     H12446   3.558   0.367  14.398 -0.0195 -1.7871 -0.7202
  847MPD2    H112447   3.784   0.193  14.094  0.5042  1.9904 -1.6798
  847MPD2    H212448   3.874   0.585  14.208 -0.6411  1.0588 -0.1757
  847MPD2    H312449   3.897   0.408  14.058 -0.3820  0.6059 -0.5475
  847MPD2     N12450   3.592   0.156  14.278  0.0365 -0.5899 -0.2622
  847MPD2    H512451   3.517   0.169  14.344 -0.4787 -0.9454 -0.7764
  847MPD2    N112452   3.679   0.606  14.395  0.1737  0.2526  1.3251
  847MPD2    H712453   3.597   0.592  14.453 -0.5760  3.8086  1.1609
  848MPD2     C12454   1.317   4.255  16.456  0.7959 -0.5063 -0.7916
  848MPD2    C112455   1.244   4.219  16.571 -0.0348  0.0778 -0.1818
  848MPD2    C212456   1.117   4.277  16.584  0.1523 -0.2567 -0.8766
  848MPD2    C312457   1.067   4.369  16.492 -0.1317 -0.5389  0.4080
  848MPD2    C412458   1.144   4.413  16.392  0.0415  0.1245  0.5639
  848MPD2    C512459   1.266   4.358  16.378 -0.3039 -0.4972 -0.0968
  848MPD2     H12460   1.056   4.241  16.667 -1.1387 -0.9715 -2.1421
  848MPD2    H112461   1.110   4.491  16.325 -1.9304 -1.5818 -0.4583
  848MPD2    H212462   1.416   4.217  16.434  0.9776 -0.3415 -0.2508
  848MPD2    H312463   1.318   4.400  16.292 -0.4846  0.2582  0.1611
  848MPD2     N12464   0.941   4.427  16.522  0.1488  0.3961 -0.6416
  848MPD2    H512465   0.895   4.402  16.609 -2.7663  0.3469 -2.2134
  848MPD2    N112466   1.299   4.125  16.664  0.2382  0.0873  0.5130
  848MPD2    H712467   1.399   4.111  16.653 -0.1489 -1.9092 -0.3812
  849MPD2     C12468   0.299   3.408  14.254  0.5172  0.2694  0.0118
  849MPD2    C112469   0.402   3.482  14.211 -0.8816  0.3329  0.2938
  849MPD2    C212470   0.509   3.517  14.294 -0.1057 -0.3703 -0.9724
  849MPD2    C312471   0.514   3.470  14.426 -0.0177  0.1080 -0.6821
  849MPD2    C412472   0.407   3.399  14.469  0.6907  0.4658 -0.1461
  849MPD2    C512473   0.297   3.377  14.385 -0.0910  0.2614  0.1660
  849MPD2     H12474   0.593   3.561  14.241  0.6708 -2.2829 -1.3048
  849MPD2    H112475   0.408   3.354  14.567  1.0000  0.6298 -0.0743
  849MPD2    H212476   0.204   3.390  14.205  1.3659 -1.2954 -1.0517
  849MPD2    H312477   0.205   3.335  14.424  0.4829 -0.1288  1.1005
  849MPD2     N12478   0.634   3.463  14.502 -0.0109 -0.5713  0.2446
  849MPD2    H512479   0.642   3.403  14.583 -0.0362 -1.7189 -0.5866
  849MPD2    N112480   0.403   3.516  14.070 -0.9571 -0.6364 -0.1455
  849MPD2    H712481   0.337   3.467  14.011  0.4823  0.4803 -2.6529
  850MPD2     C12482   3.655   1.362  14.566  0.8514 -0.5097 -0.3257
  850MPD2    C112483   3.595   1.430  14.672 -0.0753 -0.5168  0.6249
  850MPD2    C212484   3.674   1.476  14.776  0.3336  0.2570 -0.1296
  850MPD2    C312485   3.818   1.472  14.763 -0.3584 -0.5662 -0.4321
  850MPD2    C412486   3.871   1.422  14.643 -0.4679  0.1843  0.0566
  850MPD2    C512487   3.791   1.358  14.551  0.1497 -0.1767 -0.2623
  850MPD2     H12488   3.616   1.508  14.862  0.7825 -2.8619  1.3517
  850MPD2    H112489   3.979   1.424  14.630 -0.5027  1.9481 -0.0461
  850MPD2    H212490   3.592   1.300  14.503 -0.1055 -2.9872  3.0910
  850MPD2    H312491   3.839   1.306  14.469  0.6492  1.4152 -0.9965
  850MPD2     N12492   3.906   1.534  14.852 -0.0082 -0.3150  0.2961
  850MPD2    H512493   4.004   1.520  14.828 -0.1349 -2.7990  1.3315
  850MPD2    N112494   3.449   1.422  14.669 -0.7866  0.2371  0.1567
  850MPD2    H712495   3.400   1.404  14.582 -0.3695 -2.7356  0.5260
  851MPD2     C12496   3.710   0.910  15.323  0.6894  0.2509  0.7531
  851MPD2    C112497   3.628   0.930  15.210 -0.4299  0.1585 -0.1821
  851MPD2    C212498   3.554   0.814  15.169 -0.0205  0.0726 -0.0431
  851MPD2    C312499   3.569   0.686  15.220  0.7787  0.1251  0.8307
  851MPD2    C412500   3.659   0.673  15.324  0.2693  0.6462  0.3148
  851MPD2    C512501   3.721   0.780  15.378  0.8521  0.6742  0.5830
  851MPD2     H12502   3.493   0.825  15.081 -1.8893  0.7882  1.3366
  851MPD2    H112503   3.677   0.575  15.368  1.0973 -0.2397 -2.0059
  851MPD2    H212504   3.774   0.987  15.363  1.0934  0.8223 -0.9732
  851MPD2    H312505   3.789   0.766  15.461  1.0511  0.9740  0.4719
  851MPD2     N12506   3.489   0.578  15.174 -0.8230 -0.0498  0.2490
  851MPD2    H512507   3.421   0.608  15.104 -0.5932 -1.2493 -0.4910
  851MPD2    N112508   3.618   1.059  15.149  0.4435  0.1101  0.1981
  851MPD2    H712509   3.678   1.129  15.192  0.6978 -2.4852  4.0486
  852MPD2     C12510   3.875   3.141   9.149  0.8585  0.7992  0.4194
  852MPD2    C112511   3.829   3.210   9.261 -0.1572  0.0026  0.4336
  852MPD2    C212512   3.865   3.338   9.271  0.0262 -0.1626 -0.1007
  852MPD2    C312513   3.950   3.399   9.188  0.3514 -0.3279  0.6864
  852MPD2    C412514   3.990   3.331   9.078 -0.0089  0.1094  0.2954
  852MPD2    C512515   3.954   3.201   9.053  0.2361 -0.4278  1.1387
  852MPD2     H12516   3.824   3.398   9.351 -1.8127  0.6528 -1.6402
  852MPD2    H112517   4.050   3.384   9.004  1.0668 -1.4483  0.0628
  852MPD2    H212518   3.847   3.038   9.131  0.0818  0.8512  1.3386
  852MPD2    H312519   3.991   3.150   8.965 -1.7294 -1.5092  0.9267
  852MPD2     N12520   3.997   3.523   9.223  0.4365  0.2399  0.0218
  852MPD2    H512521   3.958   3.557   9.311 -0.3360 -2.4827  0.7405
  852MPD2    N112522   3.761   3.148   9.367 -0.1745  0.1644 -0.0292
  852MPD2    H712523   3.758   3.195   9.457  1.6426  0.8857 -0.3387
  853MPD2     C12524   0.575   3.750  12.344  0.3070  0.0182  0.2668
  853MPD2    C112525   0.457   3.794  12.300 -0.7539 -0.7013 -0.3738
  853MPD2    C212526   0.439   3.782  12.162 -0.2310 -0.1266 -0.0814
  853MPD2    C312527   0.539   3.741  12.070  0.6772 -0.3783 -0.1658
  853MPD2    C412528   0.657   3.690  12.126 -0.2304 -0.6122  0.8082
  853MPD2    C512529   0.672   3.695  12.267  0.0963 -0.1036  0.6321
  853MPD2     H12530   0.343   3.802  12.116  0.1950  2.9060  0.3272
  853MPD2    H112531   0.732   3.652  12.059 -0.0713  2.1190 -0.5672
  853MPD2    H212532   0.588   3.748  12.452 -2.6163  0.0330  0.6172
  853MPD2    H312533   0.763   3.666  12.317 -1.2581 -2.6329  1.6465
  853MPD2     N12534   0.529   3.740  11.930 -0.4068  0.8402  0.7790
  853MPD2    H512535   0.607   3.693  11.886 -1.8800 -1.0202  0.1444
  853MPD2    N112536   0.362   3.832  12.397  0.4175 -0.4525  0.0569
  853MPD2    H712537   0.387   3.852  12.493  1.1875 -4.0708  0.6227
  854MPD2     C12538   2.560   4.423  12.661 -0.1704  0.5360 -0.4782
  854MPD2    C112539   2.445   4.345  12.667 -0.5799 -0.2338  0.1802
  854MPD2    C212540   2.446   4.234  12.739  0.0671 -0.3212  0.5694
  854MPD2    C312541   2.561   4.193  12.813 -0.1290  0.8085  0.6760
  854MPD2    C412542   2.669   4.279  12.814 -0.5623 -0.7444  0.4010
  854MPD2    C512543   2.672   4.388  12.733  0.5991 -0.2186 -0.4694
  854MPD2     H12544   2.368   4.160  12.726 -0.0007 -0.1371 -0.0844
  854MPD2    H112545   2.750   4.246  12.877 -0.0399 -0.0838  0.0653
  854MPD2    H212546   2.571   4.511  12.600 -1.0723  0.8668 -0.1667
  854MPD2    H312547   2.754   4.458  12.726  0.2708  0.1029 -1.1019
  854MPD2     N12548   2.579   4.078  12.887 -0.1430 -0.4857 -0.0834
  854MPD2    H512549   2.666   4.062  12.937  0.4521  0.9135 -0.6716
  854MPD2    N112550   2.341   4.382  12.587 -0.1929 -0.2635  0.1158
  854MPD2    H712551   2.349   4.461  12.524 -0.5354 -0.6048 -0.3520
  855MPD2     C12552   1.953   3.362  13.255 -0.5501  0.0724 -0.5017
  855MPD2    C112553   2.072   3.363  13.322 -0.7386  0.4269 -0.2853
  855MPD2    C212554   2.165   3.453  13.285 -0.3846  0.5428 -0.3889
  855MPD2    C312555   2.139   3.563  13.200  0.4001 -0.5177  0.1431
  855MPD2    C412556   2.013   3.566  13.138 -0.3447 -0.1990 -0.8090
  855MPD2    C512557   1.915   3.467  13.171 -0.3387 -0.2731  0.3137
  855MPD2     H12558   2.267   3.436  13.318 -0.8716 -1.6590 -0.0646
  855MPD2    H112559   1.989   3.644  13.066 -0.9326 -1.3754 -1.8918
  855MPD2    H212560   1.879   3.285  13.275  0.9412 -1.3922 -0.6028
  855MPD2    H312561   1.824   3.469  13.112 -2.5656  2.1037  3.8365
  855MPD2     N12562   2.238   3.659  13.178  0.1383 -0.3964  0.1688
  855MPD2    H512563   2.221   3.711  13.092 -1.8410 -2.5808 -0.8027
  855MPD2    N112564   2.102   3.266  13.422  0.1129  0.3587 -0.3107
  855MPD2    H712565   2.186   3.279  13.477 -0.0185  1.8811 -0.4568
  856MPD2     C12566   4.547   4.627  13.155 -0.4307  0.2640  0.3440
  856MPD2    C112567   4.512   4.656  13.284 -0.4502 -0.7630 -0.6014
  856MPD2    C212568   4.393   4.713  13.318 -0.4364 -0.1562  1.5806
  856MPD2    C312569   4.303   0.029  13.221 -0.4310 -0.0446  0.4803
  856MPD2    C412570   4.337   0.001  13.093 -0.3319  0.1935  0.3833
  856MPD2    C512571   4.459   4.663  13.064 -0.5205 -0.6907  0.1887
  856MPD2     H12572   4.367   0.008  13.422 -2.3899 -0.4322  1.1390
  856MPD2    H112573   4.275   0.035  13.011 -1.3096 -2.3417  0.0790
  856MPD2    H212574   4.639   4.579  13.122 -1.5809 -0.8016 -1.3162
  856MPD2    H312575   4.488   4.656  12.959 -0.3619 -1.2646  0.2702
  856MPD2     N12576   4.184   0.095  13.257 -0.9374 -0.4981 -0.2011
  856MPD2    H512577   4.161   0.107  13.355  0.4570 -1.2245  0.2135
  856MPD2    N112578   4.597   4.617  13.391  0.0632  0.1879 -0.0975
  856MPD2    H712579   4.567   4.634  13.486  1.7355 -2.0740  0.8331
  857MPD2     C12580   1.070   2.073  12.599 -0.2890 -0.1035  0.1243
  857MPD2    C112581   1.207   2.052  12.615 -0.0434  0.5773  0.4859
  857MPD2    C212582   1.277   2.157  12.671 -0.0190 -0.0962 -0.2588
  857MPD2    C312583   1.214   2.272  12.706 -0.3025 -0.2948  0.3571
  857MPD2    C412584   1.079   2.289  12.685  0.4381 -0.0589 -0.0405
  857MPD2    C512585   1.006   2.190  12.633  0.2821 -0.4018  0.1782
  857MPD2     H12586   1.385   2.154  12.674  0.0593  1.3139 -1.6878
  857MPD2    H112587   1.023   2.379  12.708 -1.3392 -0.9336 -0.9480
  857MPD2    H212588   1.014   1.991  12.557  0.2849 -0.1931 -0.4754
  857MPD2    H312589   0.902   2.209  12.611  0.9696  0.3310 -2.4714
  857MPD2     N12590   1.298   2.376  12.765  0.3585 -0.4190  0.6443
  857MPD2    H512591   1.392   2.348  12.789  1.5681  2.7879 -0.4018
  857MPD2    N112592   1.249   1.920  12.578 -0.5595  0.0785  0.0218
  857MPD2    H712593   1.172   1.869  12.537  0.6027 -2.0388  0.4929
  858MPD2     C12594   1.429   1.185  16.624 -0.0589  0.5733  0.4253
  858MPD2    C112595   1.545   1.218  16.560  0.2541  0.0394 -1.1047
  858MPD2    C212596   1.574   1.350  16.538  0.4840 -0.4359 -0.0866
  858MPD2    C312597   1.485   1.450  16.572 -0.0975 -0.3995  0.5768
  858MPD2    C412598   1.374   1.417  16.637 -0.2651  0.6879 -0.8019
  858MPD2    C512599   1.346   1.288  16.666 -0.4904  1.0050 -0.5965
  858MPD2     H12600   1.664   1.378  16.484  0.8929 -0.9716  0.3224
  858MPD2    H112601   1.306   1.496  16.665 -0.7530  0.4272 -1.2491
  858MPD2    H212602   1.405   1.081  16.643  0.6520  0.2535 -0.4878
  858MPD2    H312603   1.256   1.282  16.725  0.2737  1.2628  0.6037
  858MPD2     N12604   1.505   1.589  16.558  0.4545  0.1286 -0.3231
  858MPD2    H512605   1.444   1.650  16.612  0.6022  0.9458 -1.0844
  858MPD2    N112606   1.640   1.113  16.519  0.0139  0.9539  0.0808
  858MPD2    H712607   1.606   1.017  16.518  0.0730  0.9512 -2.0116
  859MPD2     C12608   0.688   3.863  15.987  0.0719 -0.4420  0.2326
  859MPD2    C112609   0.679   3.793  15.873  0.7646  0.3942 -0.2683
  859MPD2    C212610   0.649   3.664  15.870  0.4086  0.1337 -0.8621
  859MPD2    C312611   0.645   3.593  15.991 -0.2082  0.0198 -0.3726
  859MPD2    C412612   0.654   3.654  16.111 -0.1928 -0.1069  0.4543
  859MPD2    C512613   0.677   3.792  16.110  0.6587  0.7383 -0.3363
  859MPD2     H12614   0.657   3.617  15.773  1.6866  2.7374 -2.0267
  859MPD2    H112615   0.645   3.598  16.203  1.3463 -1.7132 -0.3666
  859MPD2    H212616   0.696   3.971  15.996 -1.2726 -0.3217 -0.0333
  859MPD2    H312617   0.685   3.850  16.201 -0.1728  3.1826 -1.8109
  859MPD2     N12618   0.638   3.452  15.993 -0.2697 -0.2439  0.8671
  859MPD2    H512619   0.632   3.409  16.085  1.3279 -0.8058  0.7129
  859MPD2    N112620   0.721   3.866  15.759  0.9837  0.8769  0.3965
  859MPD2    H712621   0.770   3.955  15.764  2.1127  0.3356 -0.9664
  860MPD2     C12622   2.657   2.892  11.784  0.1160 -0.3218 -0.1858
  860MPD2    C112623   2.698   3.020  11.823  0.5382  0.6936  0.3823
  860MPD2    C212624   2.612   3.085  11.912 -0.1127  0.7295 -0.0807
  860MPD2    C312625   2.497   3.029  11.963  0.2805  0.0596  0.0579
  860MPD2    C412626   2.456   2.913  11.912 -0.8069 -0.2822 -0.5613
  860MPD2    C512627   2.531   2.845  11.819  0.4397 -0.1963  0.6540
  860MPD2     H12628   2.634   3.181  11.957 -1.4127  3.0832 -4.4576
  860MPD2    H112629   2.357   2.876  11.938  0.2073 -1.3947  1.7602
  860MPD2    H212630   2.718   2.835  11.715 -0.2503 -2.6759  1.4417
  860MPD2    H312631   2.499   2.750  11.779  3.3659 -1.3865  1.1632
  860MPD2     N12632   2.438   3.088  12.076 -0.2919 -0.4271  0.3724
  860MPD2    H512633   2.472   3.180  12.102  0.7903 -0.1396 -2.0754
  860MPD2    N112634   2.825   3.069  11.803 -0.9158 -0.1784  0.2599
  860MPD2    H712635   2.852   3.157  11.846 -1.4979  0.2281 -0.2055
  861MPD2     C12636   1.626   1.629  11.038  0.7289  0.9100 -0.3673
  861MPD2    C112637   1.626   1.757  11.080 -0.2380 -0.0054  1.0558
  861MPD2    C212638   1.554   1.848  11.012  0.4671 -0.5150  0.2139
  861MPD2    C312639   1.459   1.819  10.924  0.3933  0.0605  0.2946
  861MPD2    C412640   1.441   1.681  10.885  0.3500 -0.3308  0.6665
  861MPD2    C512641   1.529   1.589  10.951 -0.7481 -0.6967  0.1913
  861MPD2     H12642   1.572   1.950  11.043  2.2533  0.1172 -2.9391
  861MPD2    H112643   1.379   1.638  10.808 -1.1483  0.6187  1.3533
  861MPD2    H212644   1.686   1.551  11.084 -1.3625  0.1834  1.1915
  861MPD2    H312645   1.529   1.485  10.920  0.7644 -0.2427 -1.3480
  861MPD2     N12646   1.390   1.914  10.848  0.2759 -0.4175  0.3162
  861MPD2    H512647   1.331   1.876  10.774  0.7534 -3.1521  1.3710
  861MPD2    N112648   1.712   1.805  11.178 -0.1030 -0.3569  0.5236
  861MPD2    H712649   1.716   1.906  11.177 -1.0498 -0.2936  1.7194
  862MPD2     C12650   1.179   1.980  10.177  0.0918 -0.0951 -0.3487
  862MPD2    C112651   1.245   1.936  10.289  0.1760 -0.5224  0.5080
  862MPD2    C212652   1.294   1.800  10.290  0.2303 -0.5188 -0.5750
  862MPD2    C312653   1.279   1.708  10.184  0.2516 -0.1072  0.2915
  862MPD2    C412654   1.230   1.765  10.066  0.2810  0.6407  0.0644
  862MPD2    C512655   1.177   1.902  10.067  0.8563  0.4961  0.5173
  862MPD2     H12656   1.350   1.770  10.378 -0.1060  1.2503  0.2390
  862MPD2    H112657   1.208   1.692   9.988  1.5738 -1.6907  1.8749
  862MPD2    H212658   1.133   2.078  10.175 -0.5732 -0.3935  0.3191
  862MPD2    H312659   1.140   1.946   9.975 -0.3154  0.4696  0.9886
  862MPD2     N12660   1.302   1.569  10.188  0.2319  0.4955  0.3296
  862MPD2    H512661   1.301   1.517  10.101 -0.5859  1.4496 -0.2483
  862MPD2    N112662   1.253   2.003  10.407 -0.7194  0.5347  0.3946
  862MPD2    H712663   1.286   1.949  10.486  0.6344 -0.7319 -1.0530
  863MPD2     C12664   0.179   0.767  16.914 -0.2278  0.2627  0.1036
  863MPD2    C112665   0.116   0.648  16.941  0.3769  0.5515 -0.2424
  863MPD2    C212666   0.163   0.584  17.056  0.3097  0.0083 -0.4500
  863MPD2    C312667   0.268   0.635  17.134  0.2768 -0.0647  0.0712
  863MPD2    C412668   0.329   0.754  17.102 -0.6959  0.5996 -0.4007
  863MPD2    C512669   0.278   0.818  16.995 -0.4683  0.1387 -0.5570
  863MPD2     H12670   0.120   0.488  17.083  1.8179 -0.5304  0.0536
  863MPD2    H112671   0.405   0.807  17.158 -0.7035 -0.1742  0.3416
  863MPD2    H212672   0.151   0.833  16.833  1.1785  0.5590 -0.1348
  863MPD2    H312673   0.326   0.909  16.961 -1.4155  1.2724  1.1670
  863MPD2     N12674   0.316   0.571  17.247  1.0734  0.3577  0.2056
  863MPD2    H512675   0.407   0.600  17.283  0.9295 -2.0851  2.5033
  863MPD2    N112676   0.025   0.591  16.849  0.3058  0.1549  0.6336
  863MPD2    H712677   0.005   0.644  16.765  3.1459  1.0095  0.4982
  864MPD2     C12678   0.639   2.264  17.123  0.2576 -1.2516  0.2661
  864MPD2    C112679   0.666   2.159  17.043  0.3128 -0.1424  0.5621
  864MPD2    C212680   0.731   2.186  16.929  0.2366  0.3245 -0.1700
  864MPD2    C312681   0.775   2.315  16.899 -0.0272 -0.3587 -0.6029
  864MPD2    C412682   0.734   2.416  16.973  0.4774  0.2043 -0.0596
  864MPD2    C512683   0.670   2.393  17.088 -0.3066  0.2557 -0.5266
  864MPD2     H12684   0.750   2.112  16.853  0.1975  2.2106 -2.0268
  864MPD2    H112685   0.733   2.517  16.932 -1.7292  0.9560  1.8581
  864MPD2    H212686   0.592   2.250  17.221 -2.2781 -0.8247 -0.8799
  864MPD2    H312687   0.632   2.478  17.144 -0.2715 -0.3056  0.3638
  864MPD2     N12688   0.830   2.341  16.769 -0.8521  1.0524  0.4457
  864MPD2    H512689   0.833   2.438  16.738 -0.2064  1.0593  0.5355
  864MPD2    N112690   0.618   2.031  17.085  0.8975  0.0127  0.1462
  864MPD2    H712691   0.590   2.024  17.183  0.1740 -1.4022 -0.1667
  865MPD2     C12692   0.896   2.147  15.878  0.0797  0.8568 -0.1051
  865MPD2    C112693   0.884   2.103  16.007 -0.2375  0.9559 -0.3168
  865MPD2    C212694   0.861   2.198  16.111  0.1444 -0.5367  0.0841
  865MPD2    C312695   0.873   2.338  16.082  0.1238  0.1592  0.0777
  865MPD2    C412696   0.895   2.376  15.951  0.7551  0.5019 -0.3957
  865MPD2    C512697   0.907   2.282  15.852  0.1101  0.0426 -0.2178
  865MPD2     H12698   0.856   2.167  16.215 -1.2544 -1.2618 -0.2034
  865MPD2    H112699   0.912   2.479  15.919 -1.3099  0.9699  0.0159
  865MPD2    H212700   0.913   2.079  15.796 -1.3300  1.1550 -0.6387
  865MPD2    H312701   0.932   2.309  15.750 -0.1880  0.4644 -0.1767
  865MPD2     N12702   0.876   2.435  16.184  0.1257  0.0227 -0.0118
  865MPD2    H512703   0.922   2.523  16.163  0.2018 -0.1076 -0.3771
  865MPD2    N112704   0.888   1.962  16.035 -0.2321  0.4216 -0.9890
  865MPD2    H712705   0.905   1.903  15.955  1.0987  1.0683 -1.1855
  866MPD2     C12706   2.390   1.982  11.525 -0.5812  0.3081  0.3301
  866MPD2    C112707   2.403   1.962  11.385  0.3928 -0.7490 -0.3387
  866MPD2    C212708   2.300   2.014  11.301  0.4544 -0.7653 -0.0507
  866MPD2    C312709   2.219   2.116  11.355  0.3730  0.4853 -0.4885
  866MPD2    C412710   2.218   2.147  11.491  0.1847 -0.0717 -0.1546
  866MPD2    C512711   2.297   2.064  11.571 -1.0173 -0.1148  1.0708
  866MPD2     H12712   2.287   1.985  11.197  2.3595 -0.6309 -0.3207
  866MPD2    H112713   2.159   2.226  11.536  2.5096  2.1640 -1.0464
  866MPD2    H212714   2.459   1.942  11.599 -2.3652  0.0362  1.8311
  866MPD2    H312715   2.297   2.092  11.676 -2.3112 -1.3743  1.4057
  866MPD2     N12716   2.109   2.185  11.284 -0.2606 -0.0581 -0.2843
  866MPD2    H512717   2.051   2.242  11.344  1.8997  0.4414  1.3053
  866MPD2    N112718   2.495   1.865  11.331 -0.0633  0.4524  0.2517
  866MPD2    H712719   2.546   1.810  11.400  0.7814 -0.3101 -0.9744
  867MPD2     C12720   4.105   1.868  16.441 -0.3303 -0.0603 -0.4788
  867MPD2    C112721   4.145   1.843  16.568  0.1496  0.2612  0.0647
  867MPD2    C212722   4.108   1.931  16.670 -0.5084 -0.2696 -0.3343
  867MPD2    C312723   4.048   2.055  16.632  0.8604 -0.2326 -0.0352
  867MPD2    C412724   4.033   2.086  16.494 -0.5449  0.0160  0.3488
  867MPD2    C512725   4.054   1.987  16.408  0.5710 -0.0681 -0.0529
  867MPD2     H12726   4.130   1.918  16.775  0.4457 -0.9189 -0.6215
  867MPD2    H112727   3.980   2.176  16.464 -1.8313  0.2720  3.3750
  867MPD2    H212728   4.128   1.795  16.364  3.7941  0.2946  0.3744
  867MPD2    H312729   4.034   2.008  16.303 -0.5194  0.5641  0.2866
  867MPD2     N12730   4.018   2.149  16.732 -0.0208  0.2559 -0.7185
  867MPD2    H512731   3.988   2.243  16.709  1.6230  1.4309  1.8970
  867MPD2    N112732   4.218   1.724  16.595 -0.3191  0.0683 -0.4481
  867MPD2    H712733   4.237   1.672  16.510  1.7891  1.9297 -1.0985
  868MPD2     C12734   1.585   0.567  12.678 -0.1225 -0.1766  0.1651
  868MPD2    C112735   1.650   0.586  12.798  0.1361  0.0976  0.1811
  868MPD2    C212736   1.572   0.632  12.899  0.4413  0.3430  0.2815
  868MPD2    C312737   1.435   0.641  12.899  0.3067 -0.2977  0.3228
  868MPD2    C412738   1.369   0.607  12.776 -0.0622 -0.2092 -0.1012
  868MPD2    C512739   1.445   0.570  12.665 -0.1399 -0.5872  0.0134
  868MPD2     H12740   1.616   0.653  12.996  1.7598  1.7734 -0.6342
  868MPD2    H112741   1.261   0.612  12.768 -0.1610 -1.6948  0.3996
  868MPD2    H212742   1.640   0.538  12.589 -1.4175 -0.6569 -0.4909
  868MPD2    H312743   1.412   0.561  12.562 -0.8910 -4.0467  0.5516
  868MPD2     N12744   1.371   0.685  13.016 -0.2935  0.2203 -0.0596
  868MPD2    H512745   1.427   0.708  13.097  1.2883 -0.4431 -0.9574
  868MPD2    N112746   1.793   0.558  12.801 -0.1091 -0.1244  0.5999
  868MPD2    H712747   1.841   0.540  12.714  0.4699  0.3013  0.8358
  869MPD2     C12748   2.300   3.397   1.635 -0.0377 -0.3538 -0.1050
  869MPD2    C112749   2.434   3.415   1.650  0.0690  0.0206  0.2310
  869MPD2    C212750   2.510   3.485   1.555 -0.2377  0.0786  0.3583
  869MPD2    C312751   2.434   3.561   1.466  0.0048 -0.0266  0.2398
  869MPD2    C412752   2.295   3.540   1.456  0.1370 -0.5595 -0.5186
  869MPD2    C512753   2.230   3.450   1.532  0.2925 -0.4389  0.1885
  869MPD2     H12754   2.616   3.506   1.564  0.1245 -1.1654 -1.0399
  869MPD2    H112755   2.235   3.594   1.383 -1.8524 -0.6488  1.0379
  869MPD2    H212756   2.252   3.343   1.716 -0.7813 -0.7563 -0.8141
  869MPD2    H312757   2.125   3.427   1.523 -0.1950  2.1764 -0.8394
  869MPD2     N12758   2.492   3.636   1.363 -0.2649 -0.7975  0.4280
  869MPD2    H512759   2.423   3.692   1.314  1.3297  1.6943  0.9863
  869MPD2    N112760   2.502   3.343   1.757 -0.0575 -0.9627  0.5513
  869MPD2    H712761   2.441   3.280   1.808  0.4430 -1.0728  1.0141
  870MPD2     C12762   1.811   2.764   1.833  0.0493  0.1318 -0.3328
  870MPD2    C112763   1.843   2.703   1.720 -0.0871 -0.2581 -0.4917
  870MPD2    C212764   1.808   2.748   1.592  0.5169 -0.1781 -0.1911
  870MPD2    C312765   1.736   2.862   1.589 -0.5436 -0.2480  0.0894
  870MPD2    C412766   1.691   2.925   1.704  0.4191  0.1398 -0.5000
  870MPD2    C512767   1.739   2.878   1.821  0.3085 -0.2720 -0.9380
  870MPD2     H12768   1.837   2.701   1.499 -0.5062 -0.1038 -0.5420
  870MPD2    H112769   1.637   3.019   1.707 -1.8009 -1.2076  1.0206
  870MPD2    H212770   1.839   2.727   1.932 -0.5502 -0.5333 -0.4114
  870MPD2    H312771   1.728   2.936   1.912  0.3629 -0.9826 -0.4785
  870MPD2     N12772   1.694   2.907   1.459 -0.4178 -0.5368  0.0931
  870MPD2    H512773   1.736   2.859   1.380  2.0149 -1.8211  2.1614
  870MPD2    N112774   1.921   2.584   1.733 -0.3783 -0.6311  0.5505
  870MPD2    H712775   1.967   2.571   1.823 -0.9741  1.9265  1.2296
  871MPD2     C12776   3.420   1.820  16.329  0.2667  0.2969 -0.3978
  871MPD2    C112777   3.414   1.765  16.457 -0.3454 -0.1471 -0.1016
  871MPD2    C212778   3.448   1.632  16.467  0.0738 -0.1367 -0.5188
  871MPD2    C312779   3.500   1.556  16.361 -1.2431 -0.4944  0.4639
  871MPD2    C412780   3.481   1.607  16.234  0.2780 -0.1228 -0.5325
  871MPD2    C512781   3.438   1.739  16.220 -0.1771 -0.2202 -0.3840
  871MPD2     H12782   3.449   1.580  16.562  0.5282  1.6386  0.4535
  871MPD2    H112783   3.500   1.555  16.141 -2.0188  1.4515 -1.8956
  871MPD2    H212784   3.403   1.927  16.324 -2.4291 -0.0597  0.8948
  871MPD2    H312785   3.432   1.778  16.118 -2.3028  1.1960  0.2833
  871MPD2     N12786   3.542   1.422  16.383  0.6728 -0.3472 -0.1289
  871MPD2    H512787   3.523   1.365  16.464  0.4533  0.7020  0.5644
  871MPD2    N112788   3.390   1.855  16.559  0.1862 -0.3941 -0.0380
  871MPD2    H712789   3.385   1.955  16.541 -0.2584 -0.0064  2.3262
  872MPD2     C12790   4.305   3.723  13.690 -0.2203  0.1508 -0.0906
  872MPD2    C112791   4.367   3.831  13.756 -0.0269  0.1169  0.8006
  872MPD2    C212792   4.297   3.902  13.850  0.0465  0.4716  0.4906
  872MPD2    C312793   4.162   3.870  13.882 -0.1435  0.4985 -0.0979
  872MPD2    C412794   4.105   3.764  13.817  0.3841 -0.2967 -0.2278
  872MPD2    C512795   4.178   3.693  13.722  0.7802 -1.0524 -0.3323
  872MPD2     H12796   4.342   3.989  13.897  0.6292  0.2595  0.3227
  872MPD2    H112797   4.003   3.730  13.829  0.2900 -0.6762 -2.0172
  872MPD2    H212798   4.355   3.665  13.613 -2.1038 -1.6137  0.0131
  872MPD2    H312799   4.128   3.612  13.669  1.6607 -1.6059 -0.3122
  872MPD2     N12800   4.086   3.926  13.986 -0.3111  0.2721  0.1942
  872MPD2    H512801   3.989   3.897  13.992 -0.4119  0.2859 -1.2354
  872MPD2    N112802   4.502   3.865  13.724  0.0783 -0.1251 -0.7316
  872MPD2    H712803   4.531   3.960  13.743  3.1171 -0.9909 -1.0366
  873MPD2     C12804   1.287   4.486   1.130  0.3131  0.7639  0.0201
  873MPD2    C112805   1.375   4.484   1.234 -0.4397 -0.5397 -0.1588
  873MPD2    C212806   1.425   4.363   1.284  0.0422  0.4755  0.0028
  873MPD2    C312807   1.378   4.248   1.225  0.7870  0.5146  0.5816
  873MPD2    C412808   1.288   4.250   1.118 -0.0720 -0.8763 -0.8477
  873MPD2    C512809   1.231   4.367   1.085  0.4888  0.1411 -0.0345
  873MPD2     H12810   1.498   4.357   1.364 -0.8780 -0.0353  0.8010
  873MPD2    H112811   1.258   4.155   1.076 -1.4395 -1.4460  1.4208
  873MPD2    H212812   1.242   4.573   1.084 -0.0782  0.9533  0.7594
  873MPD2    H312813   1.162   4.360   1.001 -1.1121  2.1346  1.1179
  873MPD2     N12814   1.429   4.119   1.260  0.0032  0.0826  0.3978
  873MPD2    H512815   1.381   4.040   1.217  0.1010 -1.0926  2.4769
  873MPD2    N112816   1.415   4.607   1.285  0.2893 -0.0516 -0.7136
  873MPD2    H712817   1.384   4.691   1.237 -0.6036  0.3976  0.6597
  874MPD2     C12818   0.119   4.145  16.369  0.3583  0.1675 -0.1271
  874MPD2    C112819   0.252   4.112  16.374 -1.2493 -0.4212  0.5853
  874MPD2    C212820   0.338   4.219  16.375 -0.2854 -0.3442  0.0595
  874MPD2    C312821   0.296   4.348  16.407 -0.4499 -0.0825 -0.6488
  874MPD2    C412822   0.160   4.376  16.416 -0.8756 -0.0998  0.9750
  874MPD2    C512823   0.078   4.279  16.385  0.4097 -0.0518 -0.1079
  874MPD2     H12824   0.440   4.196  16.346 -0.4817 -0.2676 -0.6701
  874MPD2    H112825   0.117   4.475  16.415 -0.7062 -0.0297  0.2617
  874MPD2    H212826   0.037   4.076  16.354  1.1039 -0.9145  0.7325
  874MPD2    H312827   4.695   4.301  16.362  0.4112 -1.4205 -1.4047
  874MPD2     N12828   0.391   4.446  16.409  0.6632 -0.1269 -0.4565
  874MPD2    H512829   0.489   4.419  16.411  0.4287 -0.9216  0.9932
  874MPD2    N112830   0.292   3.975  16.372  0.1817  0.3896  0.1867
  874MPD2    H712831   0.214   3.911  16.367 -0.6158  1.3919 -0.2574
  875MPD2     C12832   2.302   2.496  14.342  0.0850 -0.0517  0.2141
  875MPD2    C112833   2.224   2.439  14.440 -0.6876  0.4411 -0.1151
  875MPD2    C212834   2.281   2.416  14.564  0.0487  0.9406 -0.3683
  875MPD2    C312835   2.419   2.431  14.586 -0.3176  0.3161 -0.0402
  875MPD2    C412836   2.496   2.461  14.483  0.3190  0.4312  0.2436
  875MPD2    C512837   2.434   2.504  14.366  0.1520  0.3892 -0.9469
  875MPD2     H12838   2.218   2.393  14.649  1.4862  3.0408  1.2637
  875MPD2    H112839   2.597   2.494  14.505  0.4313 -0.9280  1.6860
  875MPD2    H212840   2.277   2.539  14.245  0.2541  2.6415  1.3794
  875MPD2    H312841   2.495   2.533  14.281 -0.6607  0.0409 -1.6572
  875MPD2     N12842   2.486   2.415  14.709  0.1545  0.4241 -0.5114
  875MPD2    H512843   2.587   2.417  14.710  0.1344  0.9922  0.3055
  875MPD2    N112844   2.077   2.426  14.429 -0.5780 -0.5197  0.5469
  875MPD2    H712845   2.027   2.413  14.516  0.2472  0.5414  1.1705
  876MPD2     C12846   0.962   4.060  16.258  0.3009  0.5859  0.2506
  876MPD2    C112847   1.042   4.003  16.166 -0.2233 -0.6089 -0.5931
  876MPD2    C212848   1.058   3.862  16.161 -0.0750 -0.6537 -0.2277
  876MPD2    C312849   0.999   3.786  16.264 -0.0319 -0.2515  0.3059
  876MPD2    C412850   0.923   3.847  16.362  0.1304 -0.7224  0.4045
  876MPD2    C512851   0.904   3.982  16.359 -0.2485  0.3091  0.7786
  876MPD2     H12852   1.112   3.822  16.076 -1.2648  1.0691 -1.8000
  876MPD2    H112853   0.860   3.795  16.433  0.2405  2.2779  2.7208
  876MPD2    H212854   0.944   4.166  16.267 -0.8476  0.3679  0.4751
  876MPD2    H312855   0.840   4.037  16.427 -1.1744 -1.4454  1.3311
  876MPD2     N12856   1.003   3.648  16.258  0.4248 -0.0209  0.1857
  876MPD2    H512857   1.063   3.617  16.182 -0.2544  0.9065 -0.7247
  876MPD2    N112858   1.096   4.092  16.072  0.3127  0.0445  0.2503
  876MPD2    H712859   1.072   4.189  16.085 -1.4387 -0.7170  2.6396
  877MPD2     C12860   0.948   4.329  15.377 -0.0618  1.1457  0.4144
  877MPD2    C112861   1.089   4.343  15.377  0.1536 -0.1106 -0.1920
  877MPD2    C212862   1.154   4.359  15.256 -0.3290 -0.6279  0.7732
  877MPD2    C312863   1.087   4.333  15.135  0.0328 -0.0580 -0.1608
  877MPD2    C412864   0.952   4.314  15.132  0.2586 -0.0058 -0.4273
  877MPD2    C512865   0.886   4.323  15.255  0.3684  0.2018 -0.1049
  877MPD2     H12866   1.261   4.377  15.252 -0.4183 -0.1488  0.5001
  877MPD2    H112867   0.891   4.307  15.043  0.5044  1.1822 -0.6858
  877MPD2    H212868   0.886   4.319  15.465  0.4078 -4.3126  0.1316
  877MPD2    H312869   0.779   4.308  15.249  0.5081 -0.6042 -0.5329
  877MPD2     N12870   1.151   4.336  15.010 -0.1206 -0.2371  0.2547
  877MPD2    H512871   1.093   4.302  14.934 -1.0049  0.0891  0.7804
  877MPD2    N112872   1.161   4.346  15.490 -0.4779 -0.4722 -0.1920
  877MPD2    H712873   1.262   4.352  15.482 -0.5725 -0.2686 -1.1737
  878MPD2     C12874   0.238   3.174  13.168  0.0824 -0.4566 -0.6508
  878MPD2    C112875   0.352   3.249  13.151 -0.1898  0.0147  0.4642
  878MPD2    C212876   0.414   3.293  13.262 -0.3972 -0.2220 -0.7033
  878MPD2    C312877   0.375   3.254  13.391  0.4306 -0.3763  0.2280
  878MPD2    C412878   0.267   3.161  13.402 -0.2745  0.0332  0.1570
  878MPD2    C512879   0.200   3.121  13.289  0.1499 -0.2879  0.9304
  878MPD2     H12880   0.498   3.361  13.255 -2.7962  3.0580  1.8264
  878MPD2    H112881   0.252   3.105  13.494 -3.4704 -1.0117 -0.9944
  878MPD2    H212882   0.176   3.150  13.083 -0.4093  1.8293 -0.9173
  878MPD2    H312883   0.119   3.049  13.294 -0.5590  0.3836 -0.9952
  878MPD2     N12884   0.443   3.304  13.508  0.0842 -0.3651  0.3490
  878MPD2    H512885   0.533   3.345  13.489 -0.4233  1.4974  1.9438
  878MPD2    N112886   0.390   3.278  13.013  0.1344  0.4068  0.1462
  878MPD2    H712887   0.337   3.236  12.937  1.5198  1.2360 -1.2671
  879MPD2     C12888   1.013   0.591  17.215 -0.3315  0.1387  0.3318
  879MPD2    C112889   0.962   0.467  17.224 -0.7984 -0.6760  0.6494
  879MPD2    C212890   0.831   0.433  17.189  0.8502 -0.4054 -0.5638
  879MPD2    C312891   0.757   0.526  17.122  0.1934  0.1922 -0.1559
  879MPD2    C412892   0.806   0.655  17.120  0.1250 -0.1794 -0.7045
  879MPD2    C512893   0.930   0.690  17.163  0.5449 -0.0904  0.2983
  879MPD2     H12894   0.796   0.331  17.196 -0.7413  0.4059  3.1593
  879MPD2    H112895   0.742   0.736  17.087  1.0317 -0.0961 -2.2982
  879MPD2    H212896   1.114   0.622  17.240 -0.3193 -1.4337  2.2427
  879MPD2    H312897   0.965   0.792  17.173  0.9079 -0.1808 -0.0502
  879MPD2     N12898   0.630   0.500  17.067 -1.3199  0.2185 -0.0450
  879MPD2    H512899   0.597   0.570  17.001  0.1033 -0.0478 -1.0308
  879MPD2    N112900   1.046   0.367  17.268  0.4686  0.1847  0.1185
  879MPD2    H712901   1.125   0.401  17.322  0.4403 -1.3851  1.1317
  880MPD2     C12902   2.395   2.138   0.214 -0.0695  0.7819  0.2144
  880MPD2    C112903   2.339   2.138   0.339  0.7128  0.2956  0.2493
  880MPD2    C212904   2.299   2.014   0.388 -1.1120  0.4642  0.7296
  880MPD2    C312905   2.326   1.898   0.313  0.4540  0.3286  0.5019
  880MPD2    C412906   2.393   1.902   0.188 -0.3113 -0.2798 -0.0768
  880MPD2    C512907   2.420   2.027   0.138 -0.4961  1.0177  1.2622
  880MPD2     H12908   2.256   2.010   0.487 -0.1497 -0.7814  1.0928
  880MPD2    H112909   2.400   1.814   0.125 -0.6596  0.2568 -0.8669
  880MPD2    H212910   2.429   2.230   0.167 -1.4747  1.9592  1.4924
  880MPD2    H312911   2.460   2.048   0.040 -2.1793 -0.3162  0.3007
  880MPD2     N12912   2.281   1.781   0.377 -0.2540 -0.9588  0.8230
  880MPD2    H512913   2.229   1.787   0.464  0.9452  1.5233  1.3691
  880MPD2    N112914   2.348   2.265   0.413  0.2524  0.1420  0.3571
  880MPD2    H712915   2.394   2.341   0.363 -2.1289  1.8022  0.6585
  881MPD2     C12916   2.600   2.986   0.026 -0.6162  0.0579 -0.5627
  881MPD2    C112917   2.623   2.846   0.024 -0.2135  0.2657 -0.2446
  881MPD2    C212918   2.586   2.775   0.136  0.5576 -0.3976  0.8480
  881MPD2    C312919   2.560   2.840   0.256  0.6710 -0.7344 -0.6910
  881MPD2    C412920   2.557   2.977   0.259 -0.0648  0.3386  0.6482
  881MPD2    C512921   2.574   3.050   0.143 -0.2576  0.3558  0.8667
  881MPD2     H12922   2.583   2.666   0.131 -0.8645 -0.3046 -0.4519
  881MPD2    H112923   2.525   3.030   0.349  2.3989  3.4896 -0.3456
  881MPD2    H212924   2.625   3.043  17.624 -0.9639 -1.7767 -1.8172
  881MPD2    H312925   2.558   3.157   0.144  1.8422  0.6717  1.5392
  881MPD2     N12926   2.529   2.764   0.376  0.4086 -0.4615 -0.2806
  881MPD2    H512927   2.505   2.813   0.462 -0.8180  1.0522 -1.4959
  881MPD2    N112928   2.644   2.789  17.583  0.3712  0.3702  0.3459
  881MPD2    H712929   2.674   2.859  17.516  3.8544 -2.7917 -1.3817
  882MPD2     C12930   1.150   4.054  14.295  0.3033  0.0459  0.9719
  882MPD2    C112931   1.095   4.135  14.388 -0.7721 -0.1538  0.3899
  882MPD2    C212932   0.964   4.100  14.433  0.3983 -0.4374 -1.0774
  882MPD2    C312933   0.894   3.988  14.374 -0.3515  0.3375 -1.1166
  882MPD2    C412934   0.969   3.918  14.281  0.5226 -0.8960 -0.9072
  882MPD2    C512935   1.096   3.950  14.239 -0.2809 -0.0205  0.3309
  882MPD2     H12936   0.911   4.168  14.499 -1.1133 -2.4747 -0.2090
  882MPD2    H112937   0.916   3.837  14.234 -1.3233 -0.1938 -0.0710
  882MPD2    H212938   1.251   4.067  14.258 -0.6152 -0.0566 -1.5670
  882MPD2    H312939   1.149   3.881  14.175 -1.8993  0.1003 -1.1367
  882MPD2     N12940   0.762   3.942  14.407 -0.2291  0.0010  0.2755
  882MPD2    H512941   0.722   3.870  14.347  1.4490 -0.8582  0.1730
  882MPD2    N112942   1.168   4.244  14.437  0.4451 -0.3980 -0.2489
  882MPD2    H712943   1.260   4.263  14.398  1.4617 -1.3534  1.7122
  883MPD2     C12944   2.712   3.944  16.423  0.0466 -1.0123 -0.2993
  883MPD2    C112945   2.807   4.006  16.342  1.0469  0.4471  0.4389
  883MPD2    C212946   2.915   4.064  16.403 -0.3565  0.6045  0.1728
  883MPD2    C312947   2.941   4.068  16.536 -0.6315  0.5944 -0.6598
  883MPD2    C412948   2.841   4.023  16.617 -0.5509  1.5818 -0.5884
  883MPD2    C512949   2.732   3.953  16.559  0.4454  0.0046  0.3222
  883MPD2     H12950   2.981   4.101  16.325 -0.9202 -1.1385 -1.1188
  883MPD2    H112951   2.842   4.038  16.724 -0.4940 -2.2348 -0.0563
  883MPD2    H212952   2.616   3.914  16.383 -0.0737  1.0454 -1.5904
  883MPD2    H312953   2.655   3.918  16.627  0.9461 -1.6887  0.0155
  883MPD2     N12954   3.057   4.131  16.584 -0.2140  0.3613 -0.8786
  883MPD2    H512955   3.120   4.161  16.510  1.0297  0.5135  0.2380
  883MPD2    N112956   2.810   3.999  16.201 -0.3199  0.5511 -1.2849
  883MPD2    H712957   2.883   4.051  16.153 -0.5305  0.0306 -2.1540
  884MPD2     C12958   4.711   0.229  15.349  0.0317 -1.1462 -0.0906
  884MPD2    C112959   4.687   0.334  15.260  0.2529  0.2377  0.0195
  884MPD2    C212960   4.552   0.370  15.240 -0.2020 -0.2740 -0.2004
  884MPD2    C312961   4.451   0.287  15.288 -0.7914 -0.6654 -0.4499
  884MPD2    C412962   4.484   0.188  15.371  0.5307  0.1457  0.1105
  884MPD2    C512963   4.607   0.163  15.409  0.1445 -0.0734 -0.3449
  884MPD2     H12964   4.536   0.451  15.170  0.3083  0.2539  0.2912
  884MPD2    H112965   4.406   0.133  15.422  2.2302 -2.1607  0.1812
  884MPD2    H212966   0.090   0.195  15.370  0.9941  2.0494  0.4407
  884MPD2    H312967   4.628   0.083  15.480  0.9262  0.8126  0.4172
  884MPD2     N12968   4.320   0.312  15.240  0.0984  0.0531 -0.2983
  884MPD2    H512969   4.312   0.385  15.169 -1.1596  0.9272  0.7405
  884MPD2    N112970   0.061   0.418  15.203  0.1753  0.4970 -0.3006
  884MPD2    H712971   0.018   0.490  15.145  0.6663  0.7456 -0.3585
  885MPD2     C12972   2.892   0.832   0.429  0.1142  0.7809 -0.5440
  885MPD2    C112973   2.904   0.708   0.369 -0.8408 -0.4382  0.2413
  885MPD2    C212974   2.912   0.713   0.227  0.1177 -0.2151  0.0800
  885MPD2    C312975   2.905   0.830   0.153 -0.0440 -0.2613  0.6391
  885MPD2    C412976   2.900   0.951   0.213 -0.3728  0.0293 -0.7560
  885MPD2    C512977   2.894   0.949   0.352 -0.1666  0.1741 -0.2800
  885MPD2     H12978   2.913   0.616   0.178 -0.7112 -0.1684 -0.0322
  885MPD2    H112979   2.893   1.049   0.168 -2.1920  0.1707 -0.1550
  885MPD2    H212980   2.880   0.839   0.536  2.9691  1.5340 -0.2592
  885MPD2    H312981   2.878   1.043   0.403 -1.4954  0.3309 -1.0050
  885MPD2     N12982   2.906   0.815   0.015  0.0175 -0.4191 -0.2828
  885MPD2    H512983   2.909   0.722  17.660  0.0570 -0.8625  0.6953
  885MPD2    N112984   2.910   0.587   0.446  0.8446 -0.2616  0.1211
  885MPD2    H712985   2.929   0.605   0.544  0.2384 -0.6866  0.3170
  886MPD2     C12986   4.155   3.308  15.166  0.0903 -0.6598 -0.0702
  886MPD2    C112987   4.284   3.339  15.198 -0.8436 -0.1582 -0.3863
  886MPD2    C212988   4.368   3.406  15.106  0.0314  0.0552 -0.5438
  886MPD2    C312989   4.317   3.469  14.996 -0.5327 -0.1886 -0.0049
  886MPD2    C412990   4.176   3.460  14.968 -0.2699 -0.2496 -0.2978
  886MPD2    C512991   4.102   3.376  15.055 -0.0046  0.3677 -0.1248
  886MPD2     H12992   4.468   3.417  15.146 -0.4126  3.8844 -0.5084
  886MPD2    H112993   4.125   3.495  14.880 -0.0359 -2.4855 -1.3329
  886MPD2    H212994   4.082   3.272  15.238 -1.4682 -0.7443 -1.6807
  886MPD2    H312995   3.996   3.369  15.033  0.2408  1.1321 -1.5585
  886MPD2     N12996   4.390   3.550  14.906  0.3411  0.1299  0.1004
  886MPD2    H512997   4.335   3.614  14.849  1.5440 -1.0432 -2.3809
  886MPD2    N112998   4.335   3.316  15.328 -0.0953  0.3318  0.3709
  886MPD2    H712999   4.436   3.328  15.336 -0.3855  3.1927 -0.3853
  887MPD2     C13000   0.193   3.420  15.919  0.3246 -0.3702 -0.3440
  887MPD2    C113001   0.071   3.479  15.867 -0.3914  0.9571 -0.2846
  887MPD2    C213002   0.063   3.617  15.868 -0.3138 -0.0968 -0.3157
  887MPD2    C313003   0.157   3.697  15.925 -0.7700  0.0733  0.7478
  887MPD2    C413004   0.263   3.640  15.982 -0.9433  0.3261 -0.0736
  887MPD2    C513005   0.284   3.503  15.981 -0.0721 -0.2803  0.4245
  887MPD2     H13006   4.700   3.673  15.829 -1.0098 -1.8220 -1.3130
  887MPD2    H113007   0.349   3.694  16.018 -2.7129  2.3548  1.1439
  887MPD2    H213008   0.195   3.312  15.913  1.4226 -0.3664  0.0852
  887MPD2    H313009   0.369   3.470  16.040 -0.9761 -0.6465  1.5130
  887MPD2     N13010   0.140   3.840  15.921 -0.3479  0.3671 -0.5505
  887MPD2    H513011   0.064   3.869  15.860 -1.9742 -1.7675  0.4500
  887MPD2    N113012   4.695   3.389  15.813 -0.0298 -0.0792 -0.8791
  887MPD2    H713013   0.000   3.292  15.802 -0.8872 -0.3009 -0.9467
  888MPD2     C13014   1.668   3.357  14.982 -0.0885  0.2560  0.5522
  888MPD2    C113015   1.717   3.399  15.101 -0.0563 -0.3343  0.1421
  888MPD2    C213016   1.795   3.517  15.112  0.2320 -0.0449 -0.3735
  888MPD2    C313017   1.827   3.595  15.000 -1.1259 -1.2738  0.0230
  888MPD2    C413018   1.765   3.556  14.882  0.0507  0.1817 -0.4386
  888MPD2    C513019   1.689   3.439  14.876 -0.0779 -0.2058 -0.7551
  888MPD2     H13020   1.833   3.536  15.212 -0.7276  0.8044 -0.1567
  888MPD2    H113021   1.782   3.609  14.789 -0.3504  3.9551  1.6525
  888MPD2    H213022   1.603   3.273  14.966 -0.4150  0.6028  0.0596
  888MPD2    H313023   1.640   3.421  14.781 -1.5287  0.5583 -0.1466
  888MPD2     N13024   1.909   3.710  15.013 -0.0882  0.1368 -0.3999
  888MPD2    H513025   1.922   3.740  15.109  1.2556 -0.6515 -0.3316
  888MPD2    N113026   1.693   3.325  15.221  0.1781  0.3059  0.4677
  888MPD2    H713027   1.735   3.363  15.306  0.8549 -0.0063  0.2697
  889MPD2     C13028   1.238   3.175  12.690  0.3051 -0.3370  0.1565
  889MPD2    C113029   1.295   3.136  12.804 -0.8736  0.1237  0.2714
  889MPD2    C213030   1.292   3.228  12.913 -0.0637 -0.0210 -0.6540
  889MPD2    C313031   1.266   3.360  12.894  0.2536  0.5682  0.3112
  889MPD2    C413032   1.217   3.398  12.764  0.1228 -0.1327  0.8419
  889MPD2    C513033   1.205   3.302  12.667  0.9566 -0.4562 -0.3845
  889MPD2     H13034   1.323   3.202  13.013  0.4627 -0.5810 -0.9577
  889MPD2    H113035   1.209   3.503  12.738  1.1149 -0.2580  0.0389
  889MPD2    H213036   1.226   3.104  12.608  0.3013  1.1114 -1.1093
  889MPD2    H313037   1.149   3.332  12.579 -0.6334  1.6747  1.3571
  889MPD2     N13038   1.280   3.453  13.004 -0.4674  0.4554  0.3577
  889MPD2    H513039   1.301   3.407  13.092 -0.4470 -0.3029 -0.0497
  889MPD2    N113040   1.322   3.000  12.824 -0.0958 -0.2232 -0.0860
  889MPD2    H713041   1.293   2.943  12.745 -1.4350  1.2301 -0.6466
  890MPD2     C13042   0.486   0.259  14.776 -0.6714 -0.3882 -0.1437
  890MPD2    C113043   0.596   0.333  14.812  0.4466 -0.4995 -0.3571
  890MPD2    C213044   0.667   0.284  14.921 -0.2007  0.0490  0.2342
  890MPD2    C313045   0.623   0.162  14.978  0.3498 -0.7248  0.4802
  890MPD2    C413046   0.505   0.102  14.952  0.3473  0.1509 -0.2235
  890MPD2    C513047   0.435   0.160  14.851 -0.0200 -0.3180  1.3169
  890MPD2     H13048   0.753   0.333  14.965 -0.8814  1.0070  0.4977
  890MPD2    H113049   0.468   0.012  15.001  2.6464 -1.4738 -1.4523
  890MPD2    H213050   0.412   0.304  14.712 -0.2768  2.9675  1.7632
  890MPD2    H313051   0.336   0.124  14.828 -0.3848  1.7894 -0.4043
  890MPD2     N13052   0.713   0.113  15.083 -0.2432 -0.0429 -0.8041
  890MPD2    H513053   0.805   0.153  15.091 -0.6495  0.7124  0.0963
  890MPD2    N113054   0.615   0.461  14.758 -0.2774 -0.2285 -0.0020
  890MPD2    H713055   0.539   0.493  14.699 -0.0160  2.0149  0.8629
  891MPD2     C13056   3.721   3.712  16.630 -0.4015 -0.0491 -0.3307
  891MPD2    C113057   3.623   3.689  16.722  0.1134 -0.0756  0.5529
  891MPD2    C213058   3.663   3.631  16.845  0.7957 -0.5590 -0.0045
  891MPD2    C313059   3.791   3.591  16.869  0.2367 -0.1083 -0.8841
  891MPD2    C413060   3.885   3.612  16.772 -0.5576 -0.1157  0.4225
  891MPD2    C513061   3.847   3.675  16.651  0.0630 -0.2336  0.0986
  891MPD2     H13062   3.583   3.618  16.918 -0.5204  0.7009 -1.2010
  891MPD2    H113063   3.989   3.582  16.780  0.1032  1.8574 -0.8143
  891MPD2    H213064   3.697   3.749  16.532 -0.2384 -0.5761 -0.5702
  891MPD2    H313065   3.914   3.670  16.566 -1.2679 -1.1073 -0.8890
  891MPD2     N13066   3.829   3.544  17.003 -0.3611 -0.2120 -0.5808
  891MPD2    H513067   3.752   3.535  17.068 -0.5123  0.2527 -0.6954
  891MPD2    N113068   3.492   3.727  16.685  0.1885 -0.4330  0.1434
  891MPD2    H713069   3.486   3.752  16.587 -0.7231  1.1806  0.6129
  892MPD2     C13070   0.242   4.554  14.741  0.0282  0.2180  0.2655
  892MPD2    C113071   0.146   4.456  14.766  0.3785 -0.2860 -0.2061
  892MPD2    C213072   0.191   4.327  14.776  0.1346 -0.7128  0.1759
  892MPD2    C313073   0.324   4.292  14.745  0.3876 -0.1465 -0.1042
  892MPD2    C413074   0.413   4.397  14.719 -0.1891 -0.2771  0.0509
  892MPD2    C513075   0.373   4.521  14.726  0.6337 -0.9237 -0.2913
  892MPD2     H13076   0.120   4.247  14.792 -1.6666  0.6081 -1.2296
  892MPD2    H113077   0.518   4.370  14.709 -0.0052  0.6383 -0.4870
  892MPD2    H213078   0.214   4.658  14.724 -2.8932 -0.3559  1.6172
  892MPD2    H313079   0.457   4.586  14.704  0.3967 -1.5979 -3.2146
  892MPD2     N13080   0.372   4.161  14.722 -0.5923  0.6340 -0.6073
  892MPD2    H513081   0.469   4.154  14.693 -0.1554 -0.6158  1.1379
  892MPD2    N113082   0.004   4.484  14.775 -0.3479  0.9503 -0.6585
  892MPD2    H713083   4.668   4.411  14.818 -1.5951  2.5915  0.4810
  893MPD2     C13084   1.545   3.525   2.503  0.3835 -0.0624  0.6235
  893MPD2    C113085   1.492   3.561   2.382 -0.2376  0.1558 -0.0650
  893MPD2    C213086   1.370   3.628   2.372  0.7536  0.1319 -0.1906
  893MPD2    C313087   1.294   3.646   2.485  0.1329  0.2062 -0.1976
  893MPD2    C413088   1.352   3.616   2.607  0.1042  0.9442 -0.4676
  893MPD2    C513089   1.479   3.565   2.611 -0.0666 -0.4366  0.7437
  893MPD2     H13090   1.333   3.669   2.279 -0.3868  1.1180  0.6919
  893MPD2    H113091   1.301   3.656   2.693  0.3552  0.3434 -0.0412
  893MPD2    H213092   1.648   3.491   2.507  0.1849 -0.6031  1.0967
  893MPD2    H313093   1.523   3.560   2.710 -1.2964  0.4773  1.3426
  893MPD2     N13094   1.168   3.712   2.474 -0.2384 -0.1692 -0.1937
  893MPD2    H513095   1.127   3.727   2.566 -0.9501 -0.9727 -0.3832
  893MPD2    N113096   1.563   3.514   2.269 -0.0662  0.9153 -0.1674
  893MPD2    H713097   1.652   3.474   2.297 -0.3455  0.6079  0.2729
  894MPD2     C13098   4.430   0.830   1.690  0.8449 -0.2608 -1.3335
  894MPD2    C113099   4.337   0.867   1.595 -0.2604 -0.0700 -0.7687
  894MPD2    C213100   4.375   0.936   1.479 -0.3118 -0.5518 -0.7194
  894MPD2    C313101   4.504   0.939   1.436 -0.0979  0.0837 -0.1134
  894MPD2    C413102   4.595   0.877   1.518  0.7895  0.7213  0.8665
  894MPD2    C513103   4.558   0.827   1.645  0.9605  0.1600  0.1516
  894MPD2     H13104   4.295   0.980   1.421  2.0250 -0.4998 -3.8656
  894MPD2    H113105   4.703   0.877   1.510  0.8121 -0.4572  1.0595
  894MPD2    H213106   4.409   0.807   1.794 -1.3827  0.1615 -1.6706
  894MPD2    H313107   4.637   0.796   1.712 -1.3911 -1.6332  2.1254
  894MPD2     N13108   4.538   0.987   1.308  0.2603  0.2292  0.0463
  894MPD2    H513109   4.475   1.050   1.260  0.9456  0.1772 -0.9132
  894MPD2    N113110   4.199   0.877   1.634 -0.6469 -0.0107 -0.1178
  894MPD2    H713111   4.143   0.907   1.554  2.4571 -0.4119 -2.4374
  895MPD2     C13112   3.934   3.291  13.945  0.1856 -0.1678 -0.0098
  895MPD2    C113113   3.878   3.265  13.820  0.8570  0.7130  0.8646
  895MPD2    C213114   3.909   3.147  13.755  0.2460 -0.2876 -0.1814
  895MPD2    C313115   4.020   3.073  13.798  0.3421  0.1722 -0.2460
  895MPD2    C413116   4.066   3.094  13.926 -0.3116 -0.3253 -0.7459
  895MPD2    C513117   4.014   3.198  14.000 -0.1373 -0.0833  0.3621
  895MPD2     H13118   3.873   3.136  13.654 -0.7705  1.0214  0.0505
  895MPD2    H113119   4.145   3.032  13.967 -0.9469  2.6726  4.9987
  895MPD2    H213120   3.912   3.369  14.017  1.9554  0.0461  0.2833
  895MPD2    H313121   4.050   3.208  14.102  1.4412  1.8930 -0.3958
  895MPD2     N13122   4.064   2.972  13.711  0.5894  0.0504 -0.2439
  895MPD2    H513123   4.003   2.970  13.630 -0.3366  0.2779  0.4532
  895MPD2    N113124   3.792   3.348  13.756 -0.5091 -0.3458  0.2980
  895MPD2    H713125   3.760   3.317  13.665 -0.9656 -1.6140  0.8920
  896MPD2     C13126   1.541   1.167   0.671 -0.0920  0.1117  0.1860
  896MPD2    C113127   1.475   1.273   0.722 -0.2001  0.4986  0.2824
  896MPD2    C213128   1.336   1.263   0.743  0.2986 -0.4508 -0.5027
  896MPD2    C313129   1.269   1.138   0.722 -0.1861  0.2281  0.0109
  896MPD2    C413130   1.341   1.041   0.672 -0.1670  0.4886 -0.8804
  896MPD2    C513131   1.473   1.053   0.645 -0.9907 -0.2000  0.6952
  896MPD2     H13132   1.279   1.351   0.769  1.5779 -1.2369  5.0376
  896MPD2    H113133   1.288   0.950   0.643 -1.6743  0.7438  1.1079
  896MPD2    H213134   1.647   1.167   0.650  0.1412  0.1117  1.3860
  896MPD2    H313135   1.528   0.968   0.606 -0.9197 -0.0021  0.3630
  896MPD2     N13136   1.130   1.121   0.743  0.6409  0.0672 -0.0053
  896MPD2    H513137   1.079   1.204   0.772  2.1328  0.0884  2.5402
  896MPD2    N113138   1.545   1.394   0.751  0.3492 -0.7902  0.4131
  896MPD2    H713139   1.633   1.406   0.702  0.3734 -0.2734  0.5862
  897MPD2     C13140   2.400   2.141  10.725  0.4442  0.0629  0.2704
  897MPD2    C113141   2.438   2.268  10.770 -0.2544 -0.2262 -0.2953
  897MPD2    C213142   2.342   2.362  10.785  0.1118  0.2316  0.6520
  897MPD2    C313143   2.212   2.337  10.743 -0.1510 -0.2426 -0.4775
  897MPD2    C413144   2.173   2.214  10.705  0.1905  0.2131  0.3129
  897MPD2    C513145   2.271   2.121  10.686  0.5770 -0.4055  0.1514
  897MPD2     H13146   2.361   2.463  10.820  1.3354  0.7392 -1.5325
  897MPD2    H113147   2.075   2.194  10.664  0.0508 -2.1027  1.7489
  897MPD2    H213148   2.478   2.066  10.731  2.1485  1.7552 -0.4777
  897MPD2    H313149   2.238   2.021  10.662  1.1305 -0.2062 -1.4355
  897MPD2     N13150   2.120   2.441  10.743 -0.4674 -0.1724  0.3902
  897MPD2    H513151   2.161   2.523  10.787 -0.7634 -0.9210  2.0607
  897MPD2    N113152   2.579   2.282  10.801  0.0395 -0.2257  0.4983
  897MPD2    H713153   2.634   2.198  10.786  1.2884  0.5714  0.6211
  898MPD2     C13154   4.685   4.114   1.218 -0.4869 -0.2203  0.0083
  898MPD2    C113155   0.014   4.192   1.118  0.0584 -0.6387 -0.2607
  898MPD2    C213156   4.683   4.179   0.991 -0.2615  0.5260  0.1370
  898MPD2    C313157   4.583   4.089   0.956  0.2902  0.7178 -0.6547
  898MPD2    C413158   4.537   4.004   1.060 -0.2981 -0.1913  0.4318
  898MPD2    C513159   4.582   4.024   1.184 -0.0793  0.6918 -0.4156
  898MPD2     H13160   0.019   4.236   0.919  0.4537 -0.7707 -0.3253
  898MPD2    H113161   4.460   3.930   1.042  1.3214 -1.4329 -1.3624
  898MPD2    H213162   0.011   4.116   1.315 -1.5965  1.8998  0.4919
  898MPD2    H313163   4.555   3.958   1.266  1.0516 -0.4804 -0.9878
  898MPD2     N13164   4.533   4.096   0.819  0.4783 -0.2757  0.7854
  898MPD2    H513165   4.558   4.179   0.766 -1.8799 -0.9575 -1.3944
  898MPD2    N113166   0.122   4.285   1.140 -0.6778 -0.2553  0.0111
  898MPD2    H713167   0.162   4.318   1.053  0.0986 -1.0953  0.0523
  899MPD2     C13168   0.135   4.641   0.003  0.0867 -0.0257 -0.1939
  899MPD2    C113169   0.224   0.004   0.066  0.3190 -0.5847  0.6417
  899MPD2    C213170   0.234   0.013   0.204  0.2769 -0.2576 -0.8431
  899MPD2    C313171   0.138   4.668   0.276 -0.0964 -0.1214 -0.0391
  899MPD2    C413172   0.031   4.608   0.213  0.5210  0.4604  0.3049
  899MPD2    C513173   0.030   4.594   0.076  0.5026  0.5527 -0.4820
  899MPD2     H13174   0.316   0.068   0.250 -0.9528  0.6563  0.2611
  899MPD2    H113175   4.672   4.555   0.263 -0.1585  0.2537 -1.0132
  899MPD2    H213176   0.117   4.640  17.583  2.1366 -1.2411 -0.5235
  899MPD2    H313177   4.667   4.543   0.032  1.5763 -0.5846 -1.2391
  899MPD2     N13178   0.146   4.656   0.414  0.3793  0.0088 -0.3524
  899MPD2    H513179   0.101   4.572   0.448  2.4045 -1.5977 -1.6661
  899MPD2    N113180   0.295   0.086  17.662 -0.0467 -0.0366 -0.3896
  899MPD2    H713181   0.274   0.076  17.563 -0.4596 -0.3504 -0.2678
  900MPD2     C13182   0.500   1.489  12.697 -0.2006 -0.2727 -0.3190
  900MPD2    C113183   0.408   1.389  12.703 -0.2363  0.2021  0.1351
  900MPD2    C213184   0.272   1.416  12.685 -0.4529  0.0673  0.3132
  900MPD2    C313185   0.223   1.544  12.676  0.0724 -0.2205 -0.7399
  900MPD2    C413186   0.319   1.642  12.675 -0.0788 -0.3502 -0.3847
  900MPD2    C513187   0.452   1.614  12.683 -0.0041 -0.4516  0.3304
  900MPD2     H13188   0.204   1.332  12.696 -0.4759 -0.3028 -2.4369
  900MPD2    H113189   0.287   1.746  12.680  1.5440  0.0674  1.1664
  900MPD2    H213190   0.608   1.481  12.705 -0.5693  0.4888  5.2109
  900MPD2    H313191   0.526   1.694  12.681 -1.5511  0.9243 -1.8400
  900MPD2     N13192   0.084   1.563  12.662  0.4472 -0.0742  0.0163
  900MPD2    H513193   0.029   1.477  12.658  1.2440 -0.5249 -1.3217
  900MPD2    N113194   0.453   1.260  12.703  0.6749  1.3005  0.9383
  900MPD2    H713195   0.552   1.249  12.686  0.4490  0.3877  0.1871
  901MPD2     C13196   0.486   0.218  12.990 -0.5367 -0.1639  0.0349
  901MPD2    C113197   0.490   0.223  12.854 -0.3883  0.1319  0.3689
  901MPD2    C213198   0.501   0.351  12.797  0.2227 -0.6777 -0.0475
  901MPD2    C313199   0.489   0.459  12.878 -0.4104  0.2587 -0.6802
  901MPD2    C413200   0.485   0.452  13.018  0.2771 -0.3983  0.2809
  901MPD2    C513201   0.477   0.325  13.070  0.3441 -0.2269  0.0212
  901MPD2     H13202   0.509   0.368  12.690  2.0454 -1.5030 -0.0603
  901MPD2    H113203   0.484   0.542  13.078 -0.4590  0.5268 -1.1183
  901MPD2    H213204   0.483   0.122  13.042 -1.1347 -0.2832 -0.2281
  901MPD2    H313205   0.479   0.314  13.177  2.6254  0.5070  0.0608
  901MPD2     N13206   0.496   0.580  12.805 -0.1158 -0.6397  0.2238
  901MPD2    H513207   0.485   0.577  12.704 -3.8494  2.1355  0.5293
  901MPD2    N113208   0.499   0.099  12.784 -0.3505  0.1891 -0.1252
  901MPD2    H713209   0.494   0.017  12.843 -0.5798 -0.8294 -1.5710
  902MPD2     C13210   3.509   3.419  12.688 -0.5679  0.1782 -0.3646
  902MPD2    C113211   3.530   3.501  12.577  0.4322  0.0277 -0.1143
  902MPD2    C213212   3.611   3.452  12.477 -0.4630 -0.3353  0.5458
  902MPD2    C313213   3.679   3.328  12.492  0.2237  0.9813 -0.6893
  902MPD2    C413214   3.668   3.252  12.600 -0.1447 -0.0234 -0.0397
  902MPD2    C513215   3.577   3.298  12.696 -0.6599 -0.3742 -0.3128
  902MPD2     H13216   3.604   3.502  12.381 -1.1199  1.0175  1.3080
  902MPD2    H113217   3.717   3.157  12.620  0.3879  0.3834  0.5833
  902MPD2    H213218   3.457   3.459  12.774 -0.4127  0.8128 -0.5623
  902MPD2    H313219   3.567   3.228  12.779  0.6508  0.3445  0.4474
  902MPD2     N13220   3.766   3.277  12.393 -0.1981  0.5108 -0.3427
  902MPD2    H513221   3.807   3.185  12.407 -0.6961  0.3006 -0.2796
  902MPD2    N113222   3.471   3.632  12.582  0.4440  0.1345  0.0022
  902MPD2    H713223   3.437   3.666  12.671 -0.1572 -1.3086  0.3213
  903MPD2     C13224   3.899   2.932  11.656 -0.6375 -0.3707  0.8015
  903MPD2    C113225   3.854   2.924  11.790  0.0193  0.1384 -0.5295
  903MPD2    C213226   3.717   2.932  11.804  0.5118  0.6074  0.2116
  903MPD2    C313227   3.632   2.931  11.698  0.0439 -0.9179 -0.2899
  903MPD2    C413228   3.676   2.936  11.569 -0.4005  0.1679  0.2330
  903MPD2    C513229   3.814   2.929  11.552 -0.1800  0.0522  0.1656
  903MPD2     H13230   3.665   2.929  11.899 -0.6667 -0.2577 -0.4520
  903MPD2    H113231   3.610   2.947  11.483 -0.0365 -0.5844 -0.1460
  903MPD2    H213232   4.006   2.940  11.640 -1.1077 -0.3557 -2.2100
  903MPD2    H313233   3.854   2.926  11.451  0.2670  1.0871  0.3150
  903MPD2     N13234   3.493   2.937  11.728  0.4668  0.0324  0.0074
  903MPD2    H513235   3.477   2.916  11.826 -3.3521  0.5363 -0.5097
  903MPD2    N113236   3.952   2.944  11.896  0.0502 -0.2898 -0.3926
  903MPD2    H713237   4.051   2.951  11.873  0.9907  0.8890  3.9852
  904MPD2     C13238   3.551   2.710  13.899  0.0775 -0.5177 -0.2609
  904MPD2    C113239   3.582   2.829  13.962 -0.0288  0.2283 -0.0012
  904MPD2    C213240   3.706   2.851  14.014  0.3871  0.2473 -0.6095
  904MPD2    C313241   3.813   2.769  13.986  0.6896  0.0039  0.7157
  904MPD2    C413242   3.779   2.651  13.918 -0.4042  0.0284  0.4412
  904MPD2    C513243   3.647   2.617  13.889  0.2215 -0.9989  0.5631
  904MPD2     H13244   3.731   2.943  14.066 -1.5317  0.0611  0.6468
  904MPD2    H113245   3.859   2.585  13.885 -0.5875  0.0225  0.0089
  904MPD2    H213246   3.446   2.681  13.895 -0.0659  0.0259 -0.4137
  904MPD2    H313247   3.618   2.527  13.835 -0.1070 -1.5511  1.6656
  904MPD2     N13248   3.944   2.793  14.035 -0.4737  0.0249  0.1787
  904MPD2    H513249   3.957   2.870  14.100 -0.8376 -1.3915  1.9296
  904MPD2    N113250   3.484   2.938  13.974  0.1276  0.1252  0.0702
  904MPD2    H713251   3.511   3.014  14.036  0.8573 -0.5061  0.5245
  905MPD2     C13252   3.419   2.878  13.366  0.1130 -0.8787 -0.0252
  905MPD2    C113253   3.486   2.983  13.428 -0.3389 -0.0909  0.6637
  905MPD2    C213254   3.622   2.994  13.406 -0.1166  0.0540  0.2289
  905MPD2    C313255   3.676   2.902  13.315  0.0974 -0.7345  0.3286
  905MPD2    C413256   3.607   2.810  13.245 -1.0902  0.0377 -0.3342
  905MPD2    C513257   3.476   2.801  13.268  0.4353 -0.0033 -0.7845
  905MPD2     H13258   3.679   3.047  13.481  1.3823  1.9067 -2.1969
  905MPD2    H113259   3.658   2.750  13.171 -1.6014 -1.3197  0.4223
  905MPD2    H213260   3.322   2.854  13.407  0.9432 -3.3921  0.4205
  905MPD2    H313261   3.409   2.731  13.219 -0.3845 -0.0033  0.3173
  905MPD2     N13262   3.818   2.884  13.299  0.3925  0.3616  0.2290
  905MPD2    H513263   3.840   2.816  13.227 -0.2781  0.0911  0.2802
  905MPD2    N113264   3.402   3.064  13.518 -0.3054  0.1309  0.0983
  905MPD2    H713265   3.306   3.038  13.536 -0.9357  2.3902 -0.0465
  906MPD2     C13266   1.321   3.159  11.144  0.1421  0.5288  0.6076
  906MPD2    C113267   1.300   3.055  11.058  0.7282  0.0901  0.1073
  906MPD2    C213268   1.290   2.926  11.116 -0.0938 -0.1029 -0.1789
  906MPD2    C313269   1.296   2.912  11.251  0.2745 -0.0790  0.3869
  906MPD2    C413270   1.301   3.015  11.336 -0.7372 -0.5943 -0.0433
  906MPD2    C513271   1.314   3.138  11.278  0.7313 -0.3216  0.0389
  906MPD2     H13272   1.275   2.839  11.053 -1.6813  1.3620 -1.8055
  906MPD2    H113273   1.290   3.001  11.442 -2.3308  0.5494 -0.0690
  906MPD2    H213274   1.333   3.258  11.102  1.5610  0.5838  1.1375
  906MPD2    H313275   1.331   3.213  11.355  1.7033  0.0651 -0.5604
  906MPD2     N13276   1.299   2.786  11.311  0.7007  0.7249  0.0766
  906MPD2    H513277   1.259   2.778  11.404 -1.3630 -2.7555 -1.0923
  906MPD2    N113278   1.295   3.074  10.919  0.1355 -0.7212  0.6179
  906MPD2    H713279   1.305   2.989  10.865 -1.1173 -2.5890  3.3479
  907MPD2     C13280   4.580   2.411  15.996 -0.3411 -0.3613 -0.2742
  907MPD2    C113281   4.616   2.290  15.948  0.1018 -0.1965  0.2698
  907MPD2    C213282   4.690   2.208  16.027  0.9561 -0.0798  0.2661
  907MPD2    C313283   4.710   2.236  16.160 -0.1642 -0.6115  1.0591
  907MPD2    C413284   4.666   2.355  16.207 -0.3851 -0.4644  1.1911
  907MPD2    C513285   4.612   2.449  16.124  0.5874  0.0815  0.0734
  907MPD2     H13286   0.010   2.114  15.990  3.1584  1.2581 -0.7147
  907MPD2    H113287   4.683   2.378  16.312 -1.5846  1.6126  0.9337
  907MPD2    H213288   4.524   2.476  15.930  1.4064 -2.1550 -3.5485
  907MPD2    H313289   4.571   2.535  16.176  2.8709  0.5169  1.1382
  907MPD2     N13290   0.074   2.152  16.238 -0.1232  0.3023  0.9113
  907MPD2    H513291   0.126   2.080  16.188 -0.3278  0.5620  0.3174
  907MPD2    N113292   4.586   2.248  15.816 -0.1637  0.3328  0.2761
  907MPD2    H713293   4.602   2.150  15.794  1.5483  0.6829 -0.0942
  908MPD2     C13294   3.183   1.998  10.278 -0.0679  0.3701 -0.2325
  908MPD2    C113295   3.051   2.044  10.273 -0.5682 -0.4298 -0.2479
  908MPD2    C213296   3.000   2.107  10.388  0.1172 -0.2166  0.0441
  908MPD2    C313297   3.082   2.127  10.498  0.2294  0.0902  0.1103
  908MPD2    C413298   3.208   2.075  10.502 -0.5602  0.5624 -0.0405
  908MPD2    C513299   3.257   2.008  10.394  0.3178  0.1800  0.0494
  908MPD2     H13300   2.895   2.132  10.388  0.1212 -0.1986  1.1570
  908MPD2    H113301   3.272   2.094  10.587  0.9709 -1.0010 -0.8499
  908MPD2    H213302   3.221   1.933  10.200  0.1311 -1.8407  1.7081
  908MPD2    H313303   3.355   1.964  10.414  1.1740  1.7387 -0.7542
  908MPD2     N13304   3.030   2.206  10.604 -0.5412 -0.1320 -0.6196
  908MPD2    H513305   2.944   2.259  10.593 -0.5786 -0.1626 -0.4768
  908MPD2    N113306   2.966   2.022  10.163 -0.1103 -0.1576 -0.2493
  908MPD2    H713307   2.869   2.048  10.177 -0.3386 -1.2348  0.1162
  909MPD2     C13308   2.960   0.627  11.786  0.4140  0.2227  0.3256
  909MPD2    C113309   2.985   0.759  11.749 -0.0943 -0.7452  0.5375
  909MPD2    C213310   2.901   0.859  11.800 -0.0797  0.7661  0.3093
  909MPD2    C313311   2.802   0.831  11.890 -0.1791  0.6374  0.1869
  909MPD2    C413312   2.777   0.695  11.924 -0.1678 -0.1865  0.5677
  909MPD2    C513313   2.864   0.598  11.875  0.1727  0.8626 -0.4457
  909MPD2     H13314   2.928   0.961  11.778  3.0104 -0.5631 -2.1360
  909MPD2    H113315   2.699   0.665  11.993  0.6402 -0.1008  1.5005
  909MPD2    H213316   3.023   0.547  11.747 -0.8262 -0.2087 -0.7742
  909MPD2    H313317   2.848   0.494  11.900  2.5229  0.1627 -1.8826
  909MPD2     N13318   2.723   0.936  11.936 -0.3088 -0.1490 -0.3486
  909MPD2    H513319   2.746   1.025  11.891  1.6957 -0.3287  0.3134
  909MPD2    N113320   3.104   0.799  11.680  0.0891 -0.3998 -0.1789
  909MPD2    H713321   3.117   0.896  11.654 -1.7035 -0.0378  0.2827
  910MPD2     C13322   4.137   2.508  15.979  0.0432  0.4108 -0.4648
  910MPD2    C113323   4.204   2.404  15.917  0.6406 -0.1133 -0.2323
  910MPD2    C213324   4.224   2.397  15.780 -0.8870 -0.3448 -0.3832
  910MPD2    C313325   4.202   2.509  15.708 -0.5854  0.0320 -0.5663
  910MPD2    C413326   4.138   2.619  15.772  0.3570  0.0013  1.2149
  910MPD2    C513327   4.099   2.619  15.905  0.1558 -0.1492  0.1293
  910MPD2     H13328   4.279   2.314  15.737 -2.3775 -2.3067  1.4959
  910MPD2    H113329   4.132   2.715  15.723 -1.5767  0.0115  1.4618
  910MPD2    H213330   4.123   2.508  16.087  0.8381  0.9856 -0.3628
  910MPD2    H313331   4.063   2.707  15.957 -0.8119 -0.3349 -0.2276
  910MPD2     N13332   4.227   2.518  15.564  0.1922 -0.4353 -0.6020
  910MPD2    H513333   4.207   2.608  15.522  2.1306  0.5653  0.6137
  910MPD2    N113334   4.238   2.287  15.988  0.0844  0.6302 -0.2091
  910MPD2    H713335   4.264   2.210  15.927 -0.7474  1.0320 -1.0734
  911MPD2     C13336   1.888   3.159  16.151 -0.6178  0.2130 -0.0123
  911MPD2    C113337   1.923   3.238  16.253 -0.2260 -0.4089 -0.0718
  911MPD2    C213338   1.848   3.349  16.287 -0.8660  0.5228  0.3987
  911MPD2    C313339   1.734   3.381  16.216  0.5562  0.4619  0.5067
  911MPD2    C413340   1.694   3.292  16.115 -0.1140 -0.0219 -0.1193
  911MPD2    C513341   1.765   3.183  16.080 -0.2135 -0.3995 -0.4845
  911MPD2     H13342   1.892   3.413  16.363  0.5851  0.7427 -0.6088
  911MPD2    H113343   1.605   3.328  16.064 -0.1313 -0.9142 -0.7181
  911MPD2    H213344   1.957   3.081  16.121 -0.7643  0.3678 -0.7636
  911MPD2    H313345   1.732   3.120  15.998  0.9518 -2.2737  0.4833
  911MPD2     N13346   1.662   3.500  16.227  0.2343  0.6634 -0.0586
  911MPD2    H513347   1.586   3.509  16.160  1.3005  3.1233 -0.9606
  911MPD2    N113348   2.047   3.203  16.308 -0.1205  0.1550 -0.7670
  911MPD2    H713349   2.097   3.120  16.277  2.6117  1.7590 -0.6858
  912MPD2     C13350   1.413   3.491  15.746  0.4517  0.2057 -0.1486
  912MPD2    C113351   1.369   3.512  15.876  0.8201  0.5867  1.1827
  912MPD2    C213352   1.347   3.400  15.958 -0.1847 -0.3479  0.3371
  912MPD2    C313353   1.365   3.269  15.905  0.3954 -0.1958  0.7135
  912MPD2    C413354   1.412   3.255  15.773 -0.2542 -0.1804  0.0529
  912MPD2    C513355   1.433   3.365  15.697  0.7153 -0.4967  0.1667
  912MPD2     H13356   1.325   3.411  16.064 -1.0397 -0.0490  0.1253
  912MPD2    H113357   1.430   3.154  15.738  1.8336  0.2619 -0.1525
  912MPD2    H213358   1.451   3.577  15.693 -0.5414 -0.1087 -1.3701
  912MPD2    H313359   1.490   3.359  15.605  0.8135 -0.8541  0.2507
  912MPD2     N13360   1.350   3.160  15.995  0.6600 -0.1170 -0.2535
  912MPD2    H513361   1.318   3.188  16.087 -0.0823 -0.5602 -0.3772
  912MPD2    N113362   1.391   3.640  15.928 -0.5726 -0.1955 -0.4155
  912MPD2    H713363   1.444   3.703  15.868  4.4695 -2.2942  1.7620
  913MPD2     C13364   1.355   4.493   9.711  0.1381  0.6120  0.5582
  913MPD2    C113365   1.448   4.561   9.637 -0.4273 -0.3187 -0.4448
  913MPD2    C213366   1.404   4.676   9.569  0.2387  0.5265 -0.0487
  913MPD2    C313367   1.278   0.007   9.572 -0.2602 -0.4614  0.0077
  913MPD2    C413368   1.189   4.647   9.638  0.3718  0.8075 -0.6029
  913MPD2    C513369   1.234   4.545   9.716 -0.2559  0.3690 -0.5555
  913MPD2     H13370   1.478   0.007   9.509  0.5979 -2.1256 -1.8958
  913MPD2    H113371   1.084   4.674   9.636  0.6353  1.8114 -1.1457
  913MPD2    H213372   1.367   4.401   9.767  3.3508  1.0117  0.5253
  913MPD2    H313373   1.157   4.483   9.760 -1.6575  1.8520 -0.8914
  913MPD2     N13374   1.233   0.126   9.503 -0.0852  0.0038 -0.4993
  913MPD2    H513375   1.137   0.154   9.520  0.1328  0.4838 -0.0654
  913MPD2    N113376   1.580   4.510   9.650  0.0816  0.7448  0.3096
  913MPD2    H713377   1.594   4.421   9.696 -0.5166  1.1666  1.2875
  914MPD2     C13378   0.267   4.505  11.834 -0.4632 -0.9638  0.4137
  914MPD2    C113379   0.234   4.625  11.894  0.1725 -0.1583 -0.5873
  914MPD2    C213380   0.274   4.640  12.028 -0.1481  0.4329 -0.5312
  914MPD2    C313381   0.354   4.544  12.096  0.1804  0.2308 -0.5534
  914MPD2    C413382   0.387   4.431  12.029  0.1084 -0.0706  0.2436
  914MPD2    C513383   0.345   4.413  11.901  0.0555  0.3038  0.2271
  914MPD2     H13384   0.248   0.009  12.083 -0.2916  0.4227 -0.5821
  914MPD2    H113385   0.439   4.347  12.073  1.9645  0.9430  0.0125
  914MPD2    H213386   0.233   4.473  11.736  1.2708  1.0557 -0.8694
  914MPD2    H313387   0.362   4.314  11.859  0.6321  0.9833 -1.1661
  914MPD2     N13388   0.391   4.558  12.231  0.0452 -0.1240 -0.4239
  914MPD2    H513389   0.356   4.639  12.281 -1.5292 -0.0842 -1.6080
  914MPD2    N113390   0.166   0.004  11.813  0.9632 -0.1787 -0.2951
  914MPD2    H713391   0.160   4.711  11.712 -1.5536  1.3445 -0.3433
  915MPD2     C13392   3.244   4.550  16.065 -0.0638 -0.1774 -0.0245
  915MPD2    C113393   3.115   4.550  16.016 -0.6862 -0.0272  0.4619
  915MPD2    C213394   3.016   4.620  16.089 -0.5787  0.2939 -0.0176
  915MPD2    C313395   3.047   4.682  16.208 -0.0567  0.2026 -0.0084
  915MPD2    C413396   3.177   4.675  16.251 -0.2587  0.0604 -0.8354
  915MPD2    C513397   3.269   4.603  16.187  0.7045  0.0038  0.5698
  915MPD2     H13398   2.912   4.621  16.060 -0.8825 -2.2459  0.9068
  915MPD2    H113399   3.208   4.718  16.345 -2.0467 -0.0453 -0.1949
  915MPD2    H213400   3.325   4.496  16.015 -0.5584 -0.0440 -0.9687
  915MPD2    H313401   3.366   4.589  16.234  1.0817 -2.0447 -0.8233
  915MPD2     N13402   2.947   0.045  16.272 -0.2832 -0.6234  0.6082
  915MPD2    H513403   2.854   0.034  16.234  0.2512 -0.4444 -0.7307
  915MPD2    N113404   3.097   4.495  15.888  0.0132 -0.6333 -0.4087
  915MPD2    H713405   3.179   4.478  15.831  0.2818  0.4148 -0.3433
  916MPD2     C13406   1.046   3.350  15.698  0.8669  0.4953 -0.2264
  916MPD2    C113407   1.017   3.250  15.796  0.2842 -0.5382  0.2986
  916MPD2    C213408   1.046   3.123  15.757  0.4405 -0.0692  0.4994
  916MPD2    C313409   1.100   3.086  15.632  0.5517 -0.0640  0.6322
  916MPD2    C413410   1.127   3.184  15.542  0.2587 -0.6982  0.4355
  916MPD2    C513411   1.092   3.309  15.578 -0.1331 -0.1613 -0.4431
  916MPD2     H13412   1.020   3.038  15.819 -0.3248  1.0089  1.6724
  916MPD2    H113413   1.178   3.180  15.446  1.4584  0.3231  1.0223
  916MPD2    H213414   1.037   3.456  15.718  2.4830  0.6945 -0.4995
  916MPD2    H313415   1.100   3.384  15.500 -0.3930 -0.2480 -0.5538
  916MPD2     N13416   1.116   2.950  15.605  0.4793  0.3546 -0.4237
  916MPD2    H513417   1.101   2.883  15.680  1.9238  1.9683  1.2859
  916MPD2    N113418   0.997   3.286  15.933  0.1006 -0.5942 -0.5249
  916MPD2    H713419   0.998   3.387  15.947 -1.2276 -0.5881 -0.4459
  917MPD2     C13420   1.651   0.325  10.707 -0.4150 -0.6397  1.1097
  917MPD2    C113421   1.718   0.386  10.813 -0.2363 -0.0238 -0.2114
  917MPD2    C213422   1.853   0.410  10.807 -0.3037 -0.2699 -0.5290
  917MPD2    C313423   1.923   0.389  10.691 -0.0561  0.3217  0.3756
  917MPD2    C413424   1.848   0.342  10.582 -0.1227 -0.8823 -0.4359
  917MPD2    C513425   1.714   0.306  10.590 -0.6521 -0.1292  0.5430
  917MPD2     H13426   1.906   0.451  10.893  0.9070 -1.4766 -0.6890
  917MPD2    H113427   1.906   0.317  10.494  2.2797 -1.7615  1.4075
  917MPD2    H213428   1.548   0.292  10.708  0.1100 -2.3527 -3.1287
  917MPD2    H313429   1.677   0.243  10.510 -1.2536  0.2794  0.5039
  917MPD2     N13430   2.061   0.435  10.673  1.0110  0.2672 -0.1913
  917MPD2    H513431   2.102   0.435  10.580 -0.9760  2.8301 -1.0829
  917MPD2    N113432   1.645   0.408  10.925  0.4085 -0.1447  0.3112
  917MPD2    H713433   1.549   0.376  10.917  0.0334  0.8385  0.8644
  918MPD2     C13434   1.730   0.955  11.808 -0.0970 -0.6707 -0.0965
  918MPD2    C113435   1.825   0.916  11.720  0.3658  0.3334  1.0345
  918MPD2    C213436   1.781   0.860  11.601 -0.1590  0.1501  0.2952
  918MPD2    C313437   1.649   0.836  11.579 -0.5417  0.0966  0.0989
  918MPD2    C413438   1.555   0.879  11.668  0.4876 -0.3194  0.2811
  918MPD2    C513439   1.597   0.939  11.784 -0.1585  0.2538  0.2791
  918MPD2     H13440   1.855   0.827  11.529  1.3328  1.5031  1.2024
  918MPD2    H113441   1.450   0.853  11.663  0.0678  1.9611 -2.3851
  918MPD2    H213442   1.756   1.006  11.901 -0.2252 -3.4929  1.4731
  918MPD2    H313443   1.521   0.976  11.851  0.7623 -0.1238  1.5249
  918MPD2     N13444   1.623   0.740  11.474  0.2861 -0.4411  0.1761
  918MPD2    H513445   1.705   0.710  11.423  0.4788  2.7631 -1.3781
  918MPD2    N113446   1.962   0.913  11.741  0.5261 -0.7917  0.2187
  918MPD2    H713447   2.019   0.886  11.661 -1.0438 -0.7639 -0.8959
  919MPD2     C13448   2.183   4.240  12.005  0.1369 -0.2589 -0.0347
  919MPD2    C113449   2.147   4.114  11.952 -0.4356 -0.0611 -0.0945
  919MPD2    C213450   2.192   4.075  11.828  0.2986 -0.6088  0.0328
  919MPD2    C313451   2.234   4.176  11.749 -0.0010 -0.0741 -0.8945
  919MPD2    C413452   2.250   4.305  11.798 -0.2049  0.2041 -0.5018
  919MPD2    C513453   2.226   4.331  11.926 -0.1708  0.1391  0.0399
  919MPD2     H13454   2.196   3.971  11.798  1.8546 -0.3283 -0.7498
  919MPD2    H113455   2.295   4.386  11.743  1.5225 -0.6894 -0.4126
  919MPD2    H213456   2.161   4.263  12.109  0.5544  1.3348 -0.3041
  919MPD2    H313457   2.255   4.427  11.967 -0.5225  0.1474  0.2633
  919MPD2     N13458   2.272   4.146  11.615 -0.3161 -0.2403 -0.3797
  919MPD2    H513459   2.299   4.226  11.559 -1.4204  1.8585  2.0620
  919MPD2    N113460   2.081   4.017  12.027 -0.3472  0.2586  0.4848
  919MPD2    H713461   2.071   3.924  11.986  0.3357  0.3935  0.0023
  920MPD2     C13462   2.126   4.373  10.653  0.1202 -0.4683 -0.1541
  920MPD2    C113463   2.018   4.298  10.689 -0.0232 -0.2563  0.1595
  920MPD2    C213464   2.012   4.232  10.812  0.4513  0.0260 -0.1114
  920MPD2    C313465   2.112   4.246  10.899  0.2679 -0.5252 -0.2800
  920MPD2    C413466   2.222   4.327  10.868 -0.1238 -1.0325 -0.1676
  920MPD2    C513467   2.226   4.392  10.748 -0.6003 -0.0174  0.2846
  920MPD2     H13468   1.925   4.169  10.829  0.8769  0.0109  2.0784
  920MPD2    H113469   2.313   4.336  10.926 -0.6212  1.0655  0.2840
  920MPD2    H213470   2.139   4.429  10.561 -1.0620 -3.0478 -1.8697
  920MPD2    H313471   2.310   4.454  10.717 -0.7235 -0.7460 -1.4940
  920MPD2     N13472   2.110   4.175  11.021 -0.3024  0.9603 -0.4127
  920MPD2    H513473   2.045   4.097  11.017 -1.2834  1.7651 -0.1369
  920MPD2    N113474   1.906   4.273  10.606  0.5154  0.4957 -0.3871
  920MPD2    H713475   1.821   4.238  10.650 -0.6896  0.6944 -2.5876
  921MPD2     C13476   2.681   3.677  16.924  0.9028 -0.4890  0.0418
  921MPD2    C113477   2.734   3.617  16.811  0.6143 -0.7041  0.2222
  921MPD2    C213478   2.661   3.510  16.753  0.5544  0.1641  0.5754
  921MPD2    C313479   2.546   3.459  16.812 -0.3507  0.3801  0.1702
  921MPD2    C413480   2.499   3.513  16.930  0.3530 -0.7308 -0.1413
  921MPD2    C513481   2.571   3.619  16.976 -0.7109  0.1678 -0.4224
  921MPD2     H13482   2.698   3.460  16.664 -1.6693  0.3484 -0.4782
  921MPD2    H113483   2.409   3.494  16.987 -0.6362  0.6163 -1.2382
  921MPD2    H213484   2.722   3.771  16.961  0.0663 -0.1712  0.1567
  921MPD2    H313485   2.531   3.664  17.066 -0.9730  1.2787 -1.0862
  921MPD2     N13486   2.476   3.345  16.757  0.0874  0.5010 -0.6574
  921MPD2    H513487   2.395   3.317  16.811 -0.1495  2.4285 -0.0375
  921MPD2    N113488   2.857   3.664  16.767  1.1121  0.1148  0.2064
  921MPD2    H713489   2.891   3.745  16.818  1.9902  0.6295 -1.2129
  922MPD2     C13490   3.906   1.042  17.541 -0.0450 -0.8454  0.4116
  922MPD2    C113491   3.888   1.051  17.407  0.2793 -0.0740  0.4827
  922MPD2    C213492   3.752   1.058  17.374 -1.1389  0.4940  0.0521
  922MPD2    C313493   3.646   1.055  17.461  0.1916 -0.8083  0.2287
  922MPD2    C413494   3.673   1.043  17.591  0.2017  0.5337  0.0877
  922MPD2    C513495   3.804   1.030  17.631  0.1696 -0.1366 -0.5001
  922MPD2     H13496   3.720   1.043  17.271  1.9681 -0.3011 -0.8304
  922MPD2    H113497   3.588   1.048  17.657  0.9139  1.1151  0.9609
  922MPD2    H213498   4.002   1.026  17.589 -1.8090 -1.5909  3.7004
  922MPD2    H313499   3.816   1.023   0.052 -1.8305  2.0273 -0.1431
  922MPD2     N13500   3.524   1.065  17.394  0.1298 -0.0524 -0.1201
  922MPD2    H513501   3.537   1.092  17.297  1.1838 -0.2292 -0.0236
  922MPD2    N113502   3.987   1.057  17.305 -0.0313  0.1253 -0.2408
  922MPD2    H713503   3.961   1.061  17.207 -0.9991 -1.1144 -0.0355
  923MPD2     C13504   0.422   3.062   9.071  0.3987 -0.5140 -0.0031
  923MPD2    C113505   0.423   2.926   9.100  0.2015 -0.1384  0.5702
  923MPD2    C213506   0.547   2.865   9.118  0.3103 -0.8137 -0.2120
  923MPD2    C313507   0.667   2.935   9.100 -0.2677  0.0186 -0.4871
  923MPD2    C413508   0.659   3.072   9.066  0.0681  0.1334 -0.4363
  923MPD2    C513509   0.532   3.136   9.052  0.2695 -0.0636  0.0405
  923MPD2     H13510   0.552   2.758   9.139  1.5516 -0.2901  2.1206
  923MPD2    H113511   0.743   3.140   9.058 -1.0000  1.5102 -0.0449
  923MPD2    H213512   0.325   3.111   9.072 -0.1788 -1.7152  2.3958
  923MPD2    H313513   0.534   3.243   9.035  0.8192 -0.1536 -0.4636
  923MPD2     N13514   0.792   2.874   9.124 -0.5001  0.3057  0.8174
  923MPD2    H513515   0.866   2.933   9.159  1.6073 -1.7344 -0.1812
  923MPD2    N113516   0.306   2.857   9.115 -0.3256 -0.5404 -0.3289
  923MPD2    H713517   0.224   2.917   9.124  1.4473  1.7150  0.6428
  924MPD2     C13518   0.603   1.756  15.811  0.2334 -0.0276 -0.3400
  924MPD2    C113519   0.580   1.691  15.933 -0.0180 -0.0136 -0.3592
  924MPD2    C213520   0.544   1.760  16.044  0.3967 -0.0448 -0.4110
  924MPD2    C313521   0.537   1.894  16.041 -0.4189  0.2163 -0.2733
  924MPD2    C413522   0.554   1.961  15.922 -0.0192  0.1380  0.3727
  924MPD2    C513523   0.584   1.891  15.809  0.2649 -0.1730 -0.6850
  924MPD2     H13524   0.542   1.700  16.134 -2.7053  1.8836  0.8157
  924MPD2    H113525   0.531   2.066  15.909 -2.3312 -0.5402 -0.9996
  924MPD2    H213526   0.614   1.698  15.721  0.9855 -0.5521  0.0847
  924MPD2    H313527   0.596   1.946  15.716  2.4863 -0.3472 -0.5073
  924MPD2     N13528   0.530   1.973  16.157 -0.4551  0.1853  0.4290
  924MPD2    H513529   0.512   2.073  16.151  0.6566  0.1961 -2.7075
  924MPD2    N113530   0.584   1.548  15.946  0.0834 -0.0262  0.2231
  924MPD2    H713531   0.559   1.513  16.037 -1.0508  0.2029 -0.0030
  925MPD2     C13532   4.141   4.185  14.803  0.3605 -0.4387 -0.4558
  925MPD2    C113533   4.012   4.144  14.770  0.3799  0.4269  0.5497
  925MPD2    C213534   3.940   4.090  14.872 -0.2488  0.7078  0.4574
  925MPD2    C313535   3.993   4.076  15.006 -0.5400  0.0765  0.5811
  925MPD2    C413536   4.118   4.121  15.037 -0.1922 -0.1496 -0.6207
  925MPD2    C513537   4.191   4.173  14.936 -0.2692  0.2930  0.5071
  925MPD2     H13538   3.838   4.058  14.855  0.1012 -0.8219  1.2600
  925MPD2    H113539   4.161   4.124  15.136  2.3886 -0.1746 -1.7286
  925MPD2    H213540   4.211   4.235  14.737  0.8421  0.1175  0.4822
  925MPD2    H313541   4.291   4.207  14.957  0.4427 -1.0007 -0.7395
  925MPD2     N13542   3.917   4.027  15.115 -0.0984  0.3399  0.3637
  925MPD2    H513543   3.964   4.021  15.204 -0.9473  0.8385  0.8390
  925MPD2    N113544   3.961   4.147  14.633  0.1657  0.2875 -0.2517
  925MPD2    H713545   3.868   4.107  14.625  0.1624  0.5027 -1.2458
  926MPD2     C13546   2.694   2.393  13.224  0.4004 -0.0584  0.4241
  926MPD2    C113547   2.589   2.333  13.159  0.2174  0.9202  0.0548
  926MPD2    C213548   2.547   2.379  13.034  0.6701 -0.6630 -1.1015
  926MPD2    C313549   2.613   2.479  12.972  0.4340  0.6522 -0.4146
  926MPD2    C413550   2.729   2.523  13.028  0.1580 -0.0932  0.4993
  926MPD2    C513551   2.769   2.484  13.152  0.8218 -0.0767 -1.1837
  926MPD2     H13552   2.478   2.319  12.975  0.0974 -1.3407  0.2502
  926MPD2    H113553   2.782   2.606  12.983  1.4946 -0.9719  0.4765
  926MPD2    H213554   2.726   2.359  13.322  1.9927  0.0695 -0.0548
  926MPD2    H313555   2.860   2.527  13.190  0.3249  0.3178 -0.4330
  926MPD2     N13556   2.569   2.527  12.848 -0.2979  0.0315 -0.1503
  926MPD2    H513557   2.637   2.586  12.800  0.9606  0.1581  1.7674
  926MPD2    N113558   2.514   2.233  13.221 -0.3591 -0.4197 -1.0324
  926MPD2    H713559   2.438   2.187  13.172 -0.2853  2.1995 -3.6087
  927MPD2     C13560   2.081   0.610  17.471  0.2310  0.4942  0.4368
  927MPD2    C113561   2.176   0.538  17.534  0.2006 -0.0523 -0.1798
  927MPD2    C213562   2.284   0.489  17.468  0.7215  0.3237 -0.4582
  927MPD2    C313563   2.310   0.523  17.336  0.6451  0.3914  0.4689
  927MPD2    C413564   2.217   0.603  17.275 -0.0809 -0.4348  0.4646
  927MPD2    C513565   2.098   0.639  17.338  0.2654  0.3520 -0.1738
  927MPD2     H13566   2.356   0.431  17.524  0.3760  0.0208 -0.3285
  927MPD2    H113567   2.243   0.652  17.182 -1.3248  0.0042  0.3501
  927MPD2    H213568   1.993   0.653  17.516  0.4614 -0.1088  1.4545
  927MPD2    H313569   2.018   0.699  17.297  0.1828 -0.8809 -1.8340
  927MPD2     N13570   2.429   0.484  17.278 -0.2976 -0.3376  0.3833
  927MPD2    H513571   2.493   0.426  17.330  0.4941  0.9424  0.8307
  927MPD2    N113572   2.161   0.516  17.673  0.1906  0.2303  0.1643
  927MPD2    H713573   2.065   0.529   0.019 -0.6651  0.3783 -2.4243
  928MPD2     C13574   0.369   3.971   1.356  0.1116  0.9343 -0.3359
  928MPD2    C113575   0.492   4.019   1.392  0.8727  0.1947  1.0069
  928MPD2    C213576   0.592   4.032   1.299 -0.7545 -0.3145  0.1156
  928MPD2    C313577   0.557   3.999   1.168 -0.3156  0.6367  0.7883
  928MPD2    C413578   0.434   3.948   1.137  0.3160 -0.2457  0.1964
  928MPD2    C513579   0.340   3.929   1.236  0.6128 -0.1780 -0.3348
  928MPD2     H13580   0.693   4.061   1.324 -0.6281 -0.7954  0.1474
  928MPD2    H113581   0.399   3.930   1.036  0.4181 -1.4784  0.3775
  928MPD2    H213582   0.291   3.967   1.431 -0.4395  1.4329 -0.8852
  928MPD2    H313583   0.235   3.906   1.221  0.6135 -0.9882  0.9103
  928MPD2     N13584   0.632   4.041   1.052 -0.1468  0.6759  0.0781
  928MPD2    H513585   0.587   4.029   0.962 -0.5863 -0.2118  0.4114
  928MPD2    N113586   0.505   4.070   1.519 -0.3494  0.1827 -0.0953
  928MPD2    H713587   0.420   4.092   1.569  0.4383  0.4283  1.1349
  929MPD2     C13588   0.831   2.927  10.311  0.6987 -0.4977  0.8870
  929MPD2    C113589   0.762   2.822  10.360 -0.1313  0.5309 -0.1130
  929MPD2    C213590   0.654   2.770  10.285  0.0107  0.0216 -0.5851
  929MPD2    C313591   0.610   2.835  10.174 -0.6200 -0.0659 -0.1544
  929MPD2    C413592   0.679   2.941  10.131 -0.3506 -0.2088  0.6556
  929MPD2    C513593   0.785   2.988  10.198 -0.2164 -0.4231  0.3387
  929MPD2     H13594   0.591   2.693  10.329  0.4508  0.4491  0.7790
  929MPD2    H113595   0.647   2.997  10.044 -0.4083 -0.3961  0.5569
  929MPD2    H213596   0.916   2.962  10.368 -1.1047  1.1762  2.5272
  929MPD2    H313597   0.838   3.071  10.152 -0.2340 -0.0788  0.9306
  929MPD2     N13598   0.484   2.807  10.104  0.4985  0.5309  0.1770
  929MPD2    H513599   0.457   2.865  10.026  1.0445  1.0906  0.4127
  929MPD2    N113600   0.797   2.771  10.483 -0.8623 -0.0233 -0.5984
  929MPD2    H713601   0.860   2.830  10.536 -1.6532 -1.2125  1.6979
  930MPD2     C13602   2.313   0.387  14.009  0.1850  0.3964  0.1274
  930MPD2    C113603   2.367   0.486  13.924 -0.0177  0.3154  0.1182
  930MPD2    C213604   2.382   0.446  13.789 -0.2139 -0.8909  0.1194
  930MPD2    C313605   2.338   0.332  13.729  0.5607 -0.9067  0.7892
  930MPD2    C413606   2.294   0.238  13.818 -0.2918 -0.0204 -0.0571
  930MPD2    C513607   2.284   0.261  13.953 -0.0033  0.2416 -0.1473
  930MPD2     H13608   2.429   0.519  13.724  0.7994  0.0274  1.8763
  930MPD2    H113609   2.254   0.147  13.775 -0.6037  0.9046 -1.7316
  930MPD2    H213610   2.294   0.405  14.114 -0.4478 -1.3363  0.3071
  930MPD2    H313611   2.254   0.178  14.016 -1.1788  1.3020  0.6910
  930MPD2     N13612   2.342   0.323  13.591 -0.0214  0.8102  0.2986
  930MPD2    H513613   2.379   0.404  13.541  0.7873 -1.6824 -3.1685
  930MPD2    N113614   2.410   0.619  13.971 -0.1335  0.3953 -0.6000
  930MPD2    H713615   2.397   0.639  14.069  0.8933  0.4659 -0.4730
  931MPD2     C13616   2.533   0.062   0.514 -0.6323 -0.5645  0.3451
  931MPD2    C113617   2.470   0.169   0.579  0.1949  0.0713 -0.2780
  931MPD2    C213618   2.481   0.180   0.713  0.4223 -0.6008 -0.2735
  931MPD2    C313619   2.548   0.083   0.790 -0.2185  0.4390  0.3729
  931MPD2    C413620   2.604   4.699   0.726 -0.4239 -0.3589  0.2371
  931MPD2    C513621   2.602   4.691   0.587 -0.2577 -0.7628 -0.2971
  931MPD2     H13622   2.454   0.272   0.763 -0.7833 -0.3546 -1.3960
  931MPD2    H113623   2.660   4.629   0.787 -0.5439  0.6255  1.4824
  931MPD2    H213624   2.516   0.054   0.407 -0.1186 -1.4896  0.3287
  931MPD2    H313625   2.640   4.602   0.539 -0.0846  0.0973 -1.7668
  931MPD2     N13626   2.565   0.081   0.926  0.1806 -0.3377  0.1516
  931MPD2    H513627   2.607   0.003   0.974 -2.0895 -1.7560 -0.1983
  931MPD2    N113628   2.382   0.248   0.507 -0.1967 -0.7290  0.0310
  931MPD2    H713629   2.377   0.229   0.407  1.2052  1.1364 -0.3838
  932MPD2     C13630   3.723   4.091  11.089 -0.2584 -0.4175  0.0912
  932MPD2    C113631   3.843   4.098  11.025  0.1156  0.2369  0.4564
  932MPD2    C213632   3.927   3.990  11.032 -0.3473  0.6030 -0.5042
  932MPD2    C313633   3.889   3.876  11.103 -0.5721 -0.0595  0.0481
  932MPD2    C413634   3.776   3.873  11.176 -0.5123  0.2201 -0.0735
  932MPD2    C513635   3.690   3.982  11.169  0.1003 -0.3034  0.8264
  932MPD2     H13636   4.011   3.990  10.962  0.5634 -2.5577  0.5556
  932MPD2    H113637   3.748   3.791  11.241 -2.7214  1.3957  0.4596
  932MPD2    H213638   3.657   4.177  11.083 -2.5061 -2.1708 -0.3493
  932MPD2    H313639   3.598   3.983  11.226 -0.2901  1.9584  0.1734
  932MPD2     N13640   3.983   3.768  11.127 -0.4441  0.3926 -0.8204
  932MPD2    H513641   3.953   3.698  11.193  0.7189  1.6363  1.0498
  932MPD2    N113642   3.885   4.207  10.944  0.7426  0.5223 -0.0107
  932MPD2    H713643   3.970   4.196  10.889 -0.0980 -1.5001 -0.8891
  933MPD2     C13644   0.065   4.408   1.742 -0.1844  0.4701 -0.1038
  933MPD2    C113645   0.168   4.440   1.834 -0.0352 -0.0125 -0.0765
  933MPD2    C213646   0.149   4.532   1.930 -0.4404 -0.0513 -0.0572
  933MPD2    C313647   0.028   4.612   1.936 -0.2124  0.6331 -0.4511
  933MPD2    C413648   4.649   4.587   1.843  0.3191  0.0240  0.0526
  933MPD2    C513649   4.673   4.488   1.746  0.5656  0.2037 -0.2600
  933MPD2     H13650   0.232   4.561   1.993 -0.1080 -1.3152  0.0955
  933MPD2    H113651   4.549   4.628   1.831  1.0409  1.8935  0.3163
  933MPD2    H213652   0.074   4.334   1.664 -0.6076 -1.3027  1.5311
  933MPD2    H313653   4.591   4.461   1.681 -0.1304 -0.6391  0.9627
  933MPD2     N13654   0.024   4.718   2.032  0.0998  0.1904 -0.1960
  933MPD2    H513655   0.099   0.001   2.100 -0.2356  1.0637  0.1268
  933MPD2    N113656   0.289   4.367   1.815 -0.5051  0.4162 -0.4364
  933MPD2    H713657   0.281   4.293   1.746  0.3643 -1.0725  1.0648
  934MPD2     C13658   0.983   1.082   2.213 -0.1585 -0.4688 -0.0201
  934MPD2    C113659   1.083   1.004   2.158  0.3530  0.1109 -0.2500
  934MPD2    C213660   1.065   0.942   2.034 -0.2162  0.0093 -0.9591
  934MPD2    C313661   0.963   0.989   1.957 -0.3784 -0.0113 -0.6766
  934MPD2    C413662   0.864   1.069   2.013 -0.8549  0.1054  0.4780
  934MPD2    C513663   0.873   1.117   2.139 -0.4720  0.2670 -0.0819
  934MPD2     H13664   1.141   0.873   1.997  0.3803  1.9946 -3.4086
  934MPD2    H113665   0.778   1.092   1.951  0.1622  0.3460 -0.8511
  934MPD2    H213666   0.985   1.110   2.317  0.2544  1.1996 -0.4832
  934MPD2    H313667   0.791   1.175   2.179 -0.3217 -0.5949  1.4633
  934MPD2     N13668   0.950   0.951   1.822  0.3123 -0.2206  0.2404
  934MPD2    H513669   0.866   0.989   1.779  0.8995  1.1708  0.3037
  934MPD2    N113670   1.200   0.971   2.231 -0.3109  0.2199 -0.1728
  934MPD2    H713671   1.261   0.903   2.185  1.0094  3.2900 -2.9805
  935MPD2     C13672   1.570   0.447   1.183  0.0971 -0.8116  0.1991
  935MPD2    C113673   1.446   0.472   1.119  0.5067 -0.5557 -0.9548
  935MPD2    C213674   1.350   0.540   1.189  0.2066  0.4844 -0.3121
  935MPD2    C313675   1.368   0.589   1.316 -0.2422 -0.1361  0.4811
  935MPD2    C413676   1.491   0.566   1.378 -0.0899 -0.2344  0.4958
  935MPD2    C513677   1.588   0.495   1.307  0.1297  0.4253 -0.1086
  935MPD2     H13678   1.254   0.549   1.139 -0.0242  0.7080  0.1766
  935MPD2    H113679   1.510   0.594   1.481  1.2241  1.6261 -0.2677
  935MPD2    H213680   1.660   0.401   1.142 -0.4023 -3.0620  1.6470
  935MPD2    H313681   1.684   0.476   1.354 -1.1218 -0.9725  1.9001
  935MPD2     N13682   1.273   0.671   1.381  0.3613 -0.1473 -0.4767
  935MPD2    H513683   1.286   0.686   1.480  1.4505 -1.2592 -0.4501
  935MPD2    N113684   1.414   0.430   0.990 -0.3785 -0.2053  0.3051
  935MPD2    H713685   1.319   0.444   0.959  0.0136 -0.0057 -0.8127
  936MPD2     C13686   4.134   3.138  12.527 -0.2611  0.0046  0.2958
  936MPD2    C113687   4.183   3.013  12.532 -0.1922 -0.0110 -0.1655
  936MPD2    C213688   4.262   2.963  12.435 -0.2114  0.2964  0.4061
  936MPD2    C313689   4.297   3.040  12.321  0.7402 -0.5809 -0.0072
  936MPD2    C413690   4.246   3.170  12.317  0.6072 -0.0281 -0.8658
  936MPD2    C513691   4.174   3.216  12.423 -0.3044 -0.0932  0.2120
  936MPD2     H13692   4.303   2.866  12.457 -2.2281 -0.6980 -0.2023
  936MPD2    H113693   4.268   3.236  12.233 -0.2332  0.4429 -0.7112
  936MPD2    H213694   4.055   3.164  12.596  0.4558  1.7655  0.4595
  936MPD2    H313695   4.149   3.320  12.408  0.2731  0.1970  1.2682
  936MPD2     N13696   4.378   2.991  12.216  0.5406 -0.2750 -0.1172
  936MPD2    H513697   4.408   3.058  12.145  0.5424 -0.0128  0.1345
  936MPD2    N113698   4.174   2.929  12.647  0.0436  0.2531 -0.1988
  936MPD2    H713699   4.203   2.832  12.639 -0.3948  0.0619  0.5560
  937MPD2     C13700   2.000   3.318  12.064 -0.3457  0.9858 -0.0491
  937MPD2    C113701   2.076   3.431  12.049 -0.1591  0.4994  0.5610
  937MPD2    C213702   2.174   3.420  11.949 -0.0030  0.1735  0.1554
  937MPD2    C313703   2.209   3.303  11.890 -0.4112  0.2329 -0.4123
  937MPD2    C413704   2.136   3.191  11.919 -0.3585  0.5603  0.3313
  937MPD2    C513705   2.031   3.195  12.008 -0.3218 -0.5907 -0.5239
  937MPD2     H13706   2.227   3.509  11.917  0.4863 -0.4256 -0.6813
  937MPD2    H113707   2.160   3.089  11.891 -0.5928  0.3485  0.8799
  937MPD2    H213708   1.914   3.318  12.130 -1.2166  0.3293 -1.1708
  937MPD2    H313709   1.983   3.103  12.041 -1.4524 -0.7901 -2.7166
  937MPD2     N13710   2.302   3.301  11.781 -0.1456 -0.7165 -0.9843
  937MPD2    H513711   2.346   3.388  11.754 -0.1988 -0.8493 -1.5001
  937MPD2    N113712   2.028   3.557  12.087 -0.3201  0.2062  0.1632
  937MPD2    H713713   2.049   3.636  12.028  1.4031  0.0251  0.5229
  938MPD2     C13714   4.161   0.532   1.307 -0.0341  0.3833 -0.0877
  938MPD2    C113715   4.289   0.577   1.325  0.0643 -0.3676  0.4750
  938MPD2    C213716   4.366   0.546   1.434  0.0739 -0.3901  0.5153
  938MPD2    C313717   4.316   0.471   1.538 -0.7435 -0.3101  0.8765
  938MPD2    C413718   4.191   0.409   1.518 -0.4001 -0.2254  0.3187
  938MPD2    C513719   4.113   0.448   1.407 -0.1043  0.3738  0.4831
  938MPD2     H13720   4.461   0.597   1.438 -0.5909  1.0747 -2.6246
  938MPD2    H113721   4.142   0.345   1.590 -0.3105  0.1428  0.7073
  938MPD2    H213722   4.101   0.547   1.218 -2.2288 -0.4773  1.2498
  938MPD2    H313723   4.014   0.404   1.405  0.2653 -0.4581  0.1590
  938MPD2     N13724   4.390   0.443   1.646  0.2870 -0.1993 -0.2904
  938MPD2    H513725   4.335   0.416   1.727  1.5342 -0.2043  0.5729
  938MPD2    N113726   4.352   0.657   1.222  0.3818  0.2583  0.0190
  938MPD2    H713727   4.452   0.669   1.227  0.3120  0.5223  0.7874
  939MPD2     C13728   1.764   2.667   0.443 -0.0027  0.3673 -0.1361
  939MPD2    C113729   1.739   2.529   0.419  0.7524 -0.2104  0.4558
  939MPD2    C213730   1.727   2.489   0.284  0.2194 -0.1458  0.1099
  939MPD2    C313731   1.735   2.581   0.177 -0.2773 -1.0386 -0.3819
  939MPD2    C413732   1.756   2.709   0.206  0.1488  0.1502  0.3165
  939MPD2    C513733   1.770   2.750   0.336  0.0430  0.0616  0.5151
  939MPD2     H13734   1.708   2.383   0.269 -0.4755 -0.2043  1.3644
  939MPD2    H113735   1.759   2.785   0.128 -1.2314 -0.3372 -0.2113
  939MPD2    H213736   1.804   2.711   0.534  2.0195  0.5085 -1.0906
  939MPD2    H313737   1.786   2.856   0.353  0.1576 -0.0903  1.3373
  939MPD2     N13738   1.712   2.547   0.045  0.0337 -0.0486 -0.1649
  939MPD2    H513739   1.687   2.449   0.036 -2.6288  0.6444 -0.2891
  939MPD2    N113740   1.732   2.444   0.532  0.0872  0.5641 -0.2992
  939MPD2    H713741   1.746   2.482   0.625 -1.1377 -2.3901  1.0883
  940MPD2     C13742   0.652   2.617  13.213 -0.3706  0.2498  0.0820
  940MPD2    C113743   0.537   2.532  13.197  0.4883 -0.6297 -0.0091
  940MPD2    C213744   0.487   2.510  13.070  0.4179 -0.8889 -0.1453
  940MPD2    C313745   0.545   2.563  12.957  0.5955  0.3708  0.1671
  940MPD2    C413746   0.654   2.649  12.978 -0.6279  0.3524 -0.3172
  940MPD2    C513747   0.703   2.679  13.101  0.6132 -1.1584  0.0902
  940MPD2     H13748   0.403   2.441  13.068  0.0846 -0.4690 -0.6706
  940MPD2    H113749   0.694   2.705  12.895 -0.0005 -0.1320 -0.3409
  940MPD2    H213750   0.707   2.643  13.303  0.3113 -2.1147  0.3367
  940MPD2    H313751   0.772   2.760  13.121  1.3572 -2.5475  3.1375
  940MPD2     N13752   0.498   2.545  12.831 -0.3372 -0.2231 -0.3913
  940MPD2    H513753   0.522   2.614  12.761 -0.8452 -1.8741 -2.1865
  940MPD2    N113754   0.474   2.476  13.309  0.1181 -0.5253  0.0369
  940MPD2    H713755   0.379   2.442  13.307  1.6443 -4.8015  0.1930
  941MPD2     C13756   4.347   1.224   9.018 -0.4864 -0.2341  0.4588
  941MPD2    C113757   4.461   1.155   9.065 -0.2216  0.1256  0.5827
  941MPD2    C213758   4.445   1.021   9.089  0.0047 -0.0653 -0.4415
  941MPD2    C313759   4.317   0.956   9.074  0.4987  0.3973 -0.8076
  941MPD2    C413760   4.209   1.034   9.041  0.2870  0.5196  0.4430
  941MPD2    C513761   4.222   1.163   9.011 -0.8197 -0.7834 -0.1596
  941MPD2     H13762   4.527   0.962   9.128 -0.7634 -2.0369 -1.8024
  941MPD2    H113763   4.105   1.003   9.031  0.9084 -0.4727 -3.0667
  941MPD2    H213764   4.349   1.330   8.996 -0.3563 -0.7985 -2.3073
  941MPD2    H313765   4.136   1.228   9.003  0.2082  0.6711  0.6464
  941MPD2     N13766   4.282   0.823   9.111  0.3472 -0.0774  0.2918
  941MPD2    H513767   4.186   0.793   9.097 -0.6331  2.9573  0.4437
  941MPD2    N113768   4.591   1.208   9.064  0.3428 -1.1538 -0.4697
  941MPD2    H713769   4.652   1.158   9.127  0.0457  0.0295  0.7543
  942MPD2     C13770   3.631   2.606   9.667  0.6849 -0.4073  0.5857
  942MPD2    C113771   3.722   2.628   9.772 -0.2416  0.1358  0.0182
  942MPD2    C213772   3.859   2.605   9.739 -0.0705  0.4542  0.0969
  942MPD2    C313773   3.899   2.566   9.613 -0.2106  0.5112  0.0610
  942MPD2    C413774   3.806   2.533   9.522 -0.0194  0.7074 -0.6365
  942MPD2    C513775   3.674   2.563   9.547  0.2582 -0.0100 -0.2413
  942MPD2     H13776   3.928   2.630   9.819 -0.2697  1.4332 -0.0404
  942MPD2    H113777   3.832   2.491   9.426 -1.2320 -0.9909 -0.2183
  942MPD2    H213778   3.524   2.615   9.673  0.5343 -0.5916 -1.8358
  942MPD2    H313779   3.598   2.541   9.473  0.2908 -0.3238 -0.1837
  942MPD2     N13780   4.034   2.555   9.574 -0.2405 -0.3911  0.6642
  942MPD2    H513781   4.042   2.533   9.475 -0.0774  0.5455  0.4669
  942MPD2    N113782   3.689   2.664   9.909 -0.4477  0.3496 -0.0599
  942MPD2    H713783   3.759   2.667   9.982 -0.9213  2.0502  0.3267
  943MPD2     C13784   2.517   0.786   8.915 -0.2580 -0.1029  0.3977
  943MPD2    C113785   2.390   0.748   8.963 -0.3716  0.1487  0.2601
  943MPD2    C213786   2.387   0.638   9.056 -0.6407 -0.5575  0.2846
  943MPD2    C313787   2.509   0.576   9.101  0.6734 -0.2624 -0.2638
  943MPD2    C413788   2.626   0.637   9.062  0.3337 -0.1234 -0.3628
  943MPD2    C513789   2.631   0.735   8.969  0.2374  0.1458 -0.0543
  943MPD2     H13790   2.298   0.589   9.094  0.7189 -2.9401  0.4067
  943MPD2    H113791   2.721   0.602   9.101 -0.8773 -2.5930  0.3718
  943MPD2    H213792   2.525   0.871   8.849  1.7030 -1.8210 -1.5680
  943MPD2    H313793   2.726   0.769   8.930  0.3766 -0.5422 -0.3182
  943MPD2     N13794   2.515   0.458   9.184  0.6215  1.2188  0.3122
  943MPD2    H513795   2.607   0.433   9.219  0.6755  0.5804 -0.2951
  943MPD2    N113796   2.276   0.823   8.922  0.1367  0.4011  0.2562
  943MPD2    H713797   2.298   0.900   8.858 -1.1247  1.0216  0.5823
  944MPD2     C13798   3.446   1.010  10.896  0.4688  0.1310  0.1197
  944MPD2    C113799   3.374   0.903  10.852  0.1122  0.3554 -0.0180
  944MPD2    C213800   3.230   0.912  10.857 -0.0560  0.5746  0.5282
  944MPD2    C313801   3.170   1.031  10.894  0.0616  0.1788  0.3299
  944MPD2    C413802   3.245   1.140  10.935  0.4593  0.2093 -0.1598
  944MPD2    C513803   3.380   1.126  10.939 -0.1326  0.2480 -0.4830
  944MPD2     H13804   3.162   0.830  10.835  1.5029 -0.1542 -1.5936
  944MPD2    H113805   3.201   1.234  10.966 -0.6235 -0.3390 -0.0211
  944MPD2    H213806   3.554   1.009  10.887  0.3995  0.8418 -0.7957
  944MPD2    H313807   3.440   1.206  10.982  0.8324 -0.2861 -0.8208
  944MPD2     N13808   3.032   1.034  10.885  0.4005  0.2824 -0.4613
  944MPD2    H513809   2.975   0.955  10.856  0.9104 -0.6088  0.9509
  944MPD2    N113810   3.440   0.784  10.830 -0.1062 -0.5479 -0.3598
  944MPD2    H713811   3.541   0.796  10.833  0.1740 -2.2588 -2.5941
    1TCq1    O113812   1.827   0.952  14.200  0.5706  0.2348  0.4527
    1TCq1    C113813   1.864   1.024  14.309 -0.8923  0.7648  0.1880
    1TCq1    O213814   1.938   1.119  14.319 -0.3265 -0.3858 -0.0285
    1TCq1    C213815   1.752   0.997  14.396  0.4194  0.6823  0.7957
    1TCq1    C313816   1.711   0.868  14.418 -0.1642 -0.0469  0.5538
    1TCq1    C413817   1.644   0.852  14.540 -0.3447  0.0933 -0.5329
    1TCq1    C513818   1.598   0.953  14.617  0.8806 -0.0513 -0.5153
    1TCq1    C613819   1.640   1.083  14.581 -0.1098  0.1736 -0.1335
    1TCq1    C713820   1.714   1.105  14.466 -0.0097 -0.3078 -0.3313
    1TCq1    C813821   1.622   1.192  14.680  0.5292  0.0264 -0.1179
    1TCq1    O413822   1.587   1.167  14.795  0.2999  0.0092  0.5361
    1TCq1    C913823   1.620   0.715  14.580  0.5116 -0.1902  0.0323
    1TCq1    O513824   1.635   0.624  14.493  0.1806  0.1990 -0.5374
    1TCq1    O613825   1.549   0.711  14.685 -0.0549  0.1183  0.3364
    1TCq1    H113826   1.740   0.916  14.227 -0.3560  2.2453  0.1081
    1TCq1    H213827   1.730   0.781  14.357 -3.6139  0.8163 -1.7747
    1TCq1    H313828   1.547   0.933  14.711 -0.3776  2.4319 -0.6712
    1TCq1    H413829   1.748   1.200  14.426  0.2579  0.8325  2.6293
    2MPD2     C13830   1.571   1.678  14.810 -0.4837  0.1456 -0.0839
    2MPD2    C113831   1.547   1.666  14.677 -0.4336 -0.0611 -0.5720
    2MPD2    C213832   1.570   1.545  14.615 -0.0599  0.1025 -0.0595
    2MPD2    C313833   1.602   1.433  14.692  0.4593  0.6559  0.8919
    2MPD2    C413834   1.626   1.449  14.828 -0.2488 -0.5590 -0.8799
    2MPD2    C513835   1.613   1.573  14.882  0.3320  0.3822  0.6014
    2MPD2     H13836   1.554   1.534  14.508  1.6078 -1.0318 -0.2009
    2MPD2    H113837   1.670   1.383  14.902  1.1263 -0.1463 -1.3350
    2MPD2    H213838   1.556   1.772  14.862  1.4801  0.5365 -0.2074
    2MPD2    H313839   1.621   1.585  14.989 -0.1297 -0.9772  0.7961
    2MPD2     N13840   1.623   1.310  14.619 -0.2633 -0.6081  0.0832
    2MPD2    H513841   1.603   1.305  14.520  0.6831  0.3311 -0.1592
    2MPD2    N113842   1.508   1.786  14.611 -0.1722 -0.1356  0.4573
    2MPD2    H713843   1.498   1.877  14.656  0.9184  1.3833 -2.3208
    3TMC2    C113844   1.425   1.922  14.439 -0.8026 -0.2910  0.3135
    3TMC2    C213845   1.484   2.028  14.503  0.1052 -0.0665  0.8974
    3TMC2    C313846   1.461   2.153  14.458 -0.0639  0.6460  0.3050
    3TMC2    C413847   1.348   1.936  14.326  0.3800 -0.1397  0.1013
    3TMC2    C513848   1.320   2.069  14.287  0.1382 -0.1503 -0.0898
    3TMC2    C613849   1.374   2.178  14.352  0.2416 -0.0402 -0.2287
    3TMC2     C13850   1.447   1.787  14.486  0.2402 -0.4281  0.5998
    3TMC2     O13851   1.412   1.688  14.420  0.0692 -0.3189 -0.1248
    3TMC2     H13852   1.566   2.017  14.573 -0.7817  0.4608  2.0178
    3TMC2    H113853   1.309   1.846  14.279  2.0308  0.3229 -2.1433
    3TMC2    H213854   1.363   2.281  14.319  0.6627 -0.5291 -1.8828
    3TMC2    C713855   1.202   2.078  14.211  0.5204 -0.3019 -0.1054
    3TMC2    C813856   1.552   2.264  14.491 -0.0967 -0.2339 -0.1172
    3TMC2    O113857   1.123   1.985  14.227  0.3224  0.6559  0.1752
    3TMC2    O213858   1.517   2.378  14.478 -0.2681  0.2216 -0.2804
    3TMC2    O513859   1.676   2.228  14.441  0.3671  0.3867  0.0318
    3TMC2    H513860   1.680   2.131  14.432  0.3944  0.3779  0.1456
    4MPD2     C13861   0.279   2.769  13.510 -0.6653  0.0817  0.1987
    4MPD2    C113862   0.365   2.803  13.407 -0.1884  0.8022  0.2794
    4MPD2    C213863   0.501   2.811  13.431  0.5199  0.3360 -0.0628
    4MPD2    C313864   0.557   2.789  13.560  0.5002 -0.4187 -0.2816
    4MPD2    C413865   0.468   2.782  13.662 -0.4345  0.4288  0.0251
    4MPD2    C513866   0.330   2.769  13.639 -0.3675  0.2208  0.0285
    4MPD2     H13867   0.567   2.846  13.352  1.4367  2.9121  1.8624
    4MPD2    H113868   0.495   2.761  13.765 -0.1069 -0.7757 -0.3207
    4MPD2    H213869   0.174   2.746  13.498  0.3568 -3.4940 -1.6929
    4MPD2    H313870   0.259   2.745  13.717  0.2738  2.6628  1.3856
    4MPD2     N13871   0.697   2.788  13.589 -0.0084  0.1030  0.0014
    4MPD2    H513872   0.721   2.786  13.688  0.4963 -1.1413 -0.1455
    4MPD2    N113873   0.321   2.810  13.273 -0.3675 -0.1271  1.2356
    4MPD2    H713874   0.224   2.780  13.263 -0.2737 -0.0846  0.1905
    5TCq2    C113875   0.801   2.812  13.503 -0.4814 -0.2880  0.0717
    5TCq2    O213876   0.804   2.861  13.392 -0.1253 -0.2376  0.1389
    5TCq2    C213877   0.925   2.797  13.579  0.4106 -0.0805 -0.4164
    5TCq2    C313878   1.029   2.885  13.544  0.1855  0.2285 -0.5889
    5TCq2    C413879   1.143   2.880  13.616  0.6400 -0.2588  0.0127
    5TCq2    C513880   1.168   2.787  13.716  0.0294 -0.1909  0.2732
    5TCq2    C613881   1.066   2.698  13.738 -0.2423 -0.7500 -0.3952
    5TCq2    C713882   0.947   2.699  13.673 -0.1013  0.6912 -0.1839
    5TCq2    C813883   1.104   2.589  13.816 -0.5843  0.0468  0.1941
    5TCq2    O413884   1.198   2.604  13.890 -0.2626  0.1050 -0.1362
    5TCq2    C913885   1.246   2.984  13.588 -0.0114 -0.2578 -0.3810
    5TCq2    O513886   1.211   3.072  13.508 -0.0002 -0.6151 -0.7217
    5TCq2    O613887   1.362   2.965  13.629 -0.2556  0.7461  0.6071
    5TCq2    H213888   1.015   2.946  13.455  3.1290 -0.4282 -1.5075
    5TCq2    H313889   1.265   2.780  13.762 -0.4736  0.5866  1.4642
    5TCq2    H413890   0.861   2.642  13.708  1.0389 -1.9212 -1.6688
    6MPD1     C13891   3.721   3.849  13.101  0.4222  0.2581  0.3653
    6MPD1    C113892   3.825   3.908  13.039  0.1663  0.3571 -0.3934
    6MPD1    C213893   3.923   3.830  12.985  0.0186 -0.2347 -0.0110
    6MPD1    C313894   3.915   3.691  12.972  0.3938  0.1754 -0.2721
    6MPD1    C413895   3.805   3.631  13.033  0.0787 -0.6876 -0.2890
    6MPD1    C513896   3.707   3.713  13.091  0.0589 -0.1885  0.1330
    6MPD1     H13897   4.013   3.876  12.945  0.6225 -0.4277  1.1206
    6MPD1    H113898   3.801   3.523  13.044 -1.5292 -0.5784  0.0976
    6MPD1    H213899   3.649   3.917  13.144 -2.3415 -1.0159 -2.1988
    6MPD1    H313900   3.618   3.677  13.141  0.4229 -2.9425 -1.1967
    6MPD1     N13901   4.007   3.605  12.916  0.0253 -0.2524  0.3016
    6MPD1    H513902   3.994   3.505  12.922  0.6771 -0.4722 -2.0518
    6MPD1    N113903   3.842   4.046  13.053  0.3548 -0.2377 -0.0083
    6MPD1    H613904   3.888   4.104  12.983  0.2471 -1.0477 -0.7462
    6MPD1    H713905   3.752   4.092  13.065  0.0504 -1.1324  1.1953
    7MPD2     C13906   4.411   3.021  13.218 -0.0351  0.1588  1.1117
    7MPD2    C113907   4.457   3.035  13.090 -0.3167  0.7445  0.2017
    7MPD2    C213908   4.543   2.943  13.044  0.7292  0.3272  0.0416
    7MPD2    C313909   4.595   2.843  13.132  0.6309  0.2768 -0.1337
    7MPD2    C413910   4.555   2.841  13.260  0.0655  0.3845 -0.3120
    7MPD2    C513911   4.453   2.926  13.303  0.0945  0.5873  0.4751
    7MPD2     H13912   4.574   2.950  12.940  2.5211 -1.9766  0.4146
    7MPD2    H113913   4.592   2.762  13.324 -0.0527 -0.1696 -0.9210
    7MPD2    H213914   4.327   3.078  13.257 -0.2606  0.8008 -0.3015
    7MPD2    H313915   4.409   2.927  13.402  0.4257  1.4414  0.6137
    7MPD2     N13916   4.684   2.745  13.088  0.1106 -0.3957 -0.0740
    7MPD2    H513917   0.013   2.688  13.155  0.6442 -0.6809 -0.7194
    7MPD2    N113918   4.403   3.134  12.999  0.2020 -0.1177  0.6354
    7MPD2    H713919   4.441   3.122  12.906 -1.8799 -0.1595 -0.2206
    8TMC3    C113920   0.136   2.727  12.924 -0.9400  0.0484  0.1041
    8TMC3    C213921   0.214   2.735  13.041 -0.6309  0.2888 -0.0706
    8TMC3    C313922   0.313   2.829  13.040 -0.0336 -0.0770 -0.8051
    8TMC3    C413923   0.163   2.800  12.815 -0.6964  0.3497  0.1765
    8TMC3    C513924   0.264   2.891  12.826 -0.1920 -0.1839 -0.4250
    8TMC3    C613925   0.340   2.907  12.935  0.3085  0.5808  0.0143
    8TMC3     C13926   4.713   2.728  12.954  0.7202 -0.1570 -0.0023
    8TMC3     O13927   4.650   2.760  12.854 -0.4212  0.4939  0.6107
    8TMC3     H13928   0.213   2.662  13.121 -0.5653 -0.8448 -1.1015
    8TMC3    H113929   0.094   2.797  12.732 -1.6423  1.0930  0.9455
    8TMC3    H213930   0.427   2.973  12.937  0.9855 -0.2146 -3.6640
    8TMC3    C713931   0.220   3.015  12.773  0.5573  0.0610  0.3239
    8TMC3    C813932   0.392   2.846  13.163 -0.1243 -0.3223 -0.5329
    8TMC3    O113933   0.200   3.108  12.851  0.3283  0.7475  0.2609
    8TMC3    O213934   0.492   2.914  13.152  0.3939  0.6897  0.3191
    9TMC3    C113935   4.192   3.512  12.823  0.3832  0.2840 -0.2664
    9TMC3    C213936   4.270   3.502  12.713 -0.1791  0.8620 -0.1524
    9TMC3    C313937   4.339   3.384  12.694  0.4744 -0.3310  0.9898
    9TMC3    C413938   4.210   3.426  12.929 -0.1095  1.0939 -0.0480
    9TMC3    C513939   4.273   3.306  12.908  0.1013 -0.5431 -0.4334
    9TMC3    C613940   4.331   3.284  12.787 -0.5228 -0.5907  0.2286
    9TMC3     C13941   4.129   3.633  12.869  0.8979 -0.2303  0.2470
    9TMC3     O13942   4.187   3.737  12.840  0.2400  0.4681  0.8021
    9TMC3     H13943   4.271   3.572  12.630  1.7861 -0.6250 -1.3717
    9TMC3    H113944   4.167   3.455  13.024  1.9535  0.7538  0.9772
    9TMC3    H213945   4.372   3.188  12.760  1.7326  0.0376  1.3690
    9TMC3    C713946   4.298   3.221  13.022  0.2196 -0.3876 -0.0395
    9TMC3    C813947   4.436   3.367  12.584  0.6892 -0.3333 -0.0969
    9TMC3    O113948   4.254   3.257  13.129 -0.0597 -0.4240  0.1856
    9TMC3    O213949   4.413   3.429  12.482  0.7461  0.0015  0.1109
   10MPD2     C13950   0.120   3.089  12.428  0.5558  0.0107 -0.1947
   10MPD2    C113951   0.128   3.104  12.567  0.8210 -0.5070 -0.0723
   10MPD2    C213952   0.039   3.186  12.630  0.3644 -0.3567 -0.2280
   10MPD2    C313953   4.661   3.248  12.550 -0.2547  0.4893  0.5972
   10MPD2    C413954   4.655   3.242  12.411  0.3711 -0.0045  0.5992
   10MPD2    C513955   0.033   3.167  12.358 -0.6571 -0.2319 -0.1579
   10MPD2     H13956   0.040   3.196  12.738 -1.0199 -0.2208 -0.2274
   10MPD2    H113957   4.593   3.309  12.353 -0.3692 -0.6586  0.6191
   10MPD2    H213958   0.189   3.025  12.374 -1.7468 -0.8986 -2.0846
   10MPD2    H313959   0.048   3.158  12.251 -1.9212  2.1641 -0.5409
   10MPD2     N13960   4.557   3.305  12.629 -0.5271 -0.3661 -0.3464
   10MPD2    H513961   4.577   3.284  12.726 -0.0476 -0.2606 -0.4224
   10MPD2    N113962   0.207   3.014  12.637  0.2418  0.1839 -0.4486
   10MPD2    H713963   0.229   2.934  12.578 -1.1053 -0.3353 -0.2481
   11MPD2     C13964   1.005   2.127  14.006 -0.2632 -0.6338 -0.4787
   11MPD2    C113965   1.099   2.222  14.044  0.0462 -0.1034 -0.5641
   11MPD2    C213966   1.114   2.339  13.975 -0.3687  0.1695 -0.0646
   11MPD2    C313967   1.027   2.360  13.870 -0.0530 -0.0873  0.6169
   11MPD2    C413968   0.930   2.276  13.838 -0.2820  0.5945  0.3093
   11MPD2    C513969   0.918   2.160  13.903 -0.0191  1.0680 -0.0183
   11MPD2     H13970   1.192   2.408  14.003  0.4514 -0.9150  0.3088
   11MPD2    H113971   0.856   2.297  13.761  0.4190 -2.4565 -1.1883
   11MPD2    H213972   0.996   2.031  14.056 -0.6714 -0.1884  0.3128
   11MPD2    H313973   0.847   2.084  13.873 -1.3319  1.6218  1.6799
   11MPD2     N13974   1.029   2.477  13.795 -0.1055  0.2834  0.0030
   11MPD2    H513975   0.979   2.465  13.708 -2.6479  1.2121  1.3237
   11MPD2    N113976   1.194   2.194  14.141 -0.3233  0.1831  0.2566
   11MPD2    H713977   1.279   2.248  14.140 -1.7738  2.4448 -0.1523
    1MPD1     C13978   3.813   3.850  17.418 -0.5969  0.8083 -0.2180
    1MPD1    C113979   3.777   3.850  17.284 -0.1354  0.3181  0.4818
    1MPD1    C213980   3.874   3.834  17.190  0.2976 -0.9410 -0.5005
    1MPD1    C313981   4.008   3.829  17.226  0.3224  0.3778 -0.5039
    1MPD1    C413982   4.040   3.832  17.358 -0.3321 -0.1093  0.1403
    1MPD1    C513983   3.943   3.837  17.452 -0.1839 -0.2676 -0.8531
    1MPD1     H13984   3.846   3.828  17.085 -0.6860  3.0107 -0.4773
    1MPD1    H113985   4.136   3.813  17.404  0.3063  1.9890 -0.3415
    1MPD1    H213986   3.730   3.836  17.486  0.9924 -0.9714  1.4082
    1MPD1    H313987   3.959   3.833  17.559 -1.1684 -0.8845 -0.7311
    1MPD1     N13988   4.115   3.819  17.130 -0.5175 -0.1713  0.0037
    1MPD1    H513989   4.205   3.808  17.175 -0.5555  3.1306  0.9195
    1MPD1    N113990   3.644   3.815  17.254  0.4573 -0.3837  0.1971
    1MPD1    H613991   3.572   3.850  17.317 -0.1767 -1.8836  0.2928
    1MPD1    H713992   3.623   3.847  17.159  2.2601 -1.0565 -0.4263
    2MPD1     C13993   0.344   3.627  17.048 -0.2935  0.2893  0.4491
    2MPD1    C113994   0.247   3.582  17.139 -0.7201  0.4241 -0.3466
    2MPD1    C213995   0.116   3.618  17.102 -0.1033  0.0638 -0.2020
    2MPD1    C313996   0.091   3.688  16.981 -0.4152  0.5345  0.2089
    2MPD1    C413997   0.190   3.728  16.901  0.2535 -0.0689 -0.1475
    2MPD1    C513998   0.318   3.704  16.940  0.0827 -0.0198  0.1000
    2MPD1     H13999   0.031   3.589  17.164  2.6800 -2.2259  2.5732
    2MPD1    H114000   0.180   3.796  16.817  0.2102  0.4097  0.2474
    2MPD1    H214001   0.450   3.613  17.067 -0.4636 -0.6230  0.7146
    2MPD1    H314002   0.397   3.746  16.878 -1.8846  0.4302 -2.1039
    2MPD1     N14003   4.688   3.725  16.934  0.3805 -0.0485  0.1684
    2MPD1    H514004   4.685   3.756  16.837 -0.3937 -0.7378 -0.0327
    2MPD1    N114005   0.282   3.496  17.243  1.1004 -0.0039  0.1389
    2MPD1    H614006   0.369   3.532  17.282  0.7727 -0.2507  1.0990
    2MPD1    H714007   0.217   3.489  17.321  0.8497 -0.4317 -0.1115
    3TMC3    C114008   4.449   3.750  16.915  0.9239  0.1653 -0.4285
    3TMC3    C214009   4.427   3.691  16.789 -0.1646  0.3825  0.7075
    3TMC3    C314010   4.300   3.690  16.735 -0.0942  0.0663  0.0124
    3TMC3    C414011   4.343   3.789  16.988  0.0828  0.0029  0.3055
    3TMC3    C514012   4.219   3.793  16.924  0.3919 -0.2305 -0.1393
    3TMC3    C614013   4.195   3.739  16.800 -0.2259 -0.0080  0.0618
    3TMC3     C14014   4.569   3.715  17.003  0.2293  0.7394 -0.4577
    3TMC3     O14015   4.560   3.695  17.123 -0.4081  0.7934 -0.1555
    3TMC3     H14016   4.504   3.625  16.751  0.5261  1.9090 -0.5393
    3TMC3    H114017   4.361   3.800  17.095  1.3845  0.8343  0.0054
    3TMC3    H214018   4.098   3.742  16.752  0.0688 -1.8646 -0.6603
    3TMC3    C714019   4.096   3.819  16.992 -0.5601 -0.1177 -0.4866
    3TMC3    C814020   4.283   3.667  16.592 -0.7671 -0.1062  0.0783
    3TMC3    O114021   4.003   3.862  16.926 -0.5695 -0.0554  0.3579
    3TMC3    O214022   4.170   3.654  16.551  0.6363 -0.0705 -0.2500
    4MPD1     C14023   4.499   3.618  16.128 -0.5809  0.6553 -0.3275
    4MPD1    C114024   4.595   3.590  16.223  0.6400 -0.1209 -0.1880
    4MPD1    C214025   4.560   3.605  16.355  0.0949 -0.3519 -0.1621
    4MPD1    C314026   4.433   3.636  16.399  0.3684  0.1145  0.6434
    4MPD1    C414027   4.336   3.663  16.299  0.7258  0.3694  0.4251
    4MPD1    C514028   4.371   3.644  16.169  0.4767  0.7180  0.1887
    4MPD1     H14029   4.641   3.593  16.426  1.1860  1.7909 -1.0391
    4MPD1    H114030   4.232   3.686  16.315  0.2436 -0.2276 -1.9465
    4MPD1    H214031   4.524   3.612  16.023 -1.7759 -2.4635 -0.4510
    4MPD1    H314032   4.304   3.666  16.087 -0.4987  0.9802  1.0674
    4MPD1     N14033   4.407   3.649  16.531  0.0158  0.7670  0.6636
    4MPD1    H514034   4.482   3.665  16.598  0.1352  0.0743  0.7013
    4MPD1    N114035   0.006   3.566  16.194 -0.3246  0.9375  0.4506
    4MPD1    H614036   0.033   3.525  16.105  0.9839 -1.8316  2.1181
    4MPD1    H714037   0.067   3.540  16.271  0.0379 -1.1693 -0.5546
    1TCq1    O114038   4.345   0.205   9.122  0.1320  0.4166 -0.4662
    1TCq1    C114039   4.319   0.167   8.994 -0.1305  0.1783 -0.0440
    1TCq1    O214040   4.396   0.186   8.900 -0.2594  0.3143 -0.4486
    1TCq1    C214041   4.245   0.050   9.017  0.0881  0.1133  1.1253
    1TCq1    C314042   4.148   0.060   9.111  0.2989 -0.3766 -0.5193
    1TCq1    C414043   4.095   4.666   9.155 -0.0210 -0.0973 -0.5643
    1TCq1    C514044   4.127   4.542   9.101 -0.2327  0.3605  0.0860
    1TCq1    C614045   4.228   4.538   9.001  0.0120 -0.0227 -0.1622
    1TCq1    C714046   4.290   4.652   8.964 -0.0811 -0.1234  0.0452
    1TCq1    C814047   4.274   4.421   8.935  0.0300  0.1841  0.0192
    1TCq1    O414048   4.364   4.430   8.857 -0.2236  0.4652 -0.2187
    1TCq1    C914049   3.965   4.659   9.205 -0.4143  0.7120 -0.2220
    1TCq1    O514050   3.905   0.043   9.187 -0.2941  0.6295  0.2496
    1TCq1    O614051   3.926   4.560   9.273 -0.0476  0.1118  0.3122
    1TCq1    H114052   4.294   0.168   9.198 -2.6236  0.8689 -2.0981
    1TCq1    H214053   4.105   0.158   9.125  2.2175  0.3324  0.3964
    1TCq1    H314054   4.078   4.455   9.144 -1.1457  0.3755 -0.9284
    1TCq1    H414055   4.364   4.660   8.885  1.1473  1.1160  1.3155
    2MPD1     C14056   4.255   3.907   8.868  0.6414  0.3784 -0.1245
    2MPD1    C114057   4.143   3.943   8.938 -1.0842 -0.2888 -0.0128
    2MPD1    C214058   4.126   4.075   8.969  0.4509 -0.3893 -0.3432
    2MPD1    C314059   4.224   4.174   8.945 -0.3609  0.7056  0.1976
    2MPD1    C414060   4.341   4.129   8.884 -0.0330  0.3982 -0.1834
    2MPD1    C514061   4.352   3.995   8.851 -0.3615  0.9406 -0.0730
    2MPD1     H14062   4.029   4.100   9.011  1.7522  0.0020  2.4605
    2MPD1    H114063   4.420   4.198   8.855 -2.1766  2.4023 -1.3158
    2MPD1    H214064   4.277   3.810   8.825 -0.0107  0.6756 -1.1470
    2MPD1    H314065   4.442   3.968   8.797 -1.8474  0.8457 -2.5119
    2MPD1     N14066   4.200   4.310   8.983  0.1451  0.1873  0.6430
    2MPD1    H514067   4.114   4.337   9.030  0.7465  2.1506  0.6327
    2MPD1    N114068   4.042   3.846   8.950  0.1136  0.8438  0.1322
    2MPD1    H614069   3.974   3.873   9.021  0.0950 -0.1001  0.4738
    2MPD1    H714070   4.074   3.754   8.978  0.2314  1.1166  0.8987
    1TCq1    O114071   1.505   3.652  10.232  0.1795 -0.6947  0.1423
    1TCq1    C114072   1.618   3.623  10.174 -0.5589 -0.0891 -0.6726
    1TCq1    O214073   1.691   3.541  10.226  0.3028 -0.3924 -0.5571
    1TCq1    C214074   1.582   3.618  10.038 -0.6000 -0.1557  0.5338
    1TCq1    C314075   1.597   3.743   9.980 -0.2926  0.9143  0.1369
    1TCq1    C414076   1.638   3.745   9.850  0.5574 -0.7866  0.0258
    1TCq1    C514077   1.642   3.626   9.776 -0.5285  0.1559  0.1619
    1TCq1    C614078   1.647   3.512   9.847 -0.9715 -0.3348 -0.2010
    1TCq1    C714079   1.622   3.506   9.980 -0.0204 -0.6533  0.4969
    1TCq1    C814080   1.700   3.391   9.786  0.0275  0.1530 -0.1164
    1TCq1    O414081   1.704   3.378   9.667 -0.5213  0.1595  0.2014
    1TCq1    C914082   1.618   3.866   9.769 -0.6430  0.1477 -0.1726
    1TCq1    O514083   1.566   3.967   9.825  0.3827  0.0253 -0.0845
    1TCq1    O614084   1.636   3.858   9.641 -0.4721 -0.4117 -0.7512
    1TCq1    H114085   1.444   3.711  10.183 -0.4853 -1.0228  0.5807
    1TCq1    H214086   1.555   3.830  10.028 -0.3303  0.0387  1.7100
    1TCq1    H314087   1.664   3.633   9.670 -1.8090  1.8260 -0.0061
    1TCq1    H414088   1.619   3.413  10.035  0.1262  0.4297  2.3248
    2MPD1     C14089   1.913   2.919   9.829 -0.1827  0.3584 -0.4272
    2MPD1    C114090   1.904   2.971   9.953  0.1521  0.9317 -0.7618
    2MPD1    C214091   1.856   3.104   9.965  0.3097  0.5329  0.5573
    2MPD1    C314092   1.810   3.175   9.858  1.0957 -0.3319  0.4815
    2MPD1    C414093   1.808   3.113   9.737 -0.6641  0.5564 -0.1864
    2MPD1    C514094   1.861   2.989   9.720  0.0241 -0.3809 -0.2263
    2MPD1     H14095   1.846   3.146  10.065  1.0274  0.3029  0.7264
    2MPD1    H114096   1.759   3.153   9.649  1.3390 -1.9334 -2.4306
    2MPD1    H214097   1.954   2.821   9.807 -0.1342  0.2317  0.2544
    2MPD1    H314098   1.849   2.955   9.618  1.3369  3.1024 -1.5519
    2MPD1     N14099   1.747   3.301   9.883  0.0527 -0.6074  0.1956
    2MPD1    H514100   1.762   3.332   9.979 -1.6829  0.3981  0.1287
    2MPD1    N114101   1.961   2.908  10.060  0.0398  0.0585 -0.4555
    2MPD1    H614102   1.910   2.931  10.145 -0.7072 -2.5845 -0.2025
    2MPD1    H714103   1.961   2.807  10.051 -1.8313 -0.1443  1.9189
    1MPD1     C14104   0.859   3.410  12.654  0.0916  0.1873  0.5241
    1MPD1    C114105   0.937   3.524  12.688  0.0165 -0.0214  0.2933
    1MPD1    C214106   1.001   3.594  12.586 -0.2930  0.1086 -0.9171
    1MPD1    C314107   0.997   3.567  12.458 -0.2749 -0.1219  0.0296
    1MPD1    C414108   0.912   3.467  12.421 -0.6335  0.2703 -0.4022
    1MPD1    C514109   0.856   3.384  12.519 -0.4736  0.3919 -0.1512
    1MPD1     H14110   1.065   3.676  12.618  0.0970  0.5979 -2.9444
    1MPD1    H114111   0.899   3.439  12.317 -1.7009  1.6017 -0.6343
    1MPD1    H214112   0.799   3.354  12.725  0.4697  1.1492  1.5924
    1MPD1    H314113   0.789   3.306  12.484  0.2826  0.5350 -1.9372
    1MPD1     N14114   1.070   3.656  12.369  0.3657 -0.0557  0.3164
    1MPD1    H514115   1.130   3.727  12.411 -0.1575  0.6152 -0.0749
    1MPD1    N114116   0.944   3.569  12.820  0.3188 -0.5094 -0.6038
    1MPD1    H614117   0.946   3.486  12.879 -1.9701 -0.3435 -0.2941
    1MPD1    H714118   1.031   3.619  12.835  0.6838 -1.1096 -0.7134
    2MPD1     C14119   0.661   4.038  11.486 -0.7235 -0.6488  0.3257
    2MPD1    C114120   0.603   3.943  11.402 -0.5285  0.1781 -0.0011
    2MPD1    C214121   0.686   3.872  11.305 -0.2489 -0.0053 -0.5634
    2MPD1    C314122   0.826   3.903  11.303  0.9286  0.4640 -0.7014
    2MPD1    C414123   0.883   3.987  11.397 -0.0896  0.0903 -0.1803
    2MPD1    C514124   0.799   4.043  11.488  0.1713 -0.4941 -0.9344
    2MPD1     H14125   0.630   3.800  11.246  2.2727 -2.2768 -0.2022
    2MPD1    H114126   0.991   3.998  11.402 -0.0973 -0.4536  1.2308
    2MPD1    H214127   0.597   4.110  11.536  0.9151  1.4612 -0.6185
    2MPD1    H314128   0.851   4.101  11.564  0.4217 -0.6414 -0.9935
    2MPD1     N14129   0.909   3.843  11.204  0.9423  1.1447  1.2734
    2MPD1    H514130   1.003   3.880  11.199  0.7479  1.4669 -0.0038
    2MPD1    N114131   0.466   3.936  11.373  0.4319  0.3776 -0.4627
    2MPD1    H614132   0.398   3.971  11.440  0.5180  0.1941 -0.2798
    2MPD1    H714133   0.430   3.856  11.321 -0.6936 -0.1872  1.1671
    3MPD1     C14134   1.090   3.302  10.253 -0.2821  0.6245 -0.8570
    3MPD1    C114135   1.188   3.388  10.282 -0.0410  0.4242 -0.5730
    3MPD1    C214136   1.192   3.449  10.412  0.4622 -0.1796  0.5356
    3MPD1    C314137   1.085   3.439  10.503 -0.2768 -0.5009  0.7858
    3MPD1    C414138   0.985   3.358  10.461  0.2492  0.1662 -0.4008
    3MPD1    C514139   0.986   3.291  10.339  0.1309 -0.4337 -0.7944
    3MPD1     H14140   1.268   3.518  10.446 -0.0675 -0.9563  3.3040
    3MPD1    H114141   0.903   3.338  10.529  0.3335 -2.7746 -1.1692
    3MPD1    H214142   1.072   3.255  10.157  0.8511  0.2165 -0.8652
    3MPD1    H314143   0.900   3.228  10.320 -1.3513  0.6247  2.3152
    3MPD1     N14144   1.099   3.499  10.631 -0.1457  0.7346 -0.4375
    3MPD1    H514145   1.186   3.545  10.655 -0.2599  0.8014 -0.1547
    3MPD1    N114146   1.305   3.392  10.200  0.4844 -0.2365  0.1214
    3MPD1    H614147   1.338   3.488  10.206 -0.0370 -0.1202  1.1797
    3MPD1    H714148   1.275   3.376  10.104 -3.1310  1.7949  0.9125
    4MPD2     C14149   1.280   3.905  11.588 -0.2064 -1.0264  0.0665
    4MPD2    C114150   1.357   3.930  11.698 -0.2362 -0.0698 -0.0007
    4MPD2    C214151   1.496   3.934  11.689 -0.7521 -0.8698 -0.3492
    4MPD2    C314152   1.563   3.922  11.568  0.2887  0.0228 -0.1060
    4MPD2    C414153   1.490   3.907  11.456 -0.1409  0.1240  0.2784
    4MPD2    C514154   1.351   3.897  11.465 -0.4166  0.2349 -0.2510
    4MPD2     H14155   1.545   3.967  11.780 -2.3244  0.1933  0.1063
    4MPD2    H114156   1.537   3.884  11.361 -0.1502  1.2367  0.0084
    4MPD2    H214157   1.173   3.889  11.592 -0.2550  0.2348  3.3824
    4MPD2    H314158   1.296   3.876  11.374 -1.6183  1.7698  0.1509
    4MPD2     N14159   1.700   3.938  11.552 -0.2101 -0.2244 -0.2100
    4MPD2    H514160   1.732   3.901  11.463 -1.5024 -0.0761 -0.7373
    4MPD2    N114161   1.302   3.926  11.830  0.0417  0.1081 -0.1993
    4MPD2    H714162   1.380   3.927  11.896  2.2795  0.7057 -2.8772
    5TMC3    C114163   1.157   3.921  12.004  0.0235 -0.4047 -0.5639
    5TMC3    C214164   1.086   3.814  12.051  0.0986  1.0206  0.5421
    5TMC3    C314165   1.127   3.765  12.171  0.0083  0.0423 -0.3679
    5TMC3    C414166   1.266   3.966  12.068 -0.5281  0.1840  0.1738
    5TMC3    C514167   1.317   3.901  12.180  0.2206  0.3074  0.8025
    5TMC3    C614168   1.245   3.799  12.231  0.3129  0.2657 -0.3808
    5TMC3     C14169   1.174   3.913  11.865 -0.5368  0.9650  0.1771
    5TMC3     O14170   1.080   3.874  11.794  0.1631  0.3231 -0.1895
    5TMC3     H14171   0.995   3.787  11.998  1.3856  0.3525 -1.3110
    5TMC3    H114172   1.306   4.061  12.033 -0.9536 -0.3914 -1.8491
    5TMC3    H214173   1.285   3.747  12.317  1.9754  1.6672 -0.2968
    5TMC3    C714174   1.444   3.850  12.130 -0.2561  0.0021 -0.7941
    5TMC3    C814175   1.044   3.665  12.233 -0.0760 -0.7424  0.2116
    5TMC3    O114176   1.524   3.925  12.077 -0.1108 -0.4085 -0.0512
    5TMC3    O214177   0.984   3.584  12.164 -0.1708  0.2642 -0.0148
    6TMC3    C114178   0.979   3.689  11.041  0.6451 -0.2587  0.5837
    6TMC3    C214179   0.947   3.610  10.932 -0.3809  0.0785  0.0398
    6TMC3    C314180   1.049   3.559  10.853 -0.2927 -0.3606 -0.2415
    6TMC3    C414181   1.106   3.723  11.075 -0.1679 -0.1073  0.8475
    6TMC3    C514182   1.206   3.660  11.002 -0.0160 -0.8714  0.0818
    6TMC3    C614183   1.180   3.588  10.886 -0.4600  0.0100  0.3557
    6TMC3     C14184   0.868   3.746  11.122 -0.3961  0.1973 -0.0646
    6TMC3     O14185   0.760   3.703  11.094 -0.5412  0.0006  0.2233
    6TMC3     H14186   0.845   3.578  10.915  0.5635 -3.5636  1.2131
    6TMC3    H114187   1.136   3.775  11.166 -1.8435  1.8759  0.2818
    6TMC3    H214188   1.261   3.537  10.835  0.0490 -2.8955  4.0216
    6TMC3    C714189   1.341   3.645  11.074 -0.4581  0.3609 -0.6408
    6TMC3    C814190   1.003   3.501  10.726 -0.0767 -0.2907  0.3169
    6TMC3    O114191   1.380   3.745  11.138  0.3786 -0.1734  0.5222
    6TMC3    O214192   0.883   3.483  10.719 -0.5241  0.2448 -0.1696
    7MPD2     C14193   1.712   3.458  11.930  0.4402 -0.6530  0.2620
    7MPD2    C114194   1.720   3.595  11.903 -0.6909  1.0063  0.0695
    7MPD2    C214195   1.624   3.678  11.961  0.5807 -0.1535 -0.5307
    7MPD2    C314196   1.537   3.633  12.058 -0.8207  0.0501  0.3606
    7MPD2    C414197   1.535   3.496  12.087 -0.1384  0.6791  0.0017
    7MPD2    C514198   1.610   3.410  12.010 -0.1768  0.9778 -0.2081
    7MPD2     H14199   1.616   3.779  11.923 -2.6417  0.0677  0.6504
    7MPD2    H114200   1.461   3.444  12.146  1.0320  1.4613  2.1790
    7MPD2    H214201   1.782   3.384  11.892 -3.7034 -2.2488 -4.1672
    7MPD2    H314202   1.588   3.303  12.010 -0.3938  1.0171  1.3808
    7MPD2     N14203   1.446   3.714  12.126 -0.2764 -0.0741  0.2944
    7MPD2    H514204   1.378   3.660  12.179 -0.6384 -2.2121 -2.3536
    7MPD2    N114205   1.819   3.658  11.822 -0.2911 -0.4907  0.4126
    7MPD2    H714206   1.810   3.759  11.815  2.8525 -0.1782  0.8347
    8TMC3    C114207   1.963   3.696  11.648 -0.1172 -0.1522  0.0377
    8TMC3    C214208   1.946   3.660  11.518  0.0801  0.1083 -0.5435
    8TMC3    C314209   1.920   3.762  11.424  0.0638  0.5802  1.3370
    8TMC3    C414210   1.963   3.828  11.691  0.9248  0.7913 -0.1255
    8TMC3    C514211   1.919   3.921  11.602  0.1083  0.2009  0.1194
    8TMC3    C614212   1.910   3.897  11.468  0.5378 -0.5475 -0.1230
    8TMC3     C14213   1.914   3.598  11.741 -0.2096 -0.2273 -0.2141
    8TMC3     O14214   1.931   3.479  11.717  0.0841  0.3526 -0.4193
    8TMC3     H14215   1.939   3.554  11.498 -1.2376 -0.0028  0.4926
    8TMC3    H114216   1.976   3.848  11.797 -0.4610 -0.9197  0.3733
    8TMC3    H214217   1.877   3.967  11.392  0.9389  2.2460  2.2928
    8TMC3    C714218   1.789   3.953  11.652  0.0044 -0.4794 -0.9339
    8TMC3    C814219   1.831   3.736  11.311 -0.5257 -1.4329 -0.6347
    8TMC3    O114220   1.788   3.948  11.776  0.3307 -0.0583  0.0974
    8TMC3    O214221   1.748   3.822  11.283  0.4053  0.0024  0.3752
    9MPD2     C14222   1.793   3.401  11.154 -0.0912  0.2957 -0.5287
    9MPD2    C114223   1.747   3.526  11.196 -0.6505 -0.4900 -1.2047
    9MPD2    C214224   1.627   3.567  11.147  0.4001 -0.7344  0.8532
    9MPD2    C314225   1.546   3.497  11.067 -0.8002  0.3071  0.1501
    9MPD2    C414226   1.588   3.376  11.030  0.0885  0.6804  0.5852
    9MPD2    C514227   1.712   3.329  11.075  0.5338 -0.4883  0.1168
    9MPD2     H14228   1.585   3.662  11.176 -1.2111 -0.9958 -0.6101
    9MPD2    H114229   1.530   3.317  10.960  2.9791 -3.6049  1.7957
    9MPD2    H214230   1.885   3.353  11.185 -1.2321  0.1626  2.6541
    9MPD2    H314231   1.754   3.239  11.032  1.5375  0.2377 -0.4058
    9MPD2     N14232   1.411   3.528  11.036  0.1521  0.1529  0.2863
    9MPD2    H514233   1.362   3.462  10.977 -0.4038  0.0405  0.8738
    9MPD2    N114234   1.842   3.597  11.276  0.4926  0.3892 -0.3864
    9MPD2    H714235   1.922   3.551  11.318 -1.3090 -0.5059  2.0966
    1MPD1     C14236   0.209   2.149  17.096  0.1676 -0.3449 -0.0773
    1MPD1    C114237   0.265   2.255  17.155 -0.2816 -0.4555  0.5811
    1MPD1    C214238   0.301   2.362  17.070  0.5465 -0.6220  0.1383
    1MPD1    C314239   0.253   2.379  16.944  0.4642  0.1379 -0.1435
    1MPD1    C414240   0.187   2.271  16.887  0.1228 -0.0580  0.2516
    1MPD1    C514241   0.173   2.157  16.964  0.6787 -0.0971  0.3679
    1MPD1     H14242   0.354   2.445  17.117 -2.0230  0.5873  0.8921
    1MPD1    H114243   0.145   2.277  16.787  0.1706  2.1614  0.3735
    1MPD1    H214244   0.182   2.052  17.137 -3.5551  0.5178 -0.4090
    1MPD1    H314245   0.110   2.084  16.916 -0.4545  1.9532 -1.2890
    1MPD1     N14246   0.266   2.491  16.861 -0.9754 -0.3324 -0.2488
    1MPD1    H514247   0.221   2.479  16.770  1.7041 -0.1256 -1.6093
    1MPD1    N114248   0.316   2.241  17.291 -0.0691 -0.1185  0.4532
    1MPD1    H614249   0.334   2.336  17.325 -2.2680  0.3672  0.2589
    1MPD1    H714250   0.248   2.193  17.349 -1.1455 -1.0567 -1.6048
    2MPD1     C14251   1.083   2.784  16.234 -0.2432  0.6327 -0.0094
    2MPD1    C114252   0.969   2.763  16.155  0.4518 -0.4108 -0.1488
    2MPD1    C214253   0.843   2.742  16.209 -0.3420 -0.1805  0.4106
    2MPD1    C314254   0.834   2.735  16.348 -0.3135 -0.2251  0.3887
    2MPD1    C414255   0.945   2.749  16.426 -0.0837  0.4405 -0.0641
    2MPD1    C514256   1.070   2.783  16.366 -0.2817  0.2198 -0.6463
    2MPD1     H14257   0.755   2.722  16.148  0.0946  0.9733 -0.5757
    2MPD1    H114258   0.945   2.761  16.534  0.1449 -0.0450 -0.0106
    2MPD1    H214259   1.177   2.791  16.181 -0.3947  0.5902 -0.2882
    2MPD1    H314260   1.155   2.792  16.432 -0.6477  0.7664 -0.2536
    2MPD1     N14261   0.704   2.721  16.404 -0.1729  0.6199 -0.1140
    2MPD1    H514262   0.626   2.733  16.341  0.0630  0.7313 -0.3858
    2MPD1    N114263   0.971   2.749  16.014 -0.0893  0.2999  0.5549
    2MPD1    H614264   1.020   2.825  15.968  1.5099 -0.4534  1.0032
    2MPD1    H714265   0.873   2.754  15.988 -0.3972 -3.0914  1.0568
    3TCq2    C114266   0.677   2.686  16.538 -0.8185  0.5734  0.3539
    3TCq2    O214267   0.747   2.659  16.630  0.0946  0.3424  0.5657
    3TCq2    C214268   0.536   2.685  16.580  0.0020  0.0959  0.5147
    3TCq2    C314269   0.436   2.706  16.486  0.4553 -0.5640  0.1288
    3TCq2    C414270   0.306   2.698  16.530  0.3051 -0.2520 -0.3706
    3TCq2    C514271   0.278   2.659  16.658 -0.7274  0.0285 -0.5396
    3TCq2    C614272   0.383   2.647  16.746 -0.1658  0.2174 -0.7738
    3TCq2    C714273   0.510   2.658  16.709  0.8782  0.1867 -0.4158
    3TCq2    C814274   0.357   2.588  16.877 -0.4761  0.1129  0.5773
    3TCq2    O414275   0.429   2.619  16.976 -0.0238 -0.0145 -0.2068
    3TCq2    C914276   0.201   2.729  16.441  0.2364 -0.2295  0.0007
    3TCq2    O514277   0.096   2.664  16.450  0.1175 -0.5145 -0.2028
    3TCq2    O614278   0.234   2.814  16.354 -0.4734  0.4968  0.1872
    3TCq2    H214279   0.460   2.733  16.384 -0.7902  0.4232  0.0995
    3TCq2    H314280   0.177   2.656  16.698 -0.6443 -0.7697 -0.3853
    3TCq2    H414281   0.594   2.636  16.775  1.2127 -1.4501 -1.3889
    1TCq1    O114282   3.980   1.899  13.404  0.3832 -0.2281 -0.4213
    1TCq1    C114283   4.104   1.949  13.398 -0.3302 -0.1509 -0.2277
    1TCq1    O214284   4.135   2.051  13.331  0.2947 -0.4492  0.0567
    1TCq1    C214285   4.178   1.826  13.408  0.6739  0.4868 -0.2353
    1TCq1    C314286   4.124   1.697  13.383 -0.8827  0.6424 -0.9678
    1TCq1    C414287   4.206   1.599  13.332 -0.4591  0.1833 -0.1357
    1TCq1    C514288   4.333   1.627  13.302  0.0545 -0.1764 -0.0983
    1TCq1    C614289   4.386   1.747  13.335 -0.3313  0.5493 -0.4488
    1TCq1    C714290   4.309   1.848  13.389 -0.4306 -0.8396 -1.0464
    1TCq1    C814291   4.526   1.763  13.350 -0.4295 -0.6366 -0.2267
    1TCq1    O414292   4.574   1.871  13.373 -0.0178 -0.1897  0.1006
    1TCq1    C914293   4.148   1.470  13.292 -0.0581 -0.2100  0.4573
    1TCq1    O514294   4.025   1.476  13.254  0.4720 -0.4594 -0.1644
    1TCq1    O614295   4.222   1.367  13.304  0.0635  0.2319  0.3197
    1TCq1    H114296   3.978   1.847  13.487  0.2038 -0.8335 -0.8097
    1TCq1    H214297   4.024   1.660  13.404 -1.1759  2.0786  0.1427
    1TCq1    H314298   4.391   1.553  13.248 -0.7681 -0.2370 -0.8988
    1TCq1    H414299   4.337   1.953  13.394 -2.1107 -0.4941  1.1080
    2MPD2     C14300   0.113   1.718  13.354  0.1925 -0.1500  0.3889
    2MPD2    C114301   0.015   1.620  13.342 -0.0691  0.1795 -0.7510
    2MPD2    C214302   0.062   1.490  13.331 -0.1140 -0.7279  0.1150
    2MPD2    C314303   0.193   1.453  13.355  0.1066 -0.2330 -0.0139
    2MPD2    C414304   0.278   1.553  13.384 -1.0529  0.7664  0.5885
    2MPD2    C514305   0.245   1.683  13.377  0.0996 -0.0607  0.4842
    2MPD2     H14306   4.707   1.415  13.312 -0.4785 -0.1854 -0.5489
    2MPD2    H114307   0.382   1.539  13.412 -1.2785 -2.5781 -0.2373
    2MPD2    H214308   0.088   1.823  13.370  0.6646 -0.4199  2.8957
    2MPD2    H314309   0.316   1.762  13.399  0.9791 -0.4805 -0.8139
    2MPD2     N14310   0.220   1.317  13.330 -0.2305 -0.0196  0.1850
    2MPD2    H514311   0.144   1.264  13.288  0.5688 -2.2835  1.5612
    2MPD2    N114312   4.596   1.637  13.337  0.2049 -0.8086  0.1999
    2MPD2    H714313   4.535   1.556  13.325 -0.0234 -0.5084 -0.6708
    3TCq1    O114314   0.553   0.749  13.264  0.3810 -0.5314  0.2660
    3TCq1    C114315   0.543   0.834  13.366 -0.0471 -0.4084  0.3308
    3TCq1    O214316   0.592   0.828  13.477  0.6038 -0.3852 -0.4284
    3TCq1    C214317   0.423   0.907  13.334  0.3185  0.1763 -0.4719
    3TCq1    C314318   0.342   0.862  13.235  0.0117 -0.4637  0.6877
    3TCq1    C414319   0.249   0.946  13.171 -0.3803 -0.4427  0.7385
    3TCq1    C514320   0.247   1.078  13.201  0.7101  0.3662 -0.3322
    3TCq1    C614321   0.331   1.118  13.306  0.0494 -0.3886 -1.0941
    3TCq1    C714322   0.422   1.040  13.365  0.4536 -0.6580  0.3972
    3TCq1    C814323   0.334   1.257  13.353 -0.4298  0.1937  0.1821
    3TCq1    O414324   0.428   1.299  13.414 -0.2864  0.1804  0.3296
    3TCq1    C914325   0.168   0.892  13.057  0.2011 -1.3501 -0.4394
    3TCq1    O514326   0.137   0.768  13.054  0.0070 -0.8079 -0.3469
    3TCq1    O614327   0.095   0.981  13.004 -0.5395  0.6538  0.5757
    3TCq1    H114328   0.520   0.784  13.179  2.1365 -0.1124 -0.2345
    3TCq1    H214329   0.338   0.761  13.198 -0.0298  0.0970 -0.8408
    3TCq1    H314330   0.188   1.147  13.142  0.7337  1.4551  0.9030
    3TCq1    H414331   0.494   1.080  13.436 -1.1921  0.6266  1.3226
    1MPD2     C14332   3.628   2.720  14.787  0.4479 -0.7012 -0.6362
    1MPD2    C114333   3.528   2.632  14.758  0.2144 -0.1116  0.2796
    1MPD2    C214334   3.554   2.500  14.777 -0.0656 -0.1506 -0.2957
    1MPD2    C314335   3.670   2.451  14.831  0.1618  0.3275 -0.0683
    1MPD2    C414336   3.771   2.544  14.855  0.1270 -0.6761  0.5034
    1MPD2    C514337   3.747   2.680  14.842  0.1207 -0.1130  0.2449
    1MPD2     H14338   3.482   2.427  14.741 -1.2550 -1.0047  3.8523
    1MPD2    H114339   3.871   2.511  14.882  1.3351  0.8950 -2.1281
    1MPD2    H214340   3.615   2.826  14.771  2.2586 -0.3290  0.2625
    1MPD2    H314341   3.824   2.751  14.871 -1.3564  1.7011 -0.2609
    1MPD2     N14342   3.700   2.317  14.848  0.0122 -0.1800 -0.0184
    1MPD2    H514343   3.786   2.306  14.901 -1.2220  0.2266  2.0508
    1MPD2    N114344   3.403   2.675  14.703 -0.4469  0.0745 -0.1077
    1MPD2    H714345   3.380   2.774  14.696  2.4425  0.7583  0.0684
    2TMC3    C114346   3.172   2.658  14.649 -0.1769  0.5854  0.1498
    2TMC3    C214347   3.073   2.564  14.676 -0.3716  0.2705  0.2699
    2TMC3    C314348   2.980   2.546  14.582 -0.8309  1.0333  0.3605
    2TMC3    C414349   3.182   2.725  14.525 -0.2875 -0.1003  0.2619
    2TMC3    C514350   3.076   2.715  14.435 -0.3283  0.6102  0.1718
    2TMC3    C614351   2.983   2.618  14.467 -0.3344 -0.0803  0.2537
    2TMC3     C14352   3.290   2.596  14.696  0.2989  1.1520  0.9486
    2TMC3     O14353   3.267   2.474  14.714 -0.6287  0.5037 -0.6102
    2TMC3     H14354   3.057   2.518  14.773 -0.5101  0.4988  0.3576
    2TMC3    H114355   3.274   2.776  14.500  0.0182  0.1821  1.9037
    2TMC3    H214356   2.888   2.608  14.414 -0.1745 -0.7661  0.1004
    2TMC3    C714357   3.052   2.823  14.344 -0.3708 -0.0299 -0.1183
    2TMC3    C814358   2.953   2.410  14.567  0.8790  0.4335 -0.4860
    2TMC3    O114359   2.949   2.821  14.281  0.1091 -0.2254 -0.2276
    2TMC3    O214360   2.854   2.380  14.507  0.0179 -0.7563 -0.3978
    3TCq1    O114361   3.408   4.027  14.527 -0.4245  0.1413  0.2250
    3TCq1    C114362   3.308   3.929  14.534 -0.2138 -0.3438  0.1281
    3TCq1    O214363   3.201   3.936  14.592 -0.0280  0.6934 -0.1284
    3TCq1    C214364   3.366   3.803  14.506  0.0793  0.0205 -0.7536
    3TCq1    C314365   3.470   3.753  14.576  0.1375  0.0241 -0.2531
    3TCq1    C414366   3.503   3.619  14.570  0.1038 -1.0727  0.4042
    3TCq1    C514367   3.421   3.539  14.493  0.2623 -0.4842 -0.9198
    3TCq1    C614368   3.309   3.590  14.432 -0.1768 -0.2117 -0.3982
    3TCq1    C714369   3.278   3.720  14.439 -0.3772 -0.3091  0.2845
    3TCq1    C814370   3.239   3.518  14.329  0.0505  0.2792 -0.0366
    3TCq1    O414371   3.166   3.575  14.250  0.0202 -0.2753  0.2691
    3TCq1    C914372   3.613   3.572  14.649  0.3879 -0.4934 -0.8895
    3TCq1    O514373   3.667   3.666  14.714 -0.0028  0.1050 -0.1124
    3TCq1    O614374   3.597   3.454  14.693  0.8407  0.4393 -0.3451
    3TCq1    H114375   3.480   4.005  14.464 -1.3586  0.8039 -1.0780
    3TCq1    H214376   3.531   3.822  14.632 -1.1986 -0.4993  1.8566
    3TCq1    H314377   3.456   3.436  14.490  0.5412 -0.3615 -1.9644
    3TCq1    H414378   3.191   3.755  14.385 -1.0051 -0.4756  1.1951
    4MPD2     C14379   3.131   3.299  14.164 -0.0150 -0.1542  0.0498
    4MPD2    C114380   3.195   3.282  14.288  0.4247  0.2647  0.1204
    4MPD2    C214381   3.192   3.155  14.342  0.0744 -0.3962 -0.5846
    4MPD2    C314382   3.121   3.053  14.285  0.4239 -0.3434  0.0334
    4MPD2    C414383   3.051   3.074  14.170 -0.2227 -0.2294 -0.4696
    4MPD2    C514384   3.061   3.196  14.103 -0.2722 -0.2877  0.1071
    4MPD2     H14385   3.244   3.130  14.433 -0.3272 -1.1090 -0.5513
    4MPD2    H114386   2.992   2.999  14.119  0.2882 -1.2172  0.3718
    4MPD2    H214387   3.131   3.393  14.110 -1.7957  0.9554  1.9425
    4MPD2    H314388   3.005   3.211  14.011  2.3378  0.4184 -1.3942
    4MPD2     N14389   3.138   2.925  14.350 -0.5456 -0.1094  0.5646
    4MPD2    H514390   3.203   2.917  14.428 -1.9289 -2.2996  1.5196
    4MPD2    N114391   3.269   3.382  14.350 -0.4922 -0.1085 -0.1438
    4MPD2    H714392   3.325   3.355  14.430  3.1756  1.8682 -2.0492
    5TMC2    C114393   3.519   1.892  14.862  0.0928  0.1145  0.6023
    5TMC2    C214394   3.546   1.861  14.994  0.4635  0.4999  0.4565
    5TMC2    C314395   3.637   1.948  15.053 -0.2341 -0.0870  0.2179
    5TMC2    C414396   3.580   1.990  14.791 -0.5652  0.2626 -0.0966
    5TMC2    C514397   3.661   2.082  14.858  0.0336 -0.4276 -0.2291
    5TMC2    C614398   3.685   2.068  14.995 -0.4991  0.5739  0.0983
    5TMC2     C14399   3.389   1.872  14.810 -0.1465  0.2935 -0.1926
    5TMC2     O14400   3.326   1.775  14.843  0.7657 -0.1987  0.7660
    5TMC2     H14401   3.506   1.769  15.034 -2.3336  2.2262  1.5945
    5TMC2    H114402   3.565   2.005  14.685 -0.5202 -0.2838 -0.1837
    5TMC2    H214403   3.738   2.142  15.054 -1.7064  1.6352 -0.1229
    5TMC2    C714404   3.631   2.214  14.797 -0.2753 -0.1692 -0.2499
    5TMC2    C814405   3.647   1.928  15.196 -0.4278 -0.1377 -0.9392
    5TMC2    O114406   3.539   2.215  14.714 -0.0623  0.0175 -0.0220
    5TMC2    O214407   3.666   2.019  15.275  0.5981  0.0636  0.3731
    5TMC2    O514408   3.724   1.820  15.203 -0.2784 -0.1737  0.3357
    5TMC2    H514409   3.729   1.765  15.122 -0.6696  1.5476 -0.8715
    6MPD2     C14410   2.981   2.105  14.574  0.1516 -0.6914 -0.3250
    6MPD2    C114411   3.076   2.194  14.621 -0.0645 -0.2822 -0.2611
    6MPD2    C214412   3.197   2.153  14.669  0.1616 -0.1905 -0.2896
    6MPD2    C314413   3.217   2.019  14.693 -0.5467  0.2099  0.3555
    6MPD2    C414414   3.116   1.929  14.653  0.3169  0.3379 -0.3579
    6MPD2    C514415   2.997   1.971  14.605 -0.4161 -0.1273 -0.1368
    6MPD2     H14416   3.268   2.229  14.700  0.2911 -0.4888  0.1289
    6MPD2    H114417   3.138   1.823  14.661 -0.2276  0.3209  0.9624
    6MPD2    H214418   2.890   2.144  14.530  0.7016 -0.1077 -0.9629
    6MPD2    H314419   2.927   1.896  14.570 -1.3037 -0.2094  1.8001
    6MPD2     N14420   3.346   1.993  14.752 -0.1715 -0.1398 -0.3283
    6MPD2    H514421   3.405   2.074  14.770  1.1317 -0.7269 -1.8557
    6MPD2    N114422   3.059   2.338  14.610 -0.1196  0.0470 -0.1089
    6MPD2    H714423   3.137   2.396  14.637 -0.2799  0.4086 -0.4335
  945NH3     N114424   0.781   2.338  15.187  0.6948  0.5161  0.0306
  945NH3     H214425   0.770   2.270  15.113 -1.5414  0.1931  0.6374
  945NH3     H314426   0.881   2.347  15.202  0.5530  0.1613  1.1937
  945NH3     H414427   0.764   2.420  15.130  0.7817  1.3228  1.1485
  946SOD     NA14428   1.368   2.764  15.021  0.3753  0.2129  0.0830
  947SOD     NA14429   0.355   2.987  16.314  0.6589  0.0429  0.1225
  948SOD     NA14430   3.541   0.521   9.313  0.1066  0.0038 -0.0943
  949SOD     NA14431   2.447   3.528   9.405  0.2740  0.3613  0.2132
  950SOD     NA14432   3.334   1.387   1.602 -0.4866  0.2100  0.4659
  951SOD     NA14433   2.544   1.751  16.745  0.3174 -0.9624 -0.0631
  952SOD     NA14434   3.802   0.182   9.056 -0.0990  0.0059  0.6689
  953SOD     NA14435   0.584   1.844   2.897 -0.0394 -0.8496  0.2522
  954SOD     NA14436   2.516   2.248  13.689  0.2806 -0.2840 -0.4904
  955SOD     NA14437   3.819   2.017  15.444  0.1950 -0.0578 -0.1604
  956SOD     NA14438   3.527   4.101   9.649 -0.1789  0.2335 -0.0343
  957SOD     NA14439   3.289   4.235   1.953 -0.2090 -0.1929  0.0821
  958SOD     NA14440   3.657   1.764  10.148  0.1075 -0.3126  0.2436
  959SOD     NA14441   1.989   2.874  15.082 -0.1738 -0.1534 -0.2399
  960SOD     NA14442   0.046   1.588  11.285 -0.0322 -0.1525  0.0560
  961SOD     NA14443   4.581   3.051   6.788 -0.0827  0.1739  0.1334
  962SOD     NA14444   0.091   1.195  11.803 -0.2485 -0.0452 -0.9412
  963SOD     NA14445   1.803   0.468   8.926  0.1829  0.0036 -0.5564
  964SOD     NA14446   4.020   1.311   2.059 -0.3579  0.8316 -0.1113
  965SOD     NA14447   3.773   4.126   3.188  0.1235 -0.1858 -0.1966
  966SOD     NA14448   3.917   2.804  14.606 -0.1275 -0.2278  0.3550
  967SOD     NA14449   3.759   0.127   1.906  0.1822 -0.4020  0.1744
  968SOD     NA14450   4.423   2.024  14.402 -0.4286  0.2788 -0.0164
  969SOD     NA14451   1.525   4.466   0.640  0.2290 -0.2614  0.0119
  970SOD     NA14452   0.433   4.161   2.964  0.7618 -0.3143 -0.1658
  971SOD     NA14453   2.943   1.180  12.861  0.3011 -0.0536  0.2256
  972SOD     NA14454   1.372   2.061  12.977 -0.3658 -0.3994  0.2681
  973SOD     NA14455   4.645   0.760  13.055 -0.3828  0.1990 -0.0004
  974SOD     NA14456   2.236   1.913   5.775  0.0620  0.1122 -0.2052
  975SOD     NA14457   2.831   0.173   7.416 -0.4273 -0.0693  0.2718
  976SOD     NA14458   4.341   1.364  11.508  0.1313  0.0336 -0.1213
  977SOD     NA14459   4.009   1.065  10.683 -0.0904  0.0260  0.3020
  978SOD     NA14460   2.782   0.570  10.759  0.3295 -0.1265 -0.1774
  979SOD     NA14461   1.690   0.382  13.429  0.5256  0.0949 -0.2964
  980SOD     NA14462   0.926   0.578  15.087  0.0928  0.8592 -0.5302
  981SOD     NA14463   2.578   4.140   0.680 -0.2077 -0.8004 -0.5595
  982SOD     NA14464   0.762   2.381  14.548  0.1883 -0.0184 -0.3834
  983SOD     NA14465   0.153   0.053  16.389 -0.0991 -0.0726 -0.4647
  984SOD     NA14466   0.421   0.199   1.029  0.0647  0.0420  0.2332
  985SOD     NA14467   2.984   0.243  10.501 -0.2480  0.2367 -0.0248
  986SOD     NA14468   3.831   0.520  10.067  0.2331  0.1780 -0.4226
  987SOD     NA14469   1.375   2.221   0.055  0.5392  0.9091  0.2194
  988SOD     NA14470   3.517   2.856   0.702 -0.4524  0.5072 -0.1160
  989SOD     NA14471   4.089   3.758   9.962 -0.0205  0.1039 -0.4948
  990SOD     NA14472   1.888   2.653   1.108  0.0838 -0.0147 -0.1756
  991SOD     NA14473   0.045   1.147  12.874  0.1425 -0.1163 -0.0243
  992SOD     NA14474   0.379   4.037  13.868 -0.2751  0.6019  0.2317
  993SOD     NA14475   4.152   2.093  12.687  0.4011 -0.0989  0.0557
  994SOD     NA14476   4.690   2.103  12.938  0.2526 -0.1822 -0.0197
  995SOD     NA14477   3.592   0.267  16.085 -0.5351  0.7400  0.2677
  996SOD     NA14478   3.039   0.715   9.467  0.0035 -0.2570  0.0891
  997SOD     NA14479   0.910   3.437   1.965 -0.3018  0.7562  0.0970
  998SOD     NA14480   0.091   3.536  11.194 -0.3308  0.2425  0.1068
  999SOD     NA14481   4.426   3.511   5.604 -0.4761  0.1366 -0.6391
 1000SOD     NA14482   3.483   3.772  12.149 -0.2047 -0.0234  0.1957
 1001SOD     NA14483   2.339   2.969   9.082  0.1411  0.1939  0.6737
 1002SOD     NA14484   1.944   0.140  14.371 -0.2522  0.2807 -0.1636
 1003SOD     NA14485   3.974   1.512  13.039 -0.3990  0.0182 -0.1776
 1004SOD     NA14486   2.338   0.750   7.743  0.2856 -0.2588  0.0998
 1005SOD     NA14487   4.108   1.862  12.439  0.0392 -0.1278  0.0331
 1006SOD     NA14488   1.088   2.675  12.532  0.2528  0.0040 -0.3889
 1007SOD     NA14489   2.887   0.284   9.070 -0.3144  0.1302  0.4537
 1008SOD     NA14490   0.628   2.253  15.335  0.0900  0.0769 -0.3000
 1009SOD     NA14491   0.542   4.678  14.397  0.1388  0.0073  0.2292
 1010SOD     NA14492   3.751   1.752   0.901 -0.6434  0.1588 -0.7601
 1011SOD     NA14493   2.494   0.841  12.905  0.1164 -0.0980  0.4382
 1012SOL     OW14494   4.141   1.632   7.675 -0.3586 -0.0480 -0.3486
 1012SOL    HW114495   4.194   1.627   7.754 -0.1307  0.9598 -0.4387
 1012SOL    HW214496   4.201   1.636   7.601 -1.6889 -0.7550 -1.4836
 1013SOL     OW14497   1.527   4.062   7.915  0.0513  0.3793 -0.1796
 1013SOL    HW114498   1.433   4.052   7.929  0.3031 -1.9259 -0.0692
 1013SOL    HW214499   1.534   4.081   7.821 -2.1071 -0.3071 -0.4809
 1014SOL     OW14500   1.791   3.460   8.189  0.2239  0.5328 -0.4385
 1014SOL    HW114501   1.848   3.387   8.216  1.6833  2.0223  0.5142
 1014SOL    HW214502   1.768   3.490   8.277  1.3515  1.4598 -0.4496
 1015SOL     OW14503   2.898   3.137   4.376 -0.2893  0.4832 -0.7104
 1015SOL    HW114504   2.857   3.163   4.459 -1.7715 -4.2489  0.0290
 1015SOL    HW214505   2.887   3.222   4.333  0.3319  0.2600 -1.3012
 1016SOL     OW14506   3.199   4.070   2.624  0.2119 -0.3981  0.3944
 1016SOL    HW114507   3.119   4.047   2.672 -1.3092  0.3528 -1.7962
 1016SOL    HW214508   3.266   4.084   2.692 -1.2137 -0.1548  1.7468
 1017SOL     OW14509   2.676   3.368   8.248 -0.9663  0.4885 -0.2351
 1017SOL    HW114510   2.700   3.337   8.161 -1.3341 -2.5197  0.7442
 1017SOL    HW214511   2.664   3.463   8.250 -2.3503  0.2841  1.7156
 1018SOL     OW14512   4.325   1.989  10.712 -0.1118  0.2744 -0.3156
 1018SOL    HW114513   4.264   1.955  10.646  1.8176 -2.8156 -0.4894
 1018SOL    HW214514   4.331   1.912  10.768 -2.1073 -1.0068 -1.8251
 1019SOL     OW14515   3.341   1.522   6.449 -0.1296  0.2184  0.1497
 1019SOL    HW114516   3.428   1.549   6.419 -0.3316  1.6836  0.8680
 1019SOL    HW214517   3.365   1.505   6.541 -0.9972  0.4698  0.4258
 1020SOL     OW14518   3.457   2.395   1.306  0.5083 -0.3069  0.0779
 1020SOL    HW114519   3.420   2.381   1.393 -1.2251 -0.6724 -0.7296
 1020SOL    HW214520   3.546   2.360   1.308  1.2972  1.7777  1.5473
 1021SOL     OW14521   1.073   3.241   8.680  0.0614 -0.0998 -0.4449
 1021SOL    HW114522   1.112   3.327   8.697  1.6253 -0.9129  0.0121
 1021SOL    HW214523   1.149   3.184   8.686 -0.5507 -1.0568 -1.5551
 1022SOL     OW14524   4.315   3.102   0.179 -0.1904  0.4395  0.2458
 1022SOL    HW114525   4.312   3.045   0.102  3.9016 -0.0363  0.4283
 1022SOL    HW214526   4.233   3.075   0.220  0.1627  0.7988  1.1719
 1023SOL     OW14527   0.480   1.842   3.622 -0.0916  0.3578 -0.5458
 1023SOL    HW114528   0.501   1.827   3.714  3.9790  1.6435 -1.2252
 1023SOL    HW214529   0.550   1.792   3.580 -0.5091  2.0049 -3.2364
 1024SOL     OW14530   3.548   2.385  11.966  0.4824  0.5551 -0.1182
 1024SOL    HW114531   3.574   2.317  11.904 -0.4051 -0.7197  0.9329
 1024SOL    HW214532   3.576   2.464  11.920  2.7856 -0.4184 -0.3768
 1025SOL     OW14533   2.010   0.380   6.765 -0.3052 -0.6423  0.5127
 1025SOL    HW114534   2.039   0.300   6.721  0.5800  0.3192 -0.6430
 1025SOL    HW214535   2.049   0.444   6.706  1.7143 -0.0084  2.5143
 1026SOL     OW14536   0.525   1.854   1.427 -0.0125 -0.1037 -0.1856
 1026SOL    HW114537   0.431   1.866   1.414 -0.2191 -0.5118  0.9399
 1026SOL    HW214538   0.537   1.788   1.496 -1.0199  1.1229  1.1433
 1027SOL     OW14539   1.710   1.050   4.775 -0.1102 -0.3018 -0.3275
 1027SOL    HW114540   1.723   0.985   4.845 -0.5764  0.2507  0.2710
 1027SOL    HW214541   1.685   1.130   4.821 -0.8175 -1.2239  0.9116
 1028SOL     OW14542   0.780   3.712   9.206 -0.0352 -0.0917 -0.0965
 1028SOL    HW114543   0.701   3.681   9.162  0.7902 -1.5552 -0.5856
 1028SOL    HW214544   0.757   3.723   9.298 -2.4448 -0.8329 -0.6245
 1029SOL     OW14545   1.268   3.309   2.480 -0.2780 -0.3707  0.0969
 1029SOL    HW114546   1.266   3.306   2.576  0.7965  1.0549  0.1696
 1029SOL    HW214547   1.331   3.377   2.457 -0.2327  0.3473  2.3125
 1030SOL     OW14548   4.713   2.833   5.806 -0.0548 -0.2096  0.3908
 1030SOL    HW114549   4.663   2.894   5.861  0.1949 -0.4795  0.9219
 1030SOL    HW214550   0.068   2.890   5.793  0.0974 -0.5571 -0.2078
 1031SOL     OW14551   2.757   3.698  10.614 -0.1765 -0.6377 -0.2074
 1031SOL    HW114552   2.699   3.622  10.627 -0.2415 -0.6197 -0.3889
 1031SOL    HW214553   2.823   3.686  10.682 -0.2747 -0.6994 -0.1234
 1032SOL     OW14554   0.838   4.141  15.795 -0.1154 -0.0172  0.1907
 1032SOL    HW114555   0.823   4.198  15.871 -1.3171 -1.1218  0.7703
 1032SOL    HW214556   0.884   4.203  15.739  0.2040 -1.0385 -0.6725
 1033SOL     OW14557   1.256   0.554   7.306  0.5938  0.1646  0.0481
 1033SOL    HW114558   1.259   0.648   7.324 -1.5163 -0.0185  1.4389
 1033SOL    HW214559   1.309   0.554   7.226 -1.6387  1.3330 -1.4201
 1034SOL     OW14560   2.524   0.416   8.633 -0.3407 -0.4316 -0.5900
 1034SOL    HW114561   2.470   0.356   8.581  0.2620 -1.0934 -0.4457
 1034SOL    HW214562   2.504   0.394   8.724 -1.2439 -2.1814 -1.1976
 1035SOL     OW14563   2.187   4.409   1.471 -0.3440 -0.0011 -0.4835
 1035SOL    HW114564   2.171   4.383   1.380 -0.6822 -0.6407 -0.2409
 1035SOL    HW214565   2.208   4.324   1.510 -1.2845 -0.5274 -1.1189
 1036SOL     OW14566   3.747   0.857   9.562 -0.4233 -0.5521 -0.3686
 1036SOL    HW114567   3.672   0.853   9.620  0.0254 -0.0645  0.2437
 1036SOL    HW214568   3.752   0.944   9.524 -2.2430 -0.5075 -0.4743
 1037SOL     OW14569   2.923   3.836   4.606 -0.7212 -0.2801 -0.1701
 1037SOL    HW114570   2.944   3.743   4.618 -2.0665 -0.6760 -0.8252
 1037SOL    HW214571   2.989   3.886   4.653 -1.3053 -0.7262  1.1344
 1038SOL     OW14572   2.473   1.759   1.795 -0.8603  0.0056  0.5427
 1038SOL    HW114573   2.458   1.703   1.719 -0.0562  1.0117 -0.3760
 1038SOL    HW214574   2.386   1.748   1.833  0.0169 -0.3626  2.4117
 1039SOL     OW14575   2.329   3.133   1.874  0.5796 -0.2109 -0.7963
 1039SOL    HW114576   2.364   3.044   1.880  2.1037  0.4300 -0.1867
 1039SOL    HW214577   2.245   3.112   1.833  0.7149  0.1842 -1.2759
 1040SOL     OW14578   3.380   0.655   3.245 -0.7695 -0.1412  0.1373
 1040SOL    HW114579   3.409   0.624   3.160  0.6695  0.3915  0.4231
 1040SOL    HW214580   3.466   0.656   3.288  0.1069  2.3890 -1.6896
 1041SOL     OW14581   1.591   4.385   7.174  0.2455 -0.1787  0.2043
 1041SOL    HW114582   1.592   4.465   7.122 -2.2147  0.5176  1.2488
 1041SOL    HW214583   1.508   4.345   7.148  0.1740  1.5891 -2.2532
 1042SOL     OW14584   1.694   4.514  16.211  0.6547 -0.5318  0.5494
 1042SOL    HW114585   1.655   4.486  16.129 -0.8539  0.3519  0.9455
 1042SOL    HW214586   1.778   4.550  16.184 -0.0640 -0.1835 -1.2459
 1043SOL     OW14587   4.244   1.660  14.338  0.3448  0.3263 -0.1444
 1043SOL    HW114588   4.180   1.671  14.267  0.7950  0.2953 -0.5536
 1043SOL    HW214589   4.324   1.675  14.288  0.0567 -0.3157 -0.8109
 1044SOL     OW14590   3.729   1.018   4.217  0.5395 -0.0639 -0.2513
 1044SOL    HW114591   3.767   1.000   4.132  2.4106  0.8212  0.3996
 1044SOL    HW214592   3.764   0.948   4.272 -1.3410  1.1263  2.4826
 1045SOL     OW14593   1.361   1.902   0.306  0.0397 -0.0148  0.4873
 1045SOL    HW114594   1.312   1.924   0.385 -0.2814  0.1595  0.2387
 1045SOL    HW214595   1.453   1.916   0.331 -0.1006  0.1930  0.8786
 1046SOL     OW14596   1.361   1.232  11.484  0.6313 -0.6139 -0.4567
 1046SOL    HW114597   1.428   1.186  11.433  0.4105 -0.0295 -1.2743
 1046SOL    HW214598   1.321   1.309  11.443  1.7093 -1.2183 -2.6681
 1047SOL     OW14599   3.796   3.548   6.115 -0.0816  0.1025  0.4554
 1047SOL    HW114600   3.828   3.482   6.176 -0.6223 -1.4118 -0.9088
 1047SOL    HW214601   3.718   3.506   6.077 -0.6742  0.9530  0.7144
 1048SOL     OW14602   1.112   1.371  11.746  0.0294  0.6589  0.3467
 1048SOL    HW114603   1.025   1.372  11.786  0.2189  2.4910  0.6973
 1048SOL    HW214604   1.154   1.291  11.776  0.4170  1.6835  2.4860
 1049SOL     OW14605   0.717   2.228   6.200 -0.2059  0.0530 -0.3526
 1049SOL    HW114606   0.762   2.160   6.250 -2.3950  0.3273  2.0393
 1049SOL    HW214607   0.711   2.193   6.111  2.9377 -4.3068  1.1563
 1050SOL     OW14608   0.920   2.192   5.261 -0.9248 -0.1820  0.2015
 1050SOL    HW114609   0.977   2.151   5.195 -2.3223  0.6754 -1.5511
 1050SOL    HW214610   0.947   2.166   5.349 -0.6999 -1.9687 -0.3901
 1051SOL     OW14611   3.134   4.595   4.385 -0.5281  0.6604  0.1954
 1051SOL    HW114612   3.102   4.552   4.306 -0.3750 -0.2773  0.6449
 1051SOL    HW214613   3.151   4.518   4.439  1.9248  1.2137  0.2293
 1052SOL     OW14614   1.960   1.086   5.765 -0.0349  0.1345  0.2115
 1052SOL    HW114615   2.042   1.037   5.765 -0.6574 -0.9169  0.4099
 1052SOL    HW214616   1.894   1.022   5.738 -1.2267  0.4495  2.3968
 1053SOL     OW14617   1.252   0.107   4.761 -0.4407  0.2306  0.4095
 1053SOL    HW114618   1.181   0.146   4.811  0.9857  0.8062  1.9732
 1053SOL    HW214619   1.287   0.179   4.708  0.4801  0.5045  1.3881
 1054SOL     OW14620   4.414   0.122   7.901  0.8620  0.3406 -0.4493
 1054SOL    HW114621   4.434   0.110   7.993 -1.2412 -2.0625 -0.2916
 1054SOL    HW214622   4.322   0.148   7.893  1.0868  1.0846 -0.6511
 1055SOL     OW14623   3.791   0.609   9.804  0.6823 -0.4900 -0.2878
 1055SOL    HW114624   3.713   0.663   9.789 -1.0947 -2.5060  1.7070
 1055SOL    HW214625   3.752   0.525   9.784 -1.6957  0.3418  0.8664
 1056SOL     OW14626   0.659   3.567   7.988 -0.7857  0.2234 -0.0195
 1056SOL    HW114627   0.672   3.543   8.080 -0.7630 -0.2219 -0.1418
 1056SOL    HW214628   0.706   3.496   7.946 -0.1512  0.8880 -0.4389
 1057SOL     OW14629   0.959   4.329   4.637  0.4480 -0.1063  0.0717
 1057SOL    HW114630   1.046   4.292   4.650 -0.2507 -1.8246 -0.1992
 1057SOL    HW214631   0.965   4.339   4.542 -1.4306 -1.3725 -0.1835
 1058SOL     OW14632   2.911   2.605   3.251 -0.2425  0.0810 -0.0274
 1058SOL    HW114633   2.950   2.589   3.337 -0.7998  2.3684  0.6432
 1058SOL    HW214634   2.851   2.530   3.254  0.6106 -0.5668  0.9491
 1059SOL     OW14635   3.283   0.556   9.714 -0.0551  0.0452 -0.1421
 1059SOL    HW114636   3.200   0.598   9.692  0.7418  1.7264  0.1177
 1059SOL    HW214637   3.243   0.470   9.729  0.4481 -0.1802 -0.0893
 1060SOL     OW14638   1.759   4.473   9.206 -0.5255 -0.8658 -0.6858
 1060SOL    HW114639   1.832   4.443   9.152 -1.2613 -1.7256 -1.1796
 1060SOL    HW214640   1.723   4.390   9.235  0.4073 -0.8450  0.5288
 1061SOL     OW14641   0.220   2.307   2.608 -0.0494 -0.0551  0.2574
 1061SOL    HW114642   0.293   2.324   2.549  1.0151  0.7114  1.7860
 1061SOL    HW214643   0.187   2.222   2.579  1.6885 -0.8506  0.6728
 1062SOL     OW14644   4.687   2.476   5.528  0.0063 -0.1142 -0.1573
 1062SOL    HW114645   4.592   2.484   5.534  0.2095  2.5402 -0.5263
 1062SOL    HW214646   4.708   2.497   5.438  2.0128  0.6542  0.4883
 1063SOL     OW14647   1.505   1.937   7.602  0.2726  0.1362  0.2266
 1063SOL    HW114648   1.502   2.024   7.642 -0.8294  0.4798 -0.6302
 1063SOL    HW214649   1.477   1.961   7.514 -0.3476  0.6422  0.5639
 1064SOL     OW14650   2.155   3.333   3.925 -0.6007  0.3781 -0.2124
 1064SOL    HW114651   2.163   3.399   3.856 -0.2166 -0.1209 -0.6510
 1064SOL    HW214652   2.062   3.340   3.946 -1.0945 -3.0463 -1.1730
 1065SOL     OW14653   1.733   0.559   2.991 -0.0442  0.6031 -0.6028
 1065SOL    HW114654   1.796   0.581   3.059 -1.4313  1.0567  0.5410
 1065SOL    HW214655   1.755   0.611   2.914  2.8010  0.6885  0.2719
 1066SOL     OW14656   0.027   0.230   3.282 -0.0272 -0.3996 -0.1657
 1066SOL    HW114657   0.061   0.181   3.207  1.9665 -0.6432  0.9021
 1066SOL    HW214658   0.066   0.317   3.273  2.4444 -1.7045 -2.1316
 1067SOL     OW14659   4.090   2.284   5.613 -0.0309  0.2873  0.8539
 1067SOL    HW114660   4.038   2.320   5.685  0.8639 -0.2408  1.7598
 1067SOL    HW214661   4.183   2.292   5.635  0.5051 -0.5389 -1.0992
 1068SOL     OW14662   3.163   3.208   3.286 -0.2476  0.3006 -0.0162
 1068SOL    HW114663   3.106   3.161   3.225  3.9490 -2.4978 -1.8048
 1068SOL    HW214664   3.252   3.186   3.259 -0.1281  0.4297  0.2737
 1069SOL     OW14665   0.256   2.705  15.655 -0.1440  0.4779 -0.1692
 1069SOL    HW114666   0.227   2.614  15.646  0.4904  0.6489 -4.1203
 1069SOL    HW214667   0.178   2.749  15.622  1.0058  0.6024 -2.6994
 1070SOL     OW14668   4.461   2.246   2.740 -0.4930 -0.1408  0.2942
 1070SOL    HW114669   4.392   2.228   2.804 -0.2848 -1.5528  0.1204
 1070SOL    HW214670   4.423   2.313   2.682  0.8804 -0.5174 -1.0471
 1071SOL     OW14671   1.480   2.900  17.655  0.1889  0.2171 -0.1370
 1071SOL    HW114672   1.461   2.838   0.038 -1.0456 -0.3111 -0.9319
 1071SOL    HW214673   1.493   2.843  17.579  0.8164  1.0761 -0.6802
 1072SOL     OW14674   4.054   1.739   4.751  0.5300 -0.2463 -0.5927
 1072SOL    HW114675   4.094   1.811   4.800  1.7566 -0.4104 -1.3437
 1072SOL    HW214676   3.984   1.706   4.807 -0.4156 -0.5224 -1.9335
 1073SOL     OW14677   2.214   3.558   3.220  0.3983 -1.1443 -0.2652
 1073SOL    HW114678   2.177   3.564   3.132  1.5248  1.4682 -0.5656
 1073SOL    HW214679   2.295   3.508   3.206  1.7286  0.9681 -0.0540
 1074SOL     OW14680   3.782   3.584  11.465 -0.0665  0.0271 -0.2858
 1074SOL    HW114681   3.804   3.495  11.493 -1.8637 -0.8960 -1.7703
 1074SOL    HW214682   3.845   3.634  11.516  1.6842 -0.8890 -1.5718
 1075SOL     OW14683   0.167   3.050  10.626  0.2768 -0.7456 -0.0016
 1075SOL    HW114684   0.259   3.048  10.599  0.3974 -0.6700  0.4096
 1075SOL    HW214685   0.134   2.969  10.585 -1.8463  0.3715 -0.5126
 1076SOL     OW14686   4.675   1.495   3.617  0.8482  0.3082 -0.0218
 1076SOL    HW114687   4.600   1.546   3.586  0.6229  0.3031  0.5188
 1076SOL    HW214688   4.629   1.426   3.664 -0.1754  0.5473 -0.6896
 1077SOL     OW14689   1.177   3.780   5.107  0.6853 -0.2512  0.6128
 1077SOL    HW114690   1.208   3.758   5.195 -0.2816 -0.1630  0.9755
 1077SOL    HW214691   1.257   3.800   5.058  0.8720 -1.5901  0.3560
 1078SOL     OW14692   1.699   1.524  16.165 -0.0385  0.2589  0.1406
 1078SOL    HW114693   1.733   1.552  16.250  1.6303 -0.5203 -0.2867
 1078SOL    HW214694   1.768   1.547  16.103 -1.7698 -1.1794 -2.3252
 1079SOL     OW14695   0.212   1.741  11.241 -0.1474 -0.1302  0.5351
 1079SOL    HW114696   0.246   1.740  11.152 -0.7705  1.2921  0.2768
 1079SOL    HW214697   0.287   1.713  11.293  1.5836  2.3525 -0.6122
 1080SOL     OW14698   0.359   1.295   2.733  0.3629 -0.5720 -0.3886
 1080SOL    HW114699   0.292   1.362   2.746  0.9322 -0.3941  1.5300
 1080SOL    HW214700   0.417   1.334   2.667 -1.2168  1.7232 -0.4216
 1081SOL     OW14701   4.285   1.126   1.212  0.2752 -0.2343 -0.1805
 1081SOL    HW114702   4.239   1.158   1.135 -1.8921 -0.5040  0.9885
 1081SOL    HW214703   4.315   1.205   1.257 -2.7723  0.4707  0.6555
 1082SOL     OW14704   1.001   2.522   2.842 -0.2171  0.2799 -0.4970
 1082SOL    HW114705   1.081   2.554   2.801  0.7167 -0.4074  0.8031
 1082SOL    HW214706   1.043   2.482   2.918 -1.9635 -0.2563  0.1821
 1083SOL     OW14707   2.624   2.456  13.721 -0.3529  0.1814  0.1117
 1083SOL    HW114708   2.707   2.499  13.740  0.4546 -1.2321 -0.2905
 1083SOL    HW214709   2.573   2.537  13.709  1.8469  1.3202 -1.4382
 1084SOL     OW14710   2.966   3.911   5.055 -0.1130 -0.0180 -0.7720
 1084SOL    HW114711   2.934   3.849   5.120 -1.0678 -0.6577 -1.8464
 1084SOL    HW214712   3.054   3.933   5.084  0.6044  0.1857 -3.0797
 1085SOL     OW14713   1.299   0.062   3.210 -0.2040  0.0121  0.2743
 1085SOL    HW114714   1.335   4.701   3.177  0.9489 -0.1089  1.8112
 1085SOL    HW214715   1.372   0.122   3.194  2.2513 -2.6545  1.5354
 1086SOL     OW14716   2.609   1.195   1.763 -0.0183  0.1380 -0.0495
 1086SOL    HW114717   2.693   1.234   1.737  0.1221 -1.8324 -2.5357
 1086SOL    HW214718   2.580   1.244   1.839  1.7451 -2.3249  2.2109
 1087SOL     OW14719   0.006   4.026   3.706  0.4289 -0.2581  0.7156
 1087SOL    HW114720   0.009   4.116   3.738  3.7494 -0.3956  0.8262
 1087SOL    HW214721   0.068   3.986   3.767 -0.3109 -3.8188 -0.8626
 1088SOL     OW14722   1.934   2.480  16.751  0.2890 -0.3250 -0.1890
 1088SOL    HW114723   2.007   2.425  16.776  0.1389 -0.2070  0.5276
 1088SOL    HW214724   1.931   2.533  16.831  1.4129 -0.8038  0.1610
 1089SOL     OW14725   3.733   1.176   1.446  0.3665  0.1084 -0.8734
 1089SOL    HW114726   3.800   1.163   1.378  2.3245  0.8658  0.9001
 1089SOL    HW214727   3.787   1.218   1.513  0.6936 -0.8193 -0.5595
 1090SOL     OW14728   1.929   3.415   3.114  0.1393  0.0504  0.5922
 1090SOL    HW114729   1.908   3.473   3.187  1.0907  0.3362  0.6395
 1090SOL    HW214730   1.851   3.364   3.093 -0.1268  0.7852 -0.2217
 1091SOL     OW14731   2.031   1.951  10.452  0.6561  0.1258 -0.0858
 1091SOL    HW114732   2.052   1.920  10.540 -0.7530 -0.1396  0.1531
 1091SOL    HW214733   1.951   1.899  10.442 -0.8671  2.3599  0.5276
 1092SOL     OW14734   0.693   1.461  13.761  0.2896  0.3771  0.2208
 1092SOL    HW114735   0.689   1.495  13.851  0.4025  1.0391 -0.0250
 1092SOL    HW214736   0.601   1.459  13.734 -0.4271  0.0779  2.6848
 1093SOL     OW14737   3.491   2.057   6.941 -0.2318  0.4946 -0.3144
 1093SOL    HW114738   3.482   2.030   6.850  1.3998 -1.3176  0.0474
 1093SOL    HW214739   3.587   2.059   6.947 -0.2602 -1.5086  0.7556
 1094SOL     OW14740   1.611   4.426  15.980 -1.0451 -0.4971  0.0327
 1094SOL    HW114741   1.530   4.462  15.944 -1.6588 -0.1670  1.7481
 1094SOL    HW214742   1.638   4.358  15.917  0.4795 -1.6083  1.8876
 1095SOL     OW14743   2.272   1.650  11.152 -0.0859  0.2094  0.1204
 1095SOL    HW114744   2.219   1.595  11.094 -2.1365  1.4908  0.7884
 1095SOL    HW214745   2.293   1.723  11.094  0.6092 -0.7235 -0.8059
 1096SOL     OW14746   3.779   2.953   6.632  0.1548  0.1089 -0.0540
 1096SOL    HW114747   3.848   2.980   6.692 -0.0420 -0.0820  0.2576
 1096SOL    HW214748   3.828   2.920   6.557  0.0258 -1.2758  0.4527
 1097SOL     OW14749   0.639   2.462   6.354 -0.0962  0.2874 -0.1640
 1097SOL    HW114750   0.547   2.445   6.335 -0.2895  1.3823 -0.2227
 1097SOL    HW214751   0.672   2.382   6.314  2.2171  1.1066  0.0407
 1098SOL     OW14752   3.551   0.994   7.281 -0.2543 -0.6529  0.3355
 1098SOL    HW114753   3.544   1.077   7.328  0.8753  0.2082 -1.0214
 1098SOL    HW214754   3.492   1.022   7.211 -0.2141 -1.2410  0.0606
 1099SOL     OW14755   2.885   2.814   8.493  0.3657 -0.3720  0.8232
 1099SOL    HW114756   2.956   2.759   8.459  1.1727 -0.5639  2.8079
 1099SOL    HW214757   2.883   2.777   8.581  1.2288 -1.8053  0.2367
 1100SOL     OW14758   2.143   2.780  14.369 -0.1083  0.1348  0.4510
 1100SOL    HW114759   2.235   2.803  14.384  0.4201 -3.0366  2.1145
 1100SOL    HW214760   2.126   2.727  14.447 -0.8552 -0.6503 -0.2502
 1101SOL     OW14761   3.218   1.037   8.989 -0.5940 -0.7586  0.0114
 1101SOL    HW114762   3.154   1.108   8.993 -1.2649 -1.2554 -1.6498
 1101SOL    HW214763   3.299   1.085   9.001 -0.4889 -1.0336  0.4063
 1102SOL     OW14764   1.026   2.659  14.944  0.3460 -0.0032 -0.0940
 1102SOL    HW114765   1.092   2.628  15.006 -1.5782  0.6391  2.3044
 1102SOL    HW214766   1.071   2.637  14.863 -2.5768  0.1236 -1.7642
 1103SOL     OW14767   4.643   2.079   5.639 -0.5992  0.3048 -0.4588
 1103SOL    HW114768   4.630   2.154   5.697 -0.0221  0.4401 -0.5106
 1103SOL    HW214769   4.587   2.104   5.565 -0.1645 -0.9606 -1.2307
 1104SOL     OW14770   1.796   3.135   5.952 -0.2437  0.1685  0.2452
 1104SOL    HW114771   1.864   3.098   6.008 -0.2429  0.7063  0.5929
 1104SOL    HW214772   1.848   3.204   5.912  1.3405 -0.0611  1.9093
 1105SOL     OW14773   2.206   3.234   5.027 -0.6337 -0.1014 -0.0130
 1105SOL    HW114774   2.197   3.163   4.963  0.6324  1.2321 -1.6518
 1105SOL    HW214775   2.241   3.182   5.099 -1.9422  0.3897  0.9883
 1106SOL     OW14776   3.992   1.052  11.760 -0.9317  0.0814 -0.5051
 1106SOL    HW114777   4.062   1.027  11.700  0.0726  1.2844  0.1430
 1106SOL    HW214778   3.916   1.006  11.724  0.4526 -0.5819 -2.5488
 1107SOL     OW14779   3.264   1.080  16.230 -0.0806 -0.4926 -0.4151
 1107SOL    HW114780   3.317   1.108  16.155 -0.4989 -1.8846 -1.2319
 1107SOL    HW214781   3.222   1.163  16.255 -1.4640 -0.8246 -1.6328
 1108SOL     OW14782   3.312   4.439   5.487  0.0996 -0.0915  0.2686
 1108SOL    HW114783   3.330   4.470   5.398 -0.7421  1.0919  0.5086
 1108SOL    HW214784   3.216   4.436   5.490 -0.0308  2.0720 -1.5454
 1109SOL     OW14785   4.135   4.379   6.076  0.4962  0.7146 -0.1428
 1109SOL    HW114786   4.168   4.404   6.162 -3.4945 -0.6832  1.8220
 1109SOL    HW214787   4.064   4.319   6.099 -0.9293  2.1593 -0.7702
 1110SOL     OW14788   1.018   2.033  14.613 -0.4383  0.3949 -0.5933
 1110SOL    HW114789   1.013   1.963  14.548 -4.0871 -2.0819  2.3771
 1110SOL    HW214790   1.096   2.084  14.590 -0.6291  0.4798 -1.0692
 1111SOL     OW14791   3.417   4.375  12.969  0.2762 -0.0536 -0.2533
 1111SOL    HW114792   3.470   4.435  12.916  0.3698  0.0021 -0.0981
 1111SOL    HW214793   3.383   4.319  12.899  0.1349 -0.1728 -0.0907
 1112SOL     OW14794   1.304   2.601   5.699  0.1524  0.3949 -0.4953
 1112SOL    HW114795   1.357   2.666   5.744 -0.9503  0.1285  1.1736
 1112SOL    HW214796   1.294   2.527   5.758  1.1027 -1.0409 -2.1373
 1113SOL     OW14797   4.499   3.750   1.435 -0.0504 -0.7356 -0.2416
 1113SOL    HW114798   4.468   3.691   1.504 -0.3276  0.7269  0.8772
 1113SOL    HW214799   4.416   3.765   1.389  0.9967  2.5399 -0.9963
 1114SOL     OW14800   0.580   1.380   2.372 -0.0817 -0.2424 -0.8281
 1114SOL    HW114801   0.560   1.293   2.406  1.8251 -0.5162 -0.4134
 1114SOL    HW214802   0.601   1.370   2.279  0.4078  0.3751 -0.7789
 1115SOL     OW14803   0.465   0.080  11.060 -0.2702  0.5715  0.0119
 1115SOL    HW114804   0.493   4.714  11.090 -0.2433  0.7262  0.4356
 1115SOL    HW214805   0.483   0.076  10.966 -0.8274  2.0181 -0.1508
 1116SOL     OW14806   0.933   0.429   5.249 -0.2431  0.0206  0.3442
 1116SOL    HW114807   0.893   0.425   5.162  2.1209 -1.0270 -0.6823
 1116SOL    HW214808   1.017   0.475   5.248 -0.2308 -0.0897 -3.5411
 1117SOL     OW14809   4.653   0.804   3.142  0.5361 -0.3604 -0.5120
 1117SOL    HW114810   4.584   0.738   3.143  1.9355 -1.8253  1.0765
 1117SOL    HW214811   4.610   0.881   3.180 -1.3929 -2.0603  0.7429
 1118SOL     OW14812   0.729   2.006   3.001  0.2963 -0.5450 -0.5506
 1118SOL    HW114813   0.798   2.053   2.954  0.2053  1.3958  1.2937
 1118SOL    HW214814   0.682   2.071   3.053 -0.5947 -1.8215  0.2327
 1119SOL     OW14815   4.510   1.785  14.459  0.6811  0.6657 -0.1893
 1119SOL    HW114816   4.462   1.742  14.529 -2.5356  1.8922 -1.6258
 1119SOL    HW214817   4.559   1.845  14.516 -0.1857  1.7394 -0.5792
 1120SOL     OW14818   3.856   3.914   4.138  0.7723  0.0492  0.1506
 1120SOL    HW114819   3.837   3.966   4.060  0.1325 -0.9246 -0.3403
 1120SOL    HW214820   3.937   3.867   4.117  1.2146  0.2704  1.3458
 1121SOL     OW14821   3.657   4.060  10.244  0.4977 -0.2947 -0.8239
 1121SOL    HW114822   3.724   4.090  10.306  2.2881 -1.8668 -1.9645
 1121SOL    HW214823   3.580   4.055  10.300  0.5731  0.1678 -0.6844
 1122SOL     OW14824   0.806   3.437  15.066  0.4139 -0.3888  0.0617
 1122SOL    HW114825   0.719   3.464  15.094  1.5161  1.5275  1.5750
 1122SOL    HW214826   0.798   3.408  14.974 -3.5608  2.8195 -0.6048
 1123SOL     OW14827   0.843   0.464   7.030  0.3799  0.1787 -0.3931
 1123SOL    HW114828   0.896   0.455   7.109 -0.5950 -0.8167  0.1405
 1123SOL    HW214829   0.865   0.378   6.994  2.9028  0.5701  0.1873
 1124SOL     OW14830   3.726   0.381  15.618  0.1901  0.4740 -0.1238
 1124SOL    HW114831   3.666   0.313  15.650 -1.6246  2.0253 -0.3012
 1124SOL    HW214832   3.704   0.451  15.679  0.2450 -0.7215  1.2783
 1125SOL     OW14833   2.786   2.906   8.258  0.6175 -0.7285  0.1025
 1125SOL    HW114834   2.832   2.872   8.335  1.1532  0.9139  0.4932
 1125SOL    HW214835   2.717   2.840   8.252 -0.6470  0.6968 -1.0245
 1126SOL     OW14836   0.197   0.945   8.334 -0.0288 -0.0193 -0.3016
 1126SOL    HW114837   0.184   1.035   8.365  1.3094  0.0075  0.1737
 1126SOL    HW214838   0.287   0.927   8.362 -0.1174  0.4940  0.3250
 1127SOL     OW14839   1.273   0.687   2.696  0.1479 -0.5336 -0.3137
 1127SOL    HW114840   1.352   0.636   2.679  0.4310 -0.0594 -0.4156
 1127SOL    HW214841   1.245   0.728   2.614 -2.6480  1.8684  1.8280
 1128SOL     OW14842   1.277   2.576  12.437 -0.7839 -0.1576  0.2908
 1128SOL    HW114843   1.327   2.613  12.364 -0.6149  0.3851  0.6830
 1128SOL    HW214844   1.221   2.509  12.397 -1.3861  0.9700 -0.7440
 1129SOL     OW14845   1.131   3.984   4.414  0.1356 -0.4513  0.0155
 1129SOL    HW114846   1.134   4.075   4.443 -1.2884 -0.0731 -1.0581
 1129SOL    HW214847   1.226   3.969   4.418 -0.1170 -0.8944  4.1877
 1130SOL     OW14848   2.369   2.064   4.286 -1.0978  0.0130  0.1770
 1130SOL    HW114849   2.375   2.090   4.378  0.2754 -0.5429  0.2430
 1130SOL    HW214850   2.346   1.971   4.293 -0.6693  0.0428  1.8426
 1131SOL     OW14851   3.820   4.159  11.760  0.2384  0.4364  0.6985
 1131SOL    HW114852   3.810   4.170  11.855 -1.8588  0.0281  0.5373
 1131SOL    HW214853   3.802   4.246  11.724  1.4915  0.1375 -0.6464
 1132SOL     OW14854   3.538   1.176   9.934  0.7815  0.0348 -0.3016
 1132SOL    HW114855   3.519   1.156  10.025  0.0623  0.9669 -0.2587
 1132SOL    HW214856   3.484   1.252   9.914  1.6842  1.2033  1.7807
 1133SOL     OW14857   4.058   3.598  15.944 -0.6404  0.0535  0.2892
 1133SOL    HW114858   4.149   3.613  15.918 -0.0411 -1.9894  1.1987
 1133SOL    HW214859   4.017   3.609  15.858  1.6097  1.7191 -0.5705
 1134SOL     OW14860   3.254   1.872   9.372  0.3746 -0.0723 -0.3335
 1134SOL    HW114861   3.192   1.801   9.389  1.0813 -0.6589 -0.1908
 1134SOL    HW214862   3.191   1.940   9.350  1.8046  1.3299 -0.0506
 1135SOL     OW14863   2.932   1.152   1.798  0.3327  0.3315  0.0835
 1135SOL    HW114864   2.940   1.187   1.709 -0.0647  0.2317  0.0105
 1135SOL    HW214865   2.863   1.204   1.839  1.3104  1.8217 -0.1571
 1136SOL     OW14866   3.522   4.503   5.645  0.3101 -0.3436  0.0995
 1136SOL    HW114867   3.588   4.548   5.593 -0.0290  0.8771  0.7216
 1136SOL    HW214868   3.441   4.511   5.594  0.4931  0.5626 -0.0523
 1137SOL     OW14869   4.110   0.671   6.732 -0.0206 -0.6730  0.9661
 1137SOL    HW114870   4.023   0.686   6.694  0.2063  0.1914  0.7967
 1137SOL    HW214871   4.154   0.748   6.696 -0.0657 -0.4913  1.2964
 1138SOL     OW14872   1.649   0.717   5.463  0.1283  0.3280  0.4651
 1138SOL    HW114873   1.730   0.694   5.416  1.0325  1.2363  1.5871
 1138SOL    HW214874   1.665   0.672   5.546 -0.9317 -1.4522 -0.3023
 1139SOL     OW14875   1.319   0.375   4.224  0.0426  0.2865  0.0894
 1139SOL    HW114876   1.268   0.414   4.295 -0.9335 -2.7474  1.0755
 1139SOL    HW214877   1.365   0.313   4.280 -0.5790  0.7328  1.0902
 1140SOL     OW14878   1.489   2.017  14.814  0.0252  0.1248  0.4342
 1140SOL    HW114879   1.408   1.987  14.856 -0.2053 -0.8440 -0.7228
 1140SOL    HW214880   1.504   2.095  14.867  0.5600  0.2357  0.1200
 1141SOL     OW14881   3.421   4.440   9.042 -0.0995  0.0466 -0.1258
 1141SOL    HW114882   3.372   4.522   9.050  1.0571  0.6574  0.7501
 1141SOL    HW214883   3.501   4.459   9.091 -1.4083 -0.3847  2.1703
 1142SOL     OW14884   1.056   4.205   3.285  0.6270 -0.1047 -0.4269
 1142SOL    HW114885   1.006   4.278   3.321  0.1678  0.3235 -1.9490
 1142SOL    HW214886   1.077   4.160   3.367  0.5779 -0.5374 -0.6477
 1143SOL     OW14887   2.316   3.296   4.193 -0.0180  0.6173  0.3320
 1143SOL    HW114888   2.290   3.315   4.103 -0.0150  1.3661  0.4911
 1143SOL    HW214889   2.295   3.202   4.194 -0.1309  0.6493  0.8350
 1144SOL     OW14890   3.182   0.018   5.078  0.3207  0.2803 -0.5473
 1144SOL    HW114891   3.217   0.053   4.996 -3.5221  0.6000 -2.0120
 1144SOL    HW214892   3.100   0.066   5.081  0.5585  0.6257  0.4170
 1145SOL     OW14893   0.345   4.479  14.102 -0.1064  0.3590  0.9011
 1145SOL    HW114894   0.430   4.496  14.142  0.3246 -0.9767  0.5387
 1145SOL    HW214895   0.286   4.539  14.149  0.7086  0.6951  1.4880
 1146SOL     OW14896   4.190   0.201  10.357 -0.0843 -0.0793  0.4125
 1146SOL    HW114897   4.130   0.217  10.430  0.5389  1.2266  0.6253
 1146SOL    HW214898   4.144   0.256  10.293  0.4283 -0.2636 -0.1145
 1147SOL     OW14899   4.705   0.315   5.098  0.0610 -0.0697 -0.0328
 1147SOL    HW114900   0.001   0.261   5.020 -0.6793 -0.0162 -0.2328
 1147SOL    HW214901   0.068   0.359   5.109 -1.2559  2.5369 -0.4934
 1148SOL     OW14902   2.623   2.816  12.987  0.0022  0.2998 -0.4784
 1148SOL    HW114903   2.658   2.796  12.900 -0.4774 -2.7227  0.0043
 1148SOL    HW214904   2.532   2.826  12.962 -0.0405  0.0055 -0.4451
 1149SOL     OW14905   3.037   0.170   8.928  0.6968  0.2662 -0.2569
 1149SOL    HW114906   3.007   0.167   8.837 -1.4235  1.0722  0.4223
 1149SOL    HW214907   3.127   0.192   8.905  0.5789  0.4746 -0.5256
 1150SOL     OW14908   0.559   2.248   1.215 -0.1594 -0.2232  0.1547
 1150SOL    HW114909   0.469   2.217   1.204  0.2522 -1.9914  1.8135
 1150SOL    HW214910   0.601   2.164   1.195 -1.2595 -0.5557 -0.7729
 1151SOL     OW14911   0.299   0.061   0.873 -0.1259 -0.5095  0.0992
 1151SOL    HW114912   0.282   0.033   0.783  0.0178 -1.0999  0.2557
 1151SOL    HW214913   0.209   0.050   0.904 -0.0733 -1.6295 -0.1585
 1152SOL     OW14914   1.427   2.157   6.333 -0.3733 -0.0501  0.1113
 1152SOL    HW114915   1.474   2.080   6.302  0.2201 -0.6910  2.6220
 1152SOL    HW214916   1.456   2.224   6.271 -1.5980 -0.2338 -0.6375
 1153SOL     OW14917   2.117   2.348   7.038 -0.6307 -0.1465  0.1544
 1153SOL    HW114918   2.051   2.415   7.056  0.1300  0.0623  2.2110
 1153SOL    HW214919   2.138   2.361   6.946  0.9410  0.1250  0.5447
 1154SOL     OW14920   0.707   2.748   9.735  0.2596 -0.0719  0.0312
 1154SOL    HW114921   0.689   2.721   9.645  0.4623 -1.5947  0.4510
 1154SOL    HW214922   0.680   2.839   9.727  0.3563 -0.2573 -2.5785
 1155SOL     OW14923   3.852   3.589   6.621 -0.6176  0.1042  0.0863
 1155SOL    HW114924   3.883   3.658   6.679  1.3767 -1.1683  0.5595
 1155SOL    HW214925   3.761   3.611   6.602 -1.2809 -0.6140  2.4210
 1156SOL     OW14926   0.795   2.199   9.094 -0.3886  0.0843  0.0218
 1156SOL    HW114927   0.749   2.225   9.013  4.7390  1.7675 -2.3376
 1156SOL    HW214928   0.870   2.258   9.095  0.0017 -0.3722 -2.6494
 1157SOL     OW14929   3.805   0.279  11.370 -0.0888  0.2075  0.4667
 1157SOL    HW114930   3.760   0.198  11.392 -0.4757  0.0783 -0.8048
 1157SOL    HW214931   3.767   0.349  11.424  0.6258 -0.6263  2.0522
 1158SOL     OW14932   2.575   4.092   5.727  0.1149  0.3639 -0.1094
 1158SOL    HW114933   2.494   4.042   5.714 -0.2628  1.0433 -0.3818
 1158SOL    HW214934   2.532   4.176   5.742 -0.9258 -0.2479  0.3176
 1159SOL     OW14935   2.916   1.676   5.066  0.5819 -0.3317  0.3139
 1159SOL    HW114936   3.007   1.692   5.090  0.4583 -0.7074  1.0554
 1159SOL    HW214937   2.914   1.707   4.976  1.4142 -1.0084  0.0719
 1160SOL     OW14938   3.913   4.332   9.556 -0.1220 -0.2721  0.1873
 1160SOL    HW114939   3.915   4.423   9.586  1.5250 -0.5019  0.7575
 1160SOL    HW214940   3.833   4.306   9.602  0.2289  0.5602  1.2709
 1161SOL     OW14941   4.623   4.514   8.796 -0.0302  0.7198 -0.2183
 1161SOL    HW114942   4.528   4.515   8.783 -0.1287 -1.0891  0.2832
 1161SOL    HW214943   4.630   4.573   8.871 -1.3008  2.3236 -1.3585
 1162SOL     OW14944   2.567   4.380   4.939 -0.1404  0.2895  0.1883
 1162SOL    HW114945   2.646   4.346   4.981  0.3724 -0.0371 -1.0456
 1162SOL    HW214946   2.524   4.302   4.906  0.2649 -0.4423  1.4236
 1163SOL     OW14947   3.058   3.423   2.840  0.1808  0.4214 -0.4527
 1163SOL    HW114948   2.972   3.446   2.807 -0.4711 -2.1069 -0.4811
 1163SOL    HW214949   3.040   3.404   2.933  0.5973 -0.0249 -0.4642
 1164SOL     OW14950   0.660   1.121   7.084  0.5340 -0.0713  0.1349
 1164SOL    HW114951   0.699   1.134   7.171 -0.5885 -1.6263  0.8637
 1164SOL    HW214952   0.653   1.213   7.057 -2.6525 -0.4110 -0.1519
 1165SOL     OW14953   3.989   4.145   1.375  0.4217  0.7923  0.1315
 1165SOL    HW114954   3.990   4.143   1.471 -0.0972  0.2120  0.1255
 1165SOL    HW214955   3.963   4.055   1.353  0.4486  1.3039 -1.9276
 1166SOL     OW14956   0.177   3.024   1.911 -0.0728 -0.2404  0.5040
 1166SOL    HW114957   0.245   3.091   1.924 -1.0757  1.0765 -1.0971
 1166SOL    HW214958   0.230   2.949   1.939  1.1162 -0.0507 -1.1676
 1167SOL     OW14959   2.214   3.583  15.361 -0.3678 -0.2195  0.5192
 1167SOL    HW114960   2.234   3.580  15.454 -0.2803 -0.0553  0.5067
 1167SOL    HW214961   2.266   3.662  15.346  0.9597 -0.6671  2.8219
 1168SOL     OW14962   1.985   2.664  15.150  0.5484 -0.0492  0.4814
 1168SOL    HW114963   1.944   2.653  15.236 -1.8218  0.7147 -0.5440
 1168SOL    HW214964   2.001   2.571  15.137 -1.0122 -0.4218  1.1719
 1169SOL     OW14965   1.566   4.200   6.747  0.2834  0.2719 -0.8488
 1169SOL    HW114966   1.484   4.249   6.758  0.0737 -0.1738 -0.3939
 1169SOL    HW214967   1.627   4.273   6.754  0.5161 -0.1194  0.9935
 1170SOL     OW14968   0.128   1.244   8.367  0.5996 -0.0512  0.1061
 1170SOL    HW114969   0.220   1.249   8.344  0.4364 -0.9373 -0.7552
 1170SOL    HW214970   0.100   1.328   8.330  0.5228 -0.2190 -0.2126
 1171SOL     OW14971   2.171   2.534   7.918 -0.2383 -0.3268  0.4942
 1171SOL    HW114972   2.157   2.440   7.928 -0.5918 -0.3636 -0.2997
 1171SOL    HW214973   2.222   2.563   7.994  0.8852  1.4677 -0.9123
 1172SOL     OW14974   3.659   0.952  15.673  0.4683 -0.2948  0.1685
 1172SOL    HW114975   3.739   0.906  15.698  0.8087 -0.8653 -1.9577
 1172SOL    HW214976   3.686   1.041  15.696  1.7789 -0.3906 -1.0151
 1173SOL     OW14977   3.703   2.136   8.618  0.0928  0.1704  0.0678
 1173SOL    HW114978   3.732   2.180   8.698  0.4309  0.0774 -0.0040
 1173SOL    HW214979   3.765   2.063   8.619 -0.9230 -0.6366  3.3669
 1174SOL     OW14980   3.974   1.414   4.824 -0.0823  0.2622  0.4027
 1174SOL    HW114981   4.037   1.471   4.868  0.6560  0.4157 -0.8273
 1174SOL    HW214982   3.930   1.383   4.903  0.6293  1.9388  1.4574
 1175SOL     OW14983   3.629   0.909   0.989 -0.6036 -0.6800 -0.3184
 1175SOL    HW114984   3.594   0.890   1.076 -0.4982 -0.5692 -0.2507
 1175SOL    HW214985   3.643   0.821   0.955  0.0711 -0.3962 -0.7608
 1176SOL     OW14986   4.622   2.367  17.203 -0.5374 -0.2364  0.1448
 1176SOL    HW114987   4.619   2.389  17.296 -0.5541  1.1197 -0.1693
 1176SOL    HW214988   4.716   2.360  17.191 -0.4319  1.5329 -0.1244
 1177SOL     OW14989   1.592   4.161  10.743 -0.6343  0.1793 -0.0784
 1177SOL    HW114990   1.518   4.220  10.755  0.1869  1.4545 -1.3074
 1177SOL    HW214991   1.636   4.164  10.828 -1.9861 -0.8567  0.6691
 1178SOL     OW14992   4.244   1.578   8.814  1.0262 -0.2042 -0.9635
 1178SOL    HW114993   4.162   1.532   8.794 -0.1372  1.1935  0.5475
 1178SOL    HW214994   4.298   1.549   8.741 -0.2759  0.0806 -2.0530
 1179SOL     OW14995   2.709   2.015   7.729 -0.5110  0.4562  0.0283
 1179SOL    HW114996   2.794   1.976   7.709 -0.8955 -0.4953  0.2865
 1179SOL    HW214997   2.673   2.050   7.647  0.2073  1.8434  0.3007
 1180SOL     OW14998   3.573   1.715   5.268 -0.2842  0.4541  0.0185
 1180SOL    HW114999   3.668   1.724   5.272 -0.1640 -0.3928 -1.0872
 1180SOL    HW215000   3.559   1.686   5.358  5.4622 -0.2509  0.6321
 1181SOL     OW15001   4.151   1.459   4.349 -0.0247 -0.4252 -0.1742
 1181SOL    HW115002   4.101   1.510   4.413  0.3635  2.0115 -1.8188
 1181SOL    HW215003   4.222   1.426   4.404  0.0373  0.4159  0.2521
 1182SOL     OW15004   0.686   0.590   5.601 -0.3784 -0.2603 -0.5602
 1182SOL    HW115005   0.743   0.521   5.565  0.9796 -0.0807  1.2516
 1182SOL    HW215006   0.660   0.547   5.682 -2.7874 -0.4396 -1.4331
 1183SOL     OW15007   4.234   3.477   8.692 -0.1465 -0.1708  0.2376
 1183SOL    HW115008   4.283   3.522   8.762 -2.5504  0.9255  1.1980
 1183SOL    HW215009   4.202   3.402   8.742  1.4206 -0.3760  0.9624
 1184SOL     OW15010   0.879   2.751   2.737  0.0706 -0.3107  0.2489
 1184SOL    HW115011   0.916   2.775   2.822  0.2614 -1.1650  0.4080
 1184SOL    HW215012   0.883   2.656   2.743 -0.5926 -0.2731  1.3372
 1185SOL     OW15013   0.740   2.487   2.530 -0.1370  0.6044 -0.1838
 1185SOL    HW115014   0.775   2.492   2.441  0.0898  3.4027  0.0812
 1185SOL    HW215015   0.792   2.408   2.545 -1.2492 -0.2991 -1.0233
 1186SOL     OW15016   3.454   3.047   0.363  0.2707  0.0286  0.0224
 1186SOL    HW115017   3.475   3.002   0.281  1.2673 -0.2842  0.4449
 1186SOL    HW215018   3.437   3.135   0.329  0.6509  0.3258  0.5922
 1187SOL     OW15019   2.395   4.312   1.665 -0.0962  0.1645  0.5543
 1187SOL    HW115020   2.429   4.395   1.697 -0.4508  0.5429 -0.0693
 1187SOL    HW215021   2.443   4.314   1.582 -1.0146  1.6710  0.0765
 1188SOL     OW15022   3.621   1.849   9.894  0.5034 -0.1882  0.2268
 1188SOL    HW115023   3.669   1.931   9.883  1.0595 -0.5174  0.1948
 1188SOL    HW215024   3.537   1.895   9.900  1.5483  1.8089 -0.4557
 1189SOL     OW15025   3.883   1.847  11.901  0.0212 -0.6213  0.0153
 1189SOL    HW115026   3.865   1.903  11.977  0.6732 -0.6011  0.1596
 1189SOL    HW215027   3.793   1.834  11.870 -0.4808  1.5010  0.5869
 1190SOL     OW15028   3.141   0.387  10.565  0.2995 -0.2193 -0.0697
 1190SOL    HW115029   3.193   0.420  10.492 -0.2641  0.7457 -0.0413
 1190SOL    HW215030   3.207   0.325  10.594  2.1340  0.4010 -2.8758
 1191SOL     OW15031   0.341   1.881  15.110 -0.3125 -0.1231  0.1745
 1191SOL    HW115032   0.374   1.801  15.148  2.2291  0.3525 -1.0177
 1191SOL    HW215033   0.347   1.879  15.014  1.8339 -0.0870  0.3110
 1192SOL     OW15034   4.514   3.794   4.796  0.2448  0.1118  0.1518
 1192SOL    HW115035   4.432   3.839   4.817  0.7702  1.1919 -0.0792
 1192SOL    HW215036   4.531   3.824   4.707 -1.9024  1.5997  0.2348
 1193SOL     OW15037   0.153   4.602  14.252  0.4258 -0.2286 -0.7146
 1193SOL    HW115038   0.099   4.670  14.291 -1.6866 -1.6341 -1.1907
 1193SOL    HW215039   0.095   4.575  14.181 -1.1558  3.2882 -0.7340
 1194SOL     OW15040   2.442   1.800  16.542 -0.0306 -0.0929 -0.4183
 1194SOL    HW115041   2.491   1.817  16.461 -1.0023  0.8367 -0.8025
 1194SOL    HW215042   2.350   1.813  16.516 -0.4097  0.4517  1.2113
 1195SOL     OW15043   1.198   1.614   7.981 -0.2422 -0.3152  0.1668
 1195SOL    HW115044   1.165   1.701   8.005 -0.2318 -0.1703 -0.3596
 1195SOL    HW215045   1.242   1.594   8.064  1.2985 -0.4431 -0.6851
 1196SOL     OW15046   2.692   0.071   7.567 -0.3712  0.1633 -0.2209
 1196SOL    HW115047   2.626   0.134   7.594  0.0262 -0.8190  2.9350
 1196SOL    HW215048   2.725   0.038   7.650  0.2670 -0.4587 -0.7184
 1197SOL     OW15049   1.754   4.504   3.908 -0.2705  0.0313  0.2087
 1197SOL    HW115050   1.730   4.454   3.830 -0.3567  0.9035 -0.3286
 1197SOL    HW215051   1.692   4.462   3.967  0.4797  0.2792  1.1800
 1198SOL     OW15052   3.619   2.923   3.011 -0.1092 -0.0345  0.6906
 1198SOL    HW115053   3.633   2.978   2.934 -0.6841  0.3768  0.8762
 1198SOL    HW215054   3.526   2.899   3.004 -0.0224  0.0503 -0.7113
 1199SOL     OW15055   3.599   4.472   7.670  0.4979 -0.4038 -0.2166
 1199SOL    HW115056   3.678   4.525   7.661  0.5224 -0.1309  1.5558
 1199SOL    HW215057   3.625   4.413   7.741 -3.5822  0.3566  1.9061
 1200SOL     OW15058   0.380   4.022   8.645 -0.0495 -0.1268  0.6337
 1200SOL    HW115059   0.339   4.013   8.559  1.2205  0.5353 -0.0449
 1200SOL    HW215060   0.321   4.088   8.683  0.2290  0.5929 -0.1681
 1201SOL     OW15061   1.001   3.521   3.224  0.3276 -0.1136 -0.1237
 1201SOL    HW115062   0.969   3.594   3.277  3.3424  1.2682 -0.2031
 1201SOL    HW215063   1.080   3.562   3.189 -1.4528  2.6309 -0.9243
 1202SOL     OW15064   3.099   3.075   3.974  0.2738  0.1660  0.5493
 1202SOL    HW115065   3.100   2.994   3.924 -1.7766  0.9637 -0.7742
 1202SOL    HW215066   3.010   3.105   3.955  1.0562  1.3787 -1.1593
 1203SOL     OW15067   2.077   4.350  16.490  0.3378 -0.4163 -0.0197
 1203SOL    HW115068   2.005   4.304  16.446 -0.1056  1.0936 -0.8586
 1203SOL    HW215069   2.088   4.315  16.578  1.9502  1.6782  0.5890
 1204SOL     OW15070   2.912   4.490  11.792 -0.1553 -0.3243  0.2070
 1204SOL    HW115071   2.881   4.495  11.701 -1.4453 -0.1850  0.6559
 1204SOL    HW215072   2.831   4.476  11.840  1.5568 -1.4782  2.7289
 1205SOL     OW15073   0.447   1.058   4.288  0.1267 -0.3361  0.3099
 1205SOL    HW115074   0.382   1.109   4.240 -0.4285 -1.4720 -0.1430
 1205SOL    HW215075   0.524   1.059   4.231 -1.2857 -1.4759 -1.6003
 1206SOL     OW15076   0.239   1.194   7.836  0.1757 -0.1405 -0.1040
 1206SOL    HW115077   0.302   1.135   7.794  1.6186  1.4805 -0.2253
 1206SOL    HW215078   0.265   1.280   7.804  3.3227 -0.7826  0.6833
 1207SOL     OW15079   0.881   2.669   4.880  0.5755 -0.1705  0.3302
 1207SOL    HW115080   0.867   2.607   4.809  0.9322 -0.1622  0.2532
 1207SOL    HW215081   0.810   2.634   4.934  0.9730  0.7964  1.4989
 1208SOL     OW15082   4.211   0.898  17.657 -0.5199  0.4189 -0.0670
 1208SOL    HW115083   4.170   0.961  17.597  0.0392 -1.0294 -1.9668
 1208SOL    HW215084   4.304   0.917  17.650 -0.0205 -2.3828 -0.8565
 1209SOL     OW15085   3.921   3.908   5.526 -0.2234  0.1567  0.0900
 1209SOL    HW115086   3.972   3.896   5.606 -0.4333  0.1067  0.2172
 1209SOL    HW215087   3.981   3.964   5.477  3.1080 -1.8698  1.8561
 1210SOL     OW15088   3.704   4.120   6.375 -0.6753  0.1111 -0.4067
 1210SOL    HW115089   3.691   4.075   6.291  0.5105 -4.0222  1.6228
 1210SOL    HW215090   3.764   4.189   6.346  0.3841 -0.9311 -0.6892
 1211SOL     OW15091   4.128   4.331   5.208  0.0123 -0.2212 -0.3731
 1211SOL    HW115092   4.098   4.399   5.268 -0.4285  0.2413 -1.1117
 1211SOL    HW215093   4.064   4.332   5.137  1.1060 -0.1235 -1.3613
 1212SOL     OW15094   4.168   2.336   7.458 -0.0147 -0.2533  0.4136
 1212SOL    HW115095   4.212   2.294   7.384  3.0952  2.4055  0.7549
 1212SOL    HW215096   4.087   2.369   7.419 -0.5313 -1.1079  0.7746
 1213SOL     OW15097   4.446   3.955   6.503  0.6021  0.5842  0.6216
 1213SOL    HW115098   4.454   3.992   6.591  0.6116  0.4449  0.6794
 1213SOL    HW215099   4.382   3.883   6.507  0.7300  0.3957 -0.7946
 1214SOL     OW15100   2.006   1.894  16.306  0.0155 -0.0017 -0.2845
 1214SOL    HW115101   1.960   1.975  16.285  0.1485 -0.2080 -1.3401
 1214SOL    HW215102   2.042   1.917  16.392  0.3383  0.5374 -0.5638
 1215SOL     OW15103   4.669   3.169  10.452  0.1610  0.2044  0.0317
 1215SOL    HW115104   4.599   3.233  10.463 -1.3213 -0.6873 -4.1639
 1215SOL    HW215105   4.646   3.107  10.522 -0.3318  3.0670  2.3795
 1216SOL     OW15106   4.463   0.060  14.244 -0.1943  0.1859  0.3166
 1216SOL    HW115107   4.546   0.048  14.290  0.5222  0.8607 -0.7833
 1216SOL    HW215108   4.432   4.692  14.228 -1.8290  0.9387 -0.7177
 1217SOL     OW15109   3.644   3.568   2.299 -0.4788 -0.1932 -0.6858
 1217SOL    HW115110   3.725   3.517   2.307 -0.6685 -0.9145 -3.3929
 1217SOL    HW215111   3.597   3.544   2.379 -1.4584  0.3373 -1.1062
 1218SOL     OW15112   2.736   0.488   4.342 -0.1195  0.3792 -0.3051
 1218SOL    HW115113   2.793   0.531   4.405 -0.4689 -0.0591  0.3058
 1218SOL    HW215114   2.766   0.517   4.256  1.4130 -0.7930 -0.1738
 1219SOL     OW15115   4.680   0.950   8.176 -0.1936 -0.0760 -0.0093
 1219SOL    HW115116   4.721   0.975   8.093  0.3997  0.8519  0.5568
 1219SOL    HW215117   0.023   0.974   8.244 -0.7235  1.1130  0.0817
 1220SOL     OW15118   3.431   2.318   6.264 -0.1685 -0.1299  0.0476
 1220SOL    HW115119   3.470   2.406   6.260  0.8463 -0.5551  0.6418
 1220SOL    HW215120   3.401   2.313   6.174  0.4561  0.1310 -0.1730
 1221SOL     OW15121   0.677   1.718  15.392  0.1976 -0.1223 -0.0767
 1221SOL    HW115122   0.732   1.796  15.388  1.0725 -0.7986 -1.1752
 1221SOL    HW215123   0.736   1.645  15.410  0.1543  0.2117  1.4083
 1222SOL     OW15124   2.961   3.658  13.762 -0.0441  0.1502 -0.1297
 1222SOL    HW115125   2.982   3.742  13.802 -1.2690 -0.2308  1.3051
 1222SOL    HW215126   3.025   3.593  13.790 -2.1443 -2.3580 -1.2218
 1223SOL     OW15127   4.475   0.117  15.709 -0.5226 -0.3453 -0.2281
 1223SOL    HW115128   4.562   0.156  15.700 -0.5111  0.2701  2.5550
 1223SOL    HW215129   4.464   0.103  15.803 -0.8424 -1.3783 -0.4249
 1224SOL     OW15130   3.862   4.314   3.124 -0.0130  0.4376  0.0844
 1224SOL    HW115131   3.859   4.410   3.131  0.8862  0.5738 -1.4075
 1224SOL    HW215132   3.950   4.301   3.089 -0.3129 -0.2079 -0.4202
 1225SOL     OW15133   0.837   3.608  14.158  0.0427  0.1420  0.3668
 1225SOL    HW115134   0.769   3.630  14.094  0.0866  1.3061  0.7152
 1225SOL    HW215135   0.807   3.639  14.243 -0.2396 -0.7288  0.5775
 1226SOL     OW15136   1.618   0.309   3.402  0.2736 -0.6107  0.6834
 1226SOL    HW115137   1.546   0.306   3.465  0.5579 -0.4168  1.0161
 1226SOL    HW215138   1.582   0.289   3.316  3.0343 -0.4742 -0.5013
 1227SOL     OW15139   2.705   4.163   2.754 -0.4873  0.7357 -0.3075
 1227SOL    HW115140   2.777   4.130   2.700 -0.0452  2.2463 -0.6586
 1227SOL    HW215141   2.752   4.164   2.837 -0.1551 -0.5106 -0.4890
 1228SOL     OW15142   3.222   4.210   8.261  0.5967  0.0246 -0.2142
 1228SOL    HW115143   3.274   4.137   8.296  0.9067  0.0659 -0.5800
 1228SOL    HW215144   3.281   4.280   8.233  0.5840 -0.2444 -0.9113
 1229SOL     OW15145   1.353   3.491   3.682  0.2574 -0.0089  0.5249
 1229SOL    HW115146   1.407   3.570   3.676  1.6095 -1.0680 -0.9862
 1229SOL    HW215147   1.423   3.438   3.720  0.6348 -0.8718 -1.3972
 1230SOL     OW15148   0.260   2.134  11.712 -0.0828 -0.2913  0.3461
 1230SOL    HW115149   0.351   2.114  11.689  0.5129  2.3693  0.4014
 1230SOL    HW215150   0.226   2.171  11.631  0.2913 -1.7313 -0.4559
 1231SOL     OW15151   3.912   2.649   2.791 -0.0866  0.4640  0.1977
 1231SOL    HW115152   3.939   2.615   2.705  2.8460 -0.9291  1.6651
 1231SOL    HW215153   3.816   2.644   2.789 -0.1180  1.2668 -0.1236
 1232SOL     OW15154   4.484   4.529   8.126 -0.0939  0.3865 -0.0090
 1232SOL    HW115155   4.579   4.530   8.116 -0.1038  0.2576 -0.1110
 1232SOL    HW215156   4.486   4.616   8.166  0.2474  0.1758  0.4367
 1233SOL     OW15157   3.789   3.736   5.286 -0.3171 -0.6072 -0.3351
 1233SOL    HW115158   3.834   3.787   5.218  1.0487 -0.3889  0.7341
 1233SOL    HW215159   3.749   3.804   5.340 -0.1383 -0.6615 -0.1357
 1234SOL     OW15160   0.302   0.369   3.906 -0.0815 -0.0918 -0.6829
 1234SOL    HW115161   0.363   0.343   3.975  0.5491 -0.7681 -1.4987
 1234SOL    HW215162   0.356   0.343   3.832  0.3859 -0.2778 -0.2734
 1235SOL     OW15163   0.118   0.382   6.696  0.2810 -0.2979 -0.6152
 1235SOL    HW115164   0.039   0.436   6.696 -1.1320 -2.3529 -1.4644
 1235SOL    HW215165   0.185   0.442   6.665 -1.0824  2.6851  2.2245
 1236SOL     OW15166   2.824   1.261  12.680 -0.1788  0.3479 -0.3346
 1236SOL    HW115167   2.865   1.258  12.593 -2.1880 -0.9336 -1.2425
 1236SOL    HW215168   2.739   1.301  12.663 -1.1590 -1.1117  1.1248
 1237SOL     OW15169   4.381   2.262   3.918  0.0584  0.0264  0.0080
 1237SOL    HW115170   4.440   2.337   3.915 -1.4542  1.2208  0.0313
 1237SOL    HW215171   4.404   2.224   3.832  1.7844  0.4580  0.2894
 1238SOL     OW15172   3.682   1.596  10.557 -0.3356 -0.2576 -0.0516
 1238SOL    HW115173   3.587   1.595  10.544 -0.2113  0.8978 -1.0737
 1238SOL    HW215174   3.700   1.503  10.574 -0.3896 -0.1866  0.3847
 1239SOL     OW15175   0.083   1.683   5.157 -0.3095  0.1468 -0.2978
 1239SOL    HW115176   0.047   1.603   5.119  3.9581 -1.5441 -0.7387
 1239SOL    HW215177   0.072   1.661   5.249  1.9346  2.6501  0.5457
 1240SOL     OW15178   2.369   0.954  10.048 -0.0642 -0.1436  0.0239
 1240SOL    HW115179   2.313   0.893  10.096  0.7756 -1.5262 -0.7865
 1240SOL    HW215180   2.315   1.030  10.072  1.0560 -0.9896  5.2497
 1241SOL     OW15181   2.123   3.260   9.723  0.1859  0.4157  0.3954
 1241SOL    HW115182   2.133   3.205   9.646 -0.1775  0.5917  0.2193
 1241SOL    HW215183   2.093   3.198   9.790  1.1472  0.3060  0.7245
 1242SOL     OW15184   3.362   0.726   9.312 -0.0274  0.2942 -0.2405
 1242SOL    HW115185   3.412   0.801   9.344 -2.3359  1.3758  0.8756
 1242SOL    HW215186   3.273   0.761   9.315  0.8024  2.6127 -2.7666
 1243SOL     OW15187   0.838   0.394   5.002  0.3088  0.4185 -0.4162
 1243SOL    HW115188   0.819   0.439   4.919  0.4563  1.6981  0.2432
 1243SOL    HW215189   0.916   0.345   4.977 -0.5443 -1.1696  0.0770
 1244SOL     OW15190   3.412   3.632   1.514 -0.8523  0.5279  0.3894
 1244SOL    HW115191   3.427   3.547   1.473 -0.3451  0.8412 -0.0712
 1244SOL    HW215192   3.407   3.689   1.437 -0.6704  0.7222  0.5224
 1245SOL     OW15193   0.860   0.486  15.869 -0.7660  0.5494  0.6451
 1245SOL    HW115194   0.928   0.444  15.816  0.0760  1.0150  1.3755
 1245SOL    HW215195   0.819   0.549  15.810 -1.2647  1.0351  1.5059
 1246SOL     OW15196   3.398   0.641  14.516  0.3222 -0.2714  0.0914
 1246SOL    HW115197   3.313   0.598  14.522 -0.4322  1.3178  0.8353
 1246SOL    HW215198   3.382   0.699  14.442 -0.7509 -1.9083 -0.9566
 1247SOL     OW15199   2.719   2.709  15.877  0.6726 -0.0855  0.4994
 1247SOL    HW115200   2.666   2.734  15.801  1.9252  1.6980  0.2179
 1247SOL    HW215201   2.655   2.721  15.948  0.6154  1.8572  0.1271
 1248SOL     OW15202   1.527   3.675   7.494  0.0262  0.3481 -0.1927
 1248SOL    HW115203   1.565   3.641   7.575  1.4392 -0.3400 -1.1442
 1248SOL    HW215204   1.546   3.605   7.431 -1.6119 -0.9019  0.7159
 1249SOL     OW15205   2.283   1.819   4.346  0.3721  0.1774 -0.5382
 1249SOL    HW115206   2.308   1.729   4.326  1.3336  0.2344  0.4165
 1249SOL    HW215207   2.281   1.798   4.439  0.0364 -1.3430 -0.8994
 1250SOL     OW15208   2.792   0.129   3.684  0.1267  0.6909 -0.0561
 1250SOL    HW115209   2.784   0.133   3.589  4.0357 -0.8904 -0.4166
 1250SOL    HW215210   2.707   0.090   3.705  0.7938  1.3471  3.7850
 1251SOL     OW15211   3.202   0.928   5.651  0.3248 -0.8830  0.0934
 1251SOL    HW115212   3.111   0.904   5.634  0.4456 -0.8230 -0.6561
 1251SOL    HW215213   3.190   1.022   5.647  0.9425 -0.7685  0.8887
 1252SOL     OW15214   4.131   1.147   0.193  0.0508 -0.5454  0.3095
 1252SOL    HW115215   4.168   1.192   0.117 -0.8045 -1.3257 -0.5818
 1252SOL    HW215216   4.148   1.053   0.183  2.1046 -0.2018  0.6002
 1253SOL     OW15217   4.683   1.485  13.935  0.1104 -0.0797 -0.4945
 1253SOL    HW115218   4.710   1.561  13.884  2.1410 -0.3210  0.1927
 1253SOL    HW215219   4.709   1.402  13.894 -1.1186  0.2593 -1.9600
 1254SOL     OW15220   1.579   1.832   2.443 -0.3672 -0.0741 -0.0446
 1254SOL    HW115221   1.560   1.791   2.359 -1.8557  2.0345 -0.7285
 1254SOL    HW215222   1.511   1.896   2.464 -0.5961 -0.4476  0.3589
 1255SOL     OW15223   4.532   0.879   8.494  0.4224  0.0521  0.7376
 1255SOL    HW115224   4.580   0.929   8.561  0.5498  0.4110  0.3759
 1255SOL    HW215225   4.604   0.825   8.462 -0.2570  1.1837 -2.6200
 1256SOL     OW15226   3.286   1.212   6.735  0.0629 -0.6534  0.0676
 1256SOL    HW115227   3.314   1.264   6.811 -1.0646  0.9015 -0.5977
 1256SOL    HW215228   3.376   1.199   6.703 -0.2628 -1.2402 -0.5968
 1257SOL     OW15229   0.124   3.311   5.688 -0.1623 -0.2326  0.3037
 1257SOL    HW115230   0.217   3.332   5.697 -0.1280 -0.4202  0.3933
 1257SOL    HW215231   0.113   3.275   5.777  0.5112 -2.7784 -0.6387
 1258SOL     OW15232   2.346   3.087   8.494  0.4208  0.2898 -0.1056
 1258SOL    HW115233   2.269   3.035   8.516  1.5710 -1.3472  0.0626
 1258SOL    HW215234   2.417   3.031   8.525  1.0500  2.3909  2.2192
 1259SOL     OW15235   1.598   3.087   2.245  0.0595  0.1842 -0.0664
 1259SOL    HW115236   1.531   3.057   2.306 -1.6922  1.6174 -1.2701
 1259SOL    HW215237   1.549   3.095   2.163 -1.6501  0.6951  0.9898
 1260SOL     OW15238   2.628   3.350   7.487  0.1921 -0.6658 -0.2911
 1260SOL    HW115239   2.537   3.324   7.502 -0.1980  0.2608 -1.0724
 1260SOL    HW215240   2.669   3.301   7.559 -0.5951 -1.4317 -0.3607
 1261SOL     OW15241   3.704   3.495   5.363  0.7003  0.5382  0.2381
 1261SOL    HW115242   3.646   3.454   5.299  1.9812 -0.7781 -0.0923
 1261SOL    HW215243   3.728   3.577   5.320  1.5116 -0.4821 -1.2898
 1262SOL     OW15244   3.977   3.749   6.340  0.1070  0.8311 -0.2446
 1262SOL    HW115245   4.021   3.769   6.257  1.3016 -1.2197 -0.0987
 1262SOL    HW215246   4.040   3.684   6.370 -0.5758  0.1606 -0.2793
 1263SOL     OW15247   4.336   2.049   7.728  0.2317  0.4511  0.0670
 1263SOL    HW115248   4.418   2.013   7.694  0.3104  1.6536 -0.9985
 1263SOL    HW215249   4.320   1.994   7.805 -0.9151  0.1775 -0.3592
 1264SOL     OW15250   1.041   2.643   0.837  0.0765  0.5220 -0.2448
 1264SOL    HW115251   1.015   2.736   0.840 -0.2497  0.4447 -0.7593
 1264SOL    HW215252   1.132   2.655   0.862  0.2251 -1.6271  0.2461
 1265SOL     OW15253   2.625   0.540   0.121  0.2861 -0.3488 -0.0417
 1265SOL    HW115254   2.536   0.510   0.104 -0.4356  2.1826 -0.7195
 1265SOL    HW215255   2.662   0.461   0.159 -0.1676 -1.2600 -1.4718
 1266SOL     OW15256   1.147   4.544   1.476  0.1895  0.1262 -0.2708
 1266SOL    HW115257   1.079   4.481   1.500  1.3063 -1.2700 -0.7810
 1266SOL    HW215258   1.131   4.565   1.384  0.6439  0.0271 -0.3748
 1267SOL     OW15259   4.652   2.372  11.223 -0.4800 -0.1028 -0.4778
 1267SOL    HW115260   4.587   2.308  11.193 -0.0846 -0.0836 -1.3653
 1267SOL    HW215261   0.005   2.331  11.178 -1.7759 -0.2854 -2.4386
 1268SOL     OW15262   0.668   1.525  12.277 -0.3804  0.4613  0.0390
 1268SOL    HW115263   0.717   1.485  12.205  0.9600  2.1959 -0.0219
 1268SOL    HW215264   0.583   1.482  12.275 -1.1623  1.9133  2.5157
 1269SOL     OW15265   1.201   3.162   8.027 -0.4385 -0.2692 -0.0152
 1269SOL    HW115266   1.120   3.212   8.016 -0.5150 -0.1244  1.2050
 1269SOL    HW215267   1.265   3.233   8.029 -0.0248 -0.6397  0.0023
 1270SOL     OW15268   1.569   2.379   4.646 -0.2276 -0.3257 -0.4081
 1270SOL    HW115269   1.517   2.425   4.712  0.0394  2.1203 -1.8765
 1270SOL    HW215270   1.597   2.449   4.586  0.4021 -2.0498 -2.1140
 1271SOL     OW15271   1.518   0.799  10.137  0.1476  0.5220  0.4016
 1271SOL    HW115272   1.443   0.842  10.096 -0.5079  0.2881  1.3787
 1271SOL    HW215273   1.588   0.850  10.095  0.5969 -0.7349 -0.3784
 1272SOL     OW15274   0.759   4.308   9.964  0.0265  0.1183  0.8259
 1272SOL    HW115275   0.848   4.305   9.929 -0.4550  0.6616 -0.4325
 1272SOL    HW215276   0.763   4.231  10.022 -0.8998 -0.0526  0.6766
 1273SOL     OW15277   0.550   1.029   9.394 -0.3618  0.4488 -0.0779
 1273SOL    HW115278   0.534   1.097   9.329 -1.3148  0.0838 -0.2279
 1273SOL    HW215279   0.465   1.018   9.437 -0.1772 -2.0603 -0.3171
 1274SOL     OW15280   2.667   3.057  10.470  0.4687 -0.1001  0.1852
 1274SOL    HW115281   2.665   2.994  10.398  1.4204  0.6037 -0.4552
 1274SOL    HW215282   2.749   3.102  10.448 -0.7944  0.7235 -2.7249
 1275SOL     OW15283   0.650   1.445   0.357 -0.0576 -0.0140 -0.0622
 1275SOL    HW115284   0.660   1.444   0.262 -1.6999 -1.5675 -0.2062
 1275SOL    HW215285   0.635   1.355   0.386  1.5768 -0.0264  0.7472
 1276SOL     OW15286   2.089   4.697   7.283  0.1221  0.3841 -0.0611
 1276SOL    HW115287   2.070   0.052   7.227 -1.5154  0.8368  1.0928
 1276SOL    HW215288   2.067   0.015   7.368 -1.9601  3.1764 -1.8785
 1277SOL     OW15289   2.261   2.895   7.104  0.3115  0.3356  0.1011
 1277SOL    HW115290   2.227   2.969   7.053 -1.3505 -0.2659  0.3199
 1277SOL    HW215291   2.315   2.848   7.040  0.3477  0.6113 -0.0733
 1278SOL     OW15292   3.766   4.333  16.835 -0.0497 -0.5778  0.0224
 1278SOL    HW115293   3.800   4.420  16.813 -0.7132 -0.5964 -1.0636
 1278SOL    HW215294   3.807   4.328  16.922  0.7899 -3.1381 -0.5191
 1279SOL     OW15295   0.802   3.199   8.767 -0.4055  0.5057 -0.1274
 1279SOL    HW115296   0.881   3.212   8.715 -0.2464  1.8045  0.4179
 1279SOL    HW215297   0.736   3.244   8.715 -0.8671  0.1331  0.1427
 1280SOL     OW15298   0.967   0.655   8.678 -0.4688 -0.1270  1.0599
 1280SOL    HW115299   0.931   0.567   8.686 -2.6622  0.7037  0.3088
 1280SOL    HW215300   1.054   0.627   8.707  0.0310  0.1350 -0.1706
 1281SOL     OW15301   1.950   0.390   5.658  0.3191 -0.0863  0.3831
 1281SOL    HW115302   1.982   0.300   5.670  1.7132  0.5572  1.5341
 1281SOL    HW215303   2.026   0.429   5.615  0.8555 -1.9675 -0.3988
 1282SOL     OW15304   3.202   0.420   6.082  0.2309 -0.0524 -0.7537
 1282SOL    HW115305   3.293   0.423   6.051 -0.1510  0.8662 -1.8013
 1282SOL    HW215306   3.231   0.439   6.171 -2.9773 -2.8758  0.8762
 1283SOL     OW15307   1.620   1.663  17.476  0.6442  0.8669  0.1001
 1283SOL    HW115308   1.537   1.688  17.516 -0.6358  1.8487 -3.2428
 1283SOL    HW215309   1.590   1.601  17.410  0.5120  0.5731  0.4365
 1284SOL     OW15310   0.051   3.499   1.332 -0.2257  0.4152 -0.7181
 1284SOL    HW115311   0.067   3.511   1.238  3.3083  0.1642 -0.1555
 1284SOL    HW215312   4.693   3.445   1.329 -0.6413  1.0107 -0.4321
 1285SOL     OW15313   2.629   2.933   5.816 -0.1612  0.3823 -0.2548
 1285SOL    HW115314   2.685   2.978   5.752 -0.7789 -0.7666 -1.5874
 1285SOL    HW215315   2.691   2.911   5.886  1.1051 -0.8158 -1.7646
 1286SOL     OW15316   2.507   1.998   7.910 -0.2297  0.2401 -0.1485
 1286SOL    HW115317   2.547   2.002   7.997  2.1074  2.3200 -1.3201
 1286SOL    HW215318   2.583   2.004   7.853  0.3264  1.3352  0.7062
 1287SOL     OW15319   1.753   0.068   3.352 -0.1656 -0.4637  0.1624
 1287SOL    HW115320   1.749   0.078   3.257  1.1787 -1.1721  0.0389
 1287SOL    HW215321   1.707   0.149   3.377  1.3385  0.8539 -1.3438
 1288SOL     OW15322   2.065   3.711   6.064 -0.0093 -0.8063  0.4592
 1288SOL    HW115323   1.993   3.774   6.060 -0.1507 -1.0534 -0.8637
 1288SOL    HW215324   2.013   3.631   6.055  0.6933 -1.0065 -1.7114
 1289SOL     OW15325   0.156   3.318   4.885  0.4071  0.0475  0.2427
 1289SOL    HW115326   0.097   3.339   4.813  1.5633 -0.2558 -0.7950
 1289SOL    HW215327   0.187   3.405   4.910 -1.1018  0.7638 -0.4160
 1290SOL     OW15328   1.053   0.082  11.618  0.2692  0.7134 -0.1679
 1290SOL    HW115329   1.014   0.169  11.625 -2.4036 -0.3568 -1.6226
 1290SOL    HW215330   1.144   0.099  11.642  0.2946 -0.2770  0.4349
 1291SOL     OW15331   0.245   3.052   3.896 -0.3819 -0.7134 -0.3496
 1291SOL    HW115332   0.195   3.104   3.833  0.3670  1.0603  0.5203
 1291SOL    HW215333   0.175   3.000   3.935 -0.5031 -0.0660  0.2967
 1292SOL     OW15334   0.333   1.589   3.498  0.3476  0.2674 -0.3934
 1292SOL    HW115335   0.382   1.640   3.563  2.8524 -0.0392 -2.0174
 1292SOL    HW215336   0.335   1.639   3.416  1.3164 -0.4322 -0.7989
 1293SOL     OW15337   1.479   1.410   6.862  0.3550  0.3659 -0.0868
 1293SOL    HW115338   1.523   1.338   6.817 -3.4957 -1.5552 -0.7763
 1293SOL    HW215339   1.547   1.476   6.870 -0.1049  1.0514 -1.9270
 1294SOL     OW15340   3.233   1.081  13.536 -0.8973  0.0949 -0.3585
 1294SOL    HW115341   3.241   1.090  13.441 -1.7928 -0.8712 -0.5203
 1294SOL    HW215342   3.324   1.070  13.564 -1.3444 -1.7599  0.3169
 1295SOL     OW15343   1.890   4.529   5.810 -0.6166 -0.7812 -0.1746
 1295SOL    HW115344   1.850   4.500   5.728 -4.0248  1.1179  0.8203
 1295SOL    HW215345   1.967   4.473   5.817  1.1748  1.6231 -0.7347
 1296SOL     OW15346   3.565   2.849  11.132  0.1419  0.0762  0.0956
 1296SOL    HW115347   3.496   2.782  11.141 -1.4216  1.5414 -0.9536
 1296SOL    HW215348   3.619   2.819  11.058 -2.8108 -2.0092 -1.2219
 1297SOL     OW15349   4.516   3.092   5.689  0.7360  0.0459  0.2163
 1297SOL    HW115350   4.440   3.114   5.636  0.5760 -1.4719 -0.1592
 1297SOL    HW215351   4.477   3.023   5.742 -0.5579  1.4219  1.0385
 1298SOL     OW15352   1.862   1.218  14.068 -0.0244  0.0724 -0.5397
 1298SOL    HW115353   1.812   1.293  14.101  0.2425 -0.1050  0.2461
 1298SOL    HW215354   1.888   1.174  14.148  0.8491  0.1569 -0.7699
 1299SOL     OW15355   4.354   3.236   1.951  0.0917 -0.3948  0.1445
 1299SOL    HW115356   4.281   3.215   2.008 -0.8832  0.9099 -0.6101
 1299SOL    HW215357   4.376   3.147   1.924 -0.6811 -0.7865  0.8419
 1300SOL     OW15358   0.942   2.296   8.293 -0.0173  0.4385 -0.1208
 1300SOL    HW115359   0.999   2.264   8.223 -1.9838  0.1725 -1.5981
 1300SOL    HW215360   0.921   2.209   8.327  0.7800 -0.0441 -0.8545
 1301SOL     OW15361   1.247   1.788   8.633 -0.0153 -0.0704 -0.1353
 1301SOL    HW115362   1.253   1.883   8.627  1.3510 -0.1384  0.0933
 1301SOL    HW215363   1.312   1.775   8.702  1.0185 -1.6942 -1.3981
 1302SOL     OW15364   1.553   4.000   5.700  0.0905  0.2168 -0.0914
 1302SOL    HW115365   1.567   3.911   5.669 -3.2961 -1.0943  2.1409
 1302SOL    HW215366   1.570   4.058   5.626  4.3885 -1.0903 -0.1483
 1303SOL     OW15367   1.307   1.023  10.513 -0.5694 -0.4842 -0.4449
 1303SOL    HW115368   1.321   1.020  10.608  2.3686 -0.6976 -0.8877
 1303SOL    HW215369   1.235   1.086  10.509  0.9414  1.2163 -0.7134
 1304SOL     OW15370   2.139   2.781  12.861 -0.3154 -0.4979 -0.1058
 1304SOL    HW115371   2.081   2.736  12.922 -2.0046  4.2068  1.7767
 1304SOL    HW215372   2.100   2.762  12.775 -0.8825 -0.5089  0.1515
 1305SOL     OW15373   1.888   3.052   5.199 -0.2139 -0.3580  0.0553
 1305SOL    HW115374   1.949   2.986   5.234 -0.6102 -0.5058  0.4608
 1305SOL    HW215375   1.850   3.002   5.127 -1.7808 -1.5997  1.7698
 1306SOL     OW15376   0.068   2.536  17.685  0.0125  0.1719  0.0728
 1306SOL    HW115377   0.154   2.502   0.025 -0.4771 -1.8760 -0.9337
 1306SOL    HW215378   0.020   2.516   0.079 -0.2279  2.0814  0.3968
 1307SOL     OW15379   3.727   3.601   1.807 -0.3011 -0.2941  0.1956
 1307SOL    HW115380   3.803   3.578   1.860  1.6399  1.6431 -1.7225
 1307SOL    HW215381   3.765   3.642   1.729 -0.4779  0.6915  0.6171
 1308SOL     OW15382   3.109   4.718   7.229 -0.0902  0.0975 -0.3942
 1308SOL    HW115383   3.032   4.701   7.284  1.4945 -2.0344  1.1387
 1308SOL    HW215384   3.164   4.641   7.225 -1.4170 -0.9662  1.7070
 1309SOL     OW15385   1.765   4.215  13.438 -0.4532 -0.0194 -0.1445
 1309SOL    HW115386   1.811   4.256  13.365  2.5240  1.8943  2.7503
 1309SOL    HW215387   1.688   4.183  13.391  0.0232  2.8914 -2.8968
 1310SOL     OW15388   1.019   0.966  15.925  0.4031 -0.0673  0.3115
 1310SOL    HW115389   1.088   0.949  15.861 -0.7439 -1.1461 -0.6538
 1310SOL    HW215390   0.995   1.055  15.899 -0.1945  0.2114  1.8266
 1311SOL     OW15391   3.287   1.090   5.412 -0.2948 -0.2584  0.2414
 1311SOL    HW115392   3.305   1.028   5.483  1.3074 -0.2715 -0.1690
 1311SOL    HW215393   3.336   1.057   5.337  0.9264 -0.4977  1.1319
 1312SOL     OW15394   0.415   2.829   2.656 -0.2079  0.6708 -0.0447
 1312SOL    HW115395   0.482   2.780   2.609 -3.1746 -0.7205 -2.7808
 1312SOL    HW215396   0.476   2.878   2.712 -0.1602 -0.4696  0.8901
 1313SOL     OW15397   3.236   2.626   9.638 -0.1342 -0.2535  0.4793
 1313SOL    HW115398   3.298   2.624   9.711 -1.3694  1.3940  1.5877
 1313SOL    HW215399   3.174   2.679   9.689  1.6390  2.4218 -0.1635
 1314SOL     OW15400   0.349   1.537   1.338 -0.5780 -0.1535  0.3426
 1314SOL    HW115401   0.396   1.502   1.413  1.0664 -0.1077 -0.6791
 1314SOL    HW215402   0.404   1.531   1.261  0.2908 -0.0946  0.9625
 1315SOL     OW15403   2.735   1.292   7.277  0.1279  0.3375  0.4166
 1315SOL    HW115404   2.663   1.308   7.216  0.8077  0.8399 -0.2480
 1315SOL    HW215405   2.802   1.251   7.223 -0.2953  1.0551 -0.6504
 1316SOL     OW15406   2.830   1.866  10.577  0.3011 -0.4748  0.3968
 1316SOL    HW115407   2.795   1.804  10.641 -0.3015 -1.0958 -0.5396
 1316SOL    HW215408   2.907   1.897  10.626 -0.8295  1.7309  0.7937
 1317SOL     OW15409   2.653   2.362   2.358  0.3669  0.5494 -0.0313
 1317SOL    HW115410   2.709   2.414   2.415  0.3037 -0.5526  1.0577
 1317SOL    HW215411   2.694   2.276   2.368 -0.7958  0.0479  0.5802
 1318SOL     OW15412   4.447   1.090   5.448 -0.2544 -0.1433  0.0346
 1318SOL    HW115413   4.423   1.001   5.425  0.6906 -0.4705  0.2861
 1318SOL    HW215414   4.449   1.075   5.543  1.7013  0.1134  0.0348
 1319SOL     OW15415   3.182   0.614   3.641  0.3986  0.0097  0.7472
 1319SOL    HW115416   3.185   0.524   3.608 -0.1706  0.7613 -1.3304
 1319SOL    HW215417   3.156   0.662   3.562  1.2024  0.6850  0.8874
 1320SOL     OW15418   4.287   2.583   1.435  0.9749  0.2859 -0.4840
 1320SOL    HW115419   4.317   2.541   1.515  1.0429  1.6708  0.2052
 1320SOL    HW215420   4.196   2.562   1.413  1.0402  0.5241 -0.9997
 1321SOL     OW15421   3.139   0.982   7.274 -0.0346 -0.0210  0.0043
 1321SOL    HW115422   3.165   0.925   7.347  1.2209 -0.8293 -1.0711
 1321SOL    HW215423   3.046   0.998   7.287 -0.0887 -0.3179 -0.0187
 1322SOL     OW15424   0.584   2.167   2.060 -0.0750 -0.1981  0.5141
 1322SOL    HW115425   0.552   2.113   2.132 -1.7574  1.4104  0.9775
 1322SOL    HW215426   0.612   2.244   2.109 -0.1546  0.1609 -0.0056
 1323SOL     OW15427   1.509   3.508   0.788  0.2505 -0.7879 -0.8325
 1323SOL    HW115428   1.453   3.474   0.858 -2.0335  0.1548 -2.2113
 1323SOL    HW215429   1.481   3.599   0.779  0.0529 -0.8305 -0.6639
 1324SOL     OW15430   3.487   1.534   2.344 -0.0316  0.0348 -0.4699
 1324SOL    HW115431   3.479   1.602   2.411 -1.2988 -2.5931  2.0170
 1324SOL    HW215432   3.569   1.491   2.367 -0.6524 -0.6201  0.5136
 1325SOL     OW15433   2.830   0.138  10.987  0.1884 -0.1090  0.0643
 1325SOL    HW115434   2.864   0.060  10.944  0.0645  0.5112 -1.1641
 1325SOL    HW215435   2.896   0.169  11.049  1.0058 -0.4330 -0.6406
 1326SOL     OW15436   3.610   2.803   6.829  0.5360  0.0021 -0.6246
 1326SOL    HW115437   3.525   2.771   6.797 -0.9707  1.5340  1.8352
 1326SOL    HW215438   3.627   2.851   6.748  0.6433 -1.9479 -1.7576
 1327SOL     OW15439   0.806   4.408   3.017  0.1416  0.0814  0.3260
 1327SOL    HW115440   0.870   4.440   2.953  1.7755  1.6802  2.7973
 1327SOL    HW215441   0.848   4.375   3.096 -3.7960 -1.1851  1.8981
 1328SOL     OW15442   2.594   3.413  14.798 -0.3776 -0.4155  0.2104
 1328SOL    HW115443   2.530   3.363  14.747  1.0629  2.0753 -4.0207
 1328SOL    HW215444   2.616   3.477  14.731 -2.0718 -0.2133 -0.1456
 1329SOL     OW15445   0.049   0.764   7.755  0.2490  0.9692 -0.7648
 1329SOL    HW115446   0.036   0.852   7.720  2.1562  0.9000 -1.6450
 1329SOL    HW215447   4.690   0.740   7.802 -0.3919  0.1922 -2.2693
 1330SOL     OW15448   1.182   4.274   1.989  0.1401 -0.9755  0.3383
 1330SOL    HW115449   1.100   4.226   2.001 -2.2673  2.3580 -2.7596
 1330SOL    HW215450   1.241   4.210   1.951  0.2116  0.7331 -2.4601
 1331SOL     OW15451   4.464   3.003   6.979 -0.4661 -0.1378  0.2872
 1331SOL    HW115452   4.397   2.935   6.966  1.0247 -1.7231  0.9327
 1331SOL    HW215453   4.421   3.044   7.055  0.6548  0.5052  0.5699
 1332SOL     OW15454   3.452   2.263   7.145  0.1167  0.3209  0.2262
 1332SOL    HW115455   3.487   2.202   7.080  1.1060  0.2096  0.8624
 1332SOL    HW215456   3.417   2.330   7.087  2.2307 -0.9300 -2.5025
 1333SOL     OW15457   1.192   1.932  14.955 -0.5403  0.4831 -0.4319
 1333SOL    HW115458   1.263   1.920  15.019  0.2652  1.3952 -1.1492
 1333SOL    HW215459   1.216   1.872  14.884  0.1167 -1.4026  1.3646
 1334SOL     OW15460   3.661   2.482   3.595  0.4485 -0.2247  0.2806
 1334SOL    HW115461   3.596   2.473   3.525  0.2440  2.8964  0.0382
 1334SOL    HW215462   3.608   2.525   3.663 -1.8821  0.2324 -1.8187
 1335SOL     OW15463   3.860   0.403   8.110 -0.2736 -0.8014 -0.2373
 1335SOL    HW115464   3.911   0.329   8.142 -0.3293  0.4315  2.6567
 1335SOL    HW215465   3.928   0.470   8.119 -0.5886 -0.2622 -1.8321
 1336SOL     OW15466   3.063   0.063   6.395 -0.2839  1.3735 -0.3090
 1336SOL    HW115467   2.980   0.017   6.399  0.4770  0.0030 -0.3182
 1336SOL    HW215468   3.029   0.135   6.342  1.1363  0.5710 -2.3367
 1337SOL     OW15469   2.826   4.689   4.937  0.1493 -0.5045 -0.4463
 1337SOL    HW115470   2.894   0.008   4.884  1.6634 -2.3945  0.1004
 1337SOL    HW215471   2.771   4.643   4.874 -0.0645  0.0656 -0.6814
 1338SOL     OW15472   1.568   4.256   4.921  0.1656  0.4886  0.1645
 1338SOL    HW115473   1.540   4.328   4.977 -2.6008 -1.0555  0.7448
 1338SOL    HW215474   1.645   4.300   4.887  0.0958  0.3989 -0.1087
 1339SOL     OW15475   0.526   0.174   1.219  0.1475  0.0692 -0.1760
 1339SOL    HW115476   0.496   0.131   1.299  1.2035  1.5664  1.0185
 1339SOL    HW215477   0.610   0.129   1.214 -0.3484 -1.0181  1.1855
 1340SOL     OW15478   3.587   3.911  12.009 -0.1636 -0.7225 -0.9557
 1340SOL    HW115479   3.621   4.000  12.010  1.6950 -1.4459 -1.1223
 1340SOL    HW215480   3.647   3.875  11.945  0.6356 -1.5863  0.2725
 1341SOL     OW15481   0.648   2.718  12.369 -0.2986 -0.7019  0.2733
 1341SOL    HW115482   0.656   2.623  12.362  0.4689 -0.5845 -0.4223
 1341SOL    HW215483   0.732   2.747  12.333 -0.1484 -1.4988 -0.0173
 1342SOL     OW15484   3.896   2.700   7.311  0.7516  0.6756  0.2922
 1342SOL    HW115485   3.908   2.731   7.221  1.4555  0.8725  0.4531
 1342SOL    HW215486   3.807   2.725   7.334  0.8742 -0.3761  1.8917
 1343SOL     OW15487   0.776   3.883  10.792 -0.0919 -0.2939 -0.1066
 1343SOL    HW115488   0.740   3.914  10.875 -0.4684  1.3234 -0.8749
 1343SOL    HW215489   0.773   3.965  10.743 -0.5814 -1.3361 -1.8097
 1344SOL     OW15490   3.644   1.384   1.276  0.1605 -0.3672  0.3119
 1344SOL    HW115491   3.671   1.321   1.343  1.9960  0.6495  0.5399
 1344SOL    HW215492   3.639   1.335   1.194  0.0434 -0.5486  0.4289
 1345SOL     OW15493   0.002   2.836  11.737 -0.4215  0.1061 -0.0056
 1345SOL    HW115494   4.675   2.917  11.754  1.5794  1.3586 -0.3198
 1345SOL    HW215495   0.028   2.827  11.645  0.3151 -2.7165  0.4647
 1346SOL     OW15496   2.594   3.553   5.190 -0.0220 -0.6947 -0.6946
 1346SOL    HW115497   2.600   3.636   5.142 -0.1151 -2.1633 -3.2318
 1346SOL    HW215498   2.518   3.579   5.242  2.6179  3.6146  1.0520
 1347SOL     OW15499   4.130   0.971   4.493 -0.2549 -0.0403  0.0076
 1347SOL    HW115500   4.203   1.012   4.446  1.9160  0.9275  4.2550
 1347SOL    HW215501   4.173   0.911   4.553 -0.9677  0.4980  1.0578
 1348SOL     OW15502   3.660   3.352  16.458 -0.6658 -0.4949  0.1536
 1348SOL    HW115503   3.723   3.331  16.527  0.7499 -1.4369 -1.4493
 1348SOL    HW215504   3.603   3.275  16.459 -1.4166  0.0389 -0.7978
 1349SOL     OW15505   2.901   0.688   7.640  0.5954  0.2172  0.1405
 1349SOL    HW115506   2.890   0.598   7.672  2.1581  0.0930  0.3578
 1349SOL    HW215507   2.992   0.676   7.611 -0.1105 -1.6495 -1.2775
 1350SOL     OW15508   4.220   3.260   6.000  0.3080 -0.4134  0.5933
 1350SOL    HW115509   4.250   3.174   5.969  1.3892  0.3764 -0.5437
 1350SOL    HW215510   4.303   3.292   6.033  1.3050 -0.6299 -1.7132
 1351SOL     OW15511   2.849   2.351  16.576  0.2969  0.1732 -0.3645
 1351SOL    HW115512   2.885   2.392  16.498 -1.5566  1.5308 -0.5238
 1351SOL    HW215513   2.849   2.429  16.632 -0.6620  0.3230 -0.5791
 1352SOL     OW15514   2.928   2.808  10.365 -0.3838  0.1378 -0.7581
 1352SOL    HW115515   2.999   2.785  10.306 -0.5228  1.9722 -1.6239
 1352SOL    HW215516   2.975   2.847  10.439 -0.8828  0.4102 -0.5867
 1353SOL     OW15517   3.639   3.399  10.833 -0.0683 -0.0820 -0.3346
 1353SOL    HW115518   3.609   3.357  10.914 -0.6336 -1.1954 -1.1226
 1353SOL    HW215519   3.633   3.315  10.788 -0.7467 -0.5389  0.5995
 1354SOL     OW15520   2.964   3.509   8.103 -0.6576 -0.0046 -0.7574
 1354SOL    HW115521   2.907   3.487   8.029 -3.1014  2.2824  0.4613
 1354SOL    HW215522   2.906   3.548   8.167 -0.3084  4.0085 -2.9150
 1355SOL     OW15523   3.811   4.712   2.103 -0.0364 -0.0463  0.3355
 1355SOL    HW115524   3.834   4.627   2.143 -0.4089  0.1222  0.9114
 1355SOL    HW215525   3.869   0.057   2.141 -1.0234 -0.2241  2.1435
 1356SOL     OW15526   3.784   2.953   8.067  0.1375 -0.1609 -0.2725
 1356SOL    HW115527   3.740   3.013   8.127 -0.0244 -1.9775  1.4431
 1356SOL    HW215528   3.769   2.876   8.122  0.1483 -0.3693 -0.5561
 1357SOL     OW15529   2.417   1.525  16.051 -1.1122 -0.1873 -0.1687
 1357SOL    HW115530   2.403   1.594  15.987  1.3679 -1.7086 -2.3243
 1357SOL    HW215531   2.381   1.450  16.003 -0.3082 -1.0589  0.5607
 1358SOL     OW15532   0.290   1.180   5.316  0.3980 -0.0728 -0.2376
 1358SOL    HW115533   0.212   1.212   5.361  0.2593 -1.4045  0.4746
 1358SOL    HW215534   0.368   1.222   5.352  0.0195 -0.6329  1.2293
 1359SOL     OW15535   4.067   4.249   6.528 -0.2488 -0.0213 -0.5192
 1359SOL    HW115536   4.142   4.267   6.584  0.4378  0.0477 -1.4695
 1359SOL    HW215537   4.002   4.198   6.578  0.4492  0.0653  0.4609
 1360SOL     OW15538   0.308   2.899  17.666  0.6011 -0.2898 -0.0637
 1360SOL    HW115539   0.392   2.913  17.623  0.5738  0.5840  0.1629
 1360SOL    HW215540   0.338   2.886   0.069 -0.4116 -0.0923  0.3058
 1361SOL     OW15541   2.076   1.769  16.901 -0.2034  0.0235 -0.3122
 1361SOL    HW115542   2.108   1.839  16.958 -1.8082  0.7048 -0.2550
 1361SOL    HW215543   2.029   1.706  16.956  0.5627 -1.4380 -1.3304
 1362SOL     OW15544   3.537   1.366  13.226  0.6954  0.2761 -0.1938
 1362SOL    HW115545   3.586   1.292  13.262  2.0626  0.3051 -1.9434
 1362SOL    HW215546   3.568   1.443  13.274 -1.4771  1.9600 -1.4844
 1363SOL     OW15547   4.070   4.369   1.895  0.2845  0.1485  0.1993
 1363SOL    HW115548   4.098   4.442   1.952 -0.3674 -0.4963  1.3506
 1363SOL    HW215549   4.157   4.336   1.873 -0.4110 -2.3984  1.2988
 1364SOL     OW15550   2.418   0.893   3.209 -0.0282 -0.4793  0.4394
 1364SOL    HW115551   2.361   0.847   3.270  2.3627  0.8401  3.6957
 1364SOL    HW215552   2.365   0.913   3.132  0.4964  0.7233  0.3848
 1365SOL     OW15553   1.843   0.072   9.329  0.1020  0.1700 -0.9622
 1365SOL    HW115554   1.850   0.166   9.342 -0.5821  0.1009 -0.1126
 1365SOL    HW215555   1.792   0.051   9.407 -0.0250  0.0290 -1.0846
 1366SOL     OW15556   0.128   4.059   0.654 -0.5018 -0.4070 -0.6067
 1366SOL    HW115557   0.094   4.071   0.565  1.0784 -1.5076 -1.3672
 1366SOL    HW215558   0.135   3.964   0.648  0.2791 -0.5250  2.1244
 1367SOL     OW15559   3.620   0.352   1.329  0.1807 -0.4589 -0.2342
 1367SOL    HW115560   3.698   0.404   1.307  0.6383  0.7124  4.0035
 1367SOL    HW215561   3.651   0.297   1.400  1.4668 -2.2497 -2.1958
 1368SOL     OW15562   0.378   3.690   0.204 -0.5023  0.2661 -0.2316
 1368SOL    HW115563   0.374   3.710   0.110 -1.0283 -1.7195 -0.6559
 1368SOL    HW215564   0.291   3.649   0.212 -0.1249 -0.5882 -0.4245
 1369SOL     OW15565   2.566   4.102  17.030  0.1827  0.4108  0.0887
 1369SOL    HW115566   2.609   4.034  17.082  1.1818 -0.7625 -2.2892
 1369SOL    HW215567   2.647   4.153  17.023 -0.2358  1.2045  1.0231
 1370SOL     OW15568   2.266   0.443   6.086 -0.1029 -0.5436  0.5418
 1370SOL    HW115569   2.182   0.482   6.109  0.6514 -0.2035  2.7381
 1370SOL    HW215570   2.241   0.359   6.046 -1.5137  0.0911  0.1061
 1371SOL     OW15571   2.511   4.606   8.591 -0.6505  0.1326  0.0915
 1371SOL    HW115572   2.537   4.516   8.613  1.5635  0.2933 -1.9275
 1371SOL    HW215573   2.416   4.607   8.607 -0.8796 -1.0263 -1.1709
 1372SOL     OW15574   2.834   1.228   8.837  0.6570  0.4616  0.3597
 1372SOL    HW115575   2.870   1.153   8.789 -0.7515 -1.0429  1.6304
 1372SOL    HW215576   2.761   1.181   8.879  0.6535 -0.9083 -1.1714
 1373SOL     OW15577   1.364   4.651  16.123  0.2915 -0.1853  0.1747
 1373SOL    HW115578   1.326   4.688  16.203 -1.8378  0.2722 -1.0484
 1373SOL    HW215579   1.453   4.685  16.111  0.4949 -0.8099 -0.1125
 1374SOL     OW15580   2.849   1.109   5.281 -0.0696 -0.3714 -0.0482
 1374SOL    HW115581   2.872   1.171   5.211  0.5710 -1.2810 -0.6542
 1374SOL    HW215582   2.825   1.035   5.225 -1.3812 -0.3195  0.4637
 1375SOL     OW15583   3.587   2.490   6.622 -0.0302  0.0017  0.4426
 1375SOL    HW115584   3.614   2.458   6.708 -0.2552 -0.2163  0.4306
 1375SOL    HW215585   3.491   2.490   6.623 -0.0203 -0.8392  1.0781
 1376SOL     OW15586   4.362   1.568  10.111  0.1747 -0.1730  0.3766
 1376SOL    HW115587   4.408   1.645  10.077  0.3843  0.6175  2.4556
 1376SOL    HW215588   4.389   1.561  10.202  2.7194 -0.6623 -0.4130
 1377SOL     OW15589   3.948   2.141   4.200 -0.0667 -0.4048 -0.5865
 1377SOL    HW115590   3.899   2.116   4.278  0.2358  1.1205  0.0851
 1377SOL    HW215591   4.007   2.211   4.227 -0.7947 -0.3304  0.7987
 1378SOL     OW15592   3.699   3.834   3.538  0.1140  0.2167 -0.3613
 1378SOL    HW115593   3.716   3.796   3.623  2.0993  0.7032 -0.5508
 1378SOL    HW215594   3.732   3.771   3.474 -0.6528 -0.3994 -0.1511
 1379SOL     OW15595   0.503   4.505   3.321 -0.3254 -0.1936  0.3107
 1379SOL    HW115596   0.492   4.558   3.242 -1.0565 -1.2341 -0.2723
 1379SOL    HW215597   0.416   4.472   3.346 -0.7037  0.8135  0.3455
 1380SOL     OW15598   2.295   2.774   9.762  0.2889 -0.4975  0.0292
 1380SOL    HW115599   2.281   2.801   9.853  0.7025  1.8216 -0.5882
 1380SOL    HW215600   2.372   2.719   9.773  1.2053  0.5620 -0.9705
 1381SOL     OW15601   4.626   2.826   0.273  0.5723  0.5407  0.7363
 1381SOL    HW115602   0.000   2.835   0.274  0.8272 -2.2015  1.9802
 1381SOL    HW215603   4.605   2.881   0.348  0.2829 -0.0098  1.0640
 1382SOL     OW15604   4.613   0.508   6.786  0.0355  0.1858 -0.0271
 1382SOL    HW115605   4.541   0.550   6.740 -0.2468 -1.2384 -0.8878
 1382SOL    HW215606   4.572   0.459   6.858  1.3876 -0.0486  0.5801
 1383SOL     OW15607   1.315   1.178  14.698  0.7796  0.5945 -0.3591
 1383SOL    HW115608   1.265   1.176  14.779 -1.4783 -0.6325 -1.7842
 1383SOL    HW215609   1.405   1.173  14.730  0.0231  0.0766  1.7322
 1384SOL     OW15610   4.688   0.823   2.279 -0.4374 -0.2915  0.2097
 1384SOL    HW115611   4.670   0.749   2.337 -1.6437 -0.2630 -0.1464
 1384SOL    HW215612   0.046   0.865   2.314 -0.7464 -1.4389  2.2658
 1385SOL     OW15613   3.556   1.276   8.162  0.0017  0.4433 -0.3255
 1385SOL    HW115614   3.556   1.370   8.146  1.3448  0.3328 -1.0042
 1385SOL    HW215615   3.558   1.242   8.073  0.1710  0.0072 -0.1588
 1386SOL     OW15616   1.490   3.000   6.276 -0.0921  0.7779 -0.3030
 1386SOL    HW115617   1.574   3.023   6.235  1.2261  3.0865  3.5961
 1386SOL    HW215618   1.510   2.941   6.349  1.0003  0.4870 -0.8445
 1387SOL     OW15619   0.043   2.384  11.707 -0.0886 -0.2138  0.2049
 1387SOL    HW115620   0.017   2.298  11.673  0.4424 -0.0319 -0.6386
 1387SOL    HW215621   0.076   2.365  11.795  1.1226  1.7692  0.1761
 1388SOL     OW15622   2.052   0.030   2.703  0.4430 -0.3988  0.1513
 1388SOL    HW115623   1.973   4.699   2.717  1.8188 -2.7298 -0.6263
 1388SOL    HW215624   2.054   0.094   2.774 -3.9244  0.8231 -0.8569
 1389SOL     OW15625   1.926   1.557   0.282  0.1331 -0.9136 -0.1268
 1389SOL    HW115626   1.843   1.527   0.319  0.7082  0.3675  2.2257
 1389SOL    HW215627   1.943   1.633   0.339 -0.5087  0.0901 -1.2790
 1390SOL     OW15628   2.601   0.655  13.235  0.0054 -0.1464  0.1861
 1390SOL    HW115629   2.620   0.742  13.270  0.6494 -0.1264 -0.2131
 1390SOL    HW215630   2.618   0.662  13.141 -0.5928 -0.4161  0.0594
 1391SOL     OW15631   3.552   2.394  17.672 -0.4804  0.1275 -0.0848
 1391SOL    HW115632   3.534   2.381  17.579 -1.1413 -1.2264  0.2343
 1391SOL    HW215633   3.498   2.322   0.016 -1.2991  1.1231  0.7931
 1392SOL     OW15634   0.285   1.406   5.835  0.5779 -0.2550 -0.4965
 1392SOL    HW115635   0.301   1.500   5.850 -1.6005  0.6323 -3.6802
 1392SOL    HW215636   0.345   1.400   5.761  0.4603 -2.3600 -0.4063
 1393SOL     OW15637   1.146   3.986   6.090  0.3308  0.4517 -0.0767
 1393SOL    HW115638   1.147   3.901   6.046  0.8295 -0.6374  2.0419
 1393SOL    HW215639   1.067   3.973   6.144  0.4283  0.7550  0.1367
 1394SOL     OW15640   4.302   2.850   4.164 -0.1461  0.3385 -0.6110
 1394SOL    HW115641   4.348   2.817   4.086 -0.6609 -1.0774 -0.3276
 1394SOL    HW215642   4.213   2.867   4.133 -0.3674 -2.1404 -1.3577
 1395SOL     OW15643   1.074   2.089   6.973  0.0031 -0.7312 -0.7217
 1395SOL    HW115644   1.125   2.081   6.892  3.1066 -2.3353  1.3658
 1395SOL    HW215645   0.987   2.121   6.949 -0.4527 -1.9409 -0.6748
 1396SOL     OW15646   2.794   2.497   8.285 -0.6283 -0.2806 -0.1025
 1396SOL    HW115647   2.727   2.494   8.354 -2.3724  1.1446 -1.7185
 1396SOL    HW215648   2.764   2.416   8.244  2.4755 -1.8339  0.7449
 1397SOL     OW15649   0.657   2.814   7.535 -0.6745 -0.0746  0.3267
 1397SOL    HW115650   0.569   2.828   7.571  0.1944 -1.4362  3.0178
 1397SOL    HW215651   0.708   2.781   7.610  2.3732  1.4070 -1.1134
 1398SOL     OW15652   0.273   0.413   0.801 -0.6242  0.5962 -0.0738
 1398SOL    HW115653   0.242   0.417   0.891  0.8554 -3.5051  0.6227
 1398SOL    HW215654   0.365   0.396   0.818 -0.5797 -1.3538 -2.2144
 1399SOL     OW15655   2.878   4.533   3.399 -0.2047 -0.1304  0.4399
 1399SOL    HW115656   2.799   4.585   3.384 -0.2776 -0.3685 -0.0150
 1399SOL    HW215657   2.900   4.524   3.306 -2.3392  1.2338 -0.1847
 1400SOL     OW15658   4.456   1.380   0.221  0.5952  0.1919 -0.2558
 1400SOL    HW115659   4.474   1.286   0.215  2.1986  0.6527 -2.6460
 1400SOL    HW215660   4.544   1.417   0.218  1.1989 -1.0673  1.5235
 1401SOL     OW15661   4.023   2.183  10.040 -0.0299  0.3925  0.0267
 1401SOL    HW115662   4.082   2.107  10.045 -0.9313 -0.5539 -3.6877
 1401SOL    HW215663   4.058   2.226   9.962  2.9607 -0.9157  0.6352
 1402SOL     OW15664   1.727   2.468   7.006 -0.4557  0.3493 -0.0609
 1402SOL    HW115665   1.718   2.378   7.035 -0.9227  0.7655  1.0545
 1402SOL    HW215666   1.805   2.495   7.053 -0.1875 -1.7965  0.7304
 1403SOL     OW15667   3.987   0.950   3.342 -0.0559 -0.3969  0.3152
 1403SOL    HW115668   4.061   0.913   3.389 -0.5435  0.3345  1.6783
 1403SOL    HW215669   3.914   0.938   3.403 -0.4085 -3.2456 -0.6821
 1404SOL     OW15670   3.756   0.165   8.512 -0.1374  0.4507 -0.0770
 1404SOL    HW115671   3.700   0.133   8.583 -1.1197 -0.5332 -1.2944
 1404SOL    HW215672   3.693   0.194   8.445 -1.7200  0.9688  1.6334
 1405SOL     OW15673   2.319   1.885  12.048  0.5940  0.0228 -0.2442
 1405SOL    HW115674   2.244   1.934  12.015 -0.7576 -1.0452  1.1986
 1405SOL    HW215675   2.326   1.807  11.993  0.9993  1.0335 -1.6281
 1406SOL     OW15676   3.312   1.195   6.084  0.2672 -0.3331 -0.5533
 1406SOL    HW115677   3.269   1.110   6.079  3.3397 -1.9598  0.6909
 1406SOL    HW215678   3.295   1.227   6.172  1.0193  0.5691 -0.7380
 1407SOL     OW15679   0.814   4.615   5.726 -0.5515 -0.0752 -0.2938
 1407SOL    HW115680   0.796   4.603   5.632  1.2027 -2.7124 -0.3002
 1407SOL    HW215681   0.863   4.697   5.723 -0.5655 -0.0702 -0.4093
 1408SOL     OW15682   3.253   1.444   8.416 -0.2680 -0.0167 -0.0545
 1408SOL    HW115683   3.180   1.506   8.416 -0.3094 -0.0660  1.1667
 1408SOL    HW215684   3.223   1.388   8.487 -1.5505  1.8382  0.8507
 1409SOL     OW15685   4.575   4.288  15.435 -0.1639  0.3247 -0.1050
 1409SOL    HW115686   4.588   4.376  15.471 -2.5823 -0.0149  1.6230
 1409SOL    HW215687   4.608   4.230  15.504 -2.7911  1.5827  2.2318
 1410SOL     OW15688   4.498   3.721   5.496 -0.0778 -0.0978 -0.6929
 1410SOL    HW115689   4.585   3.741   5.460  0.4880 -1.3773 -0.0426
 1410SOL    HW215690   4.474   3.809   5.523  1.8007 -0.1035  1.0002
 1411SOL     OW15691   0.548   4.297   4.837 -0.0075  0.0964  0.1284
 1411SOL    HW115692   0.632   4.335   4.863 -0.6173  2.4430 -1.3524
 1411SOL    HW215693   0.572   4.291   4.745 -0.1056  2.8523 -0.0739
 1412SOL     OW15694   2.844   2.823   2.092 -0.2106 -0.6537 -0.0417
 1412SOL    HW115695   2.770   2.764   2.106 -0.8608  0.7370  2.3121
 1412SOL    HW215696   2.855   2.859   2.180  0.4809 -0.1817 -0.3230
 1413SOL     OW15697   0.657   3.996   8.385 -0.0398 -0.7260 -0.3545
 1413SOL    HW115698   0.745   3.962   8.365  0.5384  1.8066 -2.2300
 1413SOL    HW215699   0.614   3.974   8.302  1.9258  1.5813 -1.9792
 1414SOL     OW15700   1.691   0.505   3.784 -0.2895 -0.7707  0.0549
 1414SOL    HW115701   1.653   0.592   3.786  0.6111 -0.3523 -1.3479
 1414SOL    HW215702   1.657   0.478   3.699  1.1033 -2.3027 -0.0234
 1415SOL     OW15703   3.770   2.431  15.178 -0.2236 -0.1845 -0.2967
 1415SOL    HW115704   3.815   2.379  15.111 -0.2343  0.7570 -1.0398
 1415SOL    HW215705   3.843   2.485  15.210 -2.0114  3.0926 -1.8176
 1416SOL     OW15706   0.488   1.764  10.049  0.3166  0.4460  0.2439
 1416SOL    HW115707   0.549   1.814   9.995 -0.9042 -0.1074 -1.6136
 1416SOL    HW215708   0.434   1.724   9.981 -0.4715 -1.0988  1.7729
 1417SOL     OW15709   2.906   0.746  12.314  0.1720  0.0770  0.2111
 1417SOL    HW115710   2.823   0.768  12.358  2.4123  2.0551  3.4601
 1417SOL    HW215711   2.939   0.831  12.287 -0.0980  0.3962  0.8920
 1418SOL     OW15712   0.146   2.343   7.697  0.5927  0.0231  0.3275
 1418SOL    HW115713   0.160   2.436   7.718  0.8755  0.0196  0.1586
 1418SOL    HW215714   0.197   2.347   7.616  0.1330 -1.7412 -0.0443
 1419SOL     OW15715   1.255   2.484   2.718 -0.1928  0.1048  0.3717
 1419SOL    HW115716   1.224   2.455   2.632  3.3377 -0.4125 -0.7309
 1419SOL    HW215717   1.348   2.493   2.699 -0.0718  0.6908  1.2731
 1420SOL     OW15718   3.721   0.259   6.842  0.0810  0.5009  0.3628
 1420SOL    HW115719   3.719   0.354   6.836 -2.3684  0.3990 -0.4777
 1420SOL    HW215720   3.796   0.247   6.900  0.9021  0.9814 -0.6010
 1421SOL     OW15721   3.904   2.240   4.665  0.2374 -0.2303  0.1235
 1421SOL    HW115722   3.868   2.189   4.593  2.3888 -0.7892 -0.5666
 1421SOL    HW215723   3.964   2.298   4.619  0.9980 -1.8502 -0.9270
 1422SOL     OW15724   0.790   4.198   5.559 -0.0434 -0.2096 -0.0310
 1422SOL    HW115725   0.836   4.170   5.638  0.4912 -0.5294 -0.4566
 1422SOL    HW215726   0.703   4.219   5.592  0.7347  1.1928  1.1706
 1423SOL     OW15727   0.147   1.174   1.965  0.1951 -0.2109 -0.3264
 1423SOL    HW115728   0.239   1.150   1.977  0.5584  0.7732 -1.1397
 1423SOL    HW215729   0.150   1.257   1.917  1.9187 -2.1200 -3.4809
 1424SOL     OW15730   1.899   1.655   7.625  0.8506 -0.6306 -0.0521
 1424SOL    HW115731   1.854   1.573   7.605 -1.0637  0.5546 -0.5494
 1424SOL    HW215732   1.984   1.628   7.659  1.2757  1.8306  0.8302
 1425SOL     OW15733   2.353   4.040   8.734 -0.0600  0.1089  0.0933
 1425SOL    HW115734   2.435   3.995   8.754  0.4645  1.2744  0.6174
 1425SOL    HW215735   2.290   3.974   8.762  1.0377 -1.1437 -0.3655
 1426SOL     OW15736   4.607   1.713   2.762  0.3537  0.4646 -0.5006
 1426SOL    HW115737   4.585   1.631   2.807 -2.9023  1.2944 -0.5681
 1426SOL    HW215738   4.641   1.673   2.683  3.1336  0.4087  0.7350
 1427SOL     OW15739   3.819   0.762   8.708  0.6608  0.0554  0.2192
 1427SOL    HW115740   3.900   0.748   8.660  1.9051 -0.9492  2.6279
 1427SOL    HW215741   3.864   0.787   8.788 -0.2078 -0.7295  0.9577
 1428SOL     OW15742   4.152   0.348   1.853 -0.2920 -0.3558  0.2461
 1428SOL    HW115743   4.062   0.320   1.836 -0.4205  0.5049 -0.4720
 1428SOL    HW215744   4.177   0.268   1.899  0.2166 -0.7655 -0.7592
 1429SOL     OW15745   1.557   0.831   6.463 -0.0401  0.1826 -0.1762
 1429SOL    HW115746   1.535   0.904   6.405  0.8619 -0.2806 -1.1081
 1429SOL    HW215747   1.574   0.878   6.545  1.4341 -0.2517 -0.2229
 1430SOL     OW15748   2.814   3.671   1.680  0.2289  0.5275 -0.5384
 1430SOL    HW115749   2.808   3.595   1.738  1.2234  0.8836  0.0355
 1430SOL    HW215750   2.785   3.641   1.594  1.5696 -0.3642 -0.6715
 1431SOL     OW15751   2.145   3.482   9.872 -0.1922 -0.4739  0.0498
 1431SOL    HW115752   2.236   3.457   9.890 -0.2265 -0.4814  0.2115
 1431SOL    HW215753   2.117   3.417   9.807  0.8087 -0.2360 -0.6209
 1432SOL     OW15754   0.461   1.977   6.984 -0.2565  0.1157  0.0208
 1432SOL    HW115755   0.428   1.917   7.051  2.3942 -1.4328 -0.0404
 1432SOL    HW215756   0.393   1.957   6.920 -0.4017 -0.4883  0.3677
 1433SOL     OW15757   4.203   2.268   1.071  0.2298  0.2095 -0.0823
 1433SOL    HW115758   4.241   2.226   1.148  1.1981  1.2164  0.0032
 1433SOL    HW215759   4.172   2.194   1.019 -1.0352  0.1981  0.7030
 1434SOL     OW15760   0.296   4.307   8.443 -0.7034 -0.5337 -0.0950
 1434SOL    HW115761   0.385   4.301   8.479 -0.8285 -0.7369  0.1810
 1434SOL    HW215762   0.251   4.340   8.520 -0.8255  3.0605 -1.7099
 1435SOL     OW15763   3.870   2.948  14.274  0.1499  0.1402 -0.5089
 1435SOL    HW115764   3.913   3.022  14.317 -1.0639  0.2756  0.4768
 1435SOL    HW215765   3.809   2.908  14.335  1.8062 -0.6637  0.6089
 1436SOL     OW15766   4.716   3.235   5.929  0.2127  0.2901  0.1285
 1436SOL    HW115767   4.667   3.155   5.948 -0.1083  0.4464 -0.0510
 1436SOL    HW215768   4.645   3.283   5.886  1.5454  0.6830 -1.6163
 1437SOL     OW15769   0.147   2.673   8.104  0.3085 -0.5050 -0.0675
 1437SOL    HW115770   0.240   2.684   8.083  0.4910 -2.4291 -0.3312
 1437SOL    HW215771   0.100   2.741   8.056  2.0046  1.4824  1.0658
 1438SOL     OW15772   2.430   3.567   4.037  0.1100  0.0706  0.2666
 1438SOL    HW115773   2.492   3.518   4.093 -0.3960 -0.4930  0.3382
 1438SOL    HW215774   2.446   3.539   3.947  0.8073  1.1475  0.0547
 1439SOL     OW15775   0.213   0.730  14.846  0.1721  0.0757  0.2421
 1439SOL    HW115776   0.232   0.771  14.762 -0.1344 -0.4773 -0.0913
 1439SOL    HW215777   0.208   0.638  14.820  3.2691  0.3094 -1.2329
 1440SOL     OW15778   1.123   1.034   1.086 -0.4411  0.0664 -0.2948
 1440SOL    HW115779   1.120   1.069   0.996 -0.4997  2.1253  0.5116
 1440SOL    HW215780   1.215   1.029   1.111 -1.0371 -1.8276  1.4640
 1441SOL     OW15781   0.501   1.650  14.235  0.0104 -0.5887 -0.2724
 1441SOL    HW115782   0.503   1.613  14.323  0.6006  1.2135  0.4633
 1441SOL    HW215783   0.544   1.735  14.246 -1.0769  0.1496 -1.7171
 1442SOL     OW15784   3.609   1.275  13.581 -0.0313 -0.0585 -0.0832
 1442SOL    HW115785   3.622   1.232  13.496  2.9689  0.5699  0.0513
 1442SOL    HW215786   3.682   1.237  13.629 -0.1841 -0.1436  0.0792
 1443SOL     OW15787   2.651   4.322   8.283 -0.6175  0.4542 -0.6982
 1443SOL    HW115788   2.678   4.232   8.267 -2.4326 -0.1908 -0.0756
 1443SOL    HW215789   2.705   4.339   8.361 -3.8035  1.2870  1.3161
 1444SOL     OW15790   3.507   0.244  11.759  0.1854 -0.5532 -0.0752
 1444SOL    HW115791   3.602   0.246  11.765  0.0173  0.2217  2.5402
 1444SOL    HW215792   3.487   0.160  11.717  0.5787 -0.4577 -0.4421
 1445SOL     OW15793   0.150   0.363   8.442  0.4477  0.5283 -0.4121
 1445SOL    HW115794   0.078   0.304   8.464  0.0879  2.1236  2.6302
 1445SOL    HW215795   0.175   0.380   8.533  0.8502  0.9571 -0.6031
 1446SOL     OW15796   3.875   1.829  10.097 -0.0608  0.3169  0.8761
 1446SOL    HW115797   3.921   1.913  10.100  0.8816 -0.1055 -1.4894
 1446SOL    HW215798   3.946   1.769  10.117 -1.0286 -0.7401  1.1287
 1447SOL     OW15799   3.698   2.735   1.378 -0.2415 -0.5390 -0.1977
 1447SOL    HW115800   3.758   2.671   1.339  1.7653  0.8053  0.7405
 1447SOL    HW215801   3.761   2.804   1.396 -1.5850  0.5799  0.2104
 1448SOL     OW15802   1.697   3.174  17.031 -0.3813 -0.2734  0.1393
 1448SOL    HW115803   1.629   3.199  16.970  0.6144 -0.4051 -1.0335
 1448SOL    HW215804   1.743   3.257  17.044  0.7457 -0.5838 -1.9219
 1449SOL     OW15805   4.031   2.365   6.785 -0.1589  0.0387 -0.3998
 1449SOL    HW115806   4.023   2.379   6.879  2.4452 -1.4351  0.0584
 1449SOL    HW215807   4.076   2.280   6.784  0.7309  0.5099 -0.0551
 1450SOL     OW15808   3.625   0.626  10.039  0.2280 -0.0122 -0.7027
 1450SOL    HW115809   3.594   0.655   9.953 -2.8128 -1.1799  0.0057
 1450SOL    HW215810   3.602   0.697  10.098 -1.4789 -0.8109 -0.4013
 1451SOL     OW15811   3.665   0.090   9.805  0.0911 -0.4332  0.0670
 1451SOL    HW115812   3.640   0.070   9.715  2.6461 -1.9485 -0.3083
 1451SOL    HW215813   3.619   0.019   9.849  0.3023 -0.8496 -0.3798
 1452SOL     OW15814   1.847   3.355   6.843 -0.2716  0.2025  0.5778
 1452SOL    HW115815   1.849   3.451   6.837  0.5870  0.2068  0.8302
 1452SOL    HW215816   1.932   3.347   6.888 -0.9114 -2.9102  1.2103
 1453SOL     OW15817   0.115   1.703  16.248 -0.3134 -0.0632 -0.7364
 1453SOL    HW115818   0.134   1.609  16.239 -1.3241 -0.4340  0.8974
 1453SOL    HW215819   0.078   1.700  16.336 -0.5371  2.9561 -0.7514
 1454SOL     OW15820   0.644   3.986   4.791 -0.2004 -0.1438  0.2307
 1454SOL    HW115821   0.556   3.961   4.762 -0.1970  1.5862 -1.2876
 1454SOL    HW215822   0.627   3.996   4.885  0.9131  0.2847  0.3796
 1455SOL     OW15823   2.137   1.808   9.562  0.4608  0.2397  0.0042
 1455SOL    HW115824   2.048   1.823   9.594 -0.1066 -0.1793 -1.4009
 1455SOL    HW215825   2.166   1.899   9.558  1.8003 -0.1838  0.0021
 1456SOL     OW15826   2.291   3.734  10.332 -0.6759 -0.2240 -0.3329
 1456SOL    HW115827   2.257   3.724  10.242 -0.5411  1.8513 -0.6147
 1456SOL    HW215828   2.384   3.737  10.309 -0.6810 -0.3521 -0.3703
 1457SOL     OW15829   1.475   4.669   5.293 -0.3914 -0.1944  0.0619
 1457SOL    HW115830   1.435   0.032   5.269  0.1249 -0.4868 -1.7964
 1457SOL    HW215831   1.471   4.681   5.388 -0.1949  2.5821 -0.2692
 1458SOL     OW15832   1.463   3.502   4.670 -0.0238 -0.4328 -0.2146
 1458SOL    HW115833   1.486   3.429   4.613 -0.6873 -1.8020  1.2897
 1458SOL    HW215834   1.409   3.452   4.731 -1.4822  0.1043 -1.0483
 1459SOL     OW15835   3.426   0.945   4.228 -1.0658  0.0717 -0.1325
 1459SOL    HW115836   3.520   0.956   4.242 -1.1326  0.9875 -0.4599
 1459SOL    HW215837   3.386   0.953   4.315 -1.7420  0.6589 -0.5028
 1460SOL     OW15838   1.984   3.033   4.598 -0.3115  0.6769  0.1017
 1460SOL    HW115839   2.075   3.004   4.602 -0.3237  0.3843 -1.7482
 1460SOL    HW215840   1.949   2.961   4.545 -1.1809  1.9782 -1.0789
 1461SOL     OW15841   1.735   3.069  13.844 -0.1120 -0.9169 -0.1369
 1461SOL    HW115842   1.747   3.029  13.758  0.8063 -2.1620  0.5748
 1461SOL    HW215843   1.724   3.001  13.910  1.5312 -1.1800 -0.1439
 1462SOL     OW15844   3.692   2.501   7.724  0.1426 -0.2059  0.5894
 1462SOL    HW115845   3.685   2.572   7.787  1.0910  1.6450 -1.3795
 1462SOL    HW215846   3.771   2.525   7.675  0.6847  0.6485  1.9207
 1463SOL     OW15847   3.975   3.156   6.556 -0.0706  0.0388  0.2438
 1463SOL    HW115848   4.049   3.174   6.498 -0.5497 -0.5874 -0.5559
 1463SOL    HW215849   3.944   3.078   6.510 -0.2439  0.7978 -0.9516
 1464SOL     OW15850   1.487   2.979   8.916  0.3519 -0.9291  0.0024
 1464SOL    HW115851   1.417   2.961   8.853  0.8142  2.3691 -1.4731
 1464SOL    HW215852   1.533   2.895   8.924 -1.4948 -2.1540 -2.1443
 1465SOL     OW15853   2.055   4.374   4.725 -0.6048  0.7260 -0.0627
 1465SOL    HW115854   2.086   4.337   4.643 -0.0950  1.8439 -0.3698
 1465SOL    HW215855   2.071   4.300   4.784 -0.7764  0.7372 -0.0019
 1466SOL     OW15856   1.173   2.052   2.181 -0.4948  0.2333 -0.1376
 1466SOL    HW115857   1.212   2.063   2.094  0.2990 -0.1934  0.1641
 1466SOL    HW215858   1.139   1.963   2.176  0.8491 -0.3386  1.0349
 1467SOL     OW15859   0.664   3.815   9.436  0.0401 -0.6629 -0.6413
 1467SOL    HW115860   0.738   3.876   9.432  0.2001 -1.0406 -3.0959
 1467SOL    HW215861   0.589   3.875   9.446  2.3239  1.8340  1.4652
 1468SOL     OW15862   2.629   0.059   8.382 -0.0494 -0.1295 -0.3091
 1468SOL    HW115863   2.602   4.700   8.428 -0.6858  0.6808  0.7276
 1468SOL    HW215864   2.702   0.034   8.326  0.6886 -1.2740  1.1621
 1469SOL     OW15865   0.369   1.518   5.204  0.0117 -0.3563 -0.3573
 1469SOL    HW115866   0.342   1.458   5.133 -0.9561 -2.6447  1.9450
 1469SOL    HW215867   0.336   1.598   5.163 -2.3225  0.1426  2.5479
 1470SOL     OW15868   1.116   2.164  15.281  0.0107  0.1919 -0.1879
 1470SOL    HW115869   1.172   2.089  15.264 -0.9755 -0.6736  0.3956
 1470SOL    HW215870   1.175   2.237  15.261  2.1328 -1.4322  0.2457
 1471SOL     OW15871   0.117   3.672   4.051  0.2225  0.1456  0.0180
 1471SOL    HW115872   0.182   3.629   4.106  0.4373  0.7124  0.2005
 1471SOL    HW215873   0.034   3.668   4.098 -0.1030  0.7889 -0.4947
 1472SOL     OW15874   3.120   1.335   1.567  0.4707  0.0280  0.2879
 1472SOL    HW115875   3.099   1.242   1.558  0.5108  0.3067 -2.7119
 1472SOL    HW215876   3.030   1.367   1.578  0.3703  0.0887 -0.7060
 1473SOL     OW15877   4.201   0.614   5.089  0.4956  0.2966 -0.1486
 1473SOL    HW115878   4.222   0.672   5.016  0.7327  0.1264 -0.2125
 1473SOL    HW215879   4.118   0.576   5.059  1.2805 -2.2514  0.8895
 1474SOL     OW15880   3.212   4.346   2.539 -0.2473 -0.1600  0.6567
 1474SOL    HW115881   3.297   4.390   2.540 -0.1268 -0.4036  0.9175
 1474SOL    HW215882   3.241   4.255   2.547 -1.4270 -0.5837  0.1651
 1475SOL     OW15883   2.937   4.587   7.007 -0.4294  0.0936  0.3200
 1475SOL    HW115884   2.899   4.569   6.921 -0.2465  1.2724 -0.0097
 1475SOL    HW215885   3.031   4.593   6.987 -0.3302 -1.4507  0.3201
 1476SOL     OW15886   4.172   2.401   6.089  0.2051  0.2877 -0.0133
 1476SOL    HW115887   4.249   2.450   6.117 -0.5044  0.8299  1.0113
 1476SOL    HW215888   4.140   2.477   6.041 -2.5066 -0.5432  0.4500
 1477SOL     OW15889   1.847   4.378   7.959  0.0413 -0.3153 -0.2460
 1477SOL    HW115890   1.861   4.316   7.887  0.1424  0.0071 -0.5063
 1477SOL    HW215891   1.764   4.350   7.996  1.1787 -0.0439  2.5161
 1478SOL     OW15892   2.890   4.161   5.261 -0.0362  0.1241 -0.2199
 1478SOL    HW115893   2.928   4.127   5.342 -0.8156 -0.4535 -0.0962
 1478SOL    HW215894   2.913   4.084   5.208 -0.7359  0.8640 -1.5898
 1479SOL     OW15895   2.492   0.626  12.848  0.4717 -0.0125  0.0194
 1479SOL    HW115896   2.494   0.553  12.910 -0.7624  0.4685  0.6404
 1479SOL    HW215897   2.438   0.593  12.776 -0.2308  2.6060 -0.6473
 1480SOL     OW15898   2.323   2.138  16.253 -0.2627  0.1535 -0.0486
 1480SOL    HW115899   2.294   2.160  16.165  0.4559  0.6178 -0.1714
 1480SOL    HW215900   2.271   2.191  16.314 -0.8346 -0.2055 -0.2265
 1481SOL     OW15901   2.612   1.188   6.411 -0.7022 -0.0570  0.2681
 1481SOL    HW115902   2.679   1.246   6.375 -0.0538 -0.9309  0.0686
 1481SOL    HW215903   2.626   1.201   6.505 -0.5886 -0.6147  0.3294
 1482SOL     OW15904   4.343   3.988  13.141 -0.0970 -0.1675 -0.2108
 1482SOL    HW115905   4.368   3.986  13.048  0.0881 -0.2002 -0.1594
 1482SOL    HW215906   4.281   4.061  13.141  1.0066  0.7912 -1.6168
 1483SOL     OW15907   3.436   2.375   2.258 -0.1361 -0.0021 -0.3079
 1483SOL    HW115908   3.421   2.355   2.351  3.5001  2.0387  0.7295
 1483SOL    HW215909   3.415   2.466   2.282  0.3032 -0.3553  1.4557
 1484SOL     OW15910   4.678   2.039   4.813  0.2215 -0.1049 -0.1533
 1484SOL    HW115911   0.026   2.096   4.776 -0.2862  0.4451 -0.2556
 1484SOL    HW215912   4.714   2.029   4.901 -1.0026 -2.6834  0.0310
 1485SOL     OW15913   4.246   2.531   0.994  0.2200 -0.5012 -0.2382
 1485SOL    HW115914   4.227   2.495   0.907  0.9721 -1.0181 -0.1920
 1485SOL    HW215915   4.249   2.451   1.048  0.6348  0.6384  1.4202
 1486SOL     OW15916   0.666   2.183   3.233 -0.2166 -0.4254 -0.1750
 1486SOL    HW115917   0.586   2.236   3.234  0.3961  0.4720  0.7436
 1486SOL    HW215918   0.683   2.176   3.327 -1.7236 -0.6964  0.0853
 1487SOL     OW15919   2.203   0.722  15.065 -0.3371 -0.4767  0.3637
 1487SOL    HW115920   2.246   0.682  14.989  0.1365 -0.0810  0.4195
 1487SOL    HW215921   2.110   0.720  15.044 -0.3391  1.8990  0.1133
 1488SOL     OW15922   3.121   4.022   5.809 -0.0878 -0.0528  0.3147
 1488SOL    HW115923   3.187   4.086   5.781  0.2968 -0.7496 -0.3730
 1488SOL    HW215924   3.111   4.047   5.901  3.9983  3.8055 -0.2807
 1489SOL     OW15925   2.498   4.304   1.400 -0.1834  0.0738 -0.4554
 1489SOL    HW115926   2.591   4.319   1.386 -0.3966  0.9646 -0.9527
 1489SOL    HW215927   2.462   4.363   1.334 -0.5990  0.0452 -0.2540
 1490SOL     OW15928   3.431   1.882   4.211  0.1750 -0.0361  0.2937
 1490SOL    HW115929   3.403   1.792   4.199  1.3440 -0.3075 -0.3828
 1490SOL    HW215930   3.345   1.921   4.196  0.0236 -0.3896  0.2543
 1491SOL     OW15931   1.867   3.125  12.642 -0.9225  0.7375  0.1705
 1491SOL    HW115932   1.944   3.073  12.666 -1.6306 -0.2273  0.3379
 1491SOL    HW215933   1.802   3.108  12.710 -0.0854  0.6159  0.9505
 1492SOL     OW15934   1.690   3.637  14.097  0.6708  0.5872 -0.0885
 1492SOL    HW115935   1.709   3.708  14.036 -2.1883  3.5368  2.4595
 1492SOL    HW215936   1.781   3.615  14.117  0.0501 -2.2136 -0.3211
 1493SOL     OW15937   3.344   2.699   6.771  0.1874 -0.2001 -0.1443
 1493SOL    HW115938   3.284   2.655   6.711 -0.5689  0.0715  0.4165
 1493SOL    HW215939   3.304   2.785   6.783 -1.3819 -0.3351 -4.6606
 1494SOL     OW15940   1.993   3.997  12.716 -0.5017  0.5366  0.3685
 1494SOL    HW115941   2.061   3.956  12.661  0.1773 -1.3044  2.5776
 1494SOL    HW215942   2.044   4.060  12.767  0.3539  1.6518 -1.8316
 1495SOL     OW15943   3.445   2.838   3.627 -0.6846 -0.4929 -0.0648
 1495SOL    HW115944   3.390   2.760   3.629 -1.2329 -0.1117 -0.1139
 1495SOL    HW215945   3.461   2.849   3.533 -2.1877  0.4521 -0.2122
 1496SOL     OW15946   0.911   0.692   6.865  0.0659  0.1600  0.1780
 1496SOL    HW115947   0.867   0.623   6.916  0.7862 -0.4610 -0.0411
 1496SOL    HW215948   0.927   0.757   6.934  0.1957 -0.1473  0.4411
 1497SOL     OW15949   3.412   3.350   1.926 -0.4811 -0.4918 -0.4827
 1497SOL    HW115950   3.379   3.409   1.858 -1.3289 -0.4278 -0.0237
 1497SOL    HW215951   3.424   3.414   1.996  1.2661 -0.6032 -0.6969
 1498SOL     OW15952   0.386   2.958   0.231  0.0852 -0.2147 -0.2974
 1498SOL    HW115953   0.438   2.937   0.308  1.5141  0.6910 -1.0066
 1498SOL    HW215954   0.426   3.037   0.193 -1.9698 -0.4310 -2.8899
 1499SOL     OW15955   3.155   1.523   4.000  0.2077  0.0598 -0.0413
 1499SOL    HW115956   3.128   1.469   4.074  0.4297 -0.2993 -0.2242
 1499SOL    HW215957   3.160   1.459   3.929  2.2662  0.3814 -0.1828
 1500SOL     OW15958   2.231   4.105   4.675 -0.3340  0.6088  0.8255
 1500SOL    HW115959   2.265   4.042   4.612 -2.7917  1.4009 -1.3105
 1500SOL    HW215960   2.230   4.171   4.606  0.8560  0.0116  0.2281
 1501SOL     OW15961   4.591   4.533   3.690  0.0584  0.8900  0.3564
 1501SOL    HW115962   4.634   4.586   3.623  0.0989 -1.0618 -1.1542
 1501SOL    HW215963   4.506   4.530   3.647 -0.1578 -3.5189  1.1054
 1502SOL     OW15964   1.173   0.240  16.103  0.0859 -0.0347 -0.7191
 1502SOL    HW115965   1.151   0.243  16.196 -0.0305  3.8196 -0.8831
 1502SOL    HW215966   1.225   0.320  16.094 -1.6065  1.3809  2.1382
 1503SOL     OW15967   4.683   4.572   4.090 -0.2051  0.1461  0.0943
 1503SOL    HW115968   4.682   4.646   4.029  0.7230  0.0106 -0.0929
 1503SOL    HW215969   4.607   4.525   4.055 -0.8520  0.6487  0.8190
 1504SOL     OW15970   3.052   3.803   2.474 -0.1266  0.1229  0.3320
 1504SOL    HW115971   2.970   3.775   2.433  0.0938  0.4069 -0.3093
 1504SOL    HW215972   3.076   3.724   2.523 -0.4106  1.4967  2.6176
 1505SOL     OW15973   1.427   2.996   8.009 -0.6111 -0.0195  0.2375
 1505SOL    HW115974   1.367   3.068   8.031 -0.0728  0.6357 -0.4073
 1505SOL    HW215975   1.362   2.938   7.969 -1.8004  0.6921  1.1205
 1506SOL     OW15976   0.373   1.754   2.260  0.2528  0.2471 -0.3765
 1506SOL    HW115977   0.323   1.802   2.327  0.1857  0.8128 -0.8321
 1506SOL    HW215978   0.336   1.666   2.266  0.7486 -0.0699 -1.9301
 1507SOL     OW15979   4.297   1.696  14.641  0.7435  0.4603  0.3492
 1507SOL    HW115980   4.207   1.694  14.610  0.7325  2.5394  0.2184
 1507SOL    HW215981   4.282   1.774  14.696 -1.5662  0.2440  0.0047
 1508SOL     OW15982   3.038   0.303   6.981 -0.4775 -0.7185  0.6855
 1508SOL    HW115983   3.108   0.319   7.044 -0.6388 -3.2078  1.4911
 1508SOL    HW215984   2.967   0.360   7.012 -0.2771 -0.2971  0.3679
 1509SOL     OW15985   3.759   2.956   1.990  0.2850  0.1603 -0.6100
 1509SOL    HW115986   3.735   3.048   1.999 -0.4994 -0.1057  0.0848
 1509SOL    HW215987   3.767   2.958   1.895  1.3127 -1.2490 -0.5528
 1510SOL     OW15988   3.699   1.854   7.840 -0.0696  0.9048  0.3521
 1510SOL    HW115989   3.667   1.764   7.843 -0.0888  0.9424  1.1375
 1510SOL    HW215990   3.793   1.837   7.848 -0.1525  0.4379  0.3250
 1511SOL     OW15991   0.745   4.291  16.032  0.4445  0.4560 -0.0709
 1511SOL    HW115992   0.689   4.226  16.073 -0.1807  0.4379 -0.9581
 1511SOL    HW215993   0.690   4.369  16.025 -0.6400 -0.3285 -0.1467
 1512SOL     OW15994   2.254   2.428   4.997 -0.7214  0.2347 -0.7356
 1512SOL    HW115995   2.240   2.334   5.008 -0.1446  0.1717 -0.5497
 1512SOL    HW215996   2.285   2.449   5.085 -2.5909 -0.2773  0.0554
 1513SOL     OW15997   3.222   0.644   6.797 -0.5434 -0.0005 -0.8207
 1513SOL    HW115998   3.197   0.686   6.879 -3.3921 -0.2555 -1.5567
 1513SOL    HW215999   3.276   0.712   6.757  0.2092 -0.2319 -0.1922
 1514SOL     OW16000   3.799   1.744   2.614  0.0843  1.0577 -0.1255
 1514SOL    HW116001   3.893   1.756   2.599  0.3375 -0.1788  0.5002
 1514SOL    HW216002   3.785   1.799   2.691  1.7749  1.1798  0.0896
 1515SOL     OW16003   1.675   4.375  11.473 -0.1560 -0.2600 -0.3397
 1515SOL    HW116004   1.658   4.428  11.395 -0.8821  1.0380  0.7114
 1515SOL    HW216005   1.588   4.344  11.498 -0.5753  1.7310  0.6378
 1516SOL     OW16006   2.689   0.309   6.729 -0.0905 -0.6496  0.5967
 1516SOL    HW116007   2.728   0.234   6.773  0.5999 -0.4942  0.2403
 1516SOL    HW216008   2.747   0.328   6.656 -1.0554  1.1673  0.3044
 1517SOL     OW16009   2.922   0.200   5.988  0.2921  0.0166 -0.2408
 1517SOL    HW116010   3.016   0.199   5.972  0.3630  0.1248  0.1678
 1517SOL    HW216011   2.895   0.114   5.954 -0.2994  0.7109 -1.5287
 1518SOL     OW16012   1.413   0.591   5.390 -0.3424  0.1401 -0.1999
 1518SOL    HW116013   1.419   0.582   5.295 -0.6396  1.5624 -0.3573
 1518SOL    HW216014   1.481   0.656   5.404 -0.1070 -0.4980  1.6682
 1519SOL     OW16015   4.345   2.721   0.268 -0.2551  0.1264  0.3477
 1519SOL    HW116016   4.429   2.765   0.261  1.5884 -3.5885 -0.8875
 1519SOL    HW216017   4.313   2.696   0.181 -0.2196 -1.8917  0.9173
 1520SOL     OW16018   3.520   1.830   0.543 -0.3105  0.1443 -0.9872
 1520SOL    HW116019   3.508   1.849   0.636  0.3032 -0.2906 -0.8187
 1520SOL    HW216020   3.591   1.766   0.549 -0.3060  0.3420  0.9680
 1521SOL     OW16021   2.625   3.962   4.120  0.1480 -0.3771 -0.1599
 1521SOL    HW116022   2.576   3.896   4.168 -0.2947 -0.7793 -1.1698
 1521SOL    HW216023   2.696   3.901   4.103  0.6761  0.7938 -2.2880
 1522SOL     OW16024   1.052   0.473   8.409 -0.6881  0.1671 -0.4209
 1522SOL    HW116025   1.080   0.465   8.500  0.0484  0.3819 -0.6361
 1522SOL    HW216026   1.091   0.391   8.378  3.3613  0.8013  3.0473
 1523SOL     OW16027   2.938   0.453  12.596 -0.6498 -0.0197 -0.5357
 1523SOL    HW116028   2.892   0.527  12.636 -1.1028 -1.4185  1.5808
 1523SOL    HW216029   2.961   0.487  12.510 -0.3571  1.9729  0.3397
 1524SOL     OW16030   3.320   1.616  10.427 -0.0255 -0.2039 -0.1132
 1524SOL    HW116031   3.301   1.639  10.518  1.1716  0.0855  0.0598
 1524SOL    HW216032   3.237   1.639  10.385  0.2275  1.5876  0.3882
 1525SOL     OW16033   2.583   2.024   0.546  0.1594  0.1469 -0.0616
 1525SOL    HW116034   2.644   1.957   0.515 -0.7527 -0.9009  0.3878
 1525SOL    HW216035   2.509   2.028   0.485 -0.4940  2.0654  0.8601
 1526SOL     OW16036   1.500   2.978  14.922  0.1012  0.1729 -0.7378
 1526SOL    HW116037   1.526   3.003  15.011  2.9631 -2.4078 -0.8424
 1526SOL    HW216038   1.555   3.038  14.872  1.8649  1.7202  3.0192
 1527SOL     OW16039   0.659   4.153  13.515  0.0679 -0.0000  0.4502
 1527SOL    HW116040   0.654   4.132  13.422  1.4106 -2.9233  1.0426
 1527SOL    HW216041   0.613   4.237  13.507  0.7875  0.2476 -1.1040
 1528SOL     OW16042   1.440   4.072   4.775  0.2973 -0.1822 -0.2181
 1528SOL    HW116043   1.501   4.074   4.702  2.5198  0.6405  1.6562
 1528SOL    HW216044   1.478   4.147   4.820  2.0965 -0.1941 -1.7251
 1529SOL     OW16045   2.171   3.118   9.952 -0.8894  0.1126 -0.0142
 1529SOL    HW116046   2.092   3.064   9.953 -0.4558 -0.5984 -3.3921
 1529SOL    HW216047   2.183   3.127  10.046 -0.3739  0.5951 -0.1252
 1530SOL     OW16048   3.118   3.316   8.408  0.2876 -0.7224 -0.0002
 1530SOL    HW116049   3.140   3.409   8.412  1.5766 -1.0623  0.6424
 1530SOL    HW216050   3.022   3.321   8.413  0.2871 -1.5131  0.7869
 1531SOL     OW16051   3.346   0.110   4.888  0.1577 -0.4044 -0.4173
 1531SOL    HW116052   3.385   0.174   4.828  0.5815  0.7904  1.1425
 1531SOL    HW216053   3.419   0.083   4.944  0.4469 -0.3864 -0.7807
 1532SOL     OW16054   4.223   1.605  17.466  0.3746  0.3711  0.3344
 1532SOL    HW116055   4.299   1.647  17.506  0.4814  0.5269 -0.0338
 1532SOL    HW216056   4.213   1.666  17.393 -0.8045  0.2247  0.3737
 1533SOL     OW16057   3.746   4.237   2.810  0.2126  0.3677 -0.1113
 1533SOL    HW116058   3.707   4.303   2.753 -0.5199  1.0772  1.2404
 1533SOL    HW216059   3.819   4.289   2.844  2.0254 -1.2518 -1.4614
 1534SOL     OW16060   4.377   3.181   6.510  0.3748  0.2503 -0.0122
 1534SOL    HW116061   4.286   3.209   6.505 -0.3088 -1.7637  1.2545
 1534SOL    HW216062   4.417   3.266   6.529 -1.5731  0.5437  2.6547
 1535SOL     OW16063   3.593   1.386  12.711 -0.0735  0.4020 -0.3785
 1535SOL    HW116064   3.644   1.341  12.778 -0.0671  0.8078 -0.1138
 1535SOL    HW216065   3.609   1.475  12.740 -0.6623  0.1075  0.8597
 1536SOL     OW16066   0.266   3.002  17.035 -0.3352  0.2633  0.3983
 1536SOL    HW116067   0.313   3.065  17.090 -0.8517  1.4023 -0.4822
 1536SOL    HW216068   0.242   2.934  17.098 -1.4975  0.8510  0.6034
 1537SOL     OW16069   4.634   0.696   0.321 -0.3750 -0.4931 -0.0467
 1537SOL    HW116070   4.557   0.699   0.264 -0.6646  0.0289  0.3681
 1537SOL    HW216071   4.594   0.722   0.404  0.0677 -1.2437  0.3999
 1538SOL     OW16072   2.410   0.581   3.787  0.3654  0.5986  0.0557
 1538SOL    HW116073   2.374   0.667   3.770 -0.5234  0.0718 -0.6817
 1538SOL    HW216074   2.335   0.538   3.746 -1.0228  2.3468  0.7567
 1539SOL     OW16075   0.464   0.057   8.351  0.0226 -0.4392  0.4759
 1539SOL    HW116076   0.448   0.110   8.429  0.5750 -1.6215  1.4051
 1539SOL    HW216077   0.552   0.023   8.368  0.0670 -0.9951 -0.8486
 1540SOL     OW16078   4.523   1.723   8.136  0.1998 -0.6250  0.1845
 1540SOL    HW116079   4.518   1.628   8.123 -1.2596 -0.4812 -0.3968
 1540SOL    HW216080   4.612   1.754   8.124  0.0974 -0.9912 -1.5066
 1541SOL     OW16081   0.906   3.055   4.149 -0.3956  0.8500 -0.3020
 1541SOL    HW116082   0.994   3.057   4.187 -0.4399  0.1744 -0.1640
 1541SOL    HW216083   0.910   2.970   4.106  1.9244  0.3782  0.8546
 1542SOL     OW16084   3.699   4.193  13.568  0.1727  0.2612 -0.2314
 1542SOL    HW116085   3.660   4.163  13.486  0.8645  0.0913 -0.4960
 1542SOL    HW216086   3.628   4.240  13.613 -0.5024 -1.2643  0.3263
 1543SOL     OW16087   0.953   3.007   5.728 -0.6667  0.1573 -0.3897
 1543SOL    HW116088   0.857   3.005   5.724 -0.6278  1.3020 -1.6541
 1543SOL    HW216089   0.964   3.029   5.820 -0.5827 -3.2177  0.4289
 1544SOL     OW16090   1.318   0.829   1.010 -0.2342  0.2762  0.3215
 1544SOL    HW116091   1.337   0.899   1.072 -0.5588  0.4560  0.2189
 1544SOL    HW216092   1.253   0.773   1.053 -0.6987  0.4270 -0.1815
 1545SOL     OW16093   4.510   1.057  16.787  0.1016 -0.1936 -0.1431
 1545SOL    HW116094   4.523   1.012  16.870  0.2147  0.9833  0.4807
 1545SOL    HW216095   4.423   1.096  16.783  0.3468  0.3248 -0.3883
 1546SOL     OW16096   4.144   1.599   6.353  0.0290  0.3017 -0.3077
 1546SOL    HW116097   4.179   1.510   6.360 -0.7452  0.0635  0.5423
 1546SOL    HW216098   4.224   1.645   6.327 -0.3421  1.2561  0.2301
 1547SOL     OW16099   1.362   3.279   4.309 -0.4651 -0.3854  0.4081
 1547SOL    HW116100   1.431   3.271   4.374 -1.4648 -1.3514  1.3602
 1547SOL    HW216101   1.307   3.345   4.352 -0.0915  0.0065  0.2815
 1548SOL     OW16102   3.825   0.266   2.755  0.1087  0.3219 -0.5101
 1548SOL    HW116103   3.767   0.336   2.785  0.6735  0.5898 -0.0478
 1548SOL    HW216104   3.868   0.245   2.838  1.0349 -0.8131 -1.2897
 1549SOL     OW16105   2.351   0.860  13.090 -0.3376  0.1648 -0.1904
 1549SOL    HW116106   2.343   0.798  13.162  2.6211 -2.4787 -2.1365
 1549SOL    HW216107   2.331   0.941  13.138 -1.2540 -0.0782 -0.1500
 1550SOL     OW16108   3.194   1.287   8.638 -0.6703 -0.5506 -0.5930
 1550SOL    HW116109   3.258   1.221   8.615 -1.0981 -1.2287  0.1791
 1550SOL    HW216110   3.112   1.238   8.647 -0.9976  0.4739  2.0908
 1551SOL     OW16111   0.748   3.331   6.406  0.5062 -0.7004  0.3330
 1551SOL    HW116112   0.773   3.304   6.318  3.4727 -1.3725  1.3962
 1551SOL    HW216113   0.830   3.335   6.455  0.6264  0.6140  0.0354
 1552SOL     OW16114   3.313   2.628  15.064 -0.3786 -0.1465  0.6861
 1552SOL    HW116115   3.258   2.577  15.124  0.2582 -1.7723 -0.1115
 1552SOL    HW216116   3.393   2.576  15.066  1.6733  2.9090 -2.6481
 1553SOL     OW16117   2.149   4.171   6.100 -0.3530  0.1620  0.8332
 1553SOL    HW116118   2.082   4.235   6.126 -0.7238  0.6963 -1.3929
 1553SOL    HW216119   2.153   4.108   6.171 -3.4794  0.2676  1.1398
 1554SOL     OW16120   0.034   1.522   6.149 -0.4178  0.6028  0.8660
 1554SOL    HW116121   0.043   1.616   6.133 -1.1112  0.2248 -1.6641
 1554SOL    HW216122   0.129   1.508   6.148 -0.3433  1.3828 -1.4397
 1555SOL     OW16123   3.623   1.570  13.363 -0.2137  0.7210  0.4096
 1555SOL    HW116124   3.681   1.543  13.434 -0.6215  1.5969  1.0839
 1555SOL    HW216125   3.627   1.665  13.376  1.9557  1.0654 -2.9486
 1556SOL     OW16126   1.092   3.953   0.914 -0.6288 -0.2813  0.0117
 1556SOL    HW116127   1.064   3.951   1.005  2.0350  1.1886  0.8787
 1556SOL    HW216128   1.040   3.890   0.865  1.6023 -1.3646 -0.9625
 1557SOL     OW16129   1.726   3.321   4.886  0.1127 -0.3619 -0.1403
 1557SOL    HW116130   1.740   3.331   4.980 -0.9102 -1.3130  0.1135
 1557SOL    HW216131   1.654   3.259   4.896 -1.0501  0.7899 -1.2260
 1558SOL     OW16132   2.716   0.993   9.707  0.8665  0.6478  0.1868
 1558SOL    HW116133   2.723   0.948   9.791  1.5591  2.0007  0.8607
 1558SOL    HW216134   2.661   1.069   9.725  0.6509  0.5014  0.1519
 1559SOL     OW16135   0.143   2.739   8.708  0.7179  0.1586  0.1317
 1559SOL    HW116136   0.078   2.807   8.691 -1.0315 -0.6956  3.4882
 1559SOL    HW216137   0.099   2.655   8.701 -0.4995  0.9203 -1.3490
 1560SOL     OW16138   3.536   4.534   8.265  0.0725 -0.0414  0.7255
 1560SOL    HW116139   3.624   4.497   8.259  0.4419  1.1290 -0.9987
 1560SOL    HW216140   3.552   4.628   8.256 -0.2079  0.0606  1.2968
 1561SOL     OW16141   1.776   4.362   1.544  0.3562  0.0781  0.0929
 1561SOL    HW116142   1.721   4.287   1.524 -0.4177  0.0838  2.1696
 1561SOL    HW216143   1.739   4.436   1.496  1.2965  0.3090 -0.2738
 1562SOL     OW16144   0.863   2.420   3.198  0.2458 -0.0071 -0.2635
 1562SOL    HW116145   0.812   2.343   3.171  0.8198 -0.5308  0.1172
 1562SOL    HW216146   0.841   2.440   3.289 -0.2060  0.7754 -0.5504
 1563SOL     OW16147   4.632   2.459  17.450 -0.2746 -0.4121  0.0809
 1563SOL    HW116148   4.635   2.553  17.465 -1.2633 -0.2848 -0.4594
 1563SOL    HW216149   4.668   2.424  17.531  0.3262  0.7309  0.3032
 1564SOL     OW16150   2.527   4.553   9.479  0.3984  0.0008 -0.8959
 1564SOL    HW116151   2.438   4.518   9.470  0.3261 -0.1256  0.2650
 1564SOL    HW216152   2.524   4.571   9.573  1.0225 -1.2340 -0.6499
 1565SOL     OW16153   0.463   0.517   1.651 -0.5532  0.4978 -0.1369
 1565SOL    HW116154   0.416   0.434   1.653 -1.3373  0.8236 -3.8081
 1565SOL    HW216155   0.514   0.500   1.572  1.1246 -0.7561  1.2112
 1566SOL     OW16156   2.604   3.095   5.172 -0.0941  0.4606 -0.2337
 1566SOL    HW116157   2.631   3.151   5.099  0.0418 -0.3090 -0.7701
 1566SOL    HW216158   2.514   3.070   5.152 -0.2505  0.9143 -0.1009
 1567SOL     OW16159   3.875   0.356   5.100 -0.1932 -0.3408  0.0936
 1567SOL    HW116160   3.851   0.419   5.168  1.8894  0.5064  0.0568
 1567SOL    HW216161   3.846   0.398   5.018 -1.7717  0.9208  1.3036
 1568SOL     OW16162   1.603   2.176   7.716  0.3513 -0.0079 -0.7084
 1568SOL    HW116163   1.569   2.255   7.758 -0.3876 -1.4480  1.3818
 1568SOL    HW216164   1.644   2.141   7.794 -1.6601 -1.8592 -0.4823
 1569SOL     OW16165   2.425   3.087  10.598 -0.7823  0.3486  0.6314
 1569SOL    HW116166   2.498   3.085  10.536 -1.9717  0.5792 -0.7748
 1569SOL    HW216167   2.349   3.116  10.547 -0.0610 -0.8850 -1.1595
 1570SOL     OW16168   0.992   2.326   8.919 -0.1513 -0.0093  0.0339
 1570SOL    HW116169   1.071   2.361   8.876 -0.6584  2.7727  1.3922
 1570SOL    HW216170   1.035   2.343   9.003 -2.0917  0.6853  0.8727
 1571SOL     OW16171   3.968   1.952   2.466 -0.6143 -0.2681 -0.3572
 1571SOL    HW116172   3.906   1.931   2.396 -2.3801  0.1549  1.1121
 1571SOL    HW216173   4.053   1.929   2.428 -1.5364 -0.3094 -2.3936
 1572SOL     OW16174   0.648   1.531   5.192  0.4085  0.2489  0.0962
 1572SOL    HW116175   0.554   1.545   5.184  0.3744  0.7179  1.2946
 1572SOL    HW216176   0.690   1.613   5.167  1.6730 -0.2365  0.6270
 1573SOL     OW16177   1.089   3.871   3.017 -0.1664  0.8252  0.3483
 1573SOL    HW116178   1.118   3.924   3.092  1.5661 -2.1797  1.7834
 1573SOL    HW216179   0.993   3.874   3.019 -0.2299 -2.0383  1.8623
 1574SOL     OW16180   2.771   1.869   6.265 -0.0271 -0.1961  0.0621
 1574SOL    HW116181   2.784   1.940   6.328 -0.3353 -0.7143  0.7175
 1574SOL    HW216182   2.709   1.814   6.313  2.0683 -0.6562  2.2342
 1575SOL     OW16183   3.077   1.561   2.968  0.1108 -0.0240 -0.4315
 1575SOL    HW116184   3.029   1.542   3.048  0.6910 -1.0049 -0.3172
 1575SOL    HW216185   3.032   1.638   2.932 -0.0493  0.2109  0.2855
 1576SOL     OW16186   0.404   2.039   4.205 -0.3881 -0.0847 -0.2106
 1576SOL    HW116187   0.482   2.089   4.180 -1.1979  1.6505  0.8285
 1576SOL    HW216188   0.451   1.984   4.268  2.8633  0.7232 -1.9181
 1577SOL     OW16189   2.927   2.403  15.388  0.4181  0.1894 -0.2711
 1577SOL    HW116190   3.020   2.383  15.376  0.0521 -1.2521 -0.6459
 1577SOL    HW216191   2.909   2.448  15.305  3.5458 -3.1603 -2.7372
 1578SOL     OW16192   2.163   2.161  17.298  0.5637 -0.2953 -0.1064
 1578SOL    HW116193   2.230   2.223  17.270  2.2472 -2.8767 -1.8730
 1578SOL    HW216194   2.082   2.181  17.251 -0.4136 -0.5871  1.4280
 1579SOL     OW16195   0.988   3.787  13.930 -0.3111 -0.3475  0.0467
 1579SOL    HW116196   1.066   3.790  13.875  0.3748 -1.3230  0.9580
 1579SOL    HW216197   0.954   3.702  13.902 -0.2949  0.4652 -2.4488
 1580SOL     OW16198   3.257   1.755   6.578 -0.6336  0.4706 -0.9658
 1580SOL    HW116199   3.260   1.689   6.509 -1.6719 -0.9586  0.3617
 1580SOL    HW216200   3.218   1.830   6.532  1.1342  2.0018  0.0114
 1581SOL     OW16201   3.030   1.502   6.411  0.0682 -0.0189  0.2702
 1581SOL    HW116202   2.984   1.577   6.374  0.6035  0.8399  1.3511
 1581SOL    HW216203   3.105   1.544   6.453  0.0299 -1.3248  1.6775
 1582SOL     OW16204   2.701   4.377   4.390 -0.1779  0.1239 -0.2894
 1582SOL    HW116205   2.693   4.453   4.449 -2.2738  0.2634 -0.7610
 1582SOL    HW216206   2.614   4.336   4.389 -0.8936  1.5416  2.7865
 1583SOL     OW16207   4.718   0.411  12.097 -0.8983  0.0942 -0.3140
 1583SOL    HW116208   0.048   0.338  12.063 -0.3034  1.1275 -1.6261
 1583SOL    HW216209   0.047   0.434  12.175 -0.5243  0.7238 -0.7436
 1584SOL     OW16210   1.887   2.427   9.157 -0.5835 -0.2901  0.5328
 1584SOL    HW116211   1.876   2.400   9.249 -0.0733  1.2927  1.0585
 1584SOL    HW216212   1.889   2.335   9.131 -0.9273 -0.4581  1.0834
 1585SOL     OW16213   2.524   2.497  11.685  0.3441 -0.5261 -0.4347
 1585SOL    HW116214   2.597   2.481  11.744  0.2636  2.8085  0.6273
 1585SOL    HW216215   2.465   2.524  11.756  0.8182  1.5844 -0.8479
 1586SOL     OW16216   0.014   3.963  10.014  0.0767  0.3454 -0.5333
 1586SOL    HW116217   0.051   3.935  10.097 -0.8141  1.0726  0.1087
 1586SOL    HW216218   4.644   3.975  10.042 -0.5938 -0.7312 -2.2628
 1587SOL     OW16219   0.889   1.820   7.316  0.7757  0.2262 -0.0167
 1587SOL    HW116220   0.881   1.784   7.405 -2.5879  0.8073 -0.0838
 1587SOL    HW216221   0.957   1.756   7.298  0.4842  0.2744 -1.2726
 1588SOL     OW16222   3.741   0.206   1.001 -0.5369 -0.4756 -0.5875
 1588SOL    HW116223   3.724   0.138   1.066 -1.4241  0.7718  0.4807
 1588SOL    HW216224   3.785   0.155   0.932  0.7133  1.0708 -0.9310
 1589SOL     OW16225   2.835   0.373   6.487  0.1386  0.2094  0.3882
 1589SOL    HW116226   2.889   0.446   6.518 -1.8224  0.7882  2.4269
 1589SOL    HW216227   2.894   0.346   6.417 -0.4871  0.7990 -0.3546
 1590SOL     OW16228   2.737   4.177   6.421  0.5810  0.2939  0.8093
 1590SOL    HW116229   2.716   4.129   6.501 -0.3875 -0.7774 -0.0845
 1590SOL    HW216230   2.803   4.118   6.383 -0.0659  0.7708 -1.0313
 1591SOL     OW16231   1.013   1.460   6.711  0.0663 -0.1463 -0.2703
 1591SOL    HW116232   1.004   1.389   6.775 -3.4219 -0.8914 -1.6014
 1591SOL    HW216233   1.061   1.412   6.644  1.8752  1.9083 -0.4437
 1592SOL     OW16234   2.395   1.899   9.718  0.2657  0.7904  0.4640
 1592SOL    HW116235   2.415   1.986   9.754  0.3524  0.4519  1.2210
 1592SOL    HW216236   2.316   1.919   9.668  0.6436  1.7017  0.2198
 1593SOL     OW16237   3.212   3.943   5.430  0.0891  0.2556 -0.1828
 1593SOL    HW116238   3.283   3.922   5.369 -1.0666  0.7226 -1.7066
 1593SOL    HW216239   3.186   3.856   5.461 -0.9492  1.0638  1.2443
 1594SOL     OW16240   0.232   1.496  11.402  0.3507  0.4914  0.4005
 1594SOL    HW116241   0.286   1.430  11.445  1.6122  1.2421 -0.0192
 1594SOL    HW216242   0.175   1.498  11.479 -0.1616  0.7927  0.0093
 1595SOL     OW16243   1.418   2.582   9.537 -0.5931 -0.6157 -0.3014
 1595SOL    HW116244   1.452   2.654   9.590  1.3543 -2.0648  0.4038
 1595SOL    HW216245   1.373   2.534   9.606  0.9558  0.2742  1.3365
 1596SOL     OW16246   0.116   4.450   8.628  0.4365  0.0133 -0.1441
 1596SOL    HW116247   0.045   4.481   8.684 -0.7511  1.4747 -2.4950
 1596SOL    HW216248   0.177   4.524   8.627  0.8393 -0.3330 -0.8132
 1597SOL     OW16249   4.481   1.045   4.043 -0.5733 -0.1912  0.1763
 1597SOL    HW116250   4.394   1.024   4.011 -0.3346 -0.2594 -0.4294
 1597SOL    HW216251   4.539   0.979   4.004 -1.7135 -0.7930 -0.4796
 1598SOL     OW16252   2.273   3.781   1.213 -0.4686 -0.5483  0.3864
 1598SOL    HW116253   2.199   3.721   1.204 -0.8177 -0.1697  0.6769
 1598SOL    HW216254   2.232   3.865   1.237 -1.3960 -0.7958 -0.3230
 1599SOL     OW16255   4.638   2.570   6.645 -0.3120 -0.1902  0.0950
 1599SOL    HW116256   4.701   2.550   6.576  0.7494 -0.2713  1.0786
 1599SOL    HW216257   4.578   2.495   6.653 -0.9906  0.1178 -2.3944
 1600SOL     OW16258   4.015   0.900  10.258  0.0992  0.3167  0.2150
 1600SOL    HW116259   3.940   0.960  10.257 -0.8506 -0.8451  0.6586
 1600SOL    HW216260   3.993   0.843  10.332 -0.5223  0.0162 -0.2003
 1601SOL     OW16261   3.488   2.536   0.320 -0.3530  0.3301 -0.3739
 1601SOL    HW116262   3.543   2.564   0.247  2.3337 -2.0244  0.7504
 1601SOL    HW216263   3.529   2.454   0.348 -0.9249 -0.2364 -1.1555
 1602SOL     OW16264   0.100   2.049   5.894  0.9842  0.0843  0.2943
 1602SOL    HW116265   0.065   2.043   5.983 -0.2049  1.9037 -0.0335
 1602SOL    HW216266   0.049   2.117   5.850  0.1225  0.4680  1.8729
 1603SOL     OW16267   1.314   0.747  16.658  0.3043 -0.3629 -0.1736
 1603SOL    HW116268   1.234   0.798  16.675  0.5816 -0.5578  1.7115
 1603SOL    HW216269   1.264   0.666  16.661  2.1476 -1.5025 -0.7058
 1604SOL     OW16270   0.143   2.095  15.704 -0.3699  0.2320  0.1852
 1604SOL    HW116271   0.175   2.007  15.723  2.2116  1.3239  0.9786
 1604SOL    HW216272   0.117   2.080  15.613 -2.1370 -0.0731  0.7551
 1605SOL     OW16273   0.297   2.260   5.920  0.5293  0.2651 -0.2580
 1605SOL    HW116274   0.238   2.190   5.891  1.9796 -0.8332 -0.5508
 1605SOL    HW216275   0.264   2.265   6.009  0.0669  0.8669 -0.4669
 1606SOL     OW16276   1.889   2.541   9.768 -0.4405  0.0029  0.5472
 1606SOL    HW116277   1.925   2.453   9.771 -0.5338 -0.0656 -0.3752
 1606SOL    HW216278   1.847   2.550   9.853 -1.1815 -0.2414  0.2058
 1607SOL     OW16279   0.243   1.016   0.642  0.5788 -0.0196  0.2702
 1607SOL    HW116280   0.169   0.998   0.700  0.8529 -0.9439  0.3273
 1607SOL    HW216281   0.268   1.104   0.668 -0.8514  0.5639 -0.3351
 1608SOL     OW16282   0.677   1.994   9.196 -0.1157 -0.2841 -0.0151
 1608SOL    HW116283   0.740   1.933   9.158 -0.7794 -1.8635  1.4155
 1608SOL    HW216284   0.727   2.074   9.175  0.9550 -1.6164 -2.5893
 1609SOL     OW16285   1.178   0.782   7.068  0.1806  0.1221 -0.0559
 1609SOL    HW116286   1.236   0.800   7.142 -0.4868  0.5983  0.3431
 1609SOL    HW216287   1.209   0.692   7.063  0.5997  0.0386  4.0472
 1610SOL     OW16288   3.958   2.736  10.147  0.1153  0.0277 -0.2740
 1610SOL    HW116289   4.000   2.776  10.071  0.9667 -0.0251  0.1683
 1610SOL    HW216290   3.989   2.650  10.118  0.0965  0.4519 -1.5454
 1611SOL     OW16291   0.923   1.780   2.119  0.0373 -0.7166 -0.3604
 1611SOL    HW116292   0.962   1.702   2.160 -0.4373 -0.2050  1.0739
 1611SOL    HW216293   0.983   1.798   2.046 -1.2731  3.4473 -0.4066
 1612SOL     OW16294   3.448   4.486   6.153  0.3261  0.2716 -0.0241
 1612SOL    HW116295   3.411   4.455   6.070 -0.8334 -0.5472  0.8003
 1612SOL    HW216296   3.373   4.513   6.206  0.0992 -2.5015  1.0635
 1613SOL     OW16297   3.272   1.496   2.600 -0.2333 -0.1925  0.4547
 1613SOL    HW116298   3.315   1.411   2.585  0.7391  0.4171 -0.1751
 1613SOL    HW216299   3.317   1.520   2.680  0.5457  0.5590 -0.2142
 1614SOL     OW16300   4.529   3.976  16.312  0.4447 -0.1132  0.1515
 1614SOL    HW116301   4.447   3.977  16.360  0.6206  0.9470  0.4422
 1614SOL    HW216302   4.503   3.976  16.220  1.1699  0.4832 -0.0582
 1615SOL     OW16303   4.699   1.820   6.185  0.1139 -0.1709 -0.2342
 1615SOL    HW116304   4.623   1.816   6.126  0.5137 -1.7097 -0.6574
 1615SOL    HW216305   4.710   1.915   6.189 -1.3931 -0.0443  0.7625
 1616SOL     OW16306   4.646   2.111  14.039  0.3813  0.4090  0.7306
 1616SOL    HW116307   4.664   2.183  14.099  1.3522  1.1873 -0.4845
 1616SOL    HW216308   4.570   2.062  14.070 -0.1831  0.8182 -0.0157
 1617SOL     OW16309   2.090   1.756  16.628 -0.4851  0.3446  0.2733
 1617SOL    HW116310   2.063   1.843  16.600  1.4658  0.7940 -0.1561
 1617SOL    HW216311   2.074   1.761  16.722  0.3638  0.7756  0.3865
 1618SOL     OW16312   4.068   1.758  17.026 -0.0433  0.1824 -0.2249
 1618SOL    HW116313   4.057   1.852  17.013  1.4865  0.5966  1.4112
 1618SOL    HW216314   4.106   1.731  16.943  0.2477 -2.4058  0.7478
 1619SOL     OW16315   1.715   2.590   6.313  0.6925 -0.3039  0.1040
 1619SOL    HW116316   1.671   2.622   6.391  2.1092  0.7334  0.4711
 1619SOL    HW216317   1.703   2.496   6.324 -0.4058 -0.0118  1.4697
 1620SOL     OW16318   0.052   2.008   2.942 -0.3090  0.2880 -0.4092
 1620SOL    HW116319   4.679   1.997   2.926 -0.2723 -0.0466 -0.3943
 1620SOL    HW216320   0.053   2.103   2.929  0.6353  0.2715 -0.4778
 1621SOL     OW16321   4.429   0.769   6.669  0.2811 -0.0516 -0.0333
 1621SOL    HW116322   4.490   0.827   6.713  3.1553 -2.0903 -1.2920
 1621SOL    HW216323   4.347   0.817   6.669  0.0980 -0.3855  1.8868
 1622SOL     OW16324   0.049   0.765  16.072 -0.1344  0.2926 -0.0396
 1622SOL    HW116325   0.132   0.787  16.029  0.6011 -2.4763  0.0107
 1622SOL    HW216326   0.002   0.847  16.054  0.7219  0.6949 -0.4423
 1623SOL     OW16327   3.173   2.229   6.394  0.4996 -0.1795 -0.2854
 1623SOL    HW116328   3.237   2.299   6.384 -1.3643  1.2019 -2.6124
 1623SOL    HW216329   3.141   2.227   6.304  0.9308  0.4932 -0.4534
 1624SOL     OW16330   1.653   1.327  12.922  0.3523  0.0368  0.4895
 1624SOL    HW116331   1.739   1.363  12.897 -1.3195  2.2855 -2.0217
 1624SOL    HW216332   1.673   1.316  13.015  2.1756  0.5586  0.1667
 1625SOL     OW16333   3.160   3.469  10.719  0.2324  0.1766  0.5386
 1625SOL    HW116334   3.227   3.536  10.709  0.1753  0.1600  0.0133
 1625SOL    HW216335   3.217   3.406  10.762 -0.2378  1.5236  3.0963
 1626SOL     OW16336   0.322   2.131   8.820  0.5865  0.5591  0.4064
 1626SOL    HW116337   0.364   2.131   8.906 -1.2955 -1.5005  1.3460
 1626SOL    HW216338   0.375   2.068   8.772 -0.9240 -1.5094  1.4107
 1627SOL     OW16339   0.492   2.878   3.048  0.3326 -0.3561  0.4987
 1627SOL    HW116340   0.423   2.834   2.997  1.2575 -1.3135  0.0491
 1627SOL    HW216341   0.550   2.921   2.986 -0.2655 -0.1005  0.1076
 1628SOL     OW16342   4.273   2.029  15.138  0.1160 -0.2959 -0.2983
 1628SOL    HW116343   4.202   2.088  15.110  1.5662  1.6022  0.0183
 1628SOL    HW216344   4.269   2.038  15.233 -0.2032  2.3777 -0.5723
 1629SOL     OW16345   1.655   1.988   8.927 -0.0338  0.2774 -0.1283
 1629SOL    HW116346   1.658   1.975   8.833 -0.1848  3.4956 -0.6048
 1629SOL    HW216347   1.632   1.905   8.967  2.4745  0.2194  1.1880
 1630SOL     OW16348   1.079   1.802   5.099  0.0243  0.0572 -0.2303
 1630SOL    HW116349   1.052   1.807   5.008 -1.2445  0.6548  0.1757
 1630SOL    HW216350   1.042   1.716   5.123 -0.5524  0.5737  0.7487
 1631SOL     OW16351   0.956   0.063   4.870 -0.2200 -0.3719 -0.2960
 1631SOL    HW116352   0.987   4.706   4.826 -0.9688 -0.2653 -1.0225
 1631SOL    HW216353   0.870   0.075   4.829 -1.1912 -2.7541  1.0606
 1632SOL     OW16354   3.804   4.026   2.626  0.3009 -0.1137 -0.0284
 1632SOL    HW116355   3.736   3.958   2.628  0.9514 -0.6683  3.1802
 1632SOL    HW216356   3.761   4.105   2.660  1.3601  0.5202 -0.1498
 1633SOL     OW16357   0.053   2.576  13.311 -0.3641  0.0343 -0.3336
 1633SOL    HW116358   0.057   2.522  13.390  1.5769  2.3108  1.1289
 1633SOL    HW216359   0.077   2.514  13.242 -0.4031 -1.2557  0.8225
 1634SOL     OW16360   1.342   2.795  14.592 -0.3245 -0.0646 -0.6943
 1634SOL    HW116361   1.324   2.851  14.516  1.8160  0.1138 -1.0688
 1634SOL    HW216362   1.361   2.714  14.544  0.8828  0.1940 -0.6542
 1635SOL     OW16363   0.269   1.062   7.550 -0.5672 -0.1144 -0.3689
 1635SOL    HW116364   0.292   1.099   7.465  1.0589 -0.8435 -0.2451
 1635SOL    HW216365   0.351   1.062   7.599 -0.7423 -1.6769 -0.0780
 1636SOL     OW16366   4.570   3.377   3.301  0.2022 -0.1454  0.6169
 1636SOL    HW116367   4.663   3.382   3.277 -0.2534  0.8366 -0.9732
 1636SOL    HW216368   4.542   3.335   3.219  0.1752 -1.3093  1.2192
 1637SOL     OW16369   3.707   3.548   7.550  0.7453  0.3690  0.2418
 1637SOL    HW116370   3.626   3.598   7.538 -0.1748 -1.4780 -1.2458
 1637SOL    HW216371   3.669   3.474   7.596  0.7460 -1.2705 -2.3704
 1638SOL     OW16372   4.689   2.140  17.597 -0.1179 -0.1291 -0.3842
 1638SOL    HW116373   4.600   2.112  17.576 -0.0772 -0.9181  0.5531
 1638SOL    HW216374   4.681   2.149   0.005  0.2682  0.7899 -0.4320
 1639SOL     OW16375   3.902   3.662   0.107 -0.7172  0.3045 -0.2601
 1639SOL    HW116376   3.854   3.618   0.037 -0.8892  0.1149 -0.0230
 1639SOL    HW216377   3.974   3.599   0.111 -0.4273  0.7429  1.5130
 1640SOL     OW16378   1.738   1.525  16.832 -0.2848  0.1549 -0.0221
 1640SOL    HW116379   1.804   1.533  16.763 -1.7093  1.7194 -1.1992
 1640SOL    HW216380   1.663   1.492  16.783  1.0870 -1.7407 -0.8508
 1641SOL     OW16381   4.473   0.689   5.108 -0.5951  0.0859  0.5458
 1641SOL    HW116382   4.388   0.649   5.123 -0.2576 -0.4411  1.0528
 1641SOL    HW216383   4.455   0.768   5.056 -0.4071 -0.7991 -0.8546
 1642SOL     OW16384   4.264   0.752  15.868  0.0988 -0.0293  0.4097
 1642SOL    HW116385   4.219   0.836  15.881  0.2409 -0.0713  1.1423
 1642SOL    HW216386   4.355   0.778  15.856  0.7268 -2.9800 -1.1899
 1643SOL     OW16387   4.479   1.614  17.260  0.0639  0.1816 -0.3163
 1643SOL    HW116388   4.526   1.544  17.215 -0.4201 -0.6474  0.4622
 1643SOL    HW216389   4.490   1.591  17.353 -0.7857  0.8725 -0.0420
 1644SOL     OW16390   3.211   1.050   5.053 -0.4400 -0.3081  0.4109
 1644SOL    HW116391   3.137   1.061   4.994 -2.2638 -1.4034  2.5056
 1644SOL    HW216392   3.178   0.990   5.120 -3.0050  0.9151  0.2251
 1645SOL     OW16393   4.019   1.255   9.265 -0.1912 -0.5627 -0.1540
 1645SOL    HW116394   3.995   1.282   9.354 -0.5572 -0.1237 -0.3826
 1645SOL    HW216395   4.060   1.328   9.219  0.5363 -1.2117 -0.5231
 1646SOL     OW16396   1.350   4.321  13.251  0.5134  0.2223 -0.4932
 1646SOL    HW116397   1.316   4.235  13.277  0.5940  0.3423  0.0094
 1646SOL    HW216398   1.339   4.367  13.334  1.5022 -2.7378  1.2911
 1647SOL     OW16399   0.302   1.614   6.123  0.3872  0.0703  0.2797
 1647SOL    HW116400   0.387   1.571   6.135  0.7271  0.5116 -0.5848
 1647SOL    HW216401   0.308   1.642   6.032  0.1498  0.6029  0.4285
 1648SOL     OW16402   1.168   4.123   4.681 -0.1655 -0.1041 -0.1436
 1648SOL    HW116403   1.262   4.126   4.695 -0.1274  0.6886 -0.5435
 1648SOL    HW216404   1.138   4.087   4.764 -1.6041  0.4038 -0.4329
 1649SOL     OW16405   2.836   3.301   8.482  0.4935 -1.0841  0.4305
 1649SOL    HW116406   2.816   3.224   8.535  1.4552 -0.8257  1.1625
 1649SOL    HW216407   2.767   3.303   8.415  1.5926  2.5929 -0.5717
 1650SOL     OW16408   2.918   4.565   2.231 -0.5232  0.4425  0.3667
 1650SOL    HW116409   2.908   4.619   2.152 -0.0611  0.7632  0.5279
 1650SOL    HW216410   2.880   4.619   2.300  1.8833 -0.6817  2.5624
 1651SOL     OW16411   3.673   4.537   9.165  0.5638 -0.2822  0.6698
 1651SOL    HW116412   3.659   4.606   9.100  0.4403 -0.9973 -0.0572
 1651SOL    HW216413   3.763   4.558   9.189 -0.4688  1.1275  3.3691
 1652SOL     OW16414   1.321   2.891   7.743  0.1788 -0.2733 -1.0062
 1652SOL    HW116415   1.390   2.828   7.763  0.3546  0.7008  1.4814
 1652SOL    HW216416   1.250   2.854   7.797  0.4042  0.2777 -0.3308
 1653SOL     OW16417   0.907   2.993   7.502  0.0275  0.4976  0.2311
 1653SOL    HW116418   0.985   2.961   7.548 -0.2392 -1.6681 -0.8471
 1653SOL    HW216419   0.840   2.938   7.542  1.1476  0.8042  2.5350
 1654SOL     OW16420   3.603   3.660   3.017  0.5324 -0.1103 -0.4113
 1654SOL    HW116421   3.561   3.742   2.991 -0.6807 -0.6085 -0.0208
 1654SOL    HW216422   3.529   3.631   3.071 -1.4341  0.4098 -2.7852
 1655SOL     OW16423   1.839   3.401  16.908 -0.1078 -0.3995 -0.5458
 1655SOL    HW116424   1.921   3.404  16.958  1.7958 -2.3092 -3.5906
 1655SOL    HW216425   1.870   3.399  16.818 -1.2216 -0.9778 -0.8999
 1656SOL     OW16426   2.345   2.094   4.554  0.3781  0.2231  0.5704
 1656SOL    HW116427   2.377   2.182   4.575 -0.9221  1.2664 -1.7710
 1656SOL    HW216428   2.314   2.057   4.637 -0.4640 -0.4200 -0.0242
 1657SOL     OW16429   4.464   2.346  10.091  0.1626  0.4031 -0.2047
 1657SOL    HW116430   4.427   2.359  10.003 -1.4610  0.2792  0.4566
 1657SOL    HW216431   4.520   2.423  10.100  0.6253 -0.3353  3.2043
 1658SOL     OW16432   4.256   3.389  13.869  0.0792  0.0198 -0.0730
 1658SOL    HW116433   4.182   3.331  13.882  0.7550 -1.2470 -1.9266
 1658SOL    HW216434   4.225   3.461  13.924 -2.6828 -0.0012 -1.6242
 1659SOL     OW16435   4.539   2.276   0.383  0.2813 -0.1413  0.0678
 1659SOL    HW116436   4.545   2.371   0.395  1.3462 -0.1587 -0.3706
 1659SOL    HW216437   4.584   2.244   0.461  1.1004  2.7520  0.7681
 1660SOL     OW16438   1.388   2.140   1.551 -0.0797 -0.4614  0.1010
 1660SOL    HW116439   1.440   2.202   1.602 -0.9034  0.7069 -0.4899
 1660SOL    HW216440   1.431   2.055   1.561  3.9712  1.3610 -2.3999
 1661SOL     OW16441   2.719   1.131   8.185 -0.6548  0.0807  0.0700
 1661SOL    HW116442   2.712   1.039   8.208 -1.0489 -0.1320 -0.9085
 1661SOL    HW216443   2.683   1.152   8.099  0.4040 -1.9371 -0.8678
 1662SOL     OW16444   2.906   4.402  14.089  0.5701  0.3303  0.1192
 1662SOL    HW116445   2.845   4.353  14.144 -4.1415  0.0192 -5.3144
 1662SOL    HW216446   2.883   4.491  14.116  0.8010 -0.2975  2.3851
 1663SOL     OW16447   4.583   2.809   8.314  0.3138  0.1732  0.3396
 1663SOL    HW116448   4.503   2.813   8.367 -0.2679 -1.9170 -0.3446
 1663SOL    HW216449   4.550   2.768   8.233 -0.9040  0.6820  0.5688
 1664SOL     OW16450   4.531   2.575   1.004  0.2359  0.1763 -0.1707
 1664SOL    HW116451   4.541   2.582   1.099 -3.8137 -3.1697  0.5040
 1664SOL    HW216452   4.436   2.564   1.010 -0.0157  2.2473 -0.5581
 1665SOL     OW16453   3.437   2.163   6.524 -0.3958  0.6089 -0.4216
 1665SOL    HW116454   3.472   2.124   6.605  0.3465 -0.4405 -1.2561
 1665SOL    HW216455   3.428   2.092   6.462 -1.1631 -1.2987  1.8698
 1666SOL     OW16456   1.634   0.677   4.544  0.0344  0.2641 -0.1666
 1666SOL    HW116457   1.599   0.763   4.568 -1.6217 -0.8295  1.3663
 1666SOL    HW216458   1.611   0.683   4.451 -0.3360  0.1872 -0.0794
 1667SOL     OW16459   1.468   3.269  16.869  0.3657 -0.1498 -0.7714
 1667SOL    HW116460   1.401   3.229  16.925  0.0412 -0.7619 -1.5871
 1667SOL    HW216461   1.442   3.231  16.784 -2.8382 -0.7623  0.4637
 1668SOL     OW16462   1.888   4.558   8.894 -0.2521  0.4956 -0.4323
 1668SOL    HW116463   1.906   4.481   8.949  1.7689  1.2563 -0.0497
 1668SOL    HW216464   1.831   4.609   8.952  0.8321  2.0098 -0.7178
 1669SOL     OW16465   1.638   4.190  17.251  0.9571 -0.0246 -0.4223
 1669SOL    HW116466   1.732   4.199  17.241  0.9132 -0.2890 -1.0641
 1669SOL    HW216467   1.618   4.123  17.186  1.1662 -0.5654  0.0652
 1670SOL     OW16468   3.257   2.234   7.365  0.0825 -0.2045  0.0868
 1670SOL    HW116469   3.335   2.237   7.310  1.2011 -0.6349  1.6539
 1670SOL    HW216470   3.203   2.189   7.299 -1.6537 -0.0131  1.3855
 1671SOL     OW16471   3.839   2.139   7.348 -0.0409 -0.0934 -0.2360
 1671SOL    HW116472   3.801   2.154   7.435  0.3432 -1.0392  0.0943
 1671SOL    HW216473   3.823   2.216   7.293  0.4665 -1.5074 -2.3801
 1672SOL     OW16474   3.701   2.417   0.893 -0.2018  0.1258  0.2896
 1672SOL    HW116475   3.772   2.419   0.956  1.4437 -1.2918 -1.5348
 1672SOL    HW216476   3.724   2.479   0.824  0.5257 -0.1150  0.3153
 1673SOL     OW16477   3.333   3.966   1.435 -0.0268 -0.3389 -0.0371
 1673SOL    HW116478   3.302   4.025   1.504  2.2561  1.6779 -0.7472
 1673SOL    HW216479   3.427   3.966   1.449 -0.0645 -0.7621  0.2210
 1674SOL     OW16480   0.235   0.097  12.372 -0.3201  0.3724 -0.2577
 1674SOL    HW116481   0.209   0.038  12.442  0.5893  0.1493 -0.1110
 1674SOL    HW216482   0.173   0.171  12.378  0.0599  0.5651  1.2375
 1675SOL     OW16483   0.797   0.495   4.743 -0.4637  0.2654  0.1875
 1675SOL    HW116484   0.784   0.439   4.667 -0.0333 -0.1546  0.4221
 1675SOL    HW216485   0.854   0.565   4.712 -0.8426 -0.0445 -1.1997
 1676SOL     OW16486   3.043   4.588  11.142  0.4706 -0.6778 -0.6416
 1676SOL    HW116487   3.089   4.588  11.225  0.2815  2.7069 -0.5291
 1676SOL    HW216488   2.954   4.615  11.166  0.8110  0.4840 -0.6658
 1677SOL     OW16489   3.688   3.349   9.587 -0.2804  0.3779  0.1250
 1677SOL    HW116490   3.709   3.398   9.667 -1.0153  0.3267  0.3505
 1677SOL    HW216491   3.614   3.401   9.557  0.1289  1.0308  0.2662
 1678SOL     OW16492   1.625   3.011   7.595  0.8605  0.1323 -0.1040
 1678SOL    HW116493   1.676   2.932   7.614 -1.1449 -1.7351 -2.6985
 1678SOL    HW216494   1.589   3.037   7.680 -0.0862  0.3284 -0.5782
 1679SOL     OW16495   2.765   2.786  12.750  0.5548 -0.3007 -0.1676
 1679SOL    HW116496   2.836   2.837  12.789  0.6284 -1.4757  1.2352
 1679SOL    HW216497   2.811   2.740  12.679  0.9267 -0.6371  0.2899
 1680SOL     OW16498   0.762   4.330   7.185  0.7296 -0.0327 -0.1085
 1680SOL    HW116499   0.688   4.319   7.244  0.7395 -1.8550 -0.4305
 1680SOL    HW216500   0.729   4.407   7.140  0.8984  0.2694  0.2904
 1681SOL     OW16501   1.436   1.835   4.447 -0.0069 -0.2991  0.3373
 1681SOL    HW116502   1.390   1.917   4.462 -0.4264 -0.3211 -0.8003
 1681SOL    HW216503   1.530   1.844   4.455  0.0497 -1.4796  1.0091
 1682SOL     OW16504   4.488   1.155   6.433  0.6170 -0.3134  0.6014
 1682SOL    HW116505   4.512   1.208   6.357 -0.6898  0.3053  0.6155
 1682SOL    HW216506   4.473   1.225   6.497 -1.6102  0.4867 -0.7935
 1683SOL     OW16507   1.895   3.698  14.383  0.3003 -0.7880 -0.4666
 1683SOL    HW116508   1.814   3.646  14.382 -0.3529  0.2551 -1.4785
 1683SOL    HW216509   1.950   3.635  14.337  0.7196  0.4669 -1.6771
 1684SOL     OW16510   4.265   0.107  10.827  0.0304  0.9746  0.7671
 1684SOL    HW116511   4.303   0.168  10.764  3.6925 -0.2547  1.8046
 1684SOL    HW216512   4.223   0.180  10.872 -1.7418  0.3883  0.0672
 1685SOL     OW16513   0.909   3.801   7.984  0.1124  0.1632  0.7669
 1685SOL    HW116514   0.967   3.726   7.975  1.3575  0.9672  1.9666
 1685SOL    HW216515   0.847   3.766   8.048  0.3051 -0.4840  0.5987
 1686SOL     OW16516   3.107   0.021   6.041 -0.0890 -0.5851  0.0848
 1686SOL    HW116517   3.028   4.702   6.075 -0.5556  0.1766 -0.1075
 1686SOL    HW216518   3.159   4.708   6.113 -0.6696  0.3069  0.9203
 1687SOL     OW16519   0.203   0.612   2.395  0.1531  0.0035  0.5375
 1687SOL    HW116520   0.178   0.580   2.309  0.6021 -0.8980  0.7396
 1687SOL    HW216521   0.177   0.536   2.446 -1.5829 -0.3700 -0.9220
 1688SOL     OW16522   4.571   3.813  11.997  0.4689 -0.0873 -0.2686
 1688SOL    HW116523   4.556   3.775  12.084  0.2651 -0.6046 -0.5321
 1688SOL    HW216524   4.640   3.877  12.012  2.6071 -2.3367 -0.5756
 1689SOL     OW16525   4.707   4.375   3.123  0.0603 -0.4717  0.5455
 1689SOL    HW116526   0.030   4.365   3.039 -0.9397 -0.0604 -0.0205
 1689SOL    HW216527   0.054   4.341   3.182  1.1615  0.3242 -0.2734
 1690SOL     OW16528   0.268   3.692   2.781  0.3347  0.1403 -0.3020
 1690SOL    HW116529   0.303   3.603   2.769  0.5371  0.2006 -0.1604
 1690SOL    HW216530   0.326   3.728   2.848  2.7362 -1.7060 -1.3534
 1691SOL     OW16531   2.759   3.574   6.122  0.8624  0.1008  0.2432
 1691SOL    HW116532   2.799   3.648   6.169 -0.0323  0.4334  0.4692
 1691SOL    HW216533   2.707   3.619   6.056  0.5800  0.1995  0.5345
 1692SOL     OW16534   3.495   2.433   8.171  0.1904  0.2135  0.0720
 1692SOL    HW116535   3.420   2.445   8.114  0.5407 -3.5329 -1.1583
 1692SOL    HW216536   3.510   2.338   8.167 -1.4841  0.0360 -1.9544
 1693SOL     OW16537   4.260   3.236  13.611 -0.1467  0.2484  0.0834
 1693SOL    HW116538   4.345   3.200  13.585 -0.3407 -1.0126  1.1931
 1693SOL    HW216539   4.274   3.284  13.692 -1.2108  0.1450  0.3234
 1694SOL     OW16540   4.593   4.719  17.068 -0.3585 -0.1278 -0.1291
 1694SOL    HW116541   4.550   4.705  17.153 -0.8178 -1.1229 -0.5366
 1694SOL    HW216542   4.648   0.069  17.104  1.1162  0.1425 -2.9379
 1695SOL     OW16543   2.817   1.194  11.810 -0.4057  0.0490 -0.0136
 1695SOL    HW116544   2.898   1.155  11.776 -0.4712 -1.8385  1.9442
 1695SOL    HW216545   2.811   1.263  11.744  0.0590  1.7260  1.7261
 1696SOL     OW16546   2.100   2.478  15.585 -0.5367  0.2025  0.3226
 1696SOL    HW116547   2.178   2.522  15.619  1.6826 -1.8949 -2.0907
 1696SOL    HW216548   2.096   2.392  15.627  1.1232 -0.1574 -0.2574
 1697SOL     OW16549   0.864   2.106   8.469 -0.1654 -0.0573 -0.0921
 1697SOL    HW116550   0.903   2.146   8.547  1.4323  2.2904 -2.1006
 1697SOL    HW216551   0.812   2.037   8.510 -0.6450 -0.1434 -0.8414
 1698SOL     OW16552   1.007   4.442   5.872 -0.9041  0.7575  0.1388
 1698SOL    HW116553   0.935   4.383   5.896 -1.9004  2.4715  1.4159
 1698SOL    HW216554   0.964   4.512   5.822  1.4135  0.5384 -2.1681
 1699SOL     OW16555   2.778   4.689   9.586 -0.5430  0.0374  0.5632
 1699SOL    HW116556   2.715   4.657   9.522  1.2320 -2.0805 -0.1038
 1699SOL    HW216557   2.831   4.616   9.616  0.4136  0.5256  0.0681
 1700SOL     OW16558   2.386   2.651  17.244  0.7332  0.0029  0.0283
 1700SOL    HW116559   2.385   2.567  17.290  2.1617 -0.5945 -1.0483
 1700SOL    HW216560   2.325   2.700  17.299  0.3175  0.1689 -0.5748
 1701SOL     OW16561   1.652   4.660   0.927 -0.2338 -0.3531 -0.1005
 1701SOL    HW116562   1.630   4.668   0.834  0.5522  0.7630 -0.2021
 1701SOL    HW216563   1.743   4.691   0.931 -0.0081 -0.7266 -2.2070
 1702SOL     OW16564   2.417   3.201   8.789 -0.2796 -0.6850  0.1834
 1702SOL    HW116565   2.418   3.295   8.771 -2.1230 -0.3374  1.8181
 1702SOL    HW216566   2.383   3.160   8.709 -1.4401  0.7046 -0.0418
 1703SOL     OW16567   4.552   1.553   1.254  0.2036 -0.2866  0.3356
 1703SOL    HW116568   4.610   1.566   1.180  1.5763 -1.9829  1.1244
 1703SOL    HW216569   4.473   1.525   1.208 -1.5366  3.0272  1.3128
 1704SOL     OW16570   1.906   2.829   3.267  0.5891  0.1523  0.1961
 1704SOL    HW116571   1.981   2.873   3.305 -0.2488  2.9646 -1.4507
 1704SOL    HW216572   1.867   2.903   3.222  0.4767 -0.5669 -0.8995
 1705SOL     OW16573   1.128   2.924   7.122  0.0498 -0.2109 -0.7669
 1705SOL    HW116574   1.168   2.909   7.037 -0.8566  0.5310 -1.3231
 1705SOL    HW216575   1.194   2.987   7.149 -1.8266  1.4649 -0.1013
 1706SOL     OW16576   2.008   2.703   2.506 -0.6708  0.1744 -0.0406
 1706SOL    HW116577   2.062   2.761   2.560  2.9545 -1.7356 -1.6263
 1706SOL    HW216578   2.055   2.623   2.532  0.6280  0.5302 -1.3257
 1707SOL     OW16579   3.860   1.321  15.521  0.3056 -0.1363  0.0320
 1707SOL    HW116580   3.830   1.409  15.501 -1.7691 -0.8070  0.1395
 1707SOL    HW216581   3.855   1.282  15.433 -0.5612  1.0322 -0.4298
 1708SOL     OW16582   2.170   3.684   5.472  0.1629  0.0060  0.0994
 1708SOL    HW116583   2.218   3.664   5.553  3.6045 -0.8312 -2.1693
 1708SOL    HW216584   2.179   3.599   5.429 -0.8233  0.8520 -1.7734
 1709SOL     OW16585   1.006   2.495   1.596  0.3872  0.2286  0.8848
 1709SOL    HW116586   0.937   2.545   1.554  1.4488 -0.2501 -1.4166
 1709SOL    HW216587   0.980   2.510   1.687 -0.3157  1.1980  0.5221
 1710SOL     OW16588   1.222   1.964   3.170 -0.1545  0.1828  0.0030
 1710SOL    HW116589   1.229   1.945   3.264 -0.1655 -2.3794 -0.4936
 1710SOL    HW216590   1.130   1.985   3.153  0.0646 -0.2443 -1.7062
 1711SOL     OW16591   2.867   3.347  11.887  0.1704 -0.1663 -0.8183
 1711SOL    HW116592   2.883   3.396  11.806  0.2047  2.7906  0.9920
 1711SOL    HW216593   2.871   3.417  11.952 -1.8012 -1.6536  0.9107
 1712SOL     OW16594   0.153   4.284   2.404  0.3740 -0.0434  0.2910
 1712SOL    HW116595   0.202   4.211   2.442 -0.1520 -0.5975 -0.0818
 1712SOL    HW216596   0.209   4.310   2.330 -0.4455  0.1955 -0.2422
 1713SOL     OW16597   1.492   2.503   9.301  0.9407 -0.3862  0.4076
 1713SOL    HW116598   1.501   2.415   9.336  2.6006 -0.8260 -1.1303
 1713SOL    HW216599   1.451   2.537   9.381 -1.2239 -0.4081 -0.6956
 1714SOL     OW16600   1.493   1.004   8.582 -0.5250 -0.0528  0.1028
 1714SOL    HW116601   1.400   1.025   8.579 -0.2122  1.2246 -0.7907
 1714SOL    HW216602   1.540   1.086   8.566 -0.4907 -0.2949 -1.0432
 1715SOL     OW16603   2.378   2.376   2.905 -0.2218 -0.2524  0.4019
 1715SOL    HW116604   2.359   2.288   2.872  2.5872 -0.9714  0.7283
 1715SOL    HW216605   2.298   2.428   2.895 -1.0817 -1.4817  0.7881
 1716SOL     OW16606   4.093   4.418   7.258  0.4296 -0.4987 -0.5683
 1716SOL    HW116607   4.142   4.500   7.257 -1.5031  0.6512 -0.8903
 1716SOL    HW216608   4.076   4.414   7.352  1.2291  0.4000 -0.3839
 1717SOL     OW16609   3.855   4.137   8.704  0.4879  0.2371  0.3113
 1717SOL    HW116610   3.925   4.202   8.700  0.3105  0.4236  0.2442
 1717SOL    HW216611   3.849   4.137   8.609 -0.5438  2.4724  0.3668
 1718SOL     OW16612   1.996   1.359   2.238 -0.0812 -0.2373  0.1280
 1718SOL    HW116613   1.961   1.282   2.283 -1.4297  1.2316  1.5860
 1718SOL    HW216614   2.070   1.321   2.190  1.8371  3.7867 -0.1495
 1719SOL     OW16615   1.879   4.597   7.596  0.0874  0.3749 -1.3862
 1719SOL    HW116616   1.845   4.681   7.568 -1.5442 -0.1331 -0.9241
 1719SOL    HW216617   1.812   4.539   7.561 -1.1356  1.1138 -0.2550
 1720SOL     OW16618   2.211   3.663   7.811  0.5636  0.4779  0.0740
 1720SOL    HW116619   2.302   3.652   7.841  0.2530 -3.0790 -0.2592
 1720SOL    HW216620   2.212   3.591   7.748  3.7991  0.2946  0.3324
 1721SOL     OW16621   4.268   1.940   6.007  0.4497  0.2632 -0.2082
 1721SOL    HW116622   4.342   1.883   6.029  1.0178  0.9711 -0.3134
 1721SOL    HW216623   4.200   1.874   5.991  0.1528 -0.2777  3.3685
 1722SOL     OW16624   2.862   1.400   8.619 -0.2485  0.1161 -0.0990
 1722SOL    HW116625   2.854   1.330   8.683 -1.4665 -0.0674 -0.4536
 1722SOL    HW216626   2.791   1.455   8.652 -0.2108 -0.2967  0.6668
 1723SOL     OW16627   3.210   4.529   3.227  0.3891 -0.0807  0.0733
 1723SOL    HW116628   3.128   4.578   3.219  0.1958 -0.1505  1.7413
 1723SOL    HW216629   3.169   4.443   3.216  1.4184 -0.4839 -0.6484
 1724SOL     OW16630   3.164   4.073  11.955  0.6095 -0.8308  0.0272
 1724SOL    HW116631   3.200   4.028  11.879 -0.0283 -0.1040 -0.7040
 1724SOL    HW216632   3.182   4.160  11.919  1.3475 -0.3463  1.5663
 1725SOL     OW16633   3.831   2.659   6.813  0.0114  0.1222 -0.8502
 1725SOL    HW116634   3.907   2.705   6.777 -1.0971  2.4189 -0.2212
 1725SOL    HW216635   3.759   2.722   6.815  0.1676  0.3139 -1.2625
 1726SOL     OW16636   1.093   2.202   8.076  0.4116  0.6917 -0.1642
 1726SOL    HW116637   1.107   2.271   8.011 -2.7831  1.2764 -0.2502
 1726SOL    HW216638   1.115   2.125   8.025 -0.1547  1.1956 -1.1726
 1727SOL     OW16639   2.221   3.187   7.329 -0.2224  0.0069  0.4085
 1727SOL    HW116640   2.160   3.115   7.343  1.8931 -2.2920 -2.2749
 1727SOL    HW216641   2.167   3.265   7.317 -0.3434 -0.0430  0.6293
 1728SOL     OW16642   2.110   4.371   6.605  0.5202  0.3355 -0.0015
 1728SOL    HW116643   2.085   4.286   6.569 -0.7434  0.2096  1.1741
 1728SOL    HW216644   2.092   4.357   6.698 -0.1109 -2.7781 -0.5776
 1729SOL     OW16645   3.809   1.518   7.299 -0.7421 -0.2410 -0.6952
 1729SOL    HW116646   3.902   1.498   7.307 -1.0599 -1.0494  1.1007
 1729SOL    HW216647   3.810   1.612   7.286  0.8516 -0.2480 -0.5893
 1730SOL     OW16648   3.093   2.597   0.933 -0.3794  0.2855 -0.1929
 1730SOL    HW116649   3.004   2.560   0.930 -0.7304  1.4492 -3.4927
 1730SOL    HW216650   3.083   2.682   0.977  1.8806 -0.2278  1.2916
 1731SOL     OW16651   1.205   0.962  15.722 -0.3249  0.5468  0.0412
 1731SOL    HW116652   1.206   1.029  15.653  2.1062  0.3250 -0.1421
 1731SOL    HW216653   1.178   0.885  15.673  1.0446  0.8112 -1.1712
 1732SOL     OW16654   4.341   0.986   2.034  0.0130 -0.2139 -0.5022
 1732SOL    HW116655   4.407   0.918   2.042  1.5176  1.0515 -2.0589
 1732SOL    HW216656   4.270   0.939   1.991 -0.4040  0.3852 -0.4689
 1733SOL     OW16657   0.094   2.297   7.983  0.0413  0.4133 -0.1129
 1733SOL    HW116658   0.183   2.317   8.011 -0.1816  2.3294 -0.7842
 1733SOL    HW216659   0.107   2.286   7.889 -3.9363 -0.6825 -0.5038
 1734SOL     OW16660   1.860   3.718   6.329 -0.0049 -0.5400 -0.0092
 1734SOL    HW116661   1.828   3.664   6.257  0.9823  0.7358 -1.4164
 1734SOL    HW216662   1.786   3.738   6.387 -1.5117 -1.3493 -1.6603
 1735SOL     OW16663   2.481   2.697   2.016  0.6225 -0.0788 -0.6725
 1735SOL    HW116664   2.404   2.684   2.072  1.0775  0.2440  0.0175
 1735SOL    HW216665   2.547   2.678   2.082 -1.2169  1.0988  1.5336
 1736SOL     OW16666   2.515   2.504   3.385 -0.4225  0.0176  0.8424
 1736SOL    HW116667   2.492   2.580   3.331  0.2569  0.1630  0.7541
 1736SOL    HW216668   2.527   2.448   3.308 -1.3422  0.2700  0.5209
 1737SOL     OW16669   0.517   3.250   5.263  0.0874  0.1990  0.5928
 1737SOL    HW116670   0.598   3.288   5.296  1.4268 -1.1548 -1.1595
 1737SOL    HW216671   0.494   3.296   5.183 -1.4248  0.3870  1.1288
 1738SOL     OW16672   2.787   0.222  17.651  0.2901  0.2924 -0.6248
 1738SOL    HW116673   2.794   0.173   0.046 -1.6918  2.6795  0.9619
 1738SOL    HW216674   2.700   0.194  17.622 -1.0955  0.5594  3.2138
 1739SOL     OW16675   2.350   2.014   2.211  0.0024 -0.5656 -0.0678
 1739SOL    HW116676   2.401   2.056   2.142  0.5841 -1.1736 -0.0026
 1739SOL    HW216677   2.270   2.067   2.204  1.5506  1.3941 -2.8054
 1740SOL     OW16678   1.186   1.543   0.416 -0.1905 -0.4491 -0.2665
 1740SOL    HW116679   1.208   1.616   0.474  2.4967  0.3551 -2.3385
 1740SOL    HW216680   1.160   1.593   0.338  1.7173 -2.0662 -1.9176
 1741SOL     OW16681   0.188   3.366   2.253  0.7130 -0.7042  0.4040
 1741SOL    HW116682   0.127   3.431   2.220  2.5973  0.2677 -1.1820
 1741SOL    HW216683   0.211   3.325   2.169  1.0609  0.7784 -0.2163
 1742SOL     OW16684   4.284   1.473   3.204 -0.4260 -0.4552 -0.4144
 1742SOL    HW116685   4.292   1.459   3.109 -1.0191 -2.0240 -0.2217
 1742SOL    HW216686   4.375   1.486   3.233 -0.4766  2.8205 -1.7321
 1743SOL     OW16687   3.826   0.132   2.440 -0.2260 -0.0030  0.3713
 1743SOL    HW116688   3.914   0.128   2.477 -1.1839 -0.0667  2.6465
 1743SOL    HW216689   3.820   0.227   2.425 -1.7396 -0.0979  0.4206
 1744SOL     OW16690   4.275   0.858   8.592 -0.0357 -0.0070  0.2362
 1744SOL    HW116691   4.348   0.854   8.531 -2.3699 -1.2476 -2.4988
 1744SOL    HW216692   4.289   0.934   8.648 -2.3673  1.2811 -0.9316
 1745SOL     OW16693   0.527   1.841   4.362  0.7034 -0.1289  0.0891
 1745SOL    HW116694   0.611   1.796   4.349  0.0489 -1.6011  0.9245
 1745SOL    HW216695   0.463   1.779   4.329  1.8484  0.3309 -2.9837
 1746SOL     OW16696   1.330   1.962   5.292 -0.9949  0.4002 -0.3167
 1746SOL    HW116697   1.245   1.952   5.334  0.0668 -2.8727  0.9926
 1746SOL    HW216698   1.325   2.055   5.271 -1.5245  0.6696  1.0292
 1747SOL     OW16699   3.583   0.846   8.937  0.3485  0.2504  0.3900
 1747SOL    HW116700   3.673   0.814   8.941  0.1964 -0.0764  1.3320
 1747SOL    HW216701   3.590   0.942   8.940  1.0738  0.2273 -0.6021
 1748SOL     OW16702   2.991   1.709   3.846 -0.3815  0.6327 -0.2229
 1748SOL    HW116703   3.059   1.648   3.876  0.1894  1.2104 -0.3182
 1748SOL    HW216704   2.929   1.644   3.814  0.3815  0.5276 -1.5033
 1749SOL     OW16705   3.045   1.323  16.612  0.0603  0.4532  0.0206
 1749SOL    HW116706   3.063   1.238  16.571 -0.1742  1.2836 -1.8365
 1749SOL    HW216707   3.071   1.387  16.546  1.8733  0.9962  1.2704
 1750SOL     OW16708   3.041   3.768  15.525  0.1808 -0.1980  0.1152
 1750SOL    HW116709   3.027   3.861  15.510 -0.9121 -0.5858 -1.2876
 1750SOL    HW216710   2.946   3.752  15.528  0.3075 -1.2246 -1.6559
 1751SOL     OW16711   2.235   3.100  15.441  0.1242 -0.0989  0.1125
 1751SOL    HW116712   2.212   3.190  15.417  1.8552  0.3391  0.0710
 1751SOL    HW216713   2.301   3.077  15.375  1.6862  1.8980  0.9756
 1752SOL     OW16714   4.052   3.105   5.725 -0.0905  0.4892  0.1976
 1752SOL    HW116715   3.998   3.182   5.743  1.0763  1.5578 -0.9002
 1752SOL    HW216716   3.988   3.041   5.693  2.1043 -0.8398 -1.5175
 1753SOL     OW16717   2.212   1.408  15.387  0.0973  0.3495 -0.2405
 1753SOL    HW116718   2.247   1.494  15.365  0.8806 -0.2892 -1.4907
 1753SOL    HW216719   2.119   1.424  15.406  0.5898  1.8570  0.8732
 1754SOL     OW16720   2.102   2.363   5.324 -0.1865 -0.0090 -1.3697
 1754SOL    HW116721   2.036   2.431   5.318 -1.3406 -1.0727 -0.6903
 1754SOL    HW216722   2.180   2.406   5.290 -0.9149  0.5980 -2.2533
 1755SOL     OW16723   0.467   1.941   8.706  0.0276 -0.1578  0.0652
 1755SOL    HW116724   0.462   1.871   8.771 -0.7694 -2.1161 -2.1063
 1755SOL    HW216725   0.559   1.963   8.721  0.1557 -2.2797  2.2697
 1756SOL     OW16726   0.338   1.577   3.198  0.1132  0.4057  0.8981
 1756SOL    HW116727   0.252   1.606   3.170  0.9652  1.4336 -0.6058
 1756SOL    HW216728   0.339   1.483   3.176  0.6118  0.8003 -0.7668
 1757SOL     OW16729   1.915   3.876   5.754  0.1558  0.9529 -0.1376
 1757SOL    HW116730   1.901   3.877   5.848  0.1021  3.5496 -0.1668
 1757SOL    HW216731   1.975   3.951   5.754 -0.6273  1.5716  1.9894
 1758SOL     OW16732   2.533   1.511  12.952 -0.2814 -0.1630 -0.4637
 1758SOL    HW116733   2.582   1.528  12.871  1.2503 -0.5752  0.3582
 1758SOL    HW216734   2.563   1.592  12.993 -0.4792 -0.0555 -0.5334
 1759SOL     OW16735   0.225   0.420   5.084  0.2436  0.1727  0.3201
 1759SOL    HW116736   0.203   0.513   5.071 -1.1290  0.0389  1.7482
 1759SOL    HW216737   0.282   0.398   5.010  1.6457 -0.0409  1.4814
 1760SOL     OW16738   0.523   2.537  14.025  0.1081  0.3062 -0.5736
 1760SOL    HW116739   0.583   2.598  14.067 -0.6827  0.5432  0.2153
 1760SOL    HW216740   0.564   2.452  14.040 -1.2912  0.1129  2.0515
 1761SOL     OW16741   0.076   2.271   4.484  0.0002 -1.0744 -0.2752
 1761SOL    HW116742   0.138   2.303   4.418 -1.0747  2.1162  0.2705
 1761SOL    HW216743   0.010   2.223   4.435 -0.0094 -0.3625 -0.9588
 1762SOL     OW16744   4.337   2.850   3.592 -0.4479 -0.0236  0.0602
 1762SOL    HW116745   4.347   2.903   3.513  0.5727  1.6415  1.2941
 1762SOL    HW216746   4.276   2.904   3.642 -0.4249  0.3027 -0.2624
 1763SOL     OW16747   2.795   1.637  10.379  0.2237  0.3465 -0.3886
 1763SOL    HW116748   2.804   1.724  10.418 -1.6262  1.0263 -1.4985
 1763SOL    HW216749   2.706   1.617  10.409  0.3313  0.8682  0.2764
 1764SOL     OW16750   1.730   4.185  16.509 -0.6616 -0.0595  0.0711
 1764SOL    HW116751   1.653   4.143  16.469 -1.0003 -0.3208  0.9999
 1764SOL    HW216752   1.797   4.195  16.442  1.7339  0.9485  2.6566
 1765SOL     OW16753   0.930   1.877   3.935 -0.2502  0.2026 -0.4300
 1765SOL    HW116754   0.915   1.910   4.024  0.0897 -3.2251  0.9202
 1765SOL    HW216755   0.947   1.785   3.954  1.6463  0.8770  1.1481
 1766SOL     OW16756   2.559   2.626   6.661  0.4432  0.4249  0.1253
 1766SOL    HW116757   2.554   2.721   6.668  0.8936  0.3635  1.3270
 1766SOL    HW216758   2.569   2.606   6.568 -1.3009 -0.2273  0.0743
 1767SOL     OW16759   1.663   0.981   6.678 -0.0769  0.1630 -0.1294
 1767SOL    HW116760   1.721   1.050   6.711 -0.5460  1.2014 -1.4617
 1767SOL    HW216761   1.669   0.919   6.750 -0.7869  1.9646  1.4527
 1768SOL     OW16762   0.514   3.121   0.052 -0.3702 -0.0176 -0.3070
 1768SOL    HW116763   0.491   3.180  17.668 -0.9355 -1.4828 -1.3580
 1768SOL    HW216764   0.599   3.162   0.070 -1.4275  2.2723 -0.5455
 1769SOL     OW16765   2.303   4.384   5.329  0.1768 -0.3840  0.2483
 1769SOL    HW116766   2.248   4.306   5.317  4.3995 -3.2031 -0.8811
 1769SOL    HW216767   2.261   4.448   5.273 -1.3869 -2.5382 -1.0414
 1770SOL     OW16768   1.979   3.722   7.417 -0.2288  0.0021  0.2640
 1770SOL    HW116769   2.058   3.775   7.406  0.7174 -1.2189  1.0198
 1770SOL    HW216770   1.954   3.717   7.510 -1.1977  1.9429  0.0924
 1771SOL     OW16771   1.808   0.675   2.740 -0.0783  0.0892  0.1667
 1771SOL    HW116772   1.843   0.684   2.651 -0.7141  1.0544  0.0068
 1771SOL    HW216773   1.759   0.756   2.752 -1.6797 -1.0399  1.2296
 1772SOL     OW16774   3.908   0.806   3.122 -0.0336  0.0335 -0.2889
 1772SOL    HW116775   3.942   0.852   3.198 -1.4604  1.0897 -0.2780
 1772SOL    HW216776   3.969   0.733   3.110  0.5733  0.4285  0.4369
 1773SOL     OW16777   0.325   2.741   1.675 -0.4140 -0.2682 -0.5503
 1773SOL    HW116778   0.314   2.813   1.613 -1.1225 -0.8546 -1.1084
 1773SOL    HW216779   0.301   2.666   1.621  0.0865 -0.4769 -0.4797
 1774SOL     OW16780   0.103   0.017   1.229  0.0711  0.0729  0.0128
 1774SOL    HW116781   0.158   0.095   1.221 -0.5226  0.3349 -1.5975
 1774SOL    HW216782   0.059   0.018   1.144  0.0978  1.0531  0.0074
 1775SOL     OW16783   4.276   3.013   5.847  0.0494 -0.4423  0.7498
 1775SOL    HW116784   4.229   3.060   5.778  0.2217 -2.7732 -0.9580
 1775SOL    HW216785   4.231   2.928   5.849 -1.4034  0.2943 -0.9003
 1776SOL     OW16786   2.354   1.858  16.832 -0.0870  0.0987 -0.5367
 1776SOL    HW116787   2.312   1.904  16.904  0.4924 -1.3557  0.7243
 1776SOL    HW216788   2.281   1.806  16.798 -1.0440  0.0367  1.6274
 1777SOL     OW16789   0.394   3.060   1.612  0.4767 -0.0222  0.5583
 1777SOL    HW116790   0.315   3.063   1.558  0.6057 -0.2854  0.3516
 1777SOL    HW216791   0.369   3.123   1.679  1.8336  1.3906 -0.2666
 1778SOL     OW16792   0.067   2.974  15.968 -0.4730  0.2688 -0.1871
 1778SOL    HW116793   0.017   2.941  16.043  1.0554 -0.5927  0.4481
 1778SOL    HW216794   0.129   2.904  15.948  0.1856  1.5236 -2.6010
 1779SOL     OW16795   0.512   4.195   5.621 -0.7565  0.1719  0.4730
 1779SOL    HW116796   0.503   4.101   5.605  1.1046 -0.2370  1.8249
 1779SOL    HW216797   0.422   4.223   5.602 -0.2096 -1.7725 -5.1817
 1780SOL     OW16798   4.008   1.510  17.127  0.8049  1.5719  0.5741
 1780SOL    HW116799   4.004   1.593  17.080  1.8806  0.9697 -0.5612
 1780SOL    HW216800   4.094   1.515  17.169  0.7798  1.5172  0.6330
 1781SOL     OW16801   3.954   3.873   2.372 -0.1986  0.2344 -0.2457
 1781SOL    HW116802   3.885   3.938   2.388  0.8490  1.5091 -0.8936
 1781SOL    HW216803   3.948   3.878   2.277  0.4237 -1.4004 -0.3635
 1782SOL     OW16804   3.463   2.866  15.098 -0.3829  0.3178 -0.0081
 1782SOL    HW116805   3.427   2.777  15.094 -1.1952  0.5825  1.2630
 1782SOL    HW216806   3.409   2.909  15.165 -0.4179  0.4883 -0.1461
 1783SOL     OW16807   1.897   0.694   3.179  0.0070 -0.7294  0.4071
 1783SOL    HW116808   1.951   0.637   3.233  3.1757  0.6604 -1.3312
 1783SOL    HW216809   1.858   0.748   3.247 -2.0163 -1.1992 -0.3512
 1784SOL     OW16810   1.030   0.036  14.190 -0.1330 -0.5424  0.3719
 1784SOL    HW116811   1.117   0.046  14.151 -1.0584  0.7868 -1.3500
 1784SOL    HW216812   1.048   0.037  14.284  0.3489  3.5217  0.2249
 1785SOL     OW16813   4.572   4.321   6.325 -0.1312  0.3856  0.2451
 1785SOL    HW116814   4.545   4.388   6.387  2.0413  1.2059  0.3007
 1785SOL    HW216815   4.660   4.352   6.303  0.0351 -0.9393 -1.0363
 1786SOL     OW16816   2.505   4.145   4.830 -0.1229 -0.3416 -0.1560
 1786SOL    HW116817   2.526   4.054   4.848 -2.2487 -0.9694 -0.7634
 1786SOL    HW216818   2.529   4.150   4.738 -0.8320 -0.3359 -0.3414
 1787SOL     OW16819   0.424   1.202   8.287  0.3392 -0.2924  0.2028
 1787SOL    HW116820   0.494   1.197   8.222  0.4928 -1.7364  0.4781
 1787SOL    HW216821   0.461   1.130   8.337 -1.4680 -1.1159  0.3235
 1788SOL     OW16822   2.894   1.436   4.546  0.3823  0.2508 -0.1850
 1788SOL    HW116823   2.988   1.422   4.532  0.6360  0.2027  1.5606
 1788SOL    HW216824   2.881   1.531   4.544 -0.0630  0.1559 -1.7992
 1789SOL     OW16825   0.706   1.586   1.645 -0.2121  0.3568 -0.4024
 1789SOL    HW116826   0.735   1.641   1.718 -0.6822  0.0711 -0.0001
 1789SOL    HW216827   0.791   1.589   1.600 -0.6442  2.6821 -1.0840
 1790SOL     OW16828   3.365   1.350   3.172 -0.1357  0.0051 -0.0326
 1790SOL    HW116829   3.341   1.259   3.190  0.3098  0.1741  1.3705
 1790SOL    HW216830   3.420   1.346   3.094  1.8279 -0.5990  1.3932
 1791SOL     OW16831   4.121   1.271   5.288  0.6289 -0.3782 -0.6895
 1791SOL    HW116832   4.106   1.236   5.200  0.1437  0.6751 -1.0305
 1791SOL    HW216833   4.181   1.201   5.313 -1.9984 -0.9741  4.0642
 1792SOL     OW16834   2.493   2.919   1.863 -0.0173  0.0614  0.4082
 1792SOL    HW116835   2.482   2.833   1.904  0.8546  0.4754  1.4973
 1792SOL    HW216836   2.484   2.901   1.769 -1.0321 -0.4118  0.5847
 1793SOL     OW16837   0.984   0.514   5.508  0.0368 -0.2752  0.3873
 1793SOL    HW116838   0.952   0.481   5.424 -0.3527 -0.6905  0.6956
 1793SOL    HW216839   1.057   0.568   5.481 -0.4660 -0.4602 -1.3523
 1794SOL     OW16840   3.694   4.044   8.928  0.4587 -0.0556  0.3946
 1794SOL    HW116841   3.734   4.120   8.970 -2.1388  0.9329  1.0269
 1794SOL    HW216842   3.739   4.049   8.843  0.9289  1.4877  0.7412
 1795SOL     OW16843   1.031   2.138   4.764 -0.1107 -0.1202  0.1784
 1795SOL    HW116844   1.076   2.222   4.750 -2.0436  0.8517 -0.1813
 1795SOL    HW216845   0.975   2.139   4.686  0.0233 -1.7491  0.0558
 1796SOL     OW16846   2.175   3.767   9.679 -0.0825 -0.2754  0.2855
 1796SOL    HW116847   2.160   3.861   9.692  1.0750  0.3109 -2.7817
 1796SOL    HW216848   2.093   3.741   9.721 -1.4432 -0.1892 -2.3779
 1797SOL     OW16849   1.948   2.893  11.652  0.1274 -0.5006  0.0019
 1797SOL    HW116850   1.931   2.986  11.664 -0.8380 -1.0111  2.8219
 1797SOL    HW216851   1.956   2.888  11.557 -0.9692 -0.3033 -0.1066
 1798SOL     OW16852   2.017   4.294   7.315  0.1757 -0.2851  0.0698
 1798SOL    HW116853   2.055   4.221   7.364 -1.1924  0.3946  2.1503
 1798SOL    HW216854   1.927   4.262   7.314 -0.3550  1.1757  0.7199
 1799SOL     OW16855   2.063   2.730   8.351 -0.0923 -0.6121 -0.0404
 1799SOL    HW116856   1.980   2.700   8.315 -1.1024  1.2481  0.7852
 1799SOL    HW216857   2.036   2.769   8.434 -3.0311  2.3352 -2.4254
 1800SOL     OW16858   4.157   3.140  11.626 -0.1034 -0.3036  0.2038
 1800SOL    HW116859   4.134   3.199  11.698 -1.7723 -1.4012  0.5798
 1800SOL    HW216860   4.236   3.097  11.659 -1.7268 -1.4223  2.6780
 1801SOL     OW16861   1.327   0.056   7.802  0.0199 -0.1444  0.1213
 1801SOL    HW116862   1.352   0.129   7.859 -1.8811  0.9680 -0.4486
 1801SOL    HW216863   1.232   0.050   7.815  0.1310  0.8795  1.4593
 1802SOL     OW16864   4.188   0.829  11.043 -0.6493  0.3783  0.0353
 1802SOL    HW116865   4.268   0.880  11.039  0.0880 -0.7817  0.1055
 1802SOL    HW216866   4.198   0.779  11.124 -0.6571 -0.6082 -0.5701
 1803SOL     OW16867   1.126   2.178   7.631 -0.0370  0.1401  0.4927
 1803SOL    HW116868   1.046   2.164   7.681 -0.2047 -1.9471 -0.3371
 1803SOL    HW216869   1.144   2.268   7.658  0.4360  0.6031 -1.3294
 1804SOL     OW16870   2.416   1.963   5.939  0.0254  0.7053 -0.2472
 1804SOL    HW116871   2.457   2.026   5.880 -1.5373  3.3250  1.4803
 1804SOL    HW216872   2.451   1.992   6.024 -1.0498 -0.2945  0.5394
 1805SOL     OW16873   0.197   1.418   3.749  0.4728 -0.2535  0.0280
 1805SOL    HW116874   0.102   1.420   3.736  0.6112  4.0324 -0.4233
 1805SOL    HW216875   0.226   1.490   3.694  1.3374 -1.9279 -1.6950
 1806SOL     OW16876   3.828   0.989  11.956 -0.4603  0.2933  0.2338
 1806SOL    HW116877   3.871   0.922  12.009  0.7031  0.3621 -0.6089
 1806SOL    HW216878   3.896   1.006  11.891 -0.6834 -0.7081 -0.2653
 1807SOL     OW16879   4.614   4.228  17.535  0.6561 -0.5071 -0.2599
 1807SOL    HW116880   4.573   4.311  17.558  0.3706 -0.9986  0.9943
 1807SOL    HW216881   4.695   4.250  17.581 -0.8560  2.0823  1.1741
 1808SOL     OW16882   0.167   4.628   6.492 -0.0698  0.2602 -0.3341
 1808SOL    HW116883   0.186   4.717   6.523  2.9265  0.3574 -2.5120
 1808SOL    HW216884   0.237   4.582   6.538 -0.2710 -1.4973 -1.7921
 1809SOL     OW16885   0.077   1.577   5.401 -0.4441 -0.0010  0.4250
 1809SOL    HW116886   0.168   1.587   5.426 -0.7505 -2.1963  2.3210
 1809SOL    HW216887   0.036   1.637   5.464  1.4086  0.3616  1.2742
 1810SOL     OW16888   2.507   3.074   8.235  0.3194 -0.4486  0.6054
 1810SOL    HW116889   2.445   3.004   8.255 -0.2763 -0.0666  0.1213
 1810SOL    HW216890   2.587   3.029   8.209 -0.3042 -0.9180 -0.5113
 1811SOL     OW16891   2.298   3.069  14.531 -0.1269  0.3361  0.1953
 1811SOL    HW116892   2.352   2.992  14.509 -1.2088 -0.7752  1.4552
 1811SOL    HW216893   2.256   3.047  14.613  2.1317 -0.2915  1.2025
 1812SOL     OW16894   4.133   2.178   3.144  0.6999  0.8525 -0.0793
 1812SOL    HW116895   4.227   2.189   3.155  0.9700 -0.5515 -0.9514
 1812SOL    HW216896   4.110   2.262   3.184  0.0447  0.3264  0.6481
 1813SOL     OW16897   4.309   4.644  10.576  0.5602  0.0753 -0.1922
 1813SOL    HW116898   4.364   4.683  10.508 -0.4324  0.3215 -0.8567
 1813SOL    HW216899   4.316   4.706  10.648 -1.5903  0.1479 -0.0535
 1814SOL     OW16900   0.492   1.251  14.860  0.3432 -0.0342 -0.4451
 1814SOL    HW116901   0.443   1.169  14.848 -1.0912  0.4714  2.1397
 1814SOL    HW216902   0.577   1.212  14.836 -0.3863 -0.8825 -1.6220
 1815SOL     OW16903   0.955   3.846   5.518 -0.3335 -0.5217 -0.2971
 1815SOL    HW116904   0.954   3.761   5.473  0.6360 -0.2562 -0.8250
 1815SOL    HW216905   0.920   3.913   5.459  2.0535 -2.1616 -3.6110
 1816SOL     OW16906   2.025   1.490  16.966 -0.4352  0.3850  0.1261
 1816SOL    HW116907   2.045   1.499  17.059  0.1469 -0.4489  0.0850
 1816SOL    HW216908   1.934   1.520  16.960 -1.6849 -3.2916  0.7630
 1817SOL     OW16909   1.248   1.149  11.853  0.2405  0.4331 -0.1981
 1817SOL    HW116910   1.318   1.194  11.900  1.6584 -0.6947 -1.2230
 1817SOL    HW216911   1.233   1.077  11.915  0.7159  0.9805  0.5451
 1818SOL     OW16912   1.027   1.751   6.613  0.6709  0.2970 -0.2831
 1818SOL    HW116913   0.974   1.672   6.605  1.6665 -0.3566 -0.2967
 1818SOL    HW216914   1.000   1.784   6.699  0.2009  0.3496 -0.4479
 1819SOL     OW16915   0.563   3.721   7.795 -0.5627 -0.2549 -0.0329
 1819SOL    HW116916   0.588   3.678   7.876 -0.7552  0.0457  0.1864
 1819SOL    HW216917   0.542   3.808   7.829 -2.2429 -1.3538  1.7495
 1820SOL     OW16918   2.017   3.420   4.584  0.3096  0.2621 -0.4720
 1820SOL    HW116919   2.017   3.383   4.673  1.5545  2.2638  0.3632
 1820SOL    HW216920   1.995   3.507   4.616 -0.2411  0.8333 -2.4436
 1821SOL     OW16921   1.723   0.001  12.136  0.6151  0.0389  0.5748
 1821SOL    HW116922   1.645   0.053  12.118  1.2541  0.7382 -0.1864
 1821SOL    HW216923   1.776   0.053  12.197  1.8696 -1.9928  1.2271
 1822SOL     OW16924   3.734   0.128   3.448 -0.1180  0.0987 -0.1107
 1822SOL    HW116925   3.804   0.190   3.469 -0.1280 -0.1018  0.5279
 1822SOL    HW216926   3.757   0.053   3.503 -0.5950  0.2290  0.2706
 1823SOL     OW16927   4.456   1.277   1.543 -0.2324  0.6012  0.1482
 1823SOL    HW116928   4.387   1.314   1.488  1.1094  0.3940 -1.6719
 1823SOL    HW216929   4.530   1.320   1.501 -0.2243  1.0946  0.6600
 1824SOL     OW16930   3.000   0.221  11.788 -0.1700 -0.4980 -0.5055
 1824SOL    HW116931   3.034   0.133  11.768 -1.6482 -1.6631  2.1890
 1824SOL    HW216932   3.084   0.257  11.816 -0.5463  0.0871 -0.1233
 1825SOL     OW16933   0.499   2.198   8.388 -0.6706  0.1489  0.8913
 1825SOL    HW116934   0.408   2.220   8.407 -0.9023 -0.0087 -0.0440
 1825SOL    HW216935   0.528   2.160   8.471 -0.5097 -0.3879  0.5890
 1826SOL     OW16936   1.616   1.679   5.215 -0.0931  1.0297  0.0425
 1826SOL    HW116937   1.528   1.716   5.222  0.0443  0.7036  3.2256
 1826SOL    HW216938   1.637   1.664   5.307  0.3639  0.1696 -0.1982
 1827SOL     OW16939   2.871   4.147  12.010  0.0512  0.0078 -0.0222
 1827SOL    HW116940   2.963   4.134  11.990  0.3613 -0.4830  1.7558
 1827SOL    HW216941   2.837   4.094  11.938 -1.0195  0.0652  0.4353
 1828SOL     OW16942   1.522   4.213   0.593  0.4486 -0.1485 -0.4575
 1828SOL    HW116943   1.437   4.173   0.613  0.8960 -0.6511  0.4635
 1828SOL    HW216944   1.575   4.135   0.607 -2.1912 -2.3634 -2.7538
 1829SOL     OW16945   2.843   0.525   2.151 -0.3740  0.6100 -0.3857
 1829SOL    HW116946   2.758   0.498   2.116  0.6315  1.3376 -3.4167
 1829SOL    HW216947   2.872   0.446   2.195  2.5889  2.7476  1.5430
 1830SOL     OW16948   3.199   2.599  17.684 -0.0198 -0.2919  0.8870
 1830SOL    HW116949   3.203   2.594   0.093 -0.1399  0.3563  0.9294
 1830SOL    HW216950   3.284   2.626  17.649 -0.9530  2.6253  0.8261
 1831SOL     OW16951   4.186   1.272   8.638  0.9090  0.1964 -0.1332
 1831SOL    HW116952   4.219   1.199   8.691  0.8091 -0.5013 -1.0243
 1831SOL    HW216953   4.266   1.314   8.606  1.4149 -0.7750 -0.1621
 1832SOL     OW16954   3.830   2.059   4.859  0.2977  0.3071  0.0758
 1832SOL    HW116955   3.877   2.119   4.801 -0.0814  1.5421  1.0398
 1832SOL    HW216956   3.738   2.082   4.845 -0.0560 -2.3015 -1.7139
 1833SOL     OW16957   2.470   2.375   2.119 -0.3789  0.6793 -0.2832
 1833SOL    HW116958   2.509   2.384   2.207  0.1859  0.5675 -0.5215
 1833SOL    HW216959   2.490   2.286   2.091  0.6286  0.1878  1.9935
 1834SOL     OW16960   1.313   1.747  13.080  0.5371 -0.2550 -0.1072
 1834SOL    HW116961   1.332   1.819  13.141  1.8744 -0.8302  0.1710
 1834SOL    HW216962   1.402   1.723  13.053 -0.8465 -4.0090 -1.3979
 1835SOL     OW16963   1.494   4.373   7.657 -0.7473 -0.5955  0.3002
 1835SOL    HW116964   1.434   4.438   7.622  1.4049  0.9583 -0.5347
 1835SOL    HW216965   1.494   4.400   7.748  1.6827 -0.2346  0.1938
 1836SOL     OW16966   2.671   0.555   5.051  0.2159  0.0051 -0.5231
 1836SOL    HW116967   2.719   0.637   5.042 -0.2517  0.4414  0.9298
 1836SOL    HW216968   2.709   0.510   4.976  1.5933 -0.5135  0.4830
 1837SOL     OW16969   0.610   1.029   8.123  0.3478 -0.3696 -0.4585
 1837SOL    HW116970   0.688   0.990   8.163  0.3604 -0.9648 -1.0725
 1837SOL    HW216971   0.656   1.082   8.058 -2.7291  0.8684 -1.6136
 1838SOL     OW16972   1.484   4.466   5.110 -0.7585 -0.0524 -0.4302
 1838SOL    HW116973   1.496   4.388   5.164 -2.0491 -0.4754 -0.7617
 1838SOL    HW216974   1.454   4.525   5.179 -1.6012 -1.9631  0.8241
 1839SOL     OW16975   2.819   2.536   0.974  0.2837  0.4428  0.0048
 1839SOL    HW116976   2.728   2.507   0.975 -0.1790  1.8909 -0.3564
 1839SOL    HW216977   2.852   2.476   1.041  1.1685  0.5094 -0.3747
 1840SOL     OW16978   3.739   4.027  11.510 -0.8958 -0.1045  0.2241
 1840SOL    HW116979   3.801   4.060  11.576 -1.2277 -0.3926  0.6817
 1840SOL    HW216980   3.801   3.984  11.451 -0.6496 -0.6884  0.9082
 1841SOL     OW16981   0.478   3.602   3.871  0.2908 -0.3298  0.2067
 1841SOL    HW116982   0.455   3.510   3.856 -1.6393  0.1799  0.0110
 1841SOL    HW216983   0.495   3.593   3.965  2.9177 -1.9768 -0.4231
 1842SOL     OW16984   1.547   2.123  13.447 -0.3652 -0.3048  0.3648
 1842SOL    HW116985   1.612   2.070  13.401 -2.8372 -1.5822 -1.6776
 1842SOL    HW216986   1.527   2.184  13.376 -0.0513  0.8528  1.2630
 1843SOL     OW16987   4.670   2.891   4.734  0.4763  0.1130 -0.3071
 1843SOL    HW116988   4.644   2.807   4.773  0.4902  1.1230  1.8616
 1843SOL    HW216989   4.678   2.940   4.816  1.8590 -0.0347 -0.3652
 1844SOL     OW16990   1.554   2.280  12.546 -0.3052 -0.5080 -0.2360
 1844SOL    HW116991   1.610   2.202  12.549 -0.5640 -0.7358 -1.4050
 1844SOL    HW216992   1.568   2.326  12.628  0.8350 -1.8276  0.3116
 1845SOL     OW16993   3.125   0.714   3.373 -0.0393 -0.0303  0.3146
 1845SOL    HW116994   3.208   0.710   3.326 -0.1861 -1.7446  0.2140
 1845SOL    HW216995   3.107   0.808   3.363  1.2630  0.0979 -0.9210
 1846SOL     OW16996   4.159   1.182   7.385  0.6734  0.2980  0.1039
 1846SOL    HW116997   4.173   1.193   7.479 -0.3470 -1.7899  0.4924
 1846SOL    HW216998   4.152   1.273   7.358  0.2760  0.7548  1.7988
 1847SOL     OW16999   4.653   0.452   1.020 -0.0218  0.6556 -0.0362
 1847SOL    HW117000   4.651   0.437   1.115  2.1746 -0.0938 -0.1140
 1847SOL    HW217001   4.653   0.361   0.990  0.9083  1.2119 -1.7126
 1848SOL     OW17002   2.719   1.480   4.253  0.1635  0.2784  0.1336
 1848SOL    HW117003   2.646   1.472   4.315  0.7714  0.6925  0.9038
 1848SOL    HW217004   2.666   1.538   4.198  0.3226  0.0805 -0.2297
 1849SOL     OW17005   1.801   3.602   6.091 -0.5107  0.0626 -0.1739
 1849SOL    HW117006   1.801   3.621   5.997 -1.1269  1.8382  0.1815
 1849SOL    HW217007   1.775   3.512   6.108  0.8365 -0.1675  0.6953
 1850SOL     OW17008   2.610   1.524   7.811  0.5507 -0.5263  0.0340
 1850SOL    HW117009   2.632   1.617   7.806  1.3523 -0.7801 -1.2421
 1850SOL    HW217010   2.615   1.494   7.720 -2.7624 -0.2511 -0.2172
 1851SOL     OW17011   3.298   1.754   8.176  0.6245  0.5010  0.0727
 1851SOL    HW117012   3.365   1.820   8.155 -0.8828  2.0276  0.0447
 1851SOL    HW217013   3.266   1.798   8.255  1.7533 -0.2503  0.9545
 1852SOL     OW17014   3.277   3.859  17.055 -0.1246 -0.0547 -0.6190
 1852SOL    HW117015   3.318   3.801  16.990  1.3533  0.1650  0.1197
 1852SOL    HW217016   3.301   3.813  17.135  1.0466 -1.5752 -1.8478
 1853SOL     OW17017   4.632   4.253  14.925  0.0856  0.0999 -0.9993
 1853SOL    HW117018   4.688   4.255  15.003 -1.2851 -2.9220  0.0411
 1853SOL    HW217019   4.562   4.200  14.962  1.3301 -1.6697 -1.1663
 1854SOL     OW17020   2.638   4.312   4.086 -0.1773 -0.2067  0.6786
 1854SOL    HW117021   2.602   4.387   4.134  0.3323  1.2742 -1.2809
 1854SOL    HW217022   2.641   4.344   3.996 -0.2083 -0.2147  0.6748
 1855SOL     OW17023   1.551   3.066   8.337 -0.0979 -0.0552 -0.4521
 1855SOL    HW117024   1.544   3.052   8.431  1.4110 -0.9607 -0.4892
 1855SOL    HW217025   1.492   3.142   8.335  2.0908  1.7311  2.8716
 1856SOL     OW17026   1.371   2.623   0.027  0.1402 -0.0435 -0.2683
 1856SOL    HW117027   1.316   2.688   0.070  1.5905  0.2810  1.0959
 1856SOL    HW217028   1.342   2.545   0.074 -5.1397  0.8090 -2.1118
 1857SOL     OW17029   0.014   1.381   4.785 -0.5063 -0.5657  0.0499
 1857SOL    HW117030   4.661   1.326   4.761 -1.4487 -0.6308  3.1722
 1857SOL    HW217031   0.088   1.321   4.787  1.1384  1.4182 -0.7089
 1858SOL     OW17032   1.196   0.793   2.947 -0.4642 -0.2305  1.0282
 1858SOL    HW117033   1.206   0.755   2.860 -3.7644  0.5443  0.3066
 1858SOL    HW217034   1.235   0.880   2.939  0.2046 -0.7462 -1.1593
 1859SOL     OW17035   1.464   0.826   6.065  0.6444 -0.0290  0.0973
 1859SOL    HW117036   1.449   0.865   5.979  2.6890  0.3455 -0.0772
 1859SOL    HW217037   1.487   0.898   6.124 -0.4093  0.7080 -0.3719
 1860SOL     OW17038   1.291   0.568  17.031  0.5619 -0.3346 -0.1145
 1860SOL    HW117039   1.321   0.526  17.111 -1.5452 -0.5247  0.5772
 1860SOL    HW217040   1.309   0.498  16.967 -1.4234  0.0024 -1.0586
 1861SOL     OW17041   4.579   3.638   1.823  0.4384  0.0589  0.0559
 1861SOL    HW117042   4.664   3.649   1.868  1.0861 -0.3565 -1.0718
 1861SOL    HW217043   4.576   3.543   1.828 -2.8049  0.2063  0.4788
 1862SOL     OW17044   3.396   2.817  17.535 -0.2208  0.7541 -0.4196
 1862SOL    HW117045   3.331   2.839  17.469 -1.6632 -0.5301  0.5700
 1862SOL    HW217046   3.461   2.775  17.479  1.3901  2.4302  0.1755
 1863SOL     OW17047   0.793   2.646   9.962 -0.1581  0.1080  0.5258
 1863SOL    HW117048   0.741   2.718   9.999  2.2122  1.6109  0.9506
 1863SOL    HW217049   0.779   2.678   9.873 -0.1452 -0.6711  0.2509
 1864SOL     OW17050   0.009   2.108   6.796 -0.2004  0.0990 -0.3308
 1864SOL    HW117051   0.052   2.184   6.758  2.2273 -0.2000  1.8689
 1864SOL    HW217052   4.662   2.085   6.732  0.2677 -2.1277 -0.0266
 1865SOL     OW17053   3.826   1.145   8.287  0.4015 -0.0197  0.5033
 1865SOL    HW117054   3.748   1.159   8.341 -0.8790 -0.2759 -1.2640
 1865SOL    HW217055   3.860   1.070   8.336 -1.8093 -0.9318  0.6811
 1866SOL     OW17056   1.183   3.433   9.025  0.5515  0.0245  0.1152
 1866SOL    HW117057   1.099   3.480   9.030 -0.2207 -1.6606  2.7066
 1866SOL    HW217058   1.193   3.409   9.117 -2.0575 -0.7255  0.2137
 1867SOL     OW17059   0.449   3.326   3.832 -0.0255 -0.0776 -0.1811
 1867SOL    HW117060   0.431   3.322   3.738  0.7737 -2.7730 -0.1977
 1867SOL    HW217061   0.537   3.289   3.829  0.0423  0.0044  0.8233
 1868SOL     OW17062   1.293   2.687   0.958 -0.2696 -0.0198 -0.6342
 1868SOL    HW117063   1.318   2.597   0.978  0.0029  0.0028 -0.8708
 1868SOL    HW217064   1.382   2.716   0.936  0.3494 -0.3744  1.4054
 1869SOL     OW17065   2.036   1.519  17.244  0.0273 -0.1267 -0.6692
 1869SOL    HW117066   2.002   1.431  17.227  0.6130 -0.5260  0.1991
 1869SOL    HW217067   2.103   1.511  17.312 -1.5800 -0.2146  0.9303
 1870SOL     OW17068   1.583   0.017   4.413  0.0454  0.2922 -0.3447
 1870SOL    HW117069   1.592   4.650   4.450  0.9484  0.7104  0.4427
 1870SOL    HW217070   1.639   0.014   4.335  0.5807 -0.9844  0.0766
 1871SOL     OW17071   0.040   2.118   7.636  0.0340  0.3303 -0.2139
 1871SOL    HW117072   0.116   2.083   7.589 -0.3776  1.2361 -1.5483
 1871SOL    HW217073   0.072   2.206   7.655 -3.8758  2.2325 -2.5057
 1872SOL     OW17074   2.617   4.549  15.922  0.2351  0.1357  0.0006
 1872SOL    HW117075   2.605   4.549  16.017  0.2281  1.5546 -0.0069
 1872SOL    HW217076   2.711   4.539  15.906  0.0405  0.8650 -1.6107
 1873SOL     OW17077   2.231   3.590   9.310 -1.0653  0.1756 -0.2454
 1873SOL    HW117078   2.216   3.684   9.320  1.7516  0.3707  2.1963
 1873SOL    HW217079   2.159   3.574   9.249 -0.8717 -1.7839  0.0492
 1874SOL     OW17080   0.936   3.969  10.040  0.0510  0.1106  0.0095
 1874SOL    HW117081   0.893   4.013  10.114  1.4482  1.4345  0.0188
 1874SOL    HW217082   1.008   3.931  10.090  1.2834  0.3502 -1.5871
 1875SOL     OW17083   0.302   4.145   0.885 -0.6429  0.0075 -0.3710
 1875SOL    HW117084   0.361   4.074   0.861 -0.1475  0.7669 -1.3634
 1875SOL    HW217085   0.233   4.113   0.828  0.2459 -0.6598 -1.0618
 1876SOL     OW17086   0.093   1.857   7.144 -0.2384 -0.4372 -0.0043
 1876SOL    HW117087   0.155   1.907   7.198 -0.0566 -0.4585 -0.1946
 1876SOL    HW217088   0.106   1.775   7.192 -1.4757 -0.2771  0.6083
 1877SOL     OW17089   4.609   1.646   3.310 -0.5951 -0.1162  0.4866
 1877SOL    HW117090   4.680   1.663   3.371  0.2193 -0.5524 -0.3384
 1877SOL    HW217091   4.547   1.709   3.348  1.2977  2.8315 -1.3385
 1878SOL     OW17092   0.203   2.735   3.701 -0.7380 -0.4245 -0.1606
 1878SOL    HW117093   0.240   2.695   3.622  2.8202 -1.0727  1.8658
 1878SOL    HW217094   0.200   2.827   3.676 -2.4294 -0.4067  0.0512
 1879SOL     OW17095   3.547   4.204   6.084  0.0578  0.2573 -0.2123
 1879SOL    HW117096   3.505   4.243   6.160  1.2800  0.8620  0.1596
 1879SOL    HW217097   3.522   4.276   6.027 -2.1055 -0.7041 -0.4484
 1880SOL     OW17098   2.602   0.615  14.346 -0.9003 -0.5096  0.2125
 1880SOL    HW117099   2.620   0.699  14.388  0.6883 -1.4072  1.3265
 1880SOL    HW217100   2.507   0.616  14.349 -0.9176  1.2765 -0.4781
 1881SOL     OW17101   4.452   3.672   2.180  0.6475  0.6197  0.1156
 1881SOL    HW117102   4.483   3.589   2.216  0.7202  0.6725  0.1758
 1881SOL    HW217103   4.385   3.686   2.247 -0.6285  4.6515 -2.0549
 1882SOL     OW17104   0.487   4.539   7.481  0.5603  0.3923  0.5479
 1882SOL    HW117105   0.547   4.565   7.551  0.2501  2.2237  0.1143
 1882SOL    HW217106   0.407   4.566   7.526 -1.4153 -1.5136 -1.8421
 1883SOL     OW17107   0.978   1.828   6.902  0.4546  0.5297 -0.1731
 1883SOL    HW117108   1.048   1.880   6.941  0.1544 -0.5707  1.8175
 1883SOL    HW217109   0.902   1.883   6.920 -0.7035 -0.8811 -0.6822
 1884SOL     OW17110   4.438   4.516   2.964  0.0916  0.0056 -0.4485
 1884SOL    HW117111   4.430   4.421   2.970  0.3612 -0.0368 -0.7803
 1884SOL    HW217112   4.508   4.527   2.899 -0.1785  3.1784 -0.2106
 1885SOL     OW17113   3.916   1.752   2.074  0.1437  0.0373 -0.2405
 1885SOL    HW117114   3.829   1.779   2.103  1.1545  1.1414  1.7948
 1885SOL    HW217115   3.962   1.825   2.115  0.2605 -0.5165  0.6299
 1886SOL     OW17116   4.451   0.056   4.525  0.5120  0.2217 -0.0310
 1886SOL    HW117117   4.532   0.042   4.476 -0.7302 -1.1887 -1.6831
 1886SOL    HW217118   4.466   4.715   4.596 -0.0613 -0.7024 -0.7319
 1887SOL     OW17119   4.134   4.310  15.700  0.1175 -0.1680 -0.0039
 1887SOL    HW117120   4.068   4.377  15.716  0.0576 -0.5790  1.4713
 1887SOL    HW217121   4.085   4.232  15.723 -1.3002  0.0300 -2.3894
 1888SOL     OW17122   0.342   1.018  14.805  0.2494  0.0701 -0.2718
 1888SOL    HW117123   0.358   0.973  14.887 -1.0805 -2.2037 -1.2590
 1888SOL    HW217124   0.332   0.951  14.738  0.2019  0.4415 -0.6387
 1889SOL     OW17125   4.045   4.524  13.167  0.0737 -0.2607  0.1273
 1889SOL    HW117126   4.100   4.453  13.136 -1.2890 -1.5128  0.5449
 1889SOL    HW217127   4.123   4.580  13.167  0.2497 -0.4949  3.1455
 1890SOL     OW17128   2.343   2.312   5.754  0.3252  0.1656 -0.2849
 1890SOL    HW117129   2.413   2.247   5.759 -0.8006 -0.8956  1.4851
 1890SOL    HW217130   2.395   2.389   5.728  1.3935 -1.2622 -2.3894
 1891SOL     OW17131   3.521   4.233   1.933 -0.3984 -0.3590 -0.4945
 1891SOL    HW117132   3.591   4.298   1.944 -3.5085  2.5235  1.9298
 1891SOL    HW217133   3.558   4.170   1.870  0.1551 -0.9696  0.4443
 1892SOL     OW17134   0.870   3.609   5.194  0.3030 -0.4404 -0.3012
 1892SOL    HW117135   0.822   3.583   5.116  0.8542 -1.3571 -0.3402
 1892SOL    HW217136   0.813   3.681   5.221  1.8819  0.5431  0.3906
 1893SOL     OW17137   2.902   3.009   9.000 -0.2499  0.0713 -0.4976
 1893SOL    HW117138   2.916   2.915   8.985 -1.1833 -0.1952  0.3373
 1893SOL    HW217139   2.965   3.029   9.069 -2.7873  2.8474  0.9856
 1894SOL     OW17140   3.050   4.438   5.531  0.5344 -0.4751 -0.4296
 1894SOL    HW117141   3.021   4.514   5.480  0.0182 -1.8690 -2.2370
 1894SOL    HW217142   2.965   4.393   5.532  0.9475 -1.2416  0.0069
 1895SOL     OW17143   0.815   4.030   5.344  0.2530 -0.3160  0.1944
 1895SOL    HW117144   0.800   4.091   5.416 -1.8255 -1.3901  0.6723
 1895SOL    HW217145   0.845   4.088   5.275  1.0624  0.1015  0.9015
 1896SOL     OW17146   1.229   2.965  14.382 -0.1549 -0.3789 -0.1061
 1896SOL    HW117147   1.301   3.018  14.347  0.1339 -0.7705 -0.1109
 1896SOL    HW217148   1.162   3.032  14.392  0.9537  0.9158 -1.2954
 1897SOL     OW17149   1.352   1.526   5.578 -0.1732 -0.0503 -0.5153
 1897SOL    HW117150   1.295   1.530   5.655 -0.3099 -0.0603 -0.6160
 1897SOL    HW217151   1.316   1.467   5.512  2.4125 -1.7740 -0.4017
 1898SOL     OW17152   0.798   1.365   9.787  0.3027  0.7615  0.4667
 1898SOL    HW117153   0.726   1.371   9.850 -1.0753  1.3311 -1.1862
 1898SOL    HW217154   0.752   1.372   9.704  1.6262 -0.9216 -0.3933
 1899SOL     OW17155   1.052   0.122   8.532  0.3821 -0.3619  0.6988
 1899SOL    HW117156   0.959   0.144   8.528  0.8865  1.4762 -0.6500
 1899SOL    HW217157   1.079   0.158   8.448  1.7736  0.3210  1.4338
 1900SOL     OW17158   0.247   3.088   6.297  0.1710 -0.4198 -0.1856
 1900SOL    HW117159   0.183   3.137   6.247  0.6167  0.6222  0.2804
 1900SOL    HW217160   0.329   3.113   6.255 -1.4204  0.4729 -2.7664
 1901SOL     OW17161   0.625   1.209   1.642  0.0480 -0.1683 -0.4412
 1901SOL    HW117162   0.653   1.142   1.704 -1.1625  1.5959  2.0240
 1901SOL    HW217163   0.638   1.164   1.559 -0.6969 -2.9231  0.9552
 1902SOL     OW17164   2.832   3.685   1.989 -0.4202 -0.0322 -0.5174
 1902SOL    HW117165   2.902   3.749   1.982  2.4949 -2.9191  2.1854
 1902SOL    HW217166   2.865   3.613   1.935 -0.3801 -0.4035 -0.0016
 1903SOL     OW17167   4.418   1.598  12.179 -0.2760  0.5406  0.2525
 1903SOL    HW117168   4.485   1.532  12.197  0.4295  1.5515  1.3421
 1903SOL    HW217169   4.355   1.544  12.132 -0.2279  1.0751 -0.4366
 1904SOL     OW17170   2.681   4.148   8.679 -0.1955  0.8698  0.2167
 1904SOL    HW117171   2.630   4.117   8.605  3.1162  0.4671 -1.9196
 1904SOL    HW217172   2.764   4.104   8.659 -0.6494 -0.8587  2.2345
 1905SOL     OW17173   2.447   0.523   4.333 -0.3109 -0.6511 -0.3712
 1905SOL    HW117174   2.417   0.496   4.419  0.9344  1.3448  0.6826
 1905SOL    HW217175   2.542   0.511   4.336 -0.1955  0.0189 -1.2519
 1906SOL     OW17176   2.652   1.653   2.861  0.6318  0.7881  0.0097
 1906SOL    HW117177   2.694   1.588   2.917  1.0705 -0.6177 -1.9521
 1906SOL    HW217178   2.574   1.674   2.913  0.1319  0.4000 -0.5739
 1907SOL     OW17179   3.765   2.198   5.134 -0.2042  0.1304 -0.3970
 1907SOL    HW117180   3.848   2.240   5.113  0.4826 -1.6406 -1.2527
 1907SOL    HW217181   3.750   2.170   5.043  0.0299 -1.1551 -0.0401
 1908SOL     OW17182   1.750   4.088   0.768  0.3356 -0.0432  0.3760
 1908SOL    HW117183   1.793   4.057   0.847  0.1394  1.0976  0.9257
 1908SOL    HW217184   1.793   4.041   0.696 -0.7718  2.2525 -1.7880
 1909SOL     OW17185   2.997   3.943   7.285  0.3185 -0.0726  0.7193
 1909SOL    HW117186   3.032   4.009   7.345 -1.8867 -1.2494  3.3165
 1909SOL    HW217187   2.912   3.984   7.270 -0.2243 -2.1534 -1.8335
 1910SOL     OW17188   2.939   4.007   3.402 -0.8753 -0.4137 -0.0117
 1910SOL    HW117189   2.860   4.039   3.445 -0.3853 -0.6768  1.0974
 1910SOL    HW217190   2.935   4.055   3.320 -1.1944 -1.4506 -0.6060
 1911SOL     OW17191   4.351   2.063  11.426  0.2871 -0.2339 -0.0762
 1911SOL    HW117192   4.342   2.105  11.512 -1.0880 -0.7608  0.0305
 1911SOL    HW217193   4.304   1.983  11.449 -1.4369  0.9202  0.3815
 1912SOL     OW17194   0.155   4.223   7.061 -0.1658  0.0029 -0.5124
 1912SOL    HW117195   0.159   4.312   7.096 -0.3487 -0.2742  0.2013
 1912SOL    HW217196   0.204   4.166   7.120 -0.4206 -0.6013 -0.8791
 1913SOL     OW17197   0.613   3.081  13.793 -0.2259  0.3383 -0.0368
 1913SOL    HW117198   0.651   3.008  13.843 -1.2596 -0.9790 -1.1807
 1913SOL    HW217199   0.667   3.079  13.714 -2.1020 -2.2148 -1.2605
 1914SOL     OW17200   2.391   0.433   7.417  0.1503 -0.3680  0.4592
 1914SOL    HW117201   2.365   0.385   7.338  0.4055  1.4661 -0.7453
 1914SOL    HW217202   2.415   0.520   7.385 -0.7345 -0.5992 -0.8406
 1915SOL     OW17203   4.444   1.497  11.893  0.1797  0.4802  0.7206
 1915SOL    HW117204   4.406   1.579  11.862  0.8957  0.4829 -0.1499
 1915SOL    HW217205   4.377   1.461  11.952  0.1542  0.7404  0.8529
 1916SOL     OW17206   4.674   3.784  16.649 -0.1720  0.3111 -0.3509
 1916SOL    HW117207   4.706   3.794  16.560  1.6102  0.4187  0.3103
 1916SOL    HW217208   4.681   3.876  16.676  1.5722 -0.6521  2.4029
 1917SOL     OW17209   0.746   3.301   7.847  0.3210 -0.5380 -0.0023
 1917SOL    HW117210   0.711   3.226   7.896 -1.0559  1.4026  1.9667
 1917SOL    HW217211   0.840   3.295   7.866 -0.1672  0.0660  2.6815
 1918SOL     OW17212   3.819   4.622   2.824  0.6114  0.5869 -0.3243
 1918SOL    HW117213   3.781   4.706   2.797 -0.9086  0.4496  1.3016
 1918SOL    HW217214   3.783   4.623   2.913 -3.4773 -1.8401 -1.9241
 1919SOL     OW17215   4.282   1.021   6.287  0.0169  0.1759  0.4264
 1919SOL    HW117216   4.339   1.044   6.360 -1.4770  0.4966  1.5087
 1919SOL    HW217217   4.346   1.011   6.217  0.8689  0.6626  1.1450
 1920SOL     OW17218   3.965   2.145  11.411  0.2225 -0.5660 -0.2463
 1920SOL    HW117219   4.002   2.058  11.394  0.7599 -0.0492 -1.6638
 1920SOL    HW217220   4.024   2.204  11.365  0.0829 -0.1574  0.0914
 1921SOL     OW17221   3.850   3.862  10.255 -0.1245  0.0133  0.4853
 1921SOL    HW117222   3.796   3.788  10.281  0.2881 -0.1771  0.8009
 1921SOL    HW217223   3.785   3.930  10.235  1.5181  1.1506 -1.0199
 1922SOL     OW17224   2.871   0.232   9.512 -0.2571  0.3893 -0.2015
 1922SOL    HW117225   2.792   0.271   9.550  0.7174  1.4610  0.7603
 1922SOL    HW217226   2.854   0.138   9.517  0.8102  0.2213  0.2606
 1923SOL     OW17227   3.194   2.848  10.839 -0.8585  0.4050 -0.1425
 1923SOL    HW117228   3.142   2.907  10.893  2.1579 -0.1693  3.3193
 1923SOL    HW217229   3.265   2.823  10.897 -0.8044 -2.2018 -1.3265
 1924SOL     OW17230   4.006   3.784   7.946 -0.0536  0.4984  0.5873
 1924SOL    HW117231   4.001   3.774   8.041  1.0671 -0.6120  0.5382
 1924SOL    HW217232   3.943   3.718   7.917 -1.6911  2.3759 -0.1218
 1925SOL     OW17233   1.721   3.950   5.062  0.4019 -0.0467 -0.1980
 1925SOL    HW117234   1.670   3.906   4.994  0.5042  0.5935 -0.6901
 1925SOL    HW217235   1.732   4.037   5.023  0.5662 -0.0903 -0.2514
 1926SOL     OW17236   2.162   1.817  16.083  0.9869 -0.7694  0.1436
 1926SOL    HW117237   2.124   1.828  16.170  2.1832  2.3169  0.2863
 1926SOL    HW217238   2.085   1.837  16.030  0.7475  1.3638  1.2948
 1927SOL     OW17239   2.669   1.536  17.431  0.1220  0.5391 -0.1129
 1927SOL    HW117240   2.609   1.462  17.441 -1.3464  1.3421 -2.8587
 1927SOL    HW217241   2.651   1.584  17.512 -0.6663  0.7042 -0.3903
 1928SOL     OW17242   0.612   3.793   3.231  0.2224 -0.2592  0.6459
 1928SOL    HW117243   0.703   3.768   3.245  0.3683 -0.4680 -0.7214
 1928SOL    HW217244   0.568   3.734   3.291 -1.0182  0.2532  0.2441
 1929SOL     OW17245   3.462   1.115   5.024 -0.7691 -0.4411 -0.7091
 1929SOL    HW117246   3.376   1.075   5.032 -1.2205  0.6456 -0.1606
 1929SOL    HW217247   3.439   1.204   4.996  1.0297 -0.6629 -2.9152
 1930SOL     OW17248   1.068   1.511   1.870  0.8501  0.3331 -0.5209
 1930SOL    HW117249   1.088   1.417   1.860 -3.2479 -0.5826 -0.1319
 1930SOL    HW217250   0.990   1.513   1.925  0.1988 -0.2031 -1.4272
 1931SOL     OW17251   2.939   1.962   4.732  0.1424  0.0215 -0.0901
 1931SOL    HW117252   2.882   1.901   4.684 -1.3970 -0.0609  1.8598
 1931SOL    HW217253   3.020   1.912   4.721  0.8217  0.9983  0.5880
 1932SOL     OW17254   3.593   4.659  17.648 -0.0200 -0.3952 -0.0440
 1932SOL    HW117255   3.566   4.656  17.557 -1.5016  0.4962  0.3632
 1932SOL    HW217256   3.574   0.027  17.676  2.7004 -0.0795  0.7586
 1933SOL     OW17257   0.127   0.575   9.436  0.4543  0.0506 -0.2584
 1933SOL    HW117258   0.058   0.635   9.466 -1.3756 -1.4422 -1.4739
 1933SOL    HW217259   0.083   0.537   9.360 -0.1038 -1.2048  0.6912
 1934SOL     OW17260   1.898   3.838  10.034 -0.2080  0.1413  0.5767
 1934SOL    HW117261   1.876   3.828  10.127  1.6319  0.6745  1.0656
 1934SOL    HW217262   1.857   3.922  10.013 -1.6621 -0.9264 -0.8661
 1935SOL     OW17263   0.967   1.482   2.937 -0.1218  0.0329  0.0885
 1935SOL    HW117264   1.043   1.538   2.922 -0.6631  0.0301 -2.7478
 1935SOL    HW217265   0.965   1.450   2.846 -2.0072  2.1925 -0.6386
 1936SOL     OW17266   3.753   0.873   3.475 -0.0985  0.2262 -0.3674
 1936SOL    HW117267   3.705   0.938   3.527  3.1775  1.7626  0.7439
 1936SOL    HW217268   3.682   0.810   3.466 -0.5916  0.7525 -0.1571
 1937SOL     OW17269   1.022   3.205   2.385  0.2403  0.4377  0.0238
 1937SOL    HW117270   1.003   3.192   2.478  0.6647  1.5580  0.2691
 1937SOL    HW217271   1.108   3.247   2.390  0.7392 -0.3441 -1.8284
 1938SOL     OW17272   2.834   1.145   4.929 -0.4173  0.4646  0.2456
 1938SOL    HW117273   2.749   1.105   4.910 -0.8140  2.2269 -1.6761
 1938SOL    HW217274   2.797   1.217   4.980 -0.5516  0.1565  0.5802
 1939SOL     OW17275   2.703   4.617  14.928 -0.4143  0.4303  0.3817
 1939SOL    HW117276   2.655   4.547  14.884  0.2735  0.9114 -1.1320
 1939SOL    HW217277   2.632   4.681  14.941 -0.1187  1.1875 -1.6494
 1940SOL     OW17278   0.042   3.334   0.746  0.2735  0.1654  0.0488
 1940SOL    HW117279   4.716   3.295   0.820  0.5691  0.0500  0.1762
 1940SOL    HW217280   0.070   3.263   0.687  1.1220 -0.8899  1.7448
 1941SOL     OW17281   4.135   2.387   0.296  0.3385  0.3122  0.1543
 1941SOL    HW117282   4.201   2.332   0.253 -0.4586  0.4373 -1.2542
 1941SOL    HW217283   4.191   2.421   0.365  0.3254 -0.6538  0.6333
 1942SOL     OW17284   2.388   3.010  15.227  0.9157 -0.3098 -0.0878
 1942SOL    HW117285   2.435   2.943  15.277 -1.1275  0.1890  2.4969
 1942SOL    HW217286   2.458   3.037  15.167 -0.3267 -1.2733 -1.9864
 1943SOL     OW17287   2.539   1.695  11.558 -0.0660  0.1506  0.2362
 1943SOL    HW117288   2.493   1.613  11.541  1.4729 -0.3354 -1.6239
 1943SOL    HW217289   2.601   1.672  11.627  0.2175  2.5089  0.7591
 1944SOL     OW17290   2.655   1.391   5.654 -0.0191 -0.2190 -0.0832
 1944SOL    HW117291   2.654   1.382   5.749  1.6080  0.7215  0.0281
 1944SOL    HW217292   2.693   1.311   5.619  0.3840 -0.5803  1.1683
 1945SOL     OW17293   4.304   2.172   1.718 -0.1347 -0.2020  0.1869
 1945SOL    HW117294   4.244   2.100   1.699 -0.7374  0.7299 -1.4357
 1945SOL    HW217295   4.356   2.133   1.789 -0.1924 -2.1902 -0.8851
 1946SOL     OW17296   0.806   3.602   4.414  0.2879 -0.3242  0.3656
 1946SOL    HW117297   0.826   3.688   4.451 -0.3247  0.6534 -1.5873
 1946SOL    HW217298   0.712   3.619   4.421  0.7392  1.7299  1.5854
 1947SOL     OW17299   0.633   0.507   0.205 -0.1860  0.5708 -0.3949
 1947SOL    HW117300   0.677   0.428   0.173  1.1391  1.7619 -1.4842
 1947SOL    HW217301   0.669   0.518   0.293  0.2959 -0.3104 -0.4865
 1948SOL     OW17302   2.896   3.594  12.642  0.1391 -0.3114  0.5192
 1948SOL    HW117303   2.829   3.627  12.702 -1.7470 -0.8504 -1.3291
 1948SOL    HW217304   2.937   3.526  12.695  0.1515  0.3719  1.3940
 1949SOL     OW17305   0.430   1.802   0.149  0.4537 -0.6275  0.4221
 1949SOL    HW117306   0.506   1.854   0.125  0.3304 -0.2655  0.8248
 1949SOL    HW217307   0.445   1.795   0.243  1.0533 -0.1381  0.3586
 1950SOL     OW17308   2.608   4.521   7.458 -0.5369  0.2012 -0.1047
 1950SOL    HW117309   2.530   4.521   7.403 -0.4489  2.0293 -0.2284
 1950SOL    HW217310   2.577   4.585   7.522  2.0643  0.1432  1.2455
 1951SOL     OW17311   4.274   2.321   4.291  0.4723  0.0950  0.2025
 1951SOL    HW117312   4.315   2.241   4.257 -0.1795  0.6318 -1.8242
 1951SOL    HW217313   4.335   2.391   4.272  1.5639 -0.2325  2.4510
 1952SOL     OW17314   4.014   0.282   3.673 -0.3351 -0.4025 -0.4161
 1952SOL    HW117315   4.070   0.295   3.750 -0.2409  0.0037 -0.5521
 1952SOL    HW217316   3.964   0.205   3.700 -0.1041 -0.2649  0.4259
 1953SOL     OW17317   2.440   4.540   1.780  0.3208  0.3748  0.7343
 1953SOL    HW117318   2.508   4.545   1.846  0.8605  0.8694  0.1347
 1953SOL    HW217319   2.378   4.603   1.816  1.4864  1.3946  0.9491
 1954SOL     OW17320   2.798   1.998   4.969  0.2953  0.5532  0.0888
 1954SOL    HW117321   2.852   1.983   4.892  0.4929 -0.7724  0.4760
 1954SOL    HW217322   2.772   2.090   4.959  0.6265  0.5765 -0.5385
 1955SOL     OW17323   3.300   0.695  14.840 -0.1017 -0.4896 -0.2860
 1955SOL    HW117324   3.234   0.671  14.905  0.1079  1.6485  0.6880
 1955SOL    HW217325   3.303   0.616  14.785 -2.2660 -0.0619 -1.0140
 1956SOL     OW17326   1.351   4.512  15.899 -0.1749  0.3326  0.4098
 1956SOL    HW117327   1.351   4.548  15.988  0.2607 -1.9630  1.3466
 1956SOL    HW217328   1.257   4.498  15.891  0.1775 -0.0014 -3.1200
 1957SOL     OW17329   3.191   1.641   6.068  0.1110  0.0459  0.1191
 1957SOL    HW117330   3.176   1.547   6.073 -2.4091  0.4901  0.8452
 1957SOL    HW217331   3.149   1.678   6.146 -0.8722  0.2618 -0.5172
 1958SOL     OW17332   2.068   2.685   3.531 -0.8474  0.3089  0.2608
 1958SOL    HW117333   2.123   2.663   3.456  0.6500 -0.8697  1.6958
 1958SOL    HW217334   2.051   2.779   3.521 -0.3131  0.3213 -0.5575
 1959SOL     OW17335   2.479   0.368   6.231  0.1768  0.5428  0.0282
 1959SOL    HW117336   2.389   0.367   6.198  0.5559  1.2994 -1.0075
 1959SOL    HW217337   2.534   0.349   6.156  1.3845  0.7431  0.8710
 1960SOL     OW17338   4.162   1.398   2.513  0.3332 -0.2758  0.5684
 1960SOL    HW117339   4.253   1.376   2.494  0.9260  0.7264  2.2147
 1960SOL    HW217340   4.162   1.455   2.591 -0.0775 -0.7175  0.8953
 1961SOL     OW17341   2.073   3.809   7.024  0.0836  0.1945 -0.2990
 1961SOL    HW117342   2.012   3.780   7.092  2.5749 -3.4019  0.4043
 1961SOL    HW217343   2.106   3.731   6.979 -0.1663  0.5537 -1.0954
 1962SOL     OW17344   4.051   2.212   6.310 -0.0429 -0.0630 -0.0391
 1962SOL    HW117345   4.066   2.273   6.239 -2.1891  1.7084  1.0049
 1962SOL    HW217346   4.071   2.264   6.388  0.5261  1.2156 -1.0506
 1963SOL     OW17347   1.534   0.942   4.586 -0.1031 -0.6060  0.4140
 1963SOL    HW117348   1.485   1.008   4.538 -0.7981 -0.3960  1.4157
 1963SOL    HW217349   1.595   0.997   4.635 -0.8690  2.3936 -2.0602
 1964SOL     OW17350   2.693   1.282   4.649  0.4893  0.7364 -0.9516
 1964SOL    HW117351   2.631   1.343   4.687 -0.1016  0.3624 -1.3048
 1964SOL    HW217352   2.764   1.339   4.621  0.6334  0.8029 -0.4406
 1965SOL     OW17353   4.268   3.822  13.340  0.2497  0.7886  0.1457
 1965SOL    HW117354   4.250   3.734  13.307 -3.4594  1.1212  1.2626
 1965SOL    HW217355   4.312   3.863  13.266  0.0385  0.0975 -0.3559
 1966SOL     OW17356   0.110   4.150  14.154 -0.5040 -0.6541 -0.2885
 1966SOL    HW117357   0.051   4.085  14.116  0.9933 -0.7677 -2.4282
 1966SOL    HW217358   0.191   4.111  14.121  0.5194  1.6121 -0.4554
 1967SOL     OW17359   1.133   3.268   1.709 -0.4075 -0.1392 -0.3714
 1967SOL    HW117360   1.201   3.202   1.723  0.0765  0.2882 -0.6793
 1967SOL    HW217361   1.184   3.337   1.667  0.2301 -0.0249  0.5877
 1968SOL     OW17362   2.917   0.518   8.563  0.3641  0.5343 -0.1941
 1968SOL    HW117363   2.866   0.438   8.577 -2.8691  2.8406  1.2407
 1968SOL    HW217364   2.913   0.509   8.468  0.0087 -0.0514 -0.1224
 1969SOL     OW17365   1.941   2.982   4.285 -0.2076 -0.0165 -0.6440
 1969SOL    HW117366   1.945   3.005   4.192 -0.1344 -0.2847 -0.7057
 1969SOL    HW217367   1.994   2.903   4.296  0.4153  0.6628  1.1605
 1970SOL     OW17368   4.076   1.525   1.423 -0.1938  0.3227  0.3314
 1970SOL    HW117369   4.112   1.597   1.371 -1.4370  0.4973 -0.2989
 1970SOL    HW217370   3.995   1.571   1.444  0.3622  0.9551  1.1062
 1971SOL     OW17371   1.875   2.416   8.135  0.0195 -0.5253  0.2163
 1971SOL    HW117372   1.970   2.407   8.134  0.0639 -0.2150  3.1315
 1971SOL    HW217373   1.851   2.324   8.144  1.7998 -1.0675 -0.4513
 1972SOL     OW17374   2.187   3.051   3.834 -0.1362 -0.3855 -0.2766
 1972SOL    HW117375   2.238   3.050   3.753  0.8933 -0.1712  0.3587
 1972SOL    HW217376   2.176   3.144   3.851 -1.5816 -0.9899  2.1501
 1973SOL     OW17377   4.022   2.068   7.095 -0.3485  0.1826 -0.5151
 1973SOL    HW117378   4.075   2.040   7.020  2.6406  0.5167  1.4504
 1973SOL    HW217379   4.091   2.053   7.161 -1.2665 -0.6838  0.2481
 1974SOL     OW17380   3.550   2.791   6.475  0.5117  0.1665 -0.2821
 1974SOL    HW117381   3.615   2.774   6.407 -0.7640 -2.7840 -0.7866
 1974SOL    HW217382   3.532   2.705   6.514  1.5595  0.1698  0.2179
 1975SOL     OW17383   0.481   4.403   4.170 -0.5528 -0.5715  0.3690
 1975SOL    HW117384   0.397   4.356   4.177 -0.1339 -1.4767 -0.6760
 1975SOL    HW217385   0.452   4.476   4.115  0.4735 -0.2045  0.3282
 1976SOL     OW17386   0.518   4.182  15.610 -0.8787  0.5031 -0.2982
 1976SOL    HW117387   0.595   4.150  15.657 -1.2616  0.8841  0.5877
 1976SOL    HW217388   0.455   4.155  15.677 -0.6550  0.8842  0.0665
 1977SOL     OW17389   1.276   2.455   4.234  0.6157  0.2106  0.2389
 1977SOL    HW117390   1.218   2.489   4.302 -1.7022 -1.2822 -1.0017
 1977SOL    HW217391   1.247   2.365   4.223 -0.7419  0.6386  0.2845
 1978SOL     OW17392   2.739   3.015   9.450 -0.3408 -0.3374 -0.1107
 1978SOL    HW117393   2.657   2.979   9.482  0.1494 -1.4169 -0.0660
 1978SOL    HW217394   2.728   3.100   9.493  0.5285 -0.6518  0.7543
 1979SOL     OW17395   0.153   2.266  10.478  0.1401  0.0339  0.0316
 1979SOL    HW117396   0.170   2.333  10.412 -1.0310 -0.7133 -1.0178
 1979SOL    HW217397   0.159   2.325  10.554 -1.9905  0.2108  0.0503
 1980SOL     OW17398   1.617   4.563  14.759 -0.4791  0.7045  0.2467
 1980SOL    HW117399   1.649   4.580  14.671  0.7823  0.0934  0.5924
 1980SOL    HW217400   1.634   4.469  14.767  2.3766  1.2035 -0.2695
 1981SOL     OW17401   1.820   1.060   7.125 -0.2483 -0.6102 -0.2480
 1981SOL    HW117402   1.860   1.046   7.039 -2.1186  0.6560 -1.3202
 1981SOL    HW217403   1.788   1.150   7.122 -0.8311 -0.8055  0.0261
 1982SOL     OW17404   3.973   2.783   2.414 -0.3950  0.5519  0.1041
 1982SOL    HW117405   3.955   2.730   2.492 -2.2961  0.2259 -0.5555
 1982SOL    HW217406   4.054   2.824   2.445 -0.3553  0.6574 -0.1362
 1983SOL     OW17407   3.341   3.697   3.778  0.1947  0.3477  0.5360
 1983SOL    HW117408   3.429   3.675   3.747 -1.2031 -0.6229 -2.7689
 1983SOL    HW217409   3.349   3.786   3.811 -1.1765  0.6416  0.1017
 1984SOL     OW17410   4.690   2.870   7.982  0.5878  0.5054 -0.5469
 1984SOL    HW117411   4.705   2.924   7.905 -0.1091 -1.1053 -1.8208
 1984SOL    HW217412   4.638   2.935   8.029  0.5104  1.2480 -1.6780
 1985SOL     OW17413   2.563   2.927   9.810  0.3670 -0.2270 -0.5018
 1985SOL    HW117414   2.505   3.004   9.812 -0.7721 -1.0516 -1.6913
 1985SOL    HW217415   2.617   2.950   9.885  0.9718 -0.9451 -0.7249
 1986SOL     OW17416   3.476   0.926   7.687  0.3358 -0.0167 -0.3342
 1986SOL    HW117417   3.495   0.860   7.619 -1.4218 -0.7210 -0.1470
 1986SOL    HW217418   3.540   0.996   7.676 -0.0156 -0.1098 -3.2278
 1987SOL     OW17419   1.762   3.417   0.741 -0.2461 -0.2659  0.2813
 1987SOL    HW117420   1.690   3.470   0.775 -0.5138 -0.4016 -0.0787
 1987SOL    HW217421   1.827   3.414   0.811 -0.8127 -2.0927  0.7387
 1988SOL     OW17422   3.508   3.077  11.291  0.1001 -0.6929  0.4827
 1988SOL    HW117423   3.457   3.054  11.369  0.6382 -1.0463  0.7357
 1988SOL    HW217424   3.513   2.996  11.239 -1.2068  0.5470 -1.5375
 1989SOL     OW17425   4.039   0.515   4.468  0.3575 -0.2471 -0.3917
 1989SOL    HW117426   4.110   0.559   4.422 -0.8415  0.4094 -1.6118
 1989SOL    HW217427   4.074   0.524   4.557  3.1718 -0.9976 -1.4288
 1990SOL     OW17428   2.254   0.413  11.824  0.6979 -0.2283  0.4654
 1990SOL    HW117429   2.232   0.327  11.859  1.1078 -2.1104 -3.8795
 1990SOL    HW217430   2.324   0.430  11.887 -0.2465  0.1684  1.4083
 1991SOL     OW17431   0.896   1.809  12.733 -0.4077 -0.0931 -0.0265
 1991SOL    HW117432   0.962   1.820  12.801 -1.7421  0.7191  1.1275
 1991SOL    HW217433   0.823   1.849  12.779  1.2751  3.8217 -0.8074
 1992SOL     OW17434   2.790   0.743  12.960  0.0649 -0.3444  0.0192
 1992SOL    HW117435   2.751   0.817  13.005 -0.1410 -0.3079 -0.2169
 1992SOL    HW217436   2.843   0.709  13.032 -1.4554  1.4942  1.9764
 1993SOL     OW17437   0.319   2.461   4.077 -0.3570 -0.0382  0.2718
 1993SOL    HW117438   0.359   2.535   4.032  3.0658 -3.0169 -1.5142
 1993SOL    HW217439   0.250   2.435   4.016  0.9965 -1.7119 -0.5443
 1994SOL     OW17440   2.352   3.364   9.525 -0.2606  0.2634 -0.5130
 1994SOL    HW117441   2.308   3.279   9.517  0.2281 -0.3373  3.1858
 1994SOL    HW217442   2.306   3.407   9.597 -3.8219 -1.1719 -1.8882
 1995SOL     OW17443   2.700   3.541   7.294 -0.7619 -0.2270 -0.0591
 1995SOL    HW117444   2.761   3.581   7.355  1.4204 -1.0607 -1.7027
 1995SOL    HW217445   2.667   3.464   7.340 -0.4033 -0.6783 -0.5548
 1996SOL     OW17446   3.318   1.556   7.296 -0.4458  0.1485  0.6499
 1996SOL    HW117447   3.325   1.626   7.361  0.2647  0.3087  0.4044
 1996SOL    HW217448   3.361   1.482   7.339 -0.2953 -0.5871 -0.7563
 1997SOL     OW17449   2.669   1.320  16.203 -0.3201 -0.4865 -0.2857
 1997SOL    HW117450   2.676   1.414  16.186 -2.9631 -0.4535 -1.3070
 1997SOL    HW217451   2.642   1.301  16.112  1.6926 -1.8086 -0.5982
 1998SOL     OW17452   3.965   4.008   6.730 -0.1527 -0.3460 -0.3175
 1998SOL    HW117453   3.929   3.947   6.666  0.1718  1.4060 -2.1999
 1998SOL    HW217454   3.904   4.081   6.715 -0.2975 -0.5129 -0.5454
 1999SOL     OW17455   1.875   2.141   8.118  0.2495  0.1883  0.1631
 1999SOL    HW117456   1.913   2.064   8.161  3.5770  3.1644  2.6089
 1999SOL    HW217457   1.786   2.127   8.151  1.4350 -2.9736  2.0059
 2000SOL     OW17458   2.084   3.814  14.557  0.1286 -0.0613 -0.2920
 2000SOL    HW117459   2.025   3.777  14.492 -0.3651 -0.9954  0.6996
 2000SOL    HW217460   2.031   3.806  14.637  1.0794 -0.0174  0.3501
 2001SOL     OW17461   2.238   1.725   2.233  0.1130  0.2018  0.0942
 2001SOL    HW117462   2.222   1.810   2.192 -1.5867  0.7953  2.0152
 2001SOL    HW217463   2.257   1.754   2.322  0.7745  0.5124 -0.1464
 2002SOL     OW17464   3.431   0.071   3.859 -0.5928  0.4966  0.0991
 2002SOL    HW117465   3.361   0.113   3.809  0.3438  1.0632 -0.7547
 2002SOL    HW217466   3.378   0.005   3.903 -1.4319 -0.3857 -2.2349
 2003SOL     OW17467   3.287   3.873  12.082  0.1382  0.2060 -0.5106
 2003SOL    HW117468   3.234   3.945  12.047  0.8773  1.4751  0.9825
 2003SOL    HW217469   3.255   3.798  12.032  1.0637 -0.8784  0.5454
 2004SOL     OW17470   0.622   3.819   5.800 -0.4834 -0.4797  0.2388
 2004SOL    HW117471   0.654   3.787   5.884  0.3940 -0.6912 -0.1770
 2004SOL    HW217472   0.668   3.753   5.748 -0.2894  1.1233 -1.6480
 2005SOL     OW17473   0.217   0.856   4.192  1.0455 -0.3039 -0.3706
 2005SOL    HW117474   0.218   0.947   4.162 -0.7875 -0.2665 -0.3379
 2005SOL    HW217475   0.218   0.816   4.105  2.6142  0.8464 -0.8700
 2006SOL     OW17476   1.268   4.190   3.112  0.1005 -0.1195  0.4188
 2006SOL    HW117477   1.190   4.185   3.168 -1.0354  1.0160 -1.0447
 2006SOL    HW217478   1.223   4.218   3.032  2.3144  1.7286 -0.1948
 2007SOL     OW17479   0.186   3.158   2.970  0.1159 -0.6820 -0.0993
 2007SOL    HW117480   0.251   3.200   2.913 -2.0694  2.1594 -0.5581
 2007SOL    HW217481   0.192   3.066   2.948 -0.6103 -0.5896 -0.6844
 2008SOL     OW17482   0.782   3.333   5.338  0.5361  0.7663  0.5483
 2008SOL    HW117483   0.781   3.317   5.244  0.1999 -0.8809  0.8301
 2008SOL    HW217484   0.856   3.284   5.374  1.1721  0.8672 -0.6242
 2009SOL     OW17485   4.697   3.442   4.000  0.4394  0.5409 -0.2197
 2009SOL    HW117486   4.626   3.464   4.060  0.7443  1.4870 -0.2079
 2009SOL    HW217487   0.019   3.527   3.994 -1.5913  1.7139  1.6741
 2010SOL     OW17488   1.987   4.620   2.955  0.2977  0.8047  0.3222
 2010SOL    HW117489   1.981   4.707   2.995 -1.4209  0.4668  0.8327
 2010SOL    HW217490   2.080   4.600   2.953  0.3539  1.3495 -2.2055
 2011SOL     OW17491   1.927   0.375   6.062  0.2492  0.1142  0.5129
 2011SOL    HW117492   1.982   0.308   6.022 -2.7764 -0.5638 -2.5872
 2011SOL    HW217493   1.843   0.351   6.021 -0.0664 -0.0368  1.2552
 2012SOL     OW17494   2.777   0.355  10.511  0.0087 -0.1188 -0.2315
 2012SOL    HW117495   2.766   0.431  10.454  0.0380  0.2638  0.2745
 2012SOL    HW217496   2.714   0.377  10.580  0.3248 -0.0054  0.0211
 2013SOL     OW17497   0.707   4.455   9.442  0.0199  0.1025  0.5482
 2013SOL    HW117498   0.720   4.534   9.495 -1.7981 -0.1185  1.3499
 2013SOL    HW217499   0.744   4.387   9.498  0.4367 -1.2289 -1.3339
 2014SOL     OW17500   3.758   0.368   2.280 -0.9492  0.3451  0.2035
 2014SOL    HW117501   3.689   0.400   2.339 -1.8268  1.9374 -1.6974
 2014SOL    HW217502   3.786   0.456   2.254  1.3370 -0.4345  0.1028
 2015SOL     OW17503   3.968   2.531   1.918  0.1045 -0.0184  0.0084
 2015SOL    HW117504   3.946   2.450   1.873  2.3928 -0.0365 -1.0704
 2015SOL    HW217505   3.912   2.581   1.858 -0.7277 -0.8846  0.0766
 2016SOL     OW17506   4.413   0.771  15.138  0.3948  0.3249 -0.0551
 2016SOL    HW117507   4.463   0.791  15.217 -0.2871 -0.7891  0.6503
 2016SOL    HW217508   4.342   0.718  15.175  1.7376 -2.1582 -1.0880
 2017SOL     OW17509   2.152   2.258   7.298  0.9271  0.7060  0.1263
 2017SOL    HW117510   2.129   2.323   7.365 -0.7906  1.4275 -1.1562
 2017SOL    HW217511   2.148   2.306   7.215  0.3575 -0.3600 -0.4517
 2018SOL     OW17512   1.247   1.542   5.846  0.1641  0.2914 -0.5782
 2018SOL    HW117513   1.161   1.506   5.867  0.3866  0.9922  1.5699
 2018SOL    HW217514   1.229   1.630   5.881 -0.3389 -0.6840  1.6258
 2019SOL     OW17515   4.538   1.375  11.620  0.0602  0.3042 -0.5526
 2019SOL    HW117516   4.597   1.313  11.664 -0.0473  0.0180 -0.8135
 2019SOL    HW217517   4.603   1.439  11.590 -0.9361  1.0751 -1.0442
 2020SOL     OW17518   1.487   0.086   1.074  0.0125  0.0048  0.6373
 2020SOL    HW117519   1.539   0.165   1.063 -0.5859  0.8161  3.8116
 2020SOL    HW217520   1.553   0.024   1.040  0.8259  0.9078  0.5785
 2021SOL     OW17521   0.702   3.686  10.616 -0.2359  0.0431 -0.1800
 2021SOL    HW117522   0.758   3.622  10.659  2.1194  1.6620 -0.8253
 2021SOL    HW217523   0.715   3.758  10.678 -0.8638  0.4491 -0.5090
 2022SOL     OW17524   2.686   2.753  10.721  0.1878  0.0393 -0.1820
 2022SOL    HW117525   2.662   2.671  10.763 -1.2614  1.0022  0.8656
 2022SOL    HW217526   2.692   2.713  10.635  0.6201  0.7441 -0.4803
 2023SOL     OW17527   4.663   2.576   3.434  0.1239 -0.3358 -0.2979
 2023SOL    HW117528   4.625   2.651   3.388 -0.2546  0.5686  1.4597
 2023SOL    HW217529   0.031   2.581   3.398  0.2462 -2.4163 -0.2648
 2024SOL     OW17530   1.573   0.807   6.946  0.4450  0.5286 -0.0522
 2024SOL    HW117531   1.662   0.839   6.935  1.5219 -1.2746  3.1461
 2024SOL    HW217532   1.573   0.727   6.893 -1.3581  0.3200  0.2533
 2025SOL     OW17533   1.569   1.915   6.186 -0.4085 -0.2570  0.1696
 2025SOL    HW117534   1.595   1.829   6.220  1.2275 -0.1797 -0.8612
 2025SOL    HW217535   1.528   1.889   6.103  1.4952 -2.1689 -0.1836
 2026SOL     OW17536   1.200   1.541   4.881  0.6231 -0.1031 -0.2770
 2026SOL    HW117537   1.265   1.607   4.858  0.8260 -0.0541  0.4492
 2026SOL    HW217538   1.127   1.595   4.909  0.5191 -0.9882  1.1204
 2027SOL     OW17539   2.385   0.469   2.778 -0.1684 -0.1748 -0.0494
 2027SOL    HW117540   2.316   0.514   2.730  1.2842  1.4144 -0.6540
 2027SOL    HW217541   2.375   0.376   2.759 -0.3138 -0.0423 -0.6318
 2028SOL     OW17542   1.354   2.828  16.868  0.0101  0.7274 -1.1465
 2028SOL    HW117543   1.377   2.735  16.872  0.0652  0.6641 -2.6996
 2028SOL    HW217544   1.435   2.870  16.842  0.0312 -0.4486 -3.0536
 2029SOL     OW17545   0.148   3.105   3.247 -0.0678 -0.1413 -0.3093
 2029SOL    HW117546   0.100   3.023   3.238 -1.6502  0.7233  0.0739
 2029SOL    HW217547   0.162   3.115   3.153 -1.6923  1.8252 -0.3552
 2030SOL     OW17548   4.410   2.068   9.938 -0.4086 -0.4660 -0.2707
 2030SOL    HW117549   4.407   2.156   9.974 -0.6454 -1.0840  1.2241
 2030SOL    HW217550   4.413   2.083   9.843  0.7175 -0.1366 -0.1791
 2031SOL     OW17551   0.137   0.873   4.715  0.0997 -0.5766  0.3617
 2031SOL    HW117552   0.050   0.836   4.704  0.2849 -1.9081  3.6204
 2031SOL    HW217553   0.187   0.798   4.683  1.2763  0.0595  0.6931
 2032SOL     OW17554   1.569   0.399   4.626  0.3672 -0.4430  0.8672
 2032SOL    HW117555   1.593   0.482   4.585  1.2835 -0.8292  0.6112
 2032SOL    HW217556   1.507   0.427   4.693  2.5342  2.2440  1.7712
 2033SOL     OW17557   2.479   1.380   2.908  0.6880  0.1056  0.2155
 2033SOL    HW117558   2.386   1.386   2.933  0.6625  1.6591 -0.2441
 2033SOL    HW217559   2.508   1.393   2.998  2.0201 -0.9119 -0.0783
 2034SOL     OW17560   1.586   3.845   8.786  0.4304  0.2151 -0.6185
 2034SOL    HW117561   1.610   3.860   8.878  0.3479 -0.3868 -0.5010
 2034SOL    HW217562   1.659   3.896   8.749  1.9483 -0.9239  0.8019
 2035SOL     OW17563   3.608   2.979  17.006 -0.0182 -0.5251 -0.6648
 2035SOL    HW117564   3.514   2.984  16.986 -0.5592 -2.1324  1.4547
 2035SOL    HW217565   3.645   3.059  16.970  2.9536 -2.2577 -1.4986
 2036SOL     OW17566   2.493   0.138   4.683 -0.1420  0.4336  0.0954
 2036SOL    HW117567   2.462   0.050   4.707  1.1154  0.0412  0.2597
 2036SOL    HW217568   2.581   0.141   4.720 -0.1747  0.5293  0.1640
 2037SOL     OW17569   2.396   2.522   2.468  0.0564  0.2122 -0.0919
 2037SOL    HW117570   2.434   2.591   2.413 -0.9804  2.1483  1.6264
 2037SOL    HW217571   2.474   2.494   2.516 -2.1309 -0.1810  3.1529
 2038SOL     OW17572   3.153   4.198  10.973  0.6267  0.4369  0.2739
 2038SOL    HW117573   3.098   4.206  10.895  0.1273  0.6921  0.6518
 2038SOL    HW217574   3.182   4.288  10.984  1.4182  0.4459 -1.8563
 2039SOL     OW17575   1.962   0.097   1.022 -0.4458 -0.0095  0.4943
 2039SOL    HW117576   1.953   0.015   0.972  0.9968 -0.7520  1.4413
 2039SOL    HW217577   2.005   0.153   0.957 -2.2173 -0.5184 -1.1103
 2040SOL     OW17578   1.831   3.068   4.806  0.6219 -0.3798 -0.1502
 2040SOL    HW117579   1.883   3.058   4.727 -1.1229 -2.8940 -0.9742
 2040SOL    HW217580   1.807   3.161   4.799  1.2822 -0.3647 -2.1723
 2041SOL     OW17581   4.171   1.560  11.596 -0.3761  0.0388 -0.0755
 2041SOL    HW117582   4.094   1.503  11.602 -0.2630  0.0062  1.0414
 2041SOL    HW217583   4.192   1.558  11.503 -1.1827  1.3558 -0.2899
 2042SOL     OW17584   4.226   4.109  11.399  0.9443 -0.0897  0.4305
 2042SOL    HW117585   4.308   4.135  11.441  1.1086 -0.9904  0.6810
 2042SOL    HW217586   4.237   4.165  11.322 -2.2362 -0.0059  0.0493
 2043SOL     OW17587   4.597   2.581  10.135 -0.3240  0.2147 -0.1892
 2043SOL    HW117588   4.535   2.652  10.120 -2.0253 -1.8379 -2.8640
 2043SOL    HW217589   4.642   2.623  10.209 -2.1991  1.4135  0.2483
 2044SOL     OW17590   4.457   3.489  17.281  0.3428  0.2493  0.9496
 2044SOL    HW117591   4.492   3.576  17.263  1.6328 -0.1788  1.3505
 2044SOL    HW217592   4.436   3.458  17.192  0.5818 -1.6699  1.5513
 2045SOL     OW17593   0.188   3.002   5.899 -0.2021 -0.2449 -0.0828
 2045SOL    HW117594   0.178   2.946   5.975 -2.6150 -0.3820 -0.4698
 2045SOL    HW217595   0.121   3.068   5.917 -1.6425 -1.4125 -1.1495
 2046SOL     OW17596   2.287   3.448  10.376  0.8290  0.3217 -0.0650
 2046SOL    HW117597   2.290   3.540  10.352 -1.8479  0.6312  0.8506
 2046SOL    HW217598   2.379   3.421  10.368  0.6990  0.1517 -1.0009
 2047SOL     OW17599   1.153   3.048   2.066 -0.0003 -0.1844  0.1248
 2047SOL    HW117600   1.184   2.992   1.995  0.8853 -1.6706  1.6595
 2047SOL    HW217601   1.203   3.017   2.142  0.5385  0.3524 -0.0101
 2048SOL     OW17602   3.062   1.571  12.632  0.6654 -0.0515 -0.1478
 2048SOL    HW117603   3.030   1.661  12.633 -0.4020 -0.4563  1.5358
 2048SOL    HW217604   3.104   1.570  12.718 -1.3190 -0.5456  0.8145
 2049SOL     OW17605   2.041   2.628   9.539 -0.3633  0.0719 -0.0300
 2049SOL    HW117606   2.107   2.560   9.554  1.0637  0.6322 -3.7013
 2049SOL    HW217607   1.981   2.610   9.611  1.7529 -0.9112  1.5041
 2050SOL     OW17608   1.219   0.264   3.381  0.3836 -0.3040  0.2684
 2050SOL    HW117609   1.221   0.201   3.309 -1.3071  0.3128 -0.3087
 2050SOL    HW217610   1.241   0.346   3.337  1.6637 -0.8925 -0.2069
 2051SOL     OW17611   3.884   0.106   3.872  0.0011  0.1079  0.9152
 2051SOL    HW117612   3.822   0.034   3.872  0.4594 -0.2927  2.0374
 2051SOL    HW217613   3.874   0.142   3.960 -0.4414  0.1399  0.8507
 2052SOL     OW17614   3.615   1.665   3.199  0.1140  0.1740  0.3221
 2052SOL    HW117615   3.543   1.714   3.160  0.4318 -1.1089 -1.8544
 2052SOL    HW217616   3.582   1.650   3.287  0.2001 -2.7609 -0.1619
 2053SOL     OW17617   0.288   1.030   6.412  0.5443 -0.1622  0.5801
 2053SOL    HW117618   0.240   1.017   6.330 -1.4342 -0.0938  1.7374
 2053SOL    HW217619   0.223   0.996   6.473  0.8095 -2.1152 -0.2188
 2054SOL     OW17620   1.617   3.421   7.305  0.3724 -0.1707 -0.4253
 2054SOL    HW117621   1.567   3.341   7.322  1.3170 -0.5281  0.7069
 2054SOL    HW217622   1.691   3.422   7.366  1.0944 -2.5097 -1.2588
 2055SOL     OW17623   1.545   0.369  13.607 -0.5826 -0.0527 -0.5102
 2055SOL    HW117624   1.450   0.358  13.599 -0.6929  1.0493 -0.6422
 2055SOL    HW217625   1.569   0.394  13.696 -0.3055  0.0520 -0.6160
 2056SOL     OW17626   0.072   4.452   6.310  0.5660  0.1403  0.8852
 2056SOL    HW117627   0.163   4.426   6.294  0.3575 -0.0367  0.0005
 2056SOL    HW217628   0.091   4.510   6.385 -1.7617 -0.2322  1.7570
 2057SOL     OW17629   1.119   4.655  14.429 -0.0154 -0.0387  0.2693
 2057SOL    HW117630   1.153   4.708  14.501 -1.4498  1.5555 -0.2401
 2057SOL    HW217631   1.204   4.638  14.386  0.4833  4.3278 -0.4303
 2058SOL     OW17632   2.674   3.503   9.485 -0.2031 -0.1140 -0.6228
 2058SOL    HW117633   2.687   3.569   9.553  0.1715 -1.1014  0.2654
 2058SOL    HW217634   2.763   3.478   9.459 -0.4977 -0.3003 -1.4343
 2059SOL     OW17635   0.633   3.063   8.232  0.1689  0.1067  0.1319
 2059SOL    HW117636   0.575   3.135   8.255 -0.4457 -0.5206  0.5222
 2059SOL    HW217637   0.586   2.986   8.265 -1.5274  0.9465 -0.3393
 2060SOL     OW17638   2.319   0.454  16.552  0.4132 -0.1085 -0.0624
 2060SOL    HW117639   2.382   0.525  16.556 -0.8318  0.9253  1.1865
 2060SOL    HW217640   2.262   0.453  16.629 -1.9103  0.7562 -1.7649
 2061SOL     OW17641   4.463   3.155   4.583  0.0579 -0.0017 -0.1314
 2061SOL    HW117642   4.429   3.169   4.671  2.1574 -2.8743  1.1387
 2061SOL    HW217643   4.464   3.060   4.586  0.5364  0.0097  0.0932
 2062SOL     OW17644   4.274   3.905   9.883 -0.1082 -0.9602  0.6627
 2062SOL    HW117645   4.290   3.983   9.936 -1.3597 -2.2299  2.9207
 2062SOL    HW217646   4.302   3.948   9.803  2.6404 -3.0555  0.5176
 2063SOL     OW17647   3.624   4.222  12.285 -0.1489  0.2965 -0.2538
 2063SOL    HW117648   3.680   4.278  12.340 -2.3984  3.3507 -1.0374
 2063SOL    HW217649   3.570   4.182  12.354 -0.1314  0.1491 -0.3268
 2064SOL     OW17650   1.316   4.098   1.853 -0.3148  0.3617 -0.1698
 2064SOL    HW117651   1.349   4.021   1.901 -0.5675  1.6490  2.0723
 2064SOL    HW217652   1.390   4.113   1.794  0.3444 -0.3473  0.4615
 2065SOL     OW17653   4.009   3.119   4.293 -0.1102 -0.0441  0.0654
 2065SOL    HW117654   4.043   3.207   4.302 -0.0815 -0.1715  1.2219
 2065SOL    HW217655   4.000   3.105   4.387  1.9369  0.5094  0.3475
 2066SOL     OW17656   2.690   0.222  15.288 -0.3164  0.2398 -0.4710
 2066SOL    HW117657   2.665   0.263  15.205 -0.9762  2.8006  0.9759
 2066SOL    HW217658   2.775   0.182  15.267 -0.1504  0.5087 -0.3138
 2067SOL     OW17659   4.080   2.827  16.173 -0.1808  0.3947  0.1768
 2067SOL    HW117660   4.153   2.782  16.129 -0.3740 -0.3059  0.5731
 2067SOL    HW217661   4.093   2.806  16.266  1.5829  1.7519  0.2351
 2068SOL     OW17662   3.680   2.659  10.939  0.2861 -0.1864  0.3230
 2068SOL    HW117663   3.708   2.746  10.909 -1.2012 -0.5211 -2.0383
 2068SOL    HW217664   3.761   2.624  10.975  1.4849 -0.5864 -2.7264
 2069SOL     OW17665   3.284   3.905   0.409 -0.5046  0.4487  0.6687
 2069SOL    HW117666   3.343   3.960   0.460  1.0344  0.5025 -1.1723
 2069SOL    HW217667   3.336   3.906   0.328 -1.8674  0.6283 -0.2144
 2070SOL     OW17668   3.473   0.753   2.161  0.6536 -0.1477  0.2451
 2070SOL    HW117669   3.405   0.687   2.153 -0.7453  1.3319 -0.1447
 2070SOL    HW217670   3.413   0.827   2.159  1.1612  0.3216  2.3990
 2071SOL     OW17671   3.232   3.137   3.726  0.9364  0.1072  0.6928
 2071SOL    HW117672   3.270   3.224   3.739  0.2033  0.4650  0.4765
 2071SOL    HW217673   3.200   3.124   3.815  0.7514  0.7650  0.7251
 2072SOL     OW17674   3.325   3.978   8.394 -0.8722  0.8973 -0.0432
 2072SOL    HW117675   3.380   3.972   8.473 -0.9396 -3.6894 -0.3623
 2072SOL    HW217676   3.357   3.907   8.338 -0.7241  1.2823 -0.4462
 2073SOL     OW17677   3.842   4.462   8.280  0.3642 -0.1632  0.4995
 2073SOL    HW117678   3.890   4.530   8.232 -2.0949  0.4196 -1.1072
 2073SOL    HW217679   3.861   4.391   8.218 -1.8223  1.0661 -1.5499
 2074SOL     OW17680   0.436   0.756   2.466  0.7232  0.3723 -0.4625
 2074SOL    HW117681   0.477   0.798   2.390  0.0479  1.5101 -0.1925
 2074SOL    HW217682   0.357   0.715   2.431  0.9555 -1.2462  0.9521
 2075SOL     OW17683   2.492   0.837   2.580  0.4645 -0.0146  0.5784
 2075SOL    HW117684   2.516   0.929   2.590 -1.1114  0.5854 -1.1708
 2075SOL    HW217685   2.442   0.826   2.661 -2.4464  0.2413 -1.1906
 2076SOL     OW17686   0.068   3.324   9.480 -0.0810 -0.6628 -0.2169
 2076SOL    HW117687   0.011   3.401   9.479  1.8737  0.8079  0.6349
 2076SOL    HW217688   0.007   3.256   9.451  0.3604 -1.2516  0.2514
 2077SOL     OW17689   2.676   3.790   5.360 -0.5813  0.1697 -0.6611
 2077SOL    HW117690   2.713   3.719   5.412  0.8243  1.9186  0.7602
 2077SOL    HW217691   2.730   3.780   5.282  0.0600 -0.3932 -0.1363
 2078SOL     OW17692   1.968   3.743  15.289 -0.2117  0.3719  0.3029
 2078SOL    HW117693   2.008   3.693  15.360  0.1345  1.6933  1.0284
 2078SOL    HW217694   1.874   3.741  15.309 -0.8166  4.0674 -2.1313
 2079SOL     OW17695   0.991   2.945   6.568 -0.2059  0.5130 -0.7883
 2079SOL    HW117696   0.999   3.001   6.646 -1.6864 -0.0375 -0.2325
 2079SOL    HW217697   1.044   2.870   6.594 -2.6702 -0.4601  1.4410
 2080SOL     OW17698   0.851   2.421  15.580 -0.6893 -0.2409  0.2707
 2080SOL    HW117699   0.840   2.468  15.663  0.2653  2.0497 -0.9026
 2080SOL    HW217700   0.770   2.448  15.536 -0.7033  2.2884  1.8190
 2081SOL     OW17701   2.730   1.290   4.042 -0.2893  0.0582  0.5345
 2081SOL    HW117702   2.720   1.343   4.121 -1.4047 -0.2919  0.6330
 2081SOL    HW217703   2.663   1.222   4.049  0.5060 -0.8265 -0.4803
 2082SOL     OW17704   0.258   4.317   9.010 -0.0067  0.1235  0.1137
 2082SOL    HW117705   0.305   4.243   9.049  0.9513  1.0383  0.6846
 2082SOL    HW217706   0.252   4.382   9.080  0.5874  1.2439 -0.8646
 2083SOL     OW17707   0.337   2.785  16.109 -0.1547  1.1081 -0.7707
 2083SOL    HW117708   0.427   2.814  16.122  0.2898 -1.1532  1.3395
 2083SOL    HW217709   0.301   2.780  16.198  0.8345 -0.9731 -0.4706
 2084SOL     OW17710   0.013   3.211   4.142  0.2379  0.5649  0.2145
 2084SOL    HW117711   4.671   3.218   4.212  1.4829 -1.9315  1.6159
 2084SOL    HW217712   0.006   3.296   4.099 -2.0895 -0.3706 -1.2648
 2085SOL     OW17713   0.028   3.933   4.227  0.0365  0.3264 -0.4392
 2085SOL    HW117714   4.701   3.931   4.144 -0.7095  1.8362 -0.0412
 2085SOL    HW217715   0.028   3.839   4.247 -1.1190 -0.2762 -3.2666
 2086SOL     OW17716   0.271   1.395   9.434 -0.3863 -0.2380 -0.0936
 2086SOL    HW117717   0.200   1.336   9.409 -0.6433 -0.4794  1.1681
 2086SOL    HW217718   0.333   1.394   9.361  0.9605 -1.7431  1.0855
 2087SOL     OW17719   3.186   3.163   8.157 -0.4114  0.3120  0.2903
 2087SOL    HW117720   3.142   3.079   8.170  1.1425 -0.4723  0.5136
 2087SOL    HW217721   3.207   3.177   8.250  0.0899  0.7957  0.1017
 2088SOL     OW17722   4.174   2.779   6.513 -0.9209  0.7464 -0.1518
 2088SOL    HW117723   4.250   2.810   6.463 -0.1719  0.5137  0.8584
 2088SOL    HW217724   4.216   2.754   6.595 -1.2269 -2.0045 -0.8323
 2089SOL     OW17725   2.961   3.654   6.315 -0.4379  0.1350 -0.1916
 2089SOL    HW117726   2.986   3.651   6.407 -1.3013  0.5583  0.0643
 2089SOL    HW217727   3.046   3.663   6.272  0.7292 -1.0679  1.8963
 2090SOL     OW17728   2.547   1.919   5.336  0.4665  0.1510  0.3117
 2090SOL    HW117729   2.627   1.916   5.284 -0.3632 -1.3986 -0.8861
 2090SOL    HW217730   2.553   2.008   5.369  1.6714 -0.5615  2.0718
 2091SOL     OW17731   2.589   4.130   4.578 -0.3058  0.1840  0.1328
 2091SOL    HW117732   2.545   4.164   4.500 -1.1368 -0.1423  0.4660
 2091SOL    HW217733   2.619   4.043   4.550  2.5033  1.1605  0.0784
 2092SOL     OW17734   1.479   0.513   1.945  0.3054 -0.2123  0.3950
 2092SOL    HW117735   1.561   0.559   1.930  0.9778 -1.8559 -0.9399
 2092SOL    HW217736   1.508   0.425   1.970  1.0878 -0.2989 -0.8716
 2093SOL     OW17737   2.173   1.422  10.108  0.2045  0.1294 -0.2542
 2093SOL    HW117738   2.252   1.380  10.145  1.0025  3.5379  1.9170
 2093SOL    HW217739   2.101   1.376  10.151  2.9736 -2.3991  1.8067
 2094SOL     OW17740   1.100   2.770   4.554  0.7804 -0.0400  0.6073
 2094SOL    HW117741   1.004   2.771   4.547  0.8749 -0.1657 -0.5841
 2094SOL    HW217742   1.128   2.857   4.526  1.1665  0.4751  2.5949
 2095SOL     OW17743   0.395   2.244  14.598 -0.0326 -1.1499  0.2250
 2095SOL    HW117744   0.309   2.246  14.641  0.4784  1.1397  1.1135
 2095SOL    HW217745   0.386   2.169  14.538 -1.1824 -0.0236 -1.0154
 2096SOL     OW17746   1.833   4.703   1.969 -0.6800 -0.7759 -0.1794
 2096SOL    HW117747   1.860   4.619   2.006 -0.4211 -0.6004  0.0279
 2096SOL    HW217748   1.835   4.690   1.874 -0.8475 -0.3358 -0.2429
 2097SOL     OW17749   2.758   0.095   9.872 -0.4713 -0.2538  0.0102
 2097SOL    HW117750   2.779   0.072   9.782  3.6265 -1.2823  1.2303
 2097SOL    HW217751   2.685   0.153   9.850  0.1651  0.7015  0.3740
 2098SOL     OW17752   1.690   1.014   5.571  0.4647  0.6386  0.2304
 2098SOL    HW117753   1.682   1.053   5.483  0.4834 -1.1790 -0.5748
 2098SOL    HW217754   1.638   1.075   5.623 -0.6883  1.6933 -2.1545
 2099SOL     OW17755   2.804   2.151   2.316  0.4034 -0.0066 -0.1160
 2099SOL    HW117756   2.880   2.133   2.371 -0.4299 -3.3438 -0.0989
 2099SOL    HW217757   2.792   2.071   2.266 -0.7136 -0.3985  0.7756
 2100SOL     OW17758   0.517   3.337   2.266 -0.4424 -0.1577  0.2852
 2100SOL    HW117759   0.475   3.275   2.326  1.1093 -2.1948 -0.7457
 2100SOL    HW217760   0.600   3.292   2.250 -1.0282 -1.0566 -0.2265
 2101SOL     OW17761   1.879   4.090   2.458  0.4561 -0.1908 -0.4264
 2101SOL    HW117762   1.853   4.181   2.471  1.8835  0.3415 -1.3738
 2101SOL    HW217763   1.973   4.101   2.467  0.7110 -2.7575  0.2618
 2102SOL     OW17764   4.322   1.891   3.508 -0.3060 -0.0769  0.6567
 2102SOL    HW117765   4.247   1.925   3.458  0.3207  1.4091  0.7018
 2102SOL    HW217766   4.399   1.923   3.460  0.0758 -0.1265  1.2383
 2103SOL     OW17767   1.931   4.187   3.295 -0.0552 -0.0155  0.1681
 2103SOL    HW117768   1.902   4.267   3.251  0.5343 -0.0018 -0.1980
 2103SOL    HW217769   1.906   4.114   3.240 -1.3749  0.2730  0.3928
 2104SOL     OW17770   2.278   4.281   3.935  0.8895 -0.0350 -0.1606
 2104SOL    HW117771   2.333   4.202   3.933 -0.0740 -0.7045  0.1399
 2104SOL    HW217772   2.268   4.289   4.029  0.2940 -2.5872 -0.0054
 2105SOL     OW17773   0.846   0.602   4.161 -1.3207  0.4460 -0.5816
 2105SOL    HW117774   0.916   0.562   4.110 -1.2916  0.6545 -0.7062
 2105SOL    HW217775   0.881   0.689   4.182  1.1186 -0.7570  0.4111
 2106SOL     OW17776   2.421   0.574   5.142  0.1910  0.1892  0.2916
 2106SOL    HW117777   2.436   0.663   5.173  1.3433  0.3870 -0.8134
 2106SOL    HW217778   2.509   0.562   5.105  1.4046 -2.7283  4.0671
 2107SOL     OW17779   2.606   1.652   4.046 -0.3877 -0.6461 -0.9091
 2107SOL    HW117780   2.613   1.661   3.951 -0.7340 -2.6996 -1.1405
 2107SOL    HW217781   2.522   1.695   4.060  0.4999  1.6201 -2.7225
 2108SOL     OW17782   4.653   4.690  12.753  0.4797 -0.1929 -0.0242
 2108SOL    HW117783   4.718   4.692  12.682  0.1986 -1.3005 -0.3139
 2108SOL    HW217784   4.641   4.601  12.785  2.8772 -0.4437  0.2196
 2109SOL     OW17785   3.688   0.601   9.454  0.2572 -0.0081 -0.3710
 2109SOL    HW117786   3.721   0.681   9.494  0.6122 -0.5212  0.3694
 2109SOL    HW217787   3.749   0.534   9.485  0.5813  0.4484 -0.0339
 2110SOL     OW17788   3.799   3.213   7.878  0.2624 -0.3563 -0.2812
 2110SOL    HW117789   3.731   3.157   7.915 -1.7704  2.5009  0.3886
 2110SOL    HW217790   3.879   3.162   7.882  0.7631  0.6159  2.4279
 2111SOL     OW17791   2.702   2.120  13.763 -0.1089 -0.1490  0.4205
 2111SOL    HW117792   2.673   2.112  13.854 -0.4100 -1.8239  0.1782
 2111SOL    HW217793   2.793   2.145  13.777  0.5540 -2.5169  0.4524
 2112SOL     OW17794   2.051   3.380   9.113  0.2050 -0.3839 -0.4873
 2112SOL    HW117795   1.983   3.386   9.045 -0.3925  2.2174  0.3666
 2112SOL    HW217796   2.024   3.313   9.176 -0.2543 -0.9908 -1.3265
 2113SOL     OW17797   2.421   2.776   5.906  0.4504  0.1173 -0.3993
 2113SOL    HW117798   2.483   2.849   5.909  0.2697  0.2500  0.0281
 2113SOL    HW217799   2.372   2.805   5.983 -4.8443 -1.2975 -3.2304
 2114SOL     OW17800   0.372   3.238   1.915  0.0025  0.1704  0.5830
 2114SOL    HW117801   0.448   3.195   1.954  0.4938 -0.2585 -0.8262
 2114SOL    HW217802   0.387   3.332   1.926  3.5217 -0.0236 -2.4341
 2115SOL     OW17803   2.837   2.474   6.082 -0.3668  0.3042  0.2026
 2115SOL    HW117804   2.864   2.531   6.154 -1.2416  1.6828 -0.5804
 2115SOL    HW217805   2.779   2.411   6.126 -0.1201  0.0078  0.1021
 2116SOL     OW17806   4.231   3.149   5.497  0.7288 -0.2596  0.0739
 2116SOL    HW117807   4.157   3.110   5.543 -0.6144  1.2024 -0.8120
 2116SOL    HW217808   4.193   3.202   5.426 -0.8710 -1.4344  0.0500
 2117SOL     OW17809   1.248   0.045  14.624  0.3913  0.4117  0.9066
 2117SOL    HW117810   1.306   0.022  14.696  0.8371  0.1744  0.4758
 2117SOL    HW217811   1.295   0.126  14.600 -0.4300  0.6595  0.1252
 2118SOL     OW17812   2.840   3.595   2.378 -0.1568  0.7556  0.1131
 2118SOL    HW117813   2.853   3.501   2.364  3.2056  1.1809  0.2046
 2118SOL    HW217814   2.762   3.585   2.432 -0.5623  1.7084 -0.3024
 2119SOL     OW17815   2.657   2.814  14.340 -0.2719  0.4492 -0.1050
 2119SOL    HW117816   2.726   2.823  14.407  1.1945  2.2751 -1.8385
 2119SOL    HW217817   2.713   2.799  14.264  0.7271  0.6093  0.5823
 2120SOL     OW17818   2.959   0.301   5.686  0.4549  0.4042 -0.0690
 2120SOL    HW117819   2.979   0.382   5.733 -0.3510  0.2732  0.5002
 2120SOL    HW217820   3.043   0.256   5.689 -0.3274 -0.9974  0.6876
 2121SOL     OW17821   3.752   3.021   5.373 -0.0787 -0.1599  0.7193
 2121SOL    HW117822   3.782   3.064   5.292 -1.2437 -1.2167 -0.2754
 2121SOL    HW217823   3.691   3.083   5.413  0.6773 -0.2721  2.0521
 2122SOL     OW17824   3.668   3.938   1.620 -0.3280  0.1280  0.6964
 2122SOL    HW117825   3.754   3.896   1.621 -1.1667 -1.6184 -0.6629
 2122SOL    HW217826   3.649   3.942   1.526 -0.1154  2.4141  0.7514
 2123SOL     OW17827   3.060   3.727   4.244  0.1564 -0.3042  0.8153
 2123SOL    HW117828   2.975   3.714   4.202  2.4859 -3.0863 -3.0815
 2123SOL    HW217829   3.037   3.817   4.267 -1.4434 -0.5176  0.0352
 2124SOL     OW17830   0.986   0.412   7.247 -0.0357  0.1848  0.2770
 2124SOL    HW117831   1.059   0.469   7.271  1.6770 -1.2631 -1.4536
 2124SOL    HW217832   0.960   0.395   7.338 -0.5577 -0.5580 -0.0095
 2125SOL     OW17833   2.206   1.711   8.223 -0.4278 -0.0888 -0.3910
 2125SOL    HW117834   2.282   1.769   8.223  0.9319 -1.8510  0.2811
 2125SOL    HW217835   2.160   1.740   8.144  1.9683  0.7719 -1.4687
 2126SOL     OW17836   2.029   2.155   9.180 -0.2045  0.2022  0.3319
 2126SOL    HW117837   1.976   2.075   9.184  1.7487 -1.1054  0.3389
 2126SOL    HW217838   2.077   2.136   9.099  0.2008  0.5050  0.5072
 2127SOL     OW17839   2.941   3.384   3.130 -0.2731  0.3512  0.0163
 2127SOL    HW117840   2.853   3.398   3.095 -0.7643 -0.0930  1.0726
 2127SOL    HW217841   2.947   3.289   3.118  1.4644  0.4146  0.3848
 2128SOL     OW17842   3.007   0.187  16.895  0.4429 -0.4213 -0.0079
 2128SOL    HW117843   2.960   0.199  16.812  1.6593  2.5192 -0.2590
 2128SOL    HW217844   2.994   0.093  16.908 -1.7125  0.0556  1.2369
 2129SOL     OW17845   2.178   4.685   0.684 -0.0418 -0.9292  0.8524
 2129SOL    HW117846   2.151   4.718   0.598  2.6546 -1.0969 -0.0602
 2129SOL    HW217847   2.195   0.042   0.736 -0.7707 -0.2011  0.0027
 2130SOL     OW17848   2.734   0.843   9.298 -0.0606  0.3152  0.8618
 2130SOL    HW117849   2.685   0.886   9.228 -1.4007 -1.9676  0.4186
 2130SOL    HW217850   2.666   0.844   9.365  0.3961 -0.0974  1.3314
 2131SOL     OW17851   3.299   3.000  15.254  0.8445 -0.0530 -0.0989
 2131SOL    HW117852   3.251   2.928  15.295  2.8136 -0.1738  2.0142
 2131SOL    HW217853   3.245   3.069  15.293 -0.9359 -1.7298  0.4373
 2132SOL     OW17854   2.674   2.359  16.105  0.2450 -0.4258  0.3880
 2132SOL    HW117855   2.713   2.276  16.132  0.1790 -0.1406  1.3572
 2132SOL    HW217856   2.686   2.416  16.181  0.8450 -0.5802  0.4080
 2133SOL     OW17857   3.683   0.083   7.293  0.4288  0.1236  0.2521
 2133SOL    HW117858   3.599   0.120   7.320  0.0397 -0.1315 -0.6315
 2133SOL    HW217859   3.747   0.126   7.350  0.8535  1.0108 -0.8991
 2134SOL     OW17860   1.553   1.180   2.276  0.2058 -0.1987 -0.1781
 2134SOL    HW117861   1.540   1.191   2.370 -1.4566  0.3071 -0.4641
 2134SOL    HW217862   1.649   1.175   2.273  0.2720  3.3339 -3.6367
 2135SOL     OW17863   4.236   3.748   8.142 -0.1604 -0.0013 -0.1133
 2135SOL    HW117864   4.282   3.824   8.106  2.5887 -0.6299  2.1998
 2135SOL    HW217865   4.248   3.680   8.076 -0.9910 -0.7492  0.5147
 2136SOL     OW17866   2.555   4.546   4.212  0.3407  0.1021 -0.5952
 2136SOL    HW117867   2.502   4.606   4.265  2.5450  1.4083  0.1223
 2136SOL    HW217868   2.634   4.539   4.265  0.1076  2.6988  0.1026
 2137SOL     OW17869   2.558   1.099   5.195  0.3460  0.3670 -0.0293
 2137SOL    HW117870   2.602   1.146   5.124 -0.4884  0.4524 -0.4873
 2137SOL    HW217871   2.608   1.138   5.266  1.4666  1.0032 -1.1635
 2138SOL     OW17872   1.639   4.574   6.487  0.3018  0.1173 -0.3623
 2138SOL    HW117873   1.658   4.609   6.574  0.3729 -0.0993 -0.2926
 2138SOL    HW217874   1.544   4.579   6.480  0.3146  0.0982 -0.5548
 2139SOL     OW17875   2.572   3.359  12.095  0.0648  0.3657 -0.1732
 2139SOL    HW117876   2.517   3.384  12.169  0.9115 -0.7969  0.8476
 2139SOL    HW217877   2.650   3.414  12.104  0.3767  0.0060 -0.6798
 2140SOL     OW17878   0.485   3.183  15.504  0.5548  0.0515 -0.2361
 2140SOL    HW117879   0.457   3.162  15.415  1.2618  1.1088 -0.7076
 2140SOL    HW217880   0.573   3.221  15.496  0.4239  0.2699 -0.5976
 2141SOL     OW17881   1.676   2.310   1.313  0.2572  0.9206  0.0595
 2141SOL    HW117882   1.660   2.361   1.234  1.3916  2.7284  0.9976
 2141SOL    HW217883   1.690   2.375   1.382 -3.0830  2.1351 -0.4496
 2142SOL     OW17884   1.048   3.982   8.836 -0.0793 -0.4876  0.2065
 2142SOL    HW117885   0.964   4.026   8.840 -0.8653 -1.9075 -0.7619
 2142SOL    HW217886   1.041   3.910   8.900 -0.2606 -0.6361  0.0176
 2143SOL     OW17887   0.583   4.295  15.023  0.3799 -0.3778 -0.2379
 2143SOL    HW117888   0.615   4.233  14.958  1.6112 -0.4754  0.4643
 2143SOL    HW217889   0.562   4.238  15.097 -0.3229 -0.1718 -0.2717
 2144SOL     OW17890   2.102   0.093   7.534  0.2927 -0.0865 -0.0007
 2144SOL    HW117891   2.099   0.047   7.618 -0.4382  0.2691  0.1661
 2144SOL    HW217892   2.166   0.160   7.555 -0.2329  0.3990  0.0454
 2145SOL     OW17893   2.847   2.958   5.377  0.1778 -0.1577  0.0079
 2145SOL    HW117894   2.824   2.939   5.287  1.6402  1.2365 -0.6620
 2145SOL    HW217895   2.894   3.040   5.359  0.3623 -1.2161 -4.1815
 2146SOL     OW17896   2.279   4.707   8.385  0.1276 -0.3270 -0.1400
 2146SOL    HW117897   2.255   4.653   8.460 -1.2103 -0.4819 -0.6898
 2146SOL    HW217898   2.330   4.646   8.332 -1.6192  0.1892 -2.3861
 2147SOL     OW17899   2.192   2.822  11.764  0.2986  0.2496  0.0082
 2147SOL    HW117900   2.227   2.912  11.760  0.6558  0.2253  2.5643
 2147SOL    HW217901   2.105   2.839  11.729  0.4338 -0.7937 -0.8294
 2148SOL     OW17902   0.057   3.671  10.123 -0.2214  0.0616  0.2728
 2148SOL    HW117903   0.145   3.632  10.121 -0.2404  0.1653 -2.2222
 2148SOL    HW217904   0.068   3.746  10.182  0.0845 -0.4148  0.8287
 2149SOL     OW17905   1.337   1.838   2.946 -0.0122  0.2655  0.2842
 2149SOL    HW117906   1.295   1.909   2.994  0.8824 -0.3451  1.9968
 2149SOL    HW217907   1.390   1.808   3.021  0.8212 -1.7199 -1.0789
 2150SOL     OW17908   4.166   2.818   0.479  0.0131  0.1125 -0.1827
 2150SOL    HW117909   4.242   2.786   0.431 -0.4029 -1.2300  0.0608
 2150SOL    HW217910   4.141   2.894   0.428  1.0838  0.6921  0.1423
 2151SOL     OW17911   4.545   2.350   6.197  0.0920 -0.6205  0.1872
 2151SOL    HW117912   4.486   2.287   6.238  0.5885 -0.3612  1.2879
 2151SOL    HW217913   4.510   2.434   6.224 -0.1213 -0.7957  0.4477
 2152SOL     OW17914   0.551   4.366   2.922  0.1559  0.1740  0.1675
 2152SOL    HW117915   0.636   4.372   2.965 -0.5174  1.8106  1.2711
 2152SOL    HW217916   0.581   4.388   2.834 -0.9337 -2.3488 -0.8526
 2153SOL     OW17917   1.095   4.462   7.670 -0.3019  0.7444  0.4638
 2153SOL    HW117918   1.176   4.484   7.623 -0.5789  3.7883  1.4221
 2153SOL    HW217919   1.062   4.549   7.692 -0.6731  0.3481  1.4627
 2154SOL     OW17920   3.939   2.335   5.850  0.0495 -0.4014 -0.3173
 2154SOL    HW117921   4.029   2.318   5.877  0.4983  0.0012 -1.5742
 2154SOL    HW217922   3.904   2.247   5.860 -0.3291 -0.2963 -0.6888
 2155SOL     OW17923   2.708   1.827   8.012 -0.1248  0.1290  0.5735
 2155SOL    HW117924   2.708   1.897   8.078 -0.0094  2.0250 -1.4592
 2155SOL    HW217925   2.624   1.788   8.035 -1.4904  1.1403 -2.7859
 2156SOL     OW17926   0.773   3.378   9.230 -0.5929 -0.1398 -0.2142
 2156SOL    HW117927   0.686   3.407   9.202 -1.6997 -3.7414 -0.5091
 2156SOL    HW217928   0.775   3.422   9.315 -0.4764 -0.3995 -0.0825
 2157SOL     OW17929   1.253   3.196   3.624  0.0631 -0.2014  0.4577
 2157SOL    HW117930   1.271   3.270   3.681 -0.0227 -0.8933  1.3786
 2157SOL    HW217931   1.328   3.142   3.649 -0.0049 -0.9059 -0.8210
 2158SOL     OW17932   3.082   2.570  10.585  1.1930  0.4118 -0.1972
 2158SOL    HW117933   3.120   2.589  10.671  0.0364 -2.2368  0.8984
 2158SOL    HW217934   3.092   2.657  10.545 -0.3215  1.6895  2.2024
 2159SOL     OW17935   0.743   3.624   8.468  0.4210 -0.6658 -0.0222
 2159SOL    HW117936   0.681   3.680   8.515  0.2255 -1.4446  0.6430
 2159SOL    HW217937   0.804   3.606   8.540  0.0380 -1.9175 -0.0150
 2160SOL     OW17938   1.470   0.818  15.582  0.4338 -0.5361 -0.0320
 2160SOL    HW117939   1.555   0.794  15.618  0.9890  0.5158 -0.6541
 2160SOL    HW217940   1.423   0.867  15.649 -2.9625 -1.8305 -1.4731
 2161SOL     OW17941   3.364   0.436   6.943  0.3211  0.2355  0.6379
 2161SOL    HW117942   3.416   0.508   6.980  0.1926  0.6439  0.0225
 2161SOL    HW217943   3.304   0.489   6.890  1.1717  0.0767 -0.4917
 2162SOL     OW17944   4.585   4.305   7.885 -0.1725 -0.2408  0.4973
 2162SOL    HW117945   4.594   4.343   7.798 -0.8291 -2.3406 -0.4746
 2162SOL    HW217946   4.613   4.382   7.936  1.4827  1.2668 -2.6667
 2163SOL     OW17947   2.334   2.266   2.395  0.0837 -0.4375 -0.2200
 2163SOL    HW117948   2.360   2.350   2.433 -2.7252 -0.4895  1.8794
 2163SOL    HW217949   2.410   2.233   2.347 -0.3005 -1.0283 -0.4350
 2164SOL     OW17950   4.335   4.300   4.208  0.5320  0.5199 -0.0658
 2164SOL    HW117951   4.327   4.263   4.295  0.9693  2.6950  0.9085
 2164SOL    HW217952   4.312   4.227   4.150  0.6269  0.8731 -0.5560
 2165SOL     OW17953   2.778   2.965   1.889 -0.4066 -0.3135 -0.6831
 2165SOL    HW117954   2.796   2.910   1.965  1.3399  0.5190 -0.4929
 2165SOL    HW217955   2.683   2.971   1.896 -0.5042 -1.2175 -1.2777
 2166SOL     OW17956   2.071   2.273   2.956  0.2983 -0.0073  0.2465
 2166SOL    HW117957   1.990   2.232   2.925  0.0505 -2.3392  3.9021
 2166SOL    HW217958   2.132   2.200   2.958 -2.1082 -2.0203 -0.2999
 2167SOL     OW17959   0.898   2.365  14.726 -0.1004 -0.3686 -0.4657
 2167SOL    HW117960   0.860   2.290  14.772  0.6786  0.1396  0.9845
 2167SOL    HW217961   0.867   2.437  14.780  3.3147  0.0536  0.9130
 2168SOL     OW17962   2.751   1.471   3.017  0.1592 -0.0976  0.1760
 2168SOL    HW117963   2.773   1.382   2.987 -1.7242 -0.3830 -0.3421
 2168SOL    HW217964   2.694   1.441   3.088  0.7995 -0.1676  0.6594
 2169SOL     OW17965   2.648   3.880   2.584  0.1729  0.0972 -0.2201
 2169SOL    HW117966   2.676   3.895   2.674 -2.2547  0.0886  0.5298
 2169SOL    HW217967   2.642   3.962   2.534 -0.1539  0.8106  0.9737
 2170SOL     OW17968   0.374   0.550  12.566  0.4540 -0.3666  0.1145
 2170SOL    HW117969   0.410   0.579  12.482  1.3829 -2.0765 -0.0794
 2170SOL    HW217970   0.292   0.599  12.563 -0.4964 -1.9599  0.4685
 2171SOL     OW17971   0.671   1.947  12.843 -0.7118 -0.0686  0.2683
 2171SOL    HW117972   0.630   1.899  12.915  0.3158 -0.5387  0.5399
 2171SOL    HW217973   0.650   2.033  12.877 -0.1895  0.0775  0.2157
 2172SOL     OW17974   1.885   1.342   6.970 -0.2185 -0.2642  0.3371
 2172SOL    HW117975   1.897   1.382   7.056  1.0921 -0.7719  0.3873
 2172SOL    HW217976   1.878   1.421   6.917  3.1051 -0.4731 -0.3721
 2173SOL     OW17977   1.969   0.036   8.731  0.2791  0.3871  0.4939
 2173SOL    HW117978   1.937   0.109   8.783  0.3940  2.3589 -2.1943
 2173SOL    HW217979   1.940   4.678   8.775 -0.7858 -0.0796 -1.0502
 2174SOL     OW17980   0.385   2.946   0.865  0.0816 -0.0189  0.0258
 2174SOL    HW117981   0.411   3.037   0.856 -1.6706  0.6744  1.8459
 2174SOL    HW217982   0.306   2.948   0.920 -0.6872  1.7175 -1.1529
 2175SOL     OW17983   0.651   3.058   3.521 -0.1959  1.0359  0.6377
 2175SOL    HW117984   0.707   3.001   3.469 -1.2256 -0.0426  0.7098
 2175SOL    HW217985   0.670   3.021   3.607 -0.5782  1.5733  0.9600
 2176SOL     OW17986   2.961   1.055   8.690 -0.4230 -0.6578 -0.0016
 2176SOL    HW117987   2.903   0.982   8.668 -1.1667  0.1782 -0.8216
 2176SOL    HW217988   3.039   1.013   8.653 -0.6826 -0.8883 -0.2855
 2177SOL     OW17989   2.185   4.451   7.147 -0.0063 -0.5579 -0.3193
 2177SOL    HW117990   2.154   4.381   7.205  0.5416 -1.7152 -1.4112
 2177SOL    HW217991   2.146   4.527   7.190 -2.1276 -0.4614 -2.4508
 2178SOL     OW17992   0.532   0.928   6.535 -0.6302 -0.2239  0.3285
 2178SOL    HW117993   0.442   0.958   6.518  0.1729  1.1765 -1.4500
 2178SOL    HW217994   0.532   0.834   6.518 -0.4650 -0.9278  4.1052
 2179SOL     OW17995   3.742   2.830   0.677  0.5329  0.0193 -0.1797
 2179SOL    HW117996   3.772   2.915   0.711  0.1823 -0.1547  0.5671
 2179SOL    HW217997   3.796   2.823   0.599 -0.2853 -0.7389 -0.6700
 2180SOL     OW17998   1.820   2.625   8.296  0.8338 -0.0606 -0.7220
 2180SOL    HW117999   1.833   2.535   8.267 -0.3514 -0.6789  0.6709
 2180SOL    HW218000   1.726   2.642   8.285  0.1197 -2.7908  1.2801
 2181SOL     OW18001   4.013   1.617   4.517 -0.2291 -0.1665 -0.0944
 2181SOL    HW118002   4.057   1.680   4.575  2.3740 -0.2487 -2.0238
 2181SOL    HW218003   3.927   1.655   4.538 -0.3836 -0.7961  0.4304
 2182SOL     OW18004   2.502   0.828  17.345 -0.1026  0.0404 -0.7377
 2182SOL    HW118005   2.431   0.861  17.291 -1.6620  0.3859  1.5289
 2182SOL    HW218006   2.491   0.733  17.338 -0.2526  0.0459 -0.5725
 2183SOL     OW18007   0.184   1.930   6.899 -0.2982 -0.1148  0.3137
 2183SOL    HW118008   0.129   1.993   6.852  1.2911 -0.3758 -1.9345
 2183SOL    HW218009   0.146   1.917   6.986 -0.3926  3.3673  0.7878
 2184SOL     OW18010   1.126   4.190  10.220  0.1260  0.0099 -0.2878
 2184SOL    HW118011   1.208   4.151  10.248  1.0531  0.0033 -3.0612
 2184SOL    HW218012   1.151   4.241  10.143 -1.5641  3.0647  1.1441
 2185SOL     OW18013   0.940   1.577  15.268 -0.6584  0.0083  0.3443
 2185SOL    HW118014   0.904   1.624  15.193 -1.0988 -0.6954  0.1116
 2185SOL    HW218015   0.882   1.501  15.264  0.7444 -0.9560 -1.8436
 2186SOL     OW18016   3.722   1.821   4.437  0.5933  0.0895 -0.2861
 2186SOL    HW118017   3.740   1.782   4.351 -2.5466  1.1009 -1.4013
 2186SOL    HW218018   3.686   1.746   4.484  2.5095  0.5767  1.9288
 2187SOL     OW18019   0.211   4.285   6.022 -0.2591 -0.6256 -0.1163
 2187SOL    HW118020   0.123   4.322   6.020  0.1249  0.2594 -0.5537
 2187SOL    HW218021   0.276   4.344   6.062 -1.8622 -0.0755  1.7046
 2188SOL     OW18022   1.336   2.129   4.547  0.2020 -0.5218 -0.4056
 2188SOL    HW118023   1.271   2.061   4.564 -0.4576  0.4085  0.8289
 2188SOL    HW218024   1.285   2.205   4.576 -1.2934 -1.8644  0.4730
 2189SOL     OW18025   0.497   4.204   6.108 -0.2097 -0.6722 -0.8459
 2189SOL    HW118026   0.404   4.198   6.087 -0.1169  0.5624 -1.6727
 2189SOL    HW218027   0.525   4.265   6.039 -0.6819  0.6070  0.0904
 2190SOL     OW18028   1.809   1.548   2.222  0.2327  0.2965 -0.9984
 2190SOL    HW118029   1.870   1.474   2.229  0.4572  0.5301 -0.5171
 2190SOL    HW218030   1.735   1.510   2.270  1.4170  1.1726  1.5017
 2191SOL     OW18031   0.863   2.884   7.808 -0.1848 -0.2496 -0.0103
 2191SOL    HW118032   0.930   2.937   7.764  2.1860 -1.1866  2.4599
 2191SOL    HW218033   0.880   2.797   7.772 -1.3962 -1.2309  1.8364
 2192SOL     OW18034   4.064   1.930   1.403  0.7811 -0.4420  0.4252
 2192SOL    HW118035   3.972   1.944   1.378 -0.1739 -1.6272  3.2928
 2192SOL    HW218036   4.117   1.945   1.325 -1.7292 -2.0628 -1.6222
 2193SOL     OW18037   3.218   2.187   2.968 -0.5666  0.1760  0.6873
 2193SOL    HW118038   3.278   2.254   3.002 -1.3647  1.5984 -0.7307
 2193SOL    HW218039   3.171   2.234   2.900  0.9909  0.5291 -0.1399
 2194SOL     OW18040   0.139   2.245   5.444  0.9059  0.0241  0.1050
 2194SOL    HW118041   0.139   2.333   5.407 -2.6195  0.3078  0.8230
 2194SOL    HW218042   0.057   2.255   5.491  1.9688  0.6954  1.8343
 2195SOL     OW18043   0.001   1.357   7.824 -0.1665 -0.2947  0.4023
 2195SOL    HW118044   4.688   1.321   7.906  0.1418 -0.3666  0.4980
 2195SOL    HW218045   0.083   1.308   7.824 -0.0099 -0.0334  0.9951
 2196SOL     OW18046   0.168   1.396   3.425 -0.5198 -0.2828  0.1688
 2196SOL    HW118047   0.113   1.423   3.499 -0.6993 -2.2752  0.7762
 2196SOL    HW218048   0.219   1.476   3.414 -0.1213 -0.5493  0.1015
 2197SOL     OW18049   1.756   3.874   3.506  0.0391 -0.0432 -0.4052
 2197SOL    HW118050   1.740   3.912   3.592 -0.7413 -1.9975  0.3212
 2197SOL    HW218051   1.849   3.896   3.497 -0.4167  1.4316 -1.3742
 2198SOL     OW18052   3.128   2.163   5.458 -0.6505  0.2826 -0.3320
 2198SOL    HW118053   3.062   2.130   5.519 -0.6085  2.5144  0.9280
 2198SOL    HW218054   3.110   2.119   5.375 -3.8407 -1.3964  1.2572
 2199SOL     OW18055   2.151   4.071   2.535 -0.0218 -0.7220  0.5207
 2199SOL    HW118056   2.187   4.153   2.568  0.2891 -0.1028 -1.3329
 2199SOL    HW218057   2.230   4.035   2.493 -0.4451  0.3568 -1.1726
 2200SOL     OW18058   2.390   3.788   5.044 -0.2798  0.0256  0.5086
 2200SOL    HW118059   2.316   3.831   5.000 -2.1093 -1.8739  1.7161
 2200SOL    HW218060   2.352   3.703   5.064 -0.9516 -0.4919 -2.9497
 2201SOL     OW18061   2.664   1.543  15.787 -0.2557  0.7505 -0.8303
 2201SOL    HW118062   2.747   1.573  15.750  0.2745 -1.1646 -1.1948
 2201SOL    HW218063   2.604   1.561  15.716 -1.3631  1.3487  0.2609
 2202SOL     OW18064   2.885   1.608   8.000  1.1809 -0.5100  0.1269
 2202SOL    HW118065   2.854   1.538   8.057 -0.8707 -1.1324 -1.7305
 2202SOL    HW218066   2.820   1.677   8.014 -0.6579 -2.1505 -0.1886
 2203SOL     OW18067   3.808   3.766  14.007 -0.1298 -0.4463 -0.6012
 2203SOL    HW118068   3.816   3.673  13.987  0.8681 -0.6673  0.8144
 2203SOL    HW218069   3.733   3.767  14.066 -1.0260 -0.9285 -1.7363
 2204SOL     OW18070   3.225   2.588   0.262 -0.0091  0.2368 -0.1594
 2204SOL    HW118071   3.259   2.500   0.246  1.2597  0.7790 -0.4931
 2204SOL    HW218072   3.285   2.627   0.325  0.4453  1.5975 -1.4176
 2205SOL     OW18073   2.815   3.984  17.081  0.4631 -0.3575 -0.4628
 2205SOL    HW118074   2.864   3.940  17.012 -0.4059 -2.3142  0.1774
 2205SOL    HW218075   2.887   4.026  17.128  0.3546  1.7122 -2.1414
 2206SOL     OW18076   0.203   2.650  11.802 -0.3501 -0.0624 -0.3828
 2206SOL    HW118077   0.182   2.597  11.725 -0.2847 -0.3920 -0.1722
 2206SOL    HW218078   0.126   2.707  11.802 -1.0823 -1.0718 -2.1862
 2207SOL     OW18079   0.599   3.591   0.343 -0.2223  0.2852 -0.5924
 2207SOL    HW118080   0.598   3.499   0.317  0.8461  0.3107 -0.7319
 2207SOL    HW218081   0.528   3.630   0.291  1.0390  0.5739 -2.1191
 2208SOL     OW18082   1.239   2.894  11.845 -0.0312 -0.2605  0.0303
 2208SOL    HW118083   1.204   2.924  11.762 -2.4643  2.8955  2.2244
 2208SOL    HW218084   1.234   2.974  11.897  1.3091 -0.3257  0.2648
 2209SOL     OW18085   2.755   2.600  10.100 -0.2840 -0.2118  0.7133
 2209SOL    HW118086   2.683   2.617  10.161 -1.1359  2.5964 -1.0924
 2209SOL    HW218087   2.830   2.598  10.160 -0.7515  0.7722  1.3342
 2210SOL     OW18088   3.208   3.801   1.695 -0.3270 -0.5718  0.3459
 2210SOL    HW118089   3.273   3.781   1.627 -1.0088  0.4699 -0.6168
 2210SOL    HW218090   3.251   3.791   1.780 -0.3560 -2.5951  0.1279
 2211SOL     OW18091   3.535   3.950   1.859 -0.1425 -0.4545 -0.2311
 2211SOL    HW118092   3.495   3.864   1.849 -2.6372  0.7108 -0.3381
 2211SOL    HW218093   3.595   3.954   1.785 -0.0327  0.9198 -0.0754
 2212SOL     OW18094   0.228   1.118  12.407 -0.0405 -0.3288  0.4631
 2212SOL    HW118095   0.204   1.061  12.479 -0.6901  0.1071  0.5898
 2212SOL    HW218096   0.270   1.059  12.345  0.9417  1.5260 -0.6500
 2213SOL     OW18097   2.577   3.608  12.598  0.8080  0.6419  0.1621
 2213SOL    HW118098   2.631   3.676  12.559  2.8289  0.1773  2.2078
 2213SOL    HW218099   2.594   3.634  12.688  0.1390 -0.8520  0.7186
 2214SOL     OW18100   3.037   4.172   7.459  0.6065 -0.4007 -0.0894
 2214SOL    HW118101   2.963   4.229   7.477  0.6292 -0.4882  0.2797
 2214SOL    HW218102   3.100   4.226   7.411  1.5505 -0.9180  0.5558
 2215SOL     OW18103   3.050   2.838   1.101 -0.5538 -0.4502  0.6000
 2215SOL    HW118104   3.012   2.811   1.185  2.5006  1.3073  2.5224
 2215SOL    HW218105   3.120   2.890   1.139 -0.2975 -0.3635  0.0085
 2216SOL     OW18106   2.509   2.893  15.852  0.1851  0.4912 -0.1362
 2216SOL    HW118107   2.439   2.950  15.884 -0.9623  0.5142 -2.6947
 2216SOL    HW218108   2.528   2.937  15.769  0.2064  0.6409 -0.0527
 2217SOL     OW18109   4.334   3.343   5.709 -0.4467 -0.4337  0.3148
 2217SOL    HW118110   4.298   3.288   5.639 -1.3290 -0.2823  0.6561
 2217SOL    HW218111   4.281   3.324   5.787 -0.7092  0.9360  0.4714
 2218SOL     OW18112   3.406   3.850  13.352  0.0965  0.1993  0.4943
 2218SOL    HW118113   3.380   3.937  13.323  1.7509  0.8546  0.9961
 2218SOL    HW218114   3.449   3.875  13.434  0.0404  0.0510  0.5681
 2219SOL     OW18115   2.278   1.642  14.777  0.6729  0.0090 -0.1877
 2219SOL    HW118116   2.359   1.595  14.761  0.1977  0.0633 -2.7497
 2219SOL    HW218117   2.240   1.584  14.843 -0.5993  0.1207 -0.8150
 2220SOL     OW18118   0.229   2.275   8.417  0.0954 -0.6202 -0.5880
 2220SOL    HW118119   0.200   2.354   8.372  2.3032 -0.9942 -2.7032
 2220SOL    HW218120   0.222   2.306   8.507  1.7224  1.1736 -1.0846
 2221SOL     OW18121   0.856   4.245   9.529  0.2259 -0.0492  0.3880
 2221SOL    HW118122   0.937   4.293   9.510 -0.0781 -0.1362 -1.0570
 2221SOL    HW218123   0.867   4.161   9.486 -3.8541 -0.5307  0.3221
 2222SOL     OW18124   0.963   1.611   1.532  0.5302 -0.1696  0.8497
 2222SOL    HW118125   1.054   1.627   1.559  0.4562 -0.2085  1.1221
 2222SOL    HW218126   0.964   1.677   1.463 -1.5424 -0.5208  0.4789
 2223SOL     OW18127   2.425   3.575   8.161  0.1000 -0.5200 -0.9589
 2223SOL    HW118128   2.428   3.479   8.167 -1.8430 -0.4008  2.0015
 2223SOL    HW218129   2.393   3.581   8.071 -1.8552 -0.7805 -0.2848
 2224SOL     OW18130   2.379   0.585  11.327  0.0786  0.0826 -0.0590
 2224SOL    HW118131   2.430   0.660  11.359  0.1385 -0.6798  1.6296
 2224SOL    HW218132   2.388   0.511  11.387  0.1983  0.0376 -0.1313
 2225SOL     OW18133   3.684   2.974   1.731 -0.7339 -0.4115  0.0081
 2225SOL    HW118134   3.633   2.894   1.746 -0.9055 -0.6901 -2.1882
 2225SOL    HW218135   3.617   3.040   1.715 -2.4380 -1.3942  2.9292
 2226SOL     OW18136   1.605   3.028  13.577  0.0957  0.2391 -0.2900
 2226SOL    HW118137   1.511   3.009  13.583  0.0085  1.0932  1.1487
 2226SOL    HW218138   1.612   3.120  13.549  0.3706  0.5775  0.8858
 2227SOL     OW18139   2.945   1.351   7.780 -0.6344 -0.2144 -0.0903
 2227SOL    HW118140   3.037   1.344   7.807  0.0932  2.3697 -1.9198
 2227SOL    HW218141   2.910   1.421   7.835 -0.6184 -0.2322 -0.0574
 2228SOL     OW18142   4.675   2.562   0.239 -0.4122  0.2030  0.2165
 2228SOL    HW118143   4.693   2.547   0.332  1.4130 -1.1214 -0.3600
 2228SOL    HW218144   4.663   2.656   0.245  2.3869  0.5404  0.1470
 2229SOL     OW18145   4.244   3.863   4.839  0.4704  0.3717  0.0677
 2229SOL    HW118146   4.227   3.885   4.931  0.0812 -0.5362  0.2161
 2229SOL    HW218147   4.209   3.775   4.845  0.4759  0.2997 -0.9457
 2230SOL     OW18148   3.299   0.997   0.145  0.0771 -0.2976 -0.4956
 2230SOL    HW118149   3.211   1.033   0.133  0.5362  1.3630  1.2747
 2230SOL    HW218150   3.333   1.015   0.057  3.6646 -0.7429  0.8376
 2231SOL     OW18151   1.842   4.051   4.692 -0.0970 -0.5415  0.3813
 2231SOL    HW118152   1.877   3.962   4.694  3.1555  0.7541  2.1471
 2231SOL    HW218153   1.855   4.078   4.783  0.6108 -0.6653  0.3208
 2232SOL     OW18154   1.233   2.543   5.101  0.2706  0.4644 -0.0566
 2232SOL    HW118155   1.224   2.491   5.181 -1.8412 -1.1453 -1.3410
 2232SOL    HW218156   1.138   2.554   5.090 -0.0340 -2.4377 -0.1614
 2233SOL     OW18157   3.166   0.796   8.622  0.4384  0.2442 -0.2608
 2233SOL    HW118158   3.240   0.827   8.674  0.8969  0.0453 -0.7832
 2233SOL    HW218159   3.202   0.811   8.534  0.8376  2.3388  0.2768
 2234SOL     OW18160   4.693   4.371  15.177 -0.5647  0.3477 -0.2173
 2234SOL    HW118161   0.064   4.399  15.181 -0.3822 -0.4914  1.4691
 2234SOL    HW218162   4.678   4.329  15.262 -1.6978  0.0087 -0.5885
 2235SOL     OW18163   0.391   2.005   3.192  0.1930  0.7936  0.1051
 2235SOL    HW118164   0.455   1.952   3.144 -0.8537  0.2771 -0.7220
 2235SOL    HW218165   0.313   1.956   3.167  1.5309  0.3383 -3.2107
 2236SOL     OW18166   2.038   3.211  15.208 -0.6075 -0.3245 -0.0297
 2236SOL    HW118167   1.997   3.283  15.256 -0.0226 -0.4669  0.6801
 2236SOL    HW218168   2.126   3.247  15.223 -0.3403 -0.8781 -0.2937
 2237SOL     OW18169   3.017   3.440   3.862 -0.3371  0.1589 -0.1261
 2237SOL    HW118170   3.110   3.416   3.867 -0.0297  1.1899 -1.1183
 2237SOL    HW218171   3.001   3.438   3.957  1.0324 -0.3524  0.1011
 2238SOL     OW18172   0.910   1.618   4.382 -0.8163  0.0153  0.0277
 2238SOL    HW118173   0.911   1.525   4.404 -0.0579 -0.0539 -0.3084
 2238SOL    HW218174   1.001   1.619   4.354 -1.2649 -0.1741 -1.4449
 2239SOL     OW18175   2.311   4.106   2.895  0.0974 -0.0940 -0.1859
 2239SOL    HW118176   2.400   4.095   2.860  0.9061  3.5334  0.7224
 2239SOL    HW218177   2.303   4.200   2.880  0.7445 -0.0662 -0.3563
 2240SOL     OW18178   1.645   2.758  14.799  0.1754  0.0318  0.1482
 2240SOL    HW118179   1.650   2.769  14.704  1.1535  1.2818  0.3428
 2240SOL    HW218180   1.581   2.827  14.819 -0.7140  0.0635 -2.8661
 2241SOL     OW18181   3.272   2.645   6.406 -0.0557 -0.3757 -0.0508
 2241SOL    HW118182   3.200   2.663   6.466 -0.4399  0.0549 -0.6407
 2241SOL    HW218183   3.310   2.574   6.458 -1.2908 -0.8213  0.2504
 2242SOL     OW18184   1.988   1.870  14.116 -0.3331 -0.0154  0.0395
 2242SOL    HW118185   1.978   1.954  14.160  3.3886 -0.2033  1.2609
 2242SOL    HW218186   1.967   1.898  14.027 -1.7701  0.4444  0.5323
 2243SOL     OW18187   2.312   2.585  11.852  0.2174 -0.2955  0.2294
 2243SOL    HW118188   2.322   2.622  11.939 -0.0339  1.0009 -0.2802
 2243SOL    HW218189   2.285   2.670  11.816 -2.0833 -0.6782  1.0290
 2244SOL     OW18190   0.821   4.559   3.703 -0.0852 -0.2067  0.1315
 2244SOL    HW118191   0.796   4.498   3.772 -1.9294  1.6338  1.0912
 2244SOL    HW218192   0.740   4.589   3.663 -0.1365 -0.8531 -0.2429
 2245SOL     OW18193   1.374   3.891   3.255 -0.7095 -0.0684 -0.3727
 2245SOL    HW118194   1.421   3.822   3.302  0.2847 -0.4809 -1.9571
 2245SOL    HW218195   1.411   3.876   3.168  0.5860 -1.1362  0.3435
 2246SOL     OW18196   0.210   0.970   0.366  0.1392 -0.1163  0.2051
 2246SOL    HW118197   0.168   0.890   0.395 -0.7093  0.7572  1.3844
 2246SOL    HW218198   0.189   1.027   0.440  0.1797  1.1832 -0.7852
 2247SOL     OW18199   3.134   2.432  17.475 -0.0956  0.3651 -0.2464
 2247SOL    HW118200   3.150   2.466  17.564  0.6125  0.3925 -0.3830
 2247SOL    HW218201   3.188   2.483  17.416  0.2048 -0.5096 -0.7320
 2248SOL     OW18202   3.601   3.167  10.684  0.5967 -0.0695 -0.0528
 2248SOL    HW118203   3.639   3.137  10.601 -0.6968 -1.0628 -0.2858
 2248SOL    HW218204   3.584   3.081  10.722  0.0846 -0.3260 -0.8550
 2249SOL     OW18205   3.721   2.567   8.080 -0.3031 -0.3593 -0.7410
 2249SOL    HW118206   3.653   2.509   8.116 -0.1869  1.8338  2.9474
 2249SOL    HW218207   3.662   2.637   8.053 -0.5031 -0.7702 -1.3565
 2250SOL     OW18208   1.219   3.913   2.102 -0.0554 -0.5929 -0.0629
 2250SOL    HW118209   1.204   3.833   2.152  2.0655  1.3390  3.6687
 2250SOL    HW218210   1.228   3.881   2.012 -3.3683  0.4877 -0.7742
 2251SOL     OW18211   1.451   3.162   2.927 -0.8064  0.1378  0.1447
 2251SOL    HW118212   1.544   3.183   2.923 -0.7183 -0.0698  1.2014
 2251SOL    HW218213   1.431   3.142   3.018 -0.0159 -0.0376  0.2763
 2252SOL     OW18214   2.971   3.716  11.507  0.3534  0.7551  0.3370
 2252SOL    HW118215   3.062   3.740  11.525  0.1345  1.7153  0.1347
 2252SOL    HW218216   2.960   3.684  11.417  0.4870 -0.4184  0.7340
 2253SOL     OW18217   1.725   1.856   4.479 -0.2845  0.1518 -0.0221
 2253SOL    HW118218   1.725   1.931   4.537 -0.4510 -1.0328  1.5090
 2253SOL    HW218219   1.819   1.839   4.473  0.1650  2.5094  0.6802
 2254SOL     OW18220   4.398   1.986  13.119 -0.4632 -0.8430 -0.5862
 2254SOL    HW118221   4.373   2.075  13.096 -0.7134 -0.5387  0.8814
 2254SOL    HW218222   4.318   1.942  13.089 -1.1860 -0.1896  0.3989
 2255SOL     OW18223   1.071   1.003   6.926  1.2883 -0.6152 -0.0076
 2255SOL    HW118224   1.084   0.919   6.970 -1.3521 -0.8459  0.3231
 2255SOL    HW218225   1.146   1.060   6.946  0.3241 -0.5710  3.4224
 2256SOL     OW18226   4.090   4.398   4.420 -0.4361  0.2302 -0.1904
 2256SOL    HW118227   4.164   4.368   4.473 -0.2722 -1.0277 -1.1541
 2256SOL    HW218228   4.015   4.385   4.479 -0.5311  4.6876  0.6965
 2257SOL     OW18229   0.392   4.194  14.048  0.3177 -0.5311  0.1310
 2257SOL    HW118230   0.441   4.273  14.070  0.2948 -0.7734  1.0771
 2257SOL    HW218231   0.450   4.123  14.076  0.2130 -0.2071  1.1676
 2258SOL     OW18232   4.417   1.605   3.809  0.1508  0.1302 -0.1515
 2258SOL    HW118233   4.351   1.614   3.877  0.1472  0.7533 -0.2361
 2258SOL    HW218234   4.471   1.684   3.814 -0.9261  1.0001 -2.0388
 2259SOL     OW18235   3.531   1.316  16.659 -0.2096  0.4849  0.0481
 2259SOL    HW118236   3.575   1.309  16.743 -0.3404  1.1021  0.1691
 2259SOL    HW218237   3.443   1.337  16.690 -0.7592  2.3346 -2.6676
 2260SOL     OW18238   0.828   1.689   5.864 -0.4248 -0.0140 -0.3003
 2260SOL    HW118239   0.882   1.614   5.887  1.2775  1.4348  0.4102
 2260SOL    HW218240   0.885   1.760   5.894  2.8515 -2.5266 -0.6617
 2261SOL     OW18241   2.393   0.009   5.036 -0.0159 -0.4333  0.3274
 2261SOL    HW118242   2.307   0.025   4.998 -0.6167  0.1416  1.9020
 2261SOL    HW218243   2.427   0.096   5.058  1.1878 -0.9055  0.3406
 2262SOL     OW18244   3.287   4.434   2.090 -0.3238  0.4849 -0.1514
 2262SOL    HW118245   3.330   4.518   2.081 -1.2888  0.7954 -1.9523
 2262SOL    HW218246   3.235   4.442   2.170  1.7222  0.8972  1.1164
 2263SOL     OW18247   2.738   0.574  10.363 -0.3464 -0.0445  0.1118
 2263SOL    HW118248   2.733   0.637  10.434 -0.0984 -0.3500  0.4018
 2263SOL    HW218249   2.660   0.592  10.309 -0.8096  0.0041  0.7973
 2264SOL     OW18250   0.358   1.669   5.866  0.0304  0.6024  0.3442
 2264SOL    HW118251   0.451   1.652   5.849 -0.4268 -1.2520 -0.2198
 2264SOL    HW218252   0.330   1.731   5.798  2.3960  0.0126 -1.1538
 2265SOL     OW18253   0.082   1.034  15.654  0.2100 -0.1017 -0.4020
 2265SOL    HW118254   0.123   1.119  15.670 -1.1426  0.5361 -0.3039
 2265SOL    HW218255   4.714   1.061  15.675  0.5076  1.2431 -0.8715
 2266SOL     OW18256   4.433   1.383   9.340  0.1307 -0.1621  0.3932
 2266SOL    HW118257   4.379   1.359   9.265  0.6968 -1.6645  0.4806
 2266SOL    HW218258   4.368   1.403   9.408  0.6485  0.7686  0.6233
 2267SOL     OW18259   1.147   3.945  15.060  0.0306 -0.0725  0.1899
 2267SOL    HW118260   1.055   3.918  15.069 -0.0686  0.1454 -0.1471
 2267SOL    HW218261   1.168   3.909  14.974 -3.1938 -2.2137  0.2728
 2268SOL     OW18262   3.060   0.583   6.567  0.2054  0.1315 -0.3432
 2268SOL    HW118263   3.127   0.515   6.561 -2.0421 -2.2810  1.5753
 2268SOL    HW218264   3.080   0.629   6.648 -0.7949 -0.5973  0.3192
 2269SOL     OW18265   3.940   4.361   7.491  0.1061 -0.6022  0.0401
 2269SOL    HW118266   3.889   4.438   7.514 -1.6397 -1.6621 -0.2987
 2269SOL    HW218267   3.905   4.298   7.554  0.3149  0.8312  1.6075
 2270SOL     OW18268   1.891   3.169  11.709 -0.0426  0.8254  0.2310
 2270SOL    HW118269   1.827   3.124  11.764  0.3953 -0.5781 -0.4280
 2270SOL    HW218270   1.906   3.247  11.763  0.2287 -0.3932  1.9106
 2271SOL     OW18271   3.359   2.221  14.076 -0.0863 -0.0450 -0.8331
 2271SOL    HW118272   3.406   2.304  14.082  1.2184 -0.8931  1.1248
 2271SOL    HW218273   3.335   2.211  14.169  1.3286  0.8736 -0.3727
 2272SOL     OW18274   2.179   4.295   1.217  0.2555 -0.4576  0.2428
 2272SOL    HW118275   2.159   4.223   1.157 -1.8079  1.0964 -0.9213
 2272SOL    HW218276   2.147   4.361   1.156  1.0924 -1.4765 -1.3213
 2273SOL     OW18277   3.588   0.015   6.935  0.4269  0.0846 -0.8715
 2273SOL    HW118278   3.512   0.046   6.985 -1.1007 -1.8699 -1.9674
 2273SOL    HW218279   3.624   0.099   6.907 -1.8955  2.2908  2.7821
 2274SOL     OW18280   3.605   0.641   9.129  0.1357  0.0154  0.8702
 2274SOL    HW118281   3.598   0.729   9.093 -1.5734  0.2311  1.7315
 2274SOL    HW218282   3.678   0.607   9.077 -1.1808 -0.7374 -0.4909
 2275SOL     OW18283   1.568   1.603   5.765  0.6987 -0.0440  0.1182
 2275SOL    HW118284   1.484   1.575   5.731  0.9967 -2.0485  1.0561
 2275SOL    HW218285   1.571   1.565   5.853 -0.3741  1.6924  0.9232
 2276SOL     OW18286   0.140   2.471   4.978 -0.1703 -0.2107  0.2540
 2276SOL    HW118287   0.160   2.517   4.896 -1.0338 -1.4471 -0.6487
 2276SOL    HW218288   0.208   2.405   4.971 -1.0238 -0.7200 -3.3100
 2277SOL     OW18289   2.212   4.593   4.719 -0.3220 -0.1231  0.6154
 2277SOL    HW118290   2.182   4.666   4.774  2.1100 -0.3302  2.2112
 2277SOL    HW218291   2.136   4.535   4.725  0.3720 -0.7256  3.8188
 2278SOL     OW18292   2.166   2.002   8.077 -0.4488  0.1337  0.3906
 2278SOL    HW118293   2.255   1.981   8.104 -0.2488 -3.1477 -2.8851
 2278SOL    HW218294   2.180   2.087   8.034 -1.8095 -0.0624 -0.4246
 2279SOL     OW18295   1.143   3.950   7.415  0.3367 -0.1070 -0.3297
 2279SOL    HW118296   1.070   4.009   7.435  0.4861 -0.1972  0.4973
 2279SOL    HW218297   1.193   4.015   7.366  2.9264  0.0198  2.4884
 2280SOL     OW18298   0.157   4.088   3.935  0.3166  0.1486 -0.5050
 2280SOL    HW118299   0.243   4.098   3.895 -0.2858  1.1372 -1.5340
 2280SOL    HW218300   0.191   4.049   4.016 -2.8143 -1.5280  0.0138
 2281SOL     OW18301   0.351   0.708   3.415  0.2741  0.2351  0.0762
 2281SOL    HW118302   0.256   0.713   3.423  0.3446 -1.3137  1.6523
 2281SOL    HW218303   0.372   0.781   3.474  3.0933 -0.3381 -0.1980
 2282SOL     OW18304   3.690   1.404   4.750  0.7128  0.3349  0.0083
 2282SOL    HW118305   3.778   1.434   4.774  0.2609 -0.6991  3.0124
 2282SOL    HW218306   3.656   1.400   4.839 -1.5098 -0.2872 -0.8708
 2283SOL     OW18307   0.651   2.853   5.484  0.0912 -0.2465 -0.4094
 2283SOL    HW118308   0.649   2.942   5.449 -1.0589  0.6492  1.9179
 2283SOL    HW218309   0.618   2.791   5.418  2.0751  0.0438 -1.6665
 2284SOL     OW18310   2.879   0.669   5.482 -0.4963  0.1829  0.1350
 2284SOL    HW118311   2.947   0.735   5.493 -0.4597 -0.0052  1.0579
 2284SOL    HW218312   2.934   0.592   5.466 -0.2547  0.0274  1.6371
 2285SOL     OW18313   0.988   3.093   2.986  0.1043 -0.2198  0.1417
 2285SOL    HW118314   0.910   3.125   2.941  1.5236  1.6075 -1.0558
 2285SOL    HW218315   0.976   2.999   2.983 -0.5684 -0.2138  3.0633
 2286SOL     OW18316   1.258   0.715   5.722  0.3058 -0.2698  0.3108
 2286SOL    HW118317   1.266   0.681   5.811 -4.1327 -4.1754 -0.8252
 2286SOL    HW218318   1.327   0.781   5.737  0.7979 -0.4782 -0.9745
 2287SOL     OW18319   2.939   3.456   5.552  0.0130  0.0291 -0.3379
 2287SOL    HW118320   2.897   3.435   5.469 -2.6012 -1.0302  1.2750
 2287SOL    HW218321   2.865   3.454   5.612 -2.2495  1.6800 -3.1455
 2288SOL     OW18322   2.019   0.322  14.246 -0.6119  0.2113  0.3158
 2288SOL    HW118323   2.050   0.400  14.292  2.1663 -1.7092  1.6515
 2288SOL    HW218324   1.968   0.358  14.173  0.0347  0.6321  0.0784
 2289SOL     OW18325   4.276   3.332   4.413  0.2907  0.0360  0.1594
 2289SOL    HW118326   4.233   3.394   4.355  0.1155 -0.4678 -0.2508
 2289SOL    HW218327   4.338   3.385   4.462 -0.6446  1.8606 -0.6597
 2290SOL     OW18328   3.090   1.557   9.764  0.0222 -0.3109 -0.7418
 2290SOL    HW118329   3.116   1.527   9.676  0.5426  1.6429 -1.2754
 2290SOL    HW218330   3.000   1.588   9.752  0.0362  0.4042  1.1431
 2291SOL     OW18331   1.207   4.078  17.375 -0.0717  0.0590  0.5229
 2291SOL    HW118332   1.151   4.003  17.355  0.3770 -0.2925  0.5648
 2291SOL    HW218333   1.292   4.038  17.356  0.7330  2.7834 -1.5902
 2292SOL     OW18334   2.654   3.059  15.106  0.5596 -0.1691  0.0353
 2292SOL    HW118335   2.737   3.024  15.140  0.1353 -1.6753 -0.4649
 2292SOL    HW218336   2.681   3.132  15.051 -0.7354 -0.6707 -1.2591
 2293SOL     OW18337   0.471   2.589   4.803 -0.2255  0.6573  0.3252
 2293SOL    HW118338   0.408   2.660   4.821  1.5544  1.8462  1.8952
 2293SOL    HW218339   0.436   2.552   4.722  0.4916 -0.4681  0.5399
 2294SOL     OW18340   4.479   2.982   7.648 -0.0500  0.0753 -0.1029
 2294SOL    HW118341   4.459   3.012   7.736 -1.5614 -0.2497 -0.3291
 2294SOL    HW218342   4.569   2.950   7.657 -0.1639  0.3013  1.7928
 2295SOL     OW18343   2.572   0.749   0.280  0.4206 -0.0690  0.5509
 2295SOL    HW118344   2.570   0.676   0.218  0.9034  1.8208 -1.7082
 2295SOL    HW218345   2.664   0.736   0.305  0.3812  1.5581  1.4955
 2296SOL     OW18346   3.936   0.651   5.966 -0.0772  0.0697  0.4072
 2296SOL    HW118347   3.958   0.579   5.906 -2.8514 -0.6587  0.2832
 2296SOL    HW218348   4.008   0.713   5.953  1.4121 -1.4590  1.2545
 2297SOL     OW18349   2.971   0.912  15.403 -0.4317 -0.2939 -0.1543
 2297SOL    HW118350   3.033   0.845  15.376  1.7812  0.8075  2.1886
 2297SOL    HW218351   2.920   0.931  15.324  0.2021  1.5550 -0.1364
 2298SOL     OW18352   2.407   1.548   8.613  0.4650  0.2692  0.5921
 2298SOL    HW118353   2.322   1.503   8.611 -0.9585  2.8634  2.7284
 2298SOL    HW218354   2.409   1.567   8.707  0.0720  2.4781  0.1720
 2299SOL     OW18355   1.887   0.799   6.376  0.4318 -0.3781  0.7516
 2299SOL    HW118356   1.799   0.778   6.346 -0.3761  0.4782  2.5313
 2299SOL    HW218357   1.926   0.857   6.311 -1.0814 -0.6402 -0.3661
 2300SOL     OW18358   1.312   0.844   7.598  0.1662 -0.1008 -0.1548
 2300SOL    HW118359   1.313   0.898   7.678  1.4470  1.6143 -1.3328
 2300SOL    HW218360   1.405   0.822   7.596  0.2788  0.2639  0.7162
 2301SOL     OW18361   3.879   3.705   3.841  0.1824  0.6399  0.0137
 2301SOL    HW118362   3.854   3.649   3.914  1.0548 -0.3348 -0.4409
 2301SOL    HW218363   3.872   3.798   3.865  1.9187  1.3773 -2.2467
 2302SOL     OW18364   0.324   1.864   1.099  0.2751 -0.6245 -0.2844
 2302SOL    HW118365   0.326   1.789   1.158  1.5785 -0.5637 -0.2544
 2302SOL    HW218366   0.357   1.827   1.018 -2.1594  0.4399 -1.7629
 2303SOL     OW18367   3.688   4.648   3.852 -0.5889  0.1340  0.2852
 2303SOL    HW118368   3.663   4.560   3.824 -1.1829  0.6153 -0.6984
 2303SOL    HW218369   3.603   4.683   3.877 -0.6123 -0.1318  0.5788
 2304SOL     OW18370   0.547   4.327   8.719 -0.2418 -0.0779 -0.0386
 2304SOL    HW118371   0.533   4.258   8.784 -1.6651 -0.4888 -0.7906
 2304SOL    HW218372   0.635   4.346   8.751  0.5827 -1.0626 -1.7322
 2305SOL     OW18373   3.935   2.041   1.058 -0.1932  0.2630  0.1206
 2305SOL    HW118374   3.891   2.003   0.982  1.0143 -0.3164 -0.2967
 2305SOL    HW218375   3.956   1.953   1.091 -1.0899  0.4068  1.0473
 2306SOL     OW18376   3.754   2.947   7.034 -0.0092 -0.0740 -0.0850
 2306SOL    HW118377   3.732   2.866   7.080 -0.8677  0.4704  0.4649
 2306SOL    HW218378   3.701   2.938   6.955  0.1122 -1.0976 -0.0481
 2307SOL     OW18379   1.312   4.528   8.120 -0.4648  0.6243 -0.2808
 2307SOL    HW118380   1.320   4.623   8.134  1.6591  0.0038  2.7329
 2307SOL    HW218381   1.335   4.497   8.208  0.6480  0.1425 -0.7572
 2308SOL     OW18382   0.590   1.551   7.347  0.6671 -0.4587  0.1791
 2308SOL    HW118383   0.519   1.505   7.302  1.1164 -0.0921 -0.8967
 2308SOL    HW218384   0.654   1.568   7.278 -1.6567 -2.7866 -2.5474
 2309SOL     OW18385   2.082   0.604   7.306  0.2575  0.1071 -0.2433
 2309SOL    HW118386   2.150   0.576   7.245 -0.1849 -0.7989 -0.3188
 2309SOL    HW218387   2.008   0.548   7.284  0.3115 -0.0736  0.0236
 2310SOL     OW18388   2.703   2.522   7.715  0.3935  0.1092 -0.2171
 2310SOL    HW118389   2.716   2.445   7.660  0.2124 -1.1301  1.4687
 2310SOL    HW218390   2.668   2.480   7.794  2.6039 -0.0531  0.6691
 2311SOL     OW18391   2.091   2.409  17.497 -0.3872  0.1433 -0.5348
 2311SOL    HW118392   2.160   2.474  17.508 -2.0444  1.7658  0.1909
 2311SOL    HW218393   2.064   2.424  17.406 -3.5025  1.3561  0.5990
 2312SOL     OW18394   3.711   3.806   6.815  0.2376 -0.8281 -0.0310
 2312SOL    HW118395   3.718   3.897   6.783 -2.9873 -1.0066 -1.2257
 2312SOL    HW218396   3.660   3.766   6.745  1.0331  1.9631 -2.2073
 2313SOL     OW18397   3.900   2.997  14.743 -0.4991  0.1369  0.1859
 2313SOL    HW118398   3.986   3.036  14.757  0.7203 -2.3579 -0.4024
 2313SOL    HW218399   3.845   3.073  14.726 -1.0779 -0.1702  0.7222
 2314SOL     OW18400   2.221   0.661   8.241 -0.2558 -0.3038  0.4769
 2314SOL    HW118401   2.211   0.579   8.191  1.7455 -1.2357  1.6235
 2314SOL    HW218402   2.302   0.642   8.288 -0.8622  0.9743  2.0309
 2315SOL     OW18403   3.935   0.584  15.593 -0.4311 -0.7733  0.5051
 2315SOL    HW118404   4.007   0.521  15.593  0.8161  0.6722 -1.3558
 2315SOL    HW218405   3.869   0.520  15.566 -0.9849  0.3702 -0.8314
 2316SOL     OW18406   3.777   0.393   3.492  0.1935  0.3606 -0.3744
 2316SOL    HW118407   3.837   0.395   3.418  0.5323  0.7789 -0.0918
 2316SOL    HW218408   3.816   0.450   3.559  2.4452  0.2148 -1.5652
 2317SOL     OW18409   0.910   0.817  15.113  0.5011  0.4848 -0.2916
 2317SOL    HW118410   0.979   0.881  15.130  1.9264 -1.2964  0.5425
 2317SOL    HW218411   0.832   0.872  15.103  0.7493  0.7912 -0.5221
 2318SOL     OW18412   2.979   0.899   9.049 -0.2201 -0.1634  0.3427
 2318SOL    HW118413   3.064   0.939   9.034 -1.2723  2.0731  0.4555
 2318SOL    HW218414   2.961   0.858   8.964 -0.3346  0.3238  0.1335
 2319SOL     OW18415   0.032   2.891   3.087 -0.2250 -0.1580  0.3398
 2319SOL    HW118416   0.104   2.872   3.027  1.1241 -0.8395  2.1875
 2319SOL    HW218417   4.697   2.958   3.048 -1.2209  0.0810  2.1655
 2320SOL     OW18418   3.166   0.985   3.377  0.2827  0.0004 -0.4553
 2320SOL    HW118419   3.197   0.978   3.286  2.1641 -1.9105  0.3442
 2320SOL    HW218420   3.120   1.068   3.361  0.6640  0.3477  0.2512
 2321SOL     OW18421   0.278   4.668   7.881  0.1911 -0.0833 -0.4286
 2321SOL    HW118422   0.211   4.613   7.923 -0.6341 -0.2751 -2.0227
 2321SOL    HW218423   0.303   0.009   7.949 -1.8580 -1.0688  1.2240
 2322SOL     OW18424   2.720   4.601   2.914  0.1374  0.1003  0.2358
 2322SOL    HW118425   2.692   4.574   2.826 -1.2352  1.1551  0.3494
 2322SOL    HW218426   2.681   4.688   2.921 -1.1990 -0.4321 -0.6594
 2323SOL     OW18427   3.335   0.819   3.762  0.7969 -0.2767  0.2348
 2323SOL    HW118428   3.306   0.734   3.728 -0.0622  0.6281 -1.2731
 2323SOL    HW218429   3.407   0.840   3.703 -0.7253 -0.4914 -1.6908
 2324SOL     OW18430   0.153   0.484  14.694  0.0400  0.5369  0.3395
 2324SOL    HW118431   0.136   0.390  14.705  1.4596  0.1877 -0.3788
 2324SOL    HW218432   0.105   0.494  14.612  0.6664 -1.2418 -0.2524
 2325SOL     OW18433   1.811   0.302   3.941  0.5339  0.1658  0.5537
 2325SOL    HW118434   1.764   0.370   3.894 -1.6411 -0.8355  1.2876
 2325SOL    HW218435   1.754   0.225   3.936  0.0101  0.6164 -0.5084
 2326SOL     OW18436   3.808   4.407   5.081 -0.3068 -0.4238 -0.3533
 2326SOL    HW118437   3.857   4.469   5.027  1.9838 -1.3329  0.6990
 2326SOL    HW218438   3.723   4.447   5.099 -0.0600 -0.5233  1.0268
 2327SOL     OW18439   1.717   1.821  17.660 -0.2178 -0.1381 -0.7065
 2327SOL    HW118440   1.696   1.747  17.602  0.0298 -0.3756 -0.4929
 2327SOL    HW218441   1.708   1.892  17.596  1.0184 -0.0133 -0.7422
 2328SOL     OW18442   1.538   1.261  10.746  0.1572 -0.2374 -0.2353
 2328SOL    HW118443   1.600   1.260  10.819  0.8095  1.1612 -0.7917
 2328SOL    HW218444   1.455   1.289  10.786 -0.0373 -0.6220 -0.3633
 2329SOL     OW18445   4.655   0.852   2.811  0.5348 -0.3699 -0.2407
 2329SOL    HW118446   4.689   0.803   2.886 -0.5930 -1.8578 -0.7092
 2329SOL    HW218447   4.698   0.804   2.740  0.2223 -0.1789 -0.5559
 2330SOL     OW18448   4.254   0.222  11.793  0.0772 -0.0461  0.3616
 2330SOL    HW118449   4.315   0.292  11.817  0.4837 -0.4759  0.5857
 2330SOL    HW218450   4.319   0.153  11.786 -0.5994 -0.7257  0.7216
 2331SOL     OW18451   4.533   3.070   3.480 -0.7631 -0.2076  0.4477
 2331SOL    HW118452   4.516   3.085   3.387  1.3684  0.6360  0.1924
 2331SOL    HW218453   4.610   3.127   3.487  0.5723 -1.6526 -2.3867
 2332SOL     OW18454   2.124   4.406   5.840 -0.2477  0.2285  0.5717
 2332SOL    HW118455   2.163   4.355   5.911 -2.7175 -2.7512 -0.2138
 2332SOL    HW218456   2.200   4.437   5.792 -0.8388  1.7496  0.6143
 2333SOL     OW18457   4.104   3.157   2.129 -0.4352  0.5948  0.6323
 2333SOL    HW118458   4.092   3.066   2.102 -1.6544  0.2435  2.4327
 2333SOL    HW218459   4.024   3.156   2.181 -1.5331 -1.3756 -1.0892
 2334SOL     OW18460   3.066   4.232   9.224  0.2787  0.0354 -0.3437
 2334SOL    HW118461   3.126   4.241   9.298 -0.9976 -0.8360  0.7772
 2334SOL    HW218462   3.081   4.314   9.176 -1.5279 -0.6348 -2.0242
 2335SOL     OW18463   2.387   1.598   4.258 -0.0512  0.3617  0.6304
 2335SOL    HW118464   2.423   1.544   4.329  0.5901 -1.6922 -1.2784
 2335SOL    HW218465   2.341   1.533   4.206  0.1246 -0.9680  2.1243
 2336SOL     OW18466   3.434   3.707   6.997 -0.1387 -0.2428  0.3000
 2336SOL    HW118467   3.424   3.778   6.933  1.7292 -2.0712 -2.0050
 2336SOL    HW218468   3.448   3.638   6.933 -0.1937  2.7824 -3.0004
 2337SOL     OW18469   0.457   3.460   1.326  0.0415 -0.0525  0.1631
 2337SOL    HW118470   0.363   3.443   1.318  0.2144 -0.8842 -0.0367
 2337SOL    HW218471   0.476   3.512   1.248  0.5302  1.0071  0.9912
 2338SOL     OW18472   0.333   0.344   7.284  0.1940  0.4291 -0.3408
 2338SOL    HW118473   0.255   0.344   7.229 -1.6805 -0.0427  2.3401
 2338SOL    HW218474   0.338   0.257   7.323 -2.1707  0.1603 -0.6461
 2339SOL     OW18475   4.678   4.066   8.055  0.1200  0.3915  0.1692
 2339SOL    HW118476   0.041   4.023   8.042  0.6230  1.1865  0.8117
 2339SOL    HW218477   4.692   4.150   8.012 -0.0290 -0.4411 -1.5065
 2340SOL     OW18478   4.583   1.566   7.247 -0.1543  0.5173  0.0414
 2340SOL    HW118479   4.677   1.573   7.233 -0.1326 -0.5170 -0.3730
 2340SOL    HW218480   4.567   1.655   7.276 -0.4279  0.2981  0.5591
 2341SOL     OW18481   1.709   0.551   4.087 -0.0573 -0.0767 -0.0704
 2341SOL    HW118482   1.744   0.486   4.148 -0.9349  0.5659  1.1337
 2341SOL    HW218483   1.750   0.519   4.007 -0.1455  1.3409 -0.6956
 2342SOL     OW18484   4.522   3.623   3.804  0.0370  0.0224 -0.0764
 2342SOL    HW118485   4.436   3.621   3.762  0.3385 -1.2058 -0.6305
 2342SOL    HW218486   4.564   3.578   3.730  0.7200  0.1564  0.2272
 2343SOL     OW18487   1.594   4.291   6.137  0.4751  0.6094 -0.1578
 2343SOL    HW118488   1.623   4.262   6.051 -0.1850 -1.4175  0.2963
 2343SOL    HW218489   1.636   4.376   6.151  0.8072  0.3540  0.3712
 2344SOL     OW18490   0.862   3.725   8.257 -0.0350 -0.1206  0.8432
 2344SOL    HW118491   0.902   3.642   8.232 -0.5583  0.5110 -2.1170
 2344SOL    HW218492   0.806   3.696   8.329 -1.2671  1.2890  0.4535
 2345SOL     OW18493   3.323   3.814  15.481 -0.2367 -0.3711  0.1405
 2345SOL    HW118494   3.316   3.816  15.385  1.6532 -0.5534  0.0011
 2345SOL    HW218495   3.237   3.779  15.504 -0.5138  0.8833  0.9980
 2346SOL     OW18496   1.869   3.717   3.848 -0.2351  0.3776  0.3635
 2346SOL    HW118497   1.939   3.761   3.799  0.1708 -1.1247 -0.4000
 2346SOL    HW218498   1.910   3.689   3.930  0.3680 -2.2697 -0.8626
 2347SOL     OW18499   4.224   4.073   7.385  0.7368  0.0579  0.0766
 2347SOL    HW118500   4.156   4.012   7.355  0.6441 -0.5534  1.4952
 2347SOL    HW218501   4.251   4.116   7.304 -0.4520  1.8531  0.6411
 2348SOL     OW18502   0.264   3.745   7.813 -0.1312 -0.0530 -0.0313
 2348SOL    HW118503   0.342   3.689   7.803  1.3705  1.9204  0.6246
 2348SOL    HW218504   0.199   3.725   7.745 -1.6011  3.6605  0.3343
 2349SOL     OW18505   3.260   3.106   4.771  0.0195  0.4936  0.4191
 2349SOL    HW118506   3.323   3.037   4.751  1.7957  2.4042 -0.5725
 2349SOL    HW218507   3.211   3.115   4.689  0.6417 -1.8162 -0.2108
 2350SOL     OW18508   1.205   0.348   8.908 -0.1912  0.1416 -0.0305
 2350SOL    HW118509   1.205   0.274   8.847  0.5876 -0.7887  1.0965
 2350SOL    HW218510   1.289   0.334   8.952  1.0292  0.9540 -2.1059
 2351SOL     OW18511   0.383   2.453   6.326  0.5468 -0.2848  0.0477
 2351SOL    HW118512   0.304   2.421   6.282 -0.1267  4.0217 -1.8406
 2351SOL    HW218513   0.348   2.457   6.415  0.9735  1.9576  0.1124
 2352SOL     OW18514   0.112   4.517   0.797 -0.4056 -0.1004  0.0076
 2352SOL    HW118515   0.177   4.551   0.735  1.0471 -0.0778  1.5588
 2352SOL    HW218516   0.098   4.591   0.856  0.8397  0.2277 -0.1085
 2353SOL     OW18517   0.411   0.639   5.993  0.4642  0.2858 -0.2514
 2353SOL    HW118518   0.331   0.629   5.941  0.0547  1.0426  0.2138
 2353SOL    HW218519   0.433   0.551   6.024 -0.3794  0.2180  0.1661
 2354SOL     OW18520   0.856   1.002   4.410  0.5208 -0.0403  1.2161
 2354SOL    HW118521   0.792   0.931   4.415  0.3280  0.1522  1.4678
 2354SOL    HW218522   0.844   1.036   4.499  0.7864 -1.4193  1.7854
 2355SOL     OW18523   0.799   2.855   2.012 -0.0283  0.4517  0.0686
 2355SOL    HW118524   0.830   2.876   1.923  0.5808  1.3550  0.4959
 2355SOL    HW218525   0.746   2.786   1.973  0.5149  0.2011 -0.2399
 2356SOL     OW18526   1.685   0.234   1.974  0.3399  0.5355 -0.4368
 2356SOL    HW118527   1.672   0.265   1.884  0.1135  0.1051 -0.5497
 2356SOL    HW218528   1.730   0.151   1.963  0.5438  0.4867  0.8438
 2357SOL     OW18529   3.764   2.052   6.985  0.0915  0.1034  0.0296
 2357SOL    HW118530   3.843   2.086   7.028 -0.5348 -0.8731  1.9724
 2357SOL    HW218531   3.808   1.986   6.931 -1.7523 -1.1577  0.0752
 2358SOL     OW18532   0.334   2.829   4.839 -0.6157  0.7333 -0.3648
 2358SOL    HW118533   0.404   2.888   4.867  1.2518 -0.7584 -1.9033
 2358SOL    HW218534   0.262   2.876   4.882 -0.1747  0.2856  0.8768
 2359SOL     OW18535   3.002   4.549  10.593 -0.2681  0.4499 -0.4474
 2359SOL    HW118536   2.944   4.476  10.570  0.2264 -0.0839 -0.0014
 2359SOL    HW218537   3.081   4.498  10.608 -0.5917  0.9181  2.9362
 2360SOL     OW18538   3.354   2.112   5.627 -0.5471 -0.5348 -0.5526
 2360SOL    HW118539   3.285   2.140   5.566 -0.8778  0.3188  0.2163
 2360SOL    HW218540   3.378   2.021   5.608 -1.9933 -0.8873 -0.7210
 2361SOL     OW18541   0.391   0.566   7.448  0.4994 -0.8100  0.3601
 2361SOL    HW118542   0.338   0.636   7.486  1.1940 -0.3195  0.4320
 2361SOL    HW218543   0.325   0.544   7.383  0.1445  0.5855  0.2385
 2362SOL     OW18544   2.961   2.066  15.975 -0.1455  1.0046 -0.2554
 2362SOL    HW118545   2.908   1.995  15.937  1.0726 -0.3941  0.6458
 2362SOL    HW218546   2.968   2.122  15.899  1.7887  2.7481  1.2155
 2363SOL     OW18547   3.694   3.275  11.335 -0.4403  0.1216  0.2410
 2363SOL    HW118548   3.675   3.290  11.428 -1.1118  2.4846 -0.2837
 2363SOL    HW218549   3.648   3.193  11.315 -0.0123 -0.0259 -0.1458
 2364SOL     OW18550   2.621   1.063   4.757  0.4045  0.2130 -0.6812
 2364SOL    HW118551   2.532   1.089   4.783  0.9372  0.9370  0.4556
 2364SOL    HW218552   2.650   1.133   4.699 -0.7294 -0.1383 -1.6619
 2365SOL     OW18553   0.180   4.677  15.432  0.3620  0.3111 -0.2031
 2365SOL    HW118554   0.222   0.019  15.491 -1.4935  1.4796 -0.1318
 2365SOL    HW218555   0.213   4.706  15.347 -1.1882  2.0914 -0.2070
 2366SOL     OW18556   2.479   1.794   7.600 -0.6640 -0.5222 -0.1291
 2366SOL    HW118557   2.572   1.813   7.613 -0.1099 -3.5584  0.3977
 2366SOL    HW218558   2.464   1.840   7.518  0.5794  0.1433  0.0127
 2367SOL     OW18559   0.118   4.250   9.645  0.3854  0.3873  0.1536
 2367SOL    HW118560   0.123   4.345   9.642 -1.3595  0.4522 -0.4638
 2367SOL    HW218561   0.178   4.224   9.575  0.3278  0.2681  0.1474
 2368SOL     OW18562   0.794   4.299   6.362 -0.0317 -0.0047 -0.6589
 2368SOL    HW118563   0.783   4.356   6.286  3.2088  2.0807  0.3940
 2368SOL    HW218564   0.888   4.279   6.366  0.1201  1.4372  2.9859
 2369SOL     OW18565   2.613   0.992   2.136 -0.0973 -0.0769  0.2590
 2369SOL    HW118566   2.672   0.969   2.064  0.5489 -1.0448  1.1038
 2369SOL    HW218567   2.594   0.908   2.176  2.4627 -0.8077 -0.0423
 2370SOL     OW18568   2.575   2.565   6.386 -0.1663 -0.3607 -0.0163
 2370SOL    HW118569   2.532   2.497   6.334  0.9158  0.5114 -2.0678
 2370SOL    HW218570   2.584   2.638   6.324 -1.0013 -1.6959 -1.6996
 2371SOL     OW18571   3.418   4.395   9.570  0.3635  0.2672 -0.0760
 2371SOL    HW118572   3.337   4.441   9.547 -0.8629 -2.1211 -0.5361
 2371SOL    HW218573   3.381   4.353   9.648  0.6333  1.2081  0.5624
 2372SOL     OW18574   0.316   3.661   2.185  0.2152  0.0125 -0.1178
 2372SOL    HW118575   0.305   3.756   2.188 -1.2777 -0.2068  1.2966
 2372SOL    HW218576   0.241   3.636   2.239 -0.0114 -1.9036 -1.3096
 2373SOL     OW18577   3.066   1.686  10.327 -0.3108  0.6121  0.1129
 2373SOL    HW118578   3.084   1.778  10.349  0.1356  0.7544 -0.8568
 2373SOL    HW218579   2.971   1.686  10.337 -0.2202 -0.4564  0.9640
 2374SOL     OW18580   4.134   2.101   6.760  0.0151 -0.3253  0.1833
 2374SOL    HW118581   4.113   2.033   6.823 -1.9233  2.0530  2.1125
 2374SOL    HW218582   4.156   2.045   6.685  0.9534  0.7954 -0.3859
 2375SOL     OW18583   3.156   2.416   5.639 -0.1104  0.2600  0.3639
 2375SOL    HW118584   3.155   2.366   5.557 -2.0587  0.9449 -0.0498
 2375SOL    HW218585   3.142   2.502   5.597  0.5317 -0.3762 -1.1482
 2376SOL     OW18586   2.643   0.544   9.577  0.4694  0.1185  0.1540
 2376SOL    HW118587   2.648   0.449   9.577 -0.4862  0.0692  0.5639
 2376SOL    HW218588   2.553   0.558   9.545  0.4451  0.7146  0.4771
 2377SOL     OW18589   2.709   1.986   2.943 -0.9306 -0.4868 -0.2431
 2377SOL    HW118590   2.782   2.017   2.890 -0.3482 -1.1669  0.1772
 2377SOL    HW218591   2.644   1.968   2.875  0.5611 -1.0000 -1.5415
 2378SOL     OW18592   2.309   4.440  15.887  0.1152  0.1668 -0.2784
 2378SOL    HW118593   2.385   4.382  15.881  0.1980  0.2117  0.3042
 2378SOL    HW218594   2.231   4.384  15.880  0.6799 -0.4210 -1.8470
 2379SOL     OW18595   1.492   0.216   8.067 -0.5765 -0.6889  0.1113
 2379SOL    HW118596   1.573   0.248   8.027 -1.2719 -0.3612 -1.0491
 2379SOL    HW218597   1.422   0.259   8.017 -0.5921 -0.7480  0.0820
 2380SOL     OW18598   2.405   3.700   9.556  0.4782 -0.6340 -0.3607
 2380SOL    HW118599   2.438   3.784   9.588 -0.7324 -0.5782  0.7352
 2380SOL    HW218600   2.312   3.720   9.565  0.6865 -0.8245  2.2216
 2381SOL     OW18601   4.654   1.535   6.727  0.2239  0.2247  0.6393
 2381SOL    HW118602   4.600   1.556   6.803 -2.1172 -1.7422 -0.4809
 2381SOL    HW218603   4.710   1.475   6.777  1.6139  2.6490  1.9652
 2382SOL     OW18604   4.699   2.137   2.189 -0.5868  0.2026  0.3770
 2382SOL    HW118605   4.643   2.064   2.161 -1.1840  0.4968  0.7968
 2382SOL    HW218606   0.030   2.159   2.111 -2.5201 -0.0385 -0.9946
 2383SOL     OW18607   3.715   1.966  15.643 -0.5261  0.4225  0.2459
 2383SOL    HW118608   3.683   2.011  15.722  0.4512  1.6074 -0.0156
 2383SOL    HW218609   3.722   1.882  15.689 -0.7405 -0.5535 -1.5318
 2384SOL     OW18610   0.716   1.454   4.047  0.3663  0.6644  0.0343
 2384SOL    HW118611   0.660   1.387   4.087 -1.2348 -0.0690 -3.4052
 2384SOL    HW218612   0.674   1.461   3.961 -1.4807  0.6069  0.9209
 2385SOL     OW18613   1.784   0.806   8.437  0.3051  0.4748 -0.0917
 2385SOL    HW118614   1.775   0.897   8.467 -0.1456 -0.5501  2.8587
 2385SOL    HW218615   1.878   0.797   8.419  0.0790 -1.5209 -0.2069
 2386SOL     OW18616   2.885   4.293   8.984  0.1963  0.1917  0.1504
 2386SOL    HW118617   2.836   4.266   9.062  0.5190  2.1093  1.0131
 2386SOL    HW218618   2.945   4.353   9.027  0.9894  0.9019 -1.9461
 2387SOL     OW18619   3.796   3.510   1.418 -0.2074 -0.2692  0.1815
 2387SOL    HW118620   3.704   3.496   1.396 -0.2012  1.6308 -1.1313
 2387SOL    HW218621   3.799   3.436   1.478  2.2169 -1.1711 -1.0488
 2388SOL     OW18622   0.729   2.837   8.530  0.2938 -0.1538 -0.1929
 2388SOL    HW118623   0.639   2.868   8.542  1.2241  1.8241  1.5713
 2388SOL    HW218624   0.710   2.750   8.566  1.2876 -0.0902  0.4922
 2389SOL     OW18625   2.866   4.697   2.672 -0.4434  0.0343  0.1108
 2389SOL    HW118626   2.962   4.695   2.674 -0.4184 -0.3316 -1.2249
 2389SOL    HW218627   2.844   0.017   2.755 -0.5183  0.5886 -0.1870
 2390SOL     OW18628   3.269   2.206  12.244  0.1475  0.2413  0.0785
 2390SOL    HW118629   3.315   2.166  12.170  0.7460  1.3707 -0.1620
 2390SOL    HW218630   3.308   2.294  12.251  0.1354  0.2878 -0.4353
 2391SOL     OW18631   1.160   0.523  16.676  0.1805  0.6054  0.3403
 2391SOL    HW118632   1.231   0.465  16.702  0.4151  0.8525  0.2565
 2391SOL    HW218633   1.098   0.497  16.744  0.8449  1.2240  1.1740
 2392SOL     OW18634   1.880   4.599   4.547 -0.1489  0.0192 -0.3294
 2392SOL    HW118635   1.858   4.644   4.628 -1.6397 -4.1865  1.5996
 2392SOL    HW218636   1.928   4.665   4.498  0.1880  2.4212  3.2326
 2393SOL     OW18637   1.975   3.521   2.639  0.1471  0.2132 -0.1227
 2393SOL    HW118638   1.969   3.425   2.635  0.2168  0.2051 -0.0357
 2393SOL    HW218639   2.045   3.534   2.575 -2.5432  0.1728 -3.0750
 2394SOL     OW18640   3.112   3.916   0.941 -0.2109 -0.0640  0.3099
 2394SOL    HW118641   3.192   3.864   0.932 -0.0069  0.3327 -0.2157
 2394SOL    HW218642   3.122   3.946   1.031  1.4542 -1.7646  0.7084
 2395SOL     OW18643   2.201   1.756   1.513  0.4643 -0.2811  0.4330
 2395SOL    HW118644   2.158   1.817   1.573  1.3205  2.0418 -1.3137
 2395SOL    HW218645   2.176   1.667   1.538 -4.0262  0.9581  0.2353
 2396SOL     OW18646   0.557   2.371   3.422  0.6535  0.1923 -0.0469
 2396SOL    HW118647   0.495   2.337   3.486  2.0360 -0.3032  1.0339
 2396SOL    HW218648   0.631   2.399   3.477  1.4588 -1.3142 -0.3713
 2397SOL     OW18649   2.763   2.751   3.753 -0.0238  0.9341 -0.0420
 2397SOL    HW118650   2.686   2.793   3.789 -0.5497  0.8843 -1.1153
 2397SOL    HW218651   2.763   2.672   3.807  1.6870  0.9074 -0.0811
 2398SOL     OW18652   0.797   3.209   0.150  0.4459  0.9705 -0.1003
 2398SOL    HW118653   0.825   3.295   0.178  3.5231  0.3504 -1.3473
 2398SOL    HW218654   0.856   3.183   0.080 -0.2399 -2.1827  0.4662
 2399SOL     OW18655   0.312   3.330   4.075  0.1655 -0.1539  0.4154
 2399SOL    HW118656   0.346   3.336   3.986  1.2387  0.3235  0.8599
 2399SOL    HW218657   0.270   3.244   4.064 -0.4573  0.2205 -0.1113
 2400SOL     OW18658   3.580   2.373   1.803 -0.0450  0.4306 -0.3658
 2400SOL    HW118659   3.563   2.359   1.896  0.8652  1.3828 -0.0523
 2400SOL    HW218660   3.674   2.356   1.807 -0.1483 -0.1868 -0.4692
 2401SOL     OW18661   2.795   4.252  16.918 -0.2094 -0.1779  0.4160
 2401SOL    HW118662   2.786   4.300  16.835 -0.0936 -0.6804  0.1098
 2401SOL    HW218663   2.868   4.195  16.892 -0.9385 -1.1484  0.4661
 2402SOL     OW18664   2.870   4.069  10.887  0.2582 -0.4400  0.1312
 2402SOL    HW118665   2.832   4.084  10.973 -2.4288  1.1384 -1.3326
 2402SOL    HW218666   2.863   4.158  10.852  1.3818 -1.2259 -2.1044
 2403SOL     OW18667   4.260   0.097   2.909 -0.5921 -0.2507  0.0661
 2403SOL    HW118668   4.303   0.178   2.936 -0.8944  0.8048 -2.5857
 2403SOL    HW218669   4.310   0.079   2.830 -0.3984  1.7698 -0.2614
 2404SOL     OW18670   2.159   3.977  17.058  0.1677 -0.7187  0.0227
 2404SOL    HW118671   2.116   3.975  17.143  0.4722  1.3758  0.2430
 2404SOL    HW218672   2.190   4.068  17.056 -0.8365 -0.3550  0.5667
 2405SOL     OW18673   1.740   4.708  15.211 -0.3395  0.4866  0.7373
 2405SOL    HW118674   1.716   0.032  15.291  0.5585  1.1006  0.6506
 2405SOL    HW218675   1.707   4.619  15.220  0.3375  0.1452 -0.0832
 2406SOL     OW18676   1.783   4.579   5.473 -0.0942 -0.4088  0.1957
 2406SOL    HW118677   1.851   4.643   5.491 -1.2547  1.0458 -0.5482
 2406SOL    HW218678   1.826   4.518   5.413  1.3192  0.8105 -0.0126
 2407SOL     OW18679   0.051   2.353   9.526 -0.2631 -0.0768  0.0079
 2407SOL    HW118680   0.125   2.300   9.496 -0.2209  0.7174 -1.2896
 2407SOL    HW218681   0.073   2.365   9.619 -2.3662  1.2151  0.3435
 2408SOL     OW18682   4.372   2.693   0.695  0.2886 -0.0409 -0.5923
 2408SOL    HW118683   4.304   2.724   0.754  1.7527 -1.4992  1.8600
 2408SOL    HW218684   4.440   2.758   0.711 -0.9515  1.7992 -2.7518
 2409SOL     OW18685   2.442   3.741   7.894 -0.1584  0.0540  0.3085
 2409SOL    HW118686   2.524   3.788   7.888 -0.6804  1.1724  1.9393
 2409SOL    HW218687   2.385   3.809   7.931 -1.2653 -0.5538 -0.2564
 2410SOL     OW18688   1.796   0.334   4.271  0.2108  0.1647  0.0404
 2410SOL    HW118689   1.798   0.383   4.353 -0.1991 -1.7878  1.2131
 2410SOL    HW218690   1.878   0.369   4.237 -0.7924  1.7544 -0.7612
 2411SOL     OW18691   3.694   3.937   7.065  0.4669 -0.1594  0.5218
 2411SOL    HW118692   3.658   3.880   6.997 -1.0153 -0.0306  1.1843
 2411SOL    HW218693   3.707   3.877   7.138 -2.4642 -1.3131  0.0946
 2412SOL     OW18694   1.292   2.877   3.780  0.1446  0.0258 -0.1731
 2412SOL    HW118695   1.373   2.924   3.801 -0.5217  0.9314  0.3696
 2412SOL    HW218696   1.299   2.871   3.684  2.1338  1.0639 -0.0834
 2413SOL     OW18697   4.176   0.174  14.192  0.2209  0.1632  0.0868
 2413SOL    HW118698   4.189   0.267  14.210 -1.3337  0.0767  1.6656
 2413SOL    HW218699   4.261   0.134  14.211  0.4092 -0.0739 -1.2154
 2414SOL     OW18700   4.250   2.397   2.572 -0.4014 -0.8262  0.6504
 2414SOL    HW118701   4.313   2.427   2.507 -2.1505  3.5858  0.9807
 2414SOL    HW218702   4.202   2.334   2.518 -1.2180  2.5088 -2.5218
 2415SOL     OW18703   1.153   0.688  15.601  0.1469  0.1342  0.0224
 2415SOL    HW118704   1.224   0.657  15.545 -0.3434  0.9546 -1.0470
 2415SOL    HW218705   1.141   0.609  15.653  0.8865 -1.0224 -1.5602
 2416SOL     OW18706   0.500   1.383   6.568 -0.6689  0.1619  0.8992
 2416SOL    HW118707   0.479   1.325   6.495 -0.2588 -1.1107  1.7963
 2416SOL    HW218708   0.474   1.469   6.537 -2.7564  0.0916  2.5100
 2417SOL     OW18709   1.423   3.980   2.981  0.0263 -0.4422  0.5547
 2417SOL    HW118710   1.487   4.044   2.950 -1.0758  0.2288 -0.3855
 2417SOL    HW218711   1.371   4.032   3.042  0.3178  1.3261 -0.7084
 2418SOL     OW18712   2.682   1.985  10.835  0.2691  0.3072 -0.0686
 2418SOL    HW118713   2.738   1.909  10.820  1.8911  1.0806  1.9883
 2418SOL    HW218714   2.707   2.011  10.923  0.4976 -2.0396  0.5450
 2419SOL     OW18715   3.458   3.705   1.832 -0.3100 -0.3086 -0.1696
 2419SOL    HW118716   3.415   3.625   1.800 -0.4497  0.6815 -2.4543
 2419SOL    HW218717   3.547   3.669   1.840  0.8461  2.5486 -0.2144
 2420SOL     OW18718   4.487   2.450   2.417 -0.0500 -0.1697  0.0383
 2420SOL    HW118719   4.538   2.510   2.471 -1.1554 -1.0695  2.0492
 2420SOL    HW218720   4.521   2.463   2.328  0.4089 -0.0813  0.2241
 2421SOL     OW18721   1.131   2.157   6.689 -0.4042  0.3163  0.1124
 2421SOL    HW118722   1.166   2.243   6.667  1.4494 -0.6723 -0.7750
 2421SOL    HW218723   1.053   2.171   6.743  0.3218  0.4073  1.1506
 2422SOL     OW18724   3.368   0.173   7.037  0.5303 -0.1896 -0.1406
 2422SOL    HW118725   3.335   0.189   7.125 -0.2564 -2.4255 -0.0229
 2422SOL    HW218726   3.361   0.260   6.997 -0.9122 -0.4206 -0.3753
 2423SOL     OW18727   4.588   0.061   7.281  0.2806  0.6808  0.5551
 2423SOL    HW118728   4.670   0.047   7.328  0.1829 -1.1746  0.1880
 2423SOL    HW218729   4.607   0.016   7.198  0.8604 -0.5584  1.3510
 2424SOL     OW18730   1.418   4.361  11.208 -0.2192  0.3932 -0.2204
 2424SOL    HW118731   1.378   4.353  11.294  0.4249 -0.2022  0.0279
 2424SOL    HW218732   1.448   4.452  11.208 -2.0021  0.9703  1.0876
 2425SOL     OW18733   0.572   0.774   7.570  0.7889  0.3530  0.3461
 2425SOL    HW118734   0.608   0.686   7.578 -1.2494 -0.3148  2.2428
 2425SOL    HW218735   0.480   0.763   7.596  1.2532 -1.5926  1.1802
 2426SOL     OW18736   4.434   2.451  16.452  0.0506 -0.3648  0.1454
 2426SOL    HW118737   4.356   2.477  16.502 -0.4267  0.1805 -0.8872
 2426SOL    HW218738   4.387   2.394  16.391  1.3874 -0.7057 -0.5514
 2427SOL     OW18739   3.100   4.230   7.992  0.4431 -0.3340 -0.1058
 2427SOL    HW118740   3.155   4.275   8.055  0.3431  0.1658 -0.3773
 2427SOL    HW218741   3.153   4.151   7.977  2.6088  0.6781  2.2263
 2428SOL     OW18742   1.902   4.266   8.454  0.3761  0.0237 -0.2599
 2428SOL    HW118743   1.970   4.311   8.504  1.6129 -1.6292 -0.4480
 2428SOL    HW218744   1.952   4.255   8.373 -0.8909  2.4438 -1.3908
 2429SOL     OW18745   1.952   1.695   2.482  1.0207  0.0512 -0.1114
 2429SOL    HW118746   1.876   1.673   2.534  0.0731  2.6762 -0.3697
 2429SOL    HW218747   2.017   1.626   2.492 -1.2537 -2.1702 -0.7642
 2430SOL     OW18748   0.960   1.080   5.540  0.7220 -0.1799  0.3877
 2430SOL    HW118749   1.040   1.030   5.524 -1.3291 -3.1245 -0.6274
 2430SOL    HW218750   0.913   1.005   5.575 -1.1072  0.0343 -1.6246
 2431SOL     OW18751   1.655   4.118   3.198 -0.2497  0.1119 -0.1588
 2431SOL    HW118752   1.663   4.145   3.106 -0.7290  1.5741  0.2363
 2431SOL    HW218753   1.618   4.194   3.242  0.5246 -0.1337  0.9332
 2432SOL     OW18754   0.403   0.393  14.362 -0.7814  1.0023 -0.2991
 2432SOL    HW118755   0.470   0.426  14.302  0.0139 -2.5282 -1.3931
 2432SOL    HW218756   0.342   0.345  14.306 -3.0021  1.9220  1.3435
 2433SOL     OW18757   2.881   2.717   9.005 -0.1914 -0.1481 -0.3813
 2433SOL    HW118758   2.836   2.748   9.084  0.3537  0.8015 -0.4400
 2433SOL    HW218759   2.905   2.626   9.020  0.1262 -0.2588 -1.5118
 2434SOL     OW18760   0.366   4.449   2.584 -0.3396  0.7374  0.5510
 2434SOL    HW118761   0.423   4.524   2.604  4.0911 -2.5702  0.1244
 2434SOL    HW218762   0.424   4.382   2.549 -1.6058  0.4201 -0.9038
 2435SOL     OW18763   2.557   2.264  16.352 -0.3887 -0.2492  0.2203
 2435SOL    HW118764   2.617   2.224  16.289  1.0673  1.0379  0.7915
 2435SOL    HW218765   2.497   2.191  16.369  0.2861 -1.0769 -0.9589
 2436SOL     OW18766   4.167   1.942  10.076 -0.1700 -0.4069 -0.2809
 2436SOL    HW118767   4.148   1.861  10.124 -2.3214 -0.7862 -1.7878
 2436SOL    HW218768   4.232   1.920  10.009  0.0335 -0.6736  0.0023
 2437SOL     OW18769   4.682   3.821  17.356 -0.0038 -0.7363  0.3235
 2437SOL    HW118770   4.647   3.794  17.271 -1.6774  1.0220  0.4309
 2437SOL    HW218771   4.650   3.911  17.351 -2.2604 -1.6550 -2.0192
 2438SOL     OW18772   4.676   2.124   0.190 -0.1439  0.1344 -0.0304
 2438SOL    HW118773   4.630   2.178   0.255  0.1395  0.9620 -0.5091
 2438SOL    HW218774   4.698   2.046   0.241 -0.5532  0.5770  0.8274
 2439SOL     OW18775   4.449   0.359  14.194 -0.3312  0.3281  0.7370
 2439SOL    HW118776   4.494   0.441  14.213 -0.6671  0.3074  1.6260
 2439SOL    HW218777   4.411   0.381  14.109 -0.2988  1.4331  1.0012
 2440SOL     OW18778   0.252   3.211   7.222 -0.5864 -0.5598 -0.0651
 2440SOL    HW118779   0.179   3.172   7.271  0.4999 -1.2927  0.9906
 2440SOL    HW218780   0.235   3.305   7.234  0.5371 -0.2916 -0.5905
 2441SOL     OW18781   4.626   4.208   8.735  0.4155  0.4342 -0.0826
 2441SOL    HW118782   4.631   4.303   8.733 -0.8752  0.4604 -2.1268
 2441SOL    HW218783   4.609   4.198   8.829 -0.0332 -0.0309 -0.2126
 2442SOL     OW18784   1.548   2.314  16.413  0.4190 -0.3701  0.6798
 2442SOL    HW118785   1.526   2.380  16.348  0.4638 -0.5548  0.4755
 2442SOL    HW218786   1.635   2.336  16.446 -0.4442  1.7783  1.5096
 2443SOL     OW18787   2.550   3.946  12.073 -0.2206  0.2884  0.3477
 2443SOL    HW118788   2.518   3.980  11.990  1.6959  2.2125  0.4018
 2443SOL    HW218789   2.594   3.869  12.038 -0.1256  0.1550  0.7569
 2444SOL     OW18790   4.201   0.939  10.035  0.2542 -0.5446  0.4998
 2444SOL    HW118791   4.133   0.943  10.103  0.6672  0.2260  0.8606
 2444SOL    HW218792   4.154   0.875   9.981 -0.2820 -1.4468  2.0095
 2445SOL     OW18793   0.057   3.162   5.444  0.0696  0.1886  0.0991
 2445SOL    HW118794   4.684   3.169   5.432 -0.1768 -2.2103  0.6745
 2445SOL    HW218795   0.068   3.194   5.533  0.0115  1.5191 -0.3703
 2446SOL     OW18796   0.330   4.470  17.510 -0.4474  0.2835  0.2546
 2446SOL    HW118797   0.411   4.482  17.459 -1.0287 -0.1230 -0.7748
 2446SOL    HW218798   0.300   4.382  17.486  1.6555 -0.2754 -0.3814
 2447SOL     OW18799   1.794   2.725   7.373 -0.0873 -0.1465  0.1937
 2447SOL    HW118800   1.812   2.726   7.467 -0.8703 -4.2509  0.3764
 2447SOL    HW218801   1.707   2.765   7.376  0.0612  0.0755  1.4433
 2448SOL     OW18802   3.477   2.798   0.468  0.9581 -0.3136  0.4660
 2448SOL    HW118803   3.489   2.740   0.393 -3.1710 -0.2848 -0.2128
 2448SOL    HW218804   3.461   2.886   0.434  0.6611 -0.2371  0.8000
 2449SOL     OW18805   2.799   3.692  15.520  0.0471 -0.0959  0.0982
 2449SOL    HW118806   2.798   3.617  15.460  0.0817  1.0785 -1.3706
 2449SOL    HW218807   2.778   3.649  15.603 -1.3461 -0.0711 -0.2378
 2450SOL     OW18808   2.078   2.407   7.521 -0.1445 -0.2289 -0.1367
 2450SOL    HW118809   2.011   2.388   7.587  0.1135 -0.1994  0.1345
 2450SOL    HW218810   2.101   2.499   7.532 -0.3202 -0.5157  2.7931
 2451SOL     OW18811   2.205   1.056   8.065  0.1653  0.2838 -0.5448
 2451SOL    HW118812   2.144   1.054   8.138  0.1151  2.3348 -0.5248
 2451SOL    HW218813   2.286   1.064   8.115  0.0170  2.0109 -0.5909
 2452SOL     OW18814   1.480   4.607   4.876 -0.5643  0.0251  0.6792
 2452SOL    HW118815   1.464   4.593   4.969 -1.5401 -1.2130  0.3282
 2452SOL    HW218816   1.395   4.578   4.843 -0.6820  1.0498  0.0950
 2453SOL     OW18817   3.212   0.205   5.615  0.1433  0.3860 -0.0130
 2453SOL    HW118818   3.250   0.201   5.527  1.4206 -0.5110  0.5721
 2453SOL    HW218819   3.202   0.111   5.633 -0.6129  0.0787 -2.0954
 2454SOL     OW18820   1.832   4.252   1.778 -0.0737  0.1947 -0.4315
 2454SOL    HW118821   1.841   4.304   1.698 -0.9271  1.1874  0.1130
 2454SOL    HW218822   1.903   4.291   1.829  1.7534  0.5099 -3.2268
 2455SOL     OW18823   1.589   3.261  13.447 -0.7101  0.0352  0.2967
 2455SOL    HW118824   1.613   3.354  13.447 -1.2100  0.1612  0.8079
 2455SOL    HW218825   1.505   3.266  13.492 -1.0524  1.5516 -0.5118
 2456SOL     OW18826   1.049   3.067  12.328 -0.3206 -0.1607  1.0398
 2456SOL    HW118827   0.957   3.062  12.355 -0.6249 -3.6697 -0.5845
 2456SOL    HW218828   1.050   3.152  12.285 -0.3727  0.0439  1.4391
 2457SOL     OW18829   0.207   3.125  16.202 -0.2955 -0.1273  0.3484
 2457SOL    HW118830   0.158   3.205  16.221  0.1560  0.2086  0.1094
 2457SOL    HW218831   0.141   3.090  16.143  0.3036 -0.0916 -0.3348
 2458SOL     OW18832   2.576   4.232  16.052 -0.4052 -0.4459  0.1214
 2458SOL    HW118833   2.517   4.167  16.090 -0.1813 -0.0381  1.1647
 2458SOL    HW218834   2.540   4.230  15.964  1.3915  0.1461 -0.6399
 2459SOL     OW18835   1.354   3.547   5.712 -0.0036 -0.3016  0.0970
 2459SOL    HW118836   1.437   3.515   5.747 -0.0327  1.2125  1.5844
 2459SOL    HW218837   1.353   3.636   5.749  1.4122 -1.2615  2.4938
 2460SOL     OW18838   1.921   0.732   2.500  0.1716 -0.5710 -0.3005
 2460SOL    HW118839   1.919   0.821   2.466  2.2797 -0.1154  0.7555
 2460SOL    HW218840   1.854   0.695   2.444 -1.7844 -1.2977  2.5309
 2461SOL     OW18841   1.413   1.803   4.109 -0.2116  0.1229  0.4569
 2461SOL    HW118842   1.416   1.719   4.064 -2.4137 -0.5131  1.5262
 2461SOL    HW218843   1.483   1.861   4.079  0.6458 -0.1736  1.8754
 2462SOL     OW18844   1.713   2.837  12.705  0.1800 -0.2865  0.1324
 2462SOL    HW118845   1.662   2.756  12.705  3.3326 -2.2640  2.3892
 2462SOL    HW218846   1.721   2.866  12.796 -1.9414 -1.4520  0.6820
 2463SOL     OW18847   1.903   0.398   2.664 -0.4280  0.1904 -0.3338
 2463SOL    HW118848   1.817   0.357   2.673  0.3775 -1.6680 -1.0466
 2463SOL    HW218849   1.875   0.489   2.675  0.2055  0.1690  1.5368
 2464SOL     OW18850   3.454   3.903  10.654 -0.9867  0.2797  0.1087
 2464SOL    HW118851   3.514   3.866  10.719 -1.0120 -2.2934 -1.3216
 2464SOL    HW218852   3.415   3.820  10.626  1.6676 -1.0889  0.4543
 2465SOL     OW18853   3.852   2.137   5.386  0.2458 -0.1911 -0.1295
 2465SOL    HW118854   3.799   2.160   5.310  1.2227 -0.4415 -0.8830
 2465SOL    HW218855   3.907   2.066   5.351  0.1402 -0.0002 -0.6750
 2466SOL     OW18856   1.075   1.119   9.795 -0.4454 -0.2662  0.3684
 2466SOL    HW118857   1.078   1.027   9.770  0.6414 -0.1260 -0.0078
 2466SOL    HW218858   1.128   1.113   9.875 -0.7764 -1.7378  0.4869
 2467SOL     OW18859   4.680   0.092   7.858  0.1340 -0.3808 -0.4800
 2467SOL    HW118860   4.588   0.068   7.870 -0.1696  0.6087 -0.8932
 2467SOL    HW218861   4.714   0.080   7.947 -0.8906 -1.0168 -0.1659
 2468SOL     OW18862   4.109   1.547   0.711 -0.5774  0.0509  0.4104
 2468SOL    HW118863   4.194   1.517   0.744 -0.0385  1.7686  0.5485
 2468SOL    HW218864   4.127   1.541   0.617 -0.5380  1.2668  0.3482
 2469SOL     OW18865   0.392   0.565  14.589  0.1596 -0.1837 -0.1071
 2469SOL    HW118866   0.321   0.530  14.643  1.0051  0.3738  1.3699
 2469SOL    HW218867   0.368   0.518  14.509  0.0226 -0.9807  0.3914
 2470SOL     OW18868   0.688   3.458   8.245  0.0060  0.8870 -0.1557
 2470SOL    HW118869   0.775   3.454   8.204 -0.2846  0.8310 -0.7572
 2470SOL    HW218870   0.699   3.512   8.323  0.5496  1.0059 -0.3157
 2471SOL     OW18871   4.640   4.392  12.839  0.3649  0.6785 -0.2777
 2471SOL    HW118872   4.658   4.352  12.924  0.2433 -0.8199 -0.9558
 2471SOL    HW218873   4.572   4.332  12.809 -1.5181  1.7699  1.7606
 2472SOL     OW18874   4.675   0.740   7.075  0.1485  0.2060  0.3487
 2472SOL    HW118875   4.629   0.803   7.131 -0.8255  1.4764 -1.9051
 2472SOL    HW218876   4.612   0.669   7.078  2.0531 -1.4609  0.9553
 2473SOL     OW18877   4.688   0.785   6.347  0.2623  0.6291  0.0057
 2473SOL    HW118878   4.707   0.821   6.433 -1.0823 -0.6760  0.8533
 2473SOL    HW218879   4.629   0.848   6.306 -1.0188 -0.1468  0.6543
 2474SOL     OW18880   2.929   2.216   0.874 -0.5897 -0.3818  0.0549
 2474SOL    HW118881   2.900   2.262   0.795 -0.8426  2.0954  1.5989
 2474SOL    HW218882   2.867   2.144   0.882 -0.0477 -0.9418 -0.7871
 2475SOL     OW18883   1.188   2.998   2.602 -0.0581  0.1399  0.3050
 2475SOL    HW118884   1.119   2.953   2.552  0.5855 -1.8547  1.1805
 2475SOL    HW218885   1.138   3.073   2.632 -1.2333 -1.3507  2.0599
 2476SOL     OW18886   0.013   2.530   0.512 -0.5494 -0.2877 -0.6370
 2476SOL    HW118887   4.686   2.518   0.594 -1.4861 -0.1042 -1.1629
 2476SOL    HW218888   0.070   2.602   0.540 -0.3813 -0.9601  0.7756
 2477SOL     OW18889   0.582   2.729   5.222 -0.0919  0.4500 -0.1855
 2477SOL    HW118890   0.526   2.796   5.183 -0.5286 -0.2812 -0.8149
 2477SOL    HW218891   0.601   2.669   5.150  1.0085  0.9971 -0.3550
 2478SOL     OW18892   0.826   3.619   6.535  0.4847 -0.0538 -0.4051
 2478SOL    HW118893   0.792   3.698   6.494 -1.2948 -0.1456  0.8550
 2478SOL    HW218894   0.916   3.634   6.508  0.4521 -2.5642 -1.9374
 2479SOL     OW18895   2.227   3.916   4.105  0.3890 -0.4221 -0.0389
 2479SOL    HW118896   2.248   3.843   4.164 -0.7946 -0.4872  0.2862
 2479SOL    HW218897   2.142   3.886   4.073 -0.9048  1.4458  1.7006
 2480SOL     OW18898   0.659   4.545   9.010  0.5919 -0.1378 -0.0763
 2480SOL    HW118899   0.724   4.560   8.942 -1.0212 -0.5646 -1.6959
 2480SOL    HW218900   0.698   4.467   9.049  1.0945  0.2138  0.1329
 2481SOL     OW18901   2.984   0.102  10.690  0.0763 -0.0085 -0.3327
 2481SOL    HW118902   2.956   0.013  10.666  1.6090 -0.3106 -0.9944
 2481SOL    HW218903   3.066   0.084  10.735 -0.3873 -1.3393  0.0060
 2482SOL     OW18904   2.804   1.069   1.344  0.0609  0.5562 -0.3995
 2482SOL    HW118905   2.745   1.011   1.393  0.4839 -1.1053 -1.8252
 2482SOL    HW218906   2.809   1.032   1.255  2.3584 -0.0388 -0.0153
 2483SOL     OW18907   4.519   0.588   7.391  0.0957 -0.3660  0.2146
 2483SOL    HW118908   4.602   0.571   7.436  2.1350  3.0513 -2.2652
 2483SOL    HW218909   4.528   0.529   7.316 -2.3313 -0.1847 -0.2006
 2484SOL     OW18910   1.565   3.401   9.214  0.0617 -0.6980  0.3498
 2484SOL    HW118911   1.515   3.451   9.150 -2.8946 -3.3989  0.5483
 2484SOL    HW218912   1.536   3.311   9.198  1.0173 -0.9890  0.2684
 2485SOL     OW18913   0.120   2.331  15.042 -0.0767 -0.1496  0.5676
 2485SOL    HW118914   0.094   2.379  14.963 -2.1286 -0.9006  0.7812
 2485SOL    HW218915   0.064   2.385  15.098 -0.0180 -0.0163  0.4984
 2486SOL     OW18916   1.507   4.387   0.858 -0.2153  0.6662  0.2608
 2486SOL    HW118917   1.461   4.433   0.928  1.8079  1.2950  1.1946
 2486SOL    HW218918   1.518   4.300   0.896 -0.5892  0.3527 -0.3545
 2487SOL     OW18919   1.859   2.121   6.760  0.1816  0.1282 -0.0269
 2487SOL    HW118920   1.945   2.111   6.802  0.0736 -1.7494 -0.2692
 2487SOL    HW218921   1.803   2.050   6.790  2.3457 -0.9105  1.6215
 2488SOL     OW18922   3.945   2.747  17.353 -0.6676 -0.0004  0.2175
 2488SOL    HW118923   3.873   2.737  17.415  0.0311 -0.7411  0.9044
 2488SOL    HW218924   3.905   2.790  17.277  0.1051  0.6264  0.1664
 2489SOL     OW18925   1.799   3.333   7.936 -0.2905  0.3202 -0.3748
 2489SOL    HW118926   1.890   3.347   7.908  0.1209  0.6798  1.1424
 2489SOL    HW218927   1.792   3.390   8.013 -0.7990  1.0205 -0.9492
 2490SOL     OW18928   4.715   4.506  15.565  0.3220 -0.4381  0.3117
 2490SOL    HW118929   0.074   4.454  15.579  1.0386  0.6775  0.3511
 2490SOL    HW218930   0.029   4.553  15.489  2.2830  0.9881  2.1187
 2491SOL     OW18931   2.764   1.063   9.073 -0.3712 -0.3904  0.4156
 2491SOL    HW118932   2.840   1.005   9.069  0.3263  0.5630 -0.2443
 2491SOL    HW218933   2.810   1.133   9.118  1.6276 -1.7554  0.5093
 2492SOL     OW18934   0.677   4.637   7.632 -0.4294 -0.2649  0.4187
 2492SOL    HW118935   0.661   4.648   7.726  1.6020  2.2372  0.4786
 2492SOL    HW218936   0.771   4.619   7.628 -0.1839  1.5372 -2.0126
 2493SOL     OW18937   3.179   3.848  10.265  0.2841  0.2337  0.0351
 2493SOL    HW118938   3.224   3.764  10.269  1.0844  0.7235  1.2397
 2493SOL    HW218939   3.105   3.827  10.208  0.3428 -1.0459  0.4439
 2494SOL     OW18940   3.952   1.946   5.121 -0.4669  0.0056  0.3490
 2494SOL    HW118941   3.858   1.953   5.105 -0.2672  0.7086 -0.4720
 2494SOL    HW218942   3.960   1.850   5.119  1.4570  0.1942 -0.1531
 2495SOL     OW18943   3.834   0.456   1.614  0.0330 -0.0099 -0.0862
 2495SOL    HW118944   3.813   0.461   1.707 -1.8176  0.0947 -0.4989
 2495SOL    HW218945   3.800   0.537   1.575 -1.0859 -0.7799 -0.7380
 2496SOL     OW18946   0.459   0.542   7.141  0.1311 -0.1487 -0.0423
 2496SOL    HW118947   0.425   0.468   7.192 -0.4337 -0.8226 -1.4213
 2496SOL    HW218948   0.397   0.613   7.160 -0.1006 -0.7781  1.5674
 2497SOL     OW18949   2.143   0.662   2.644 -0.5659 -0.1548  0.1905
 2497SOL    HW118950   2.075   0.696   2.586  0.9134 -0.7801 -1.9220
 2497SOL    HW218951   2.154   0.579   2.597  1.9617  2.0725 -3.1109
 2498SOL     OW18952   2.244   0.677   4.200  0.0314 -0.0980  0.3205
 2498SOL    HW118953   2.284   0.634   4.275 -2.2960  0.6740  2.0204
 2498SOL    HW218954   2.265   0.618   4.128 -1.4134  0.1694 -0.3247
 2499SOL     OW18955   3.938   2.449   7.904 -0.2490 -0.6851 -0.0101
 2499SOL    HW118956   3.960   2.531   7.860 -1.8922 -0.2332  0.0089
 2499SOL    HW218957   3.874   2.486   7.964  0.2550  0.3240 -0.0868
 2500SOL     OW18958   3.103   3.579   8.396  0.5174  0.3530  0.5477
 2500SOL    HW118959   3.105   3.621   8.310  1.2545  0.5148  0.6403
 2500SOL    HW218960   3.023   3.610   8.439  2.2081  0.1451  3.8030
 2501SOL     OW18961   1.834   0.566   8.712 -0.3785 -0.2672  0.8141
 2501SOL    HW118962   1.841   0.641   8.654 -1.7322 -2.5827 -2.3272
 2501SOL    HW218963   1.881   0.506   8.654  0.0193  0.0542  0.8074
 2502SOL     OW18964   0.588   3.546   4.113 -0.6411 -0.0857 -0.7263
 2502SOL    HW118965   0.584   3.555   4.208 -0.0984  1.1610 -0.8232
 2502SOL    HW218966   0.674   3.508   4.099  0.0572  0.8851  1.0652
 2503SOL     OW18967   1.240   2.340   5.384  0.5384 -0.8387 -0.2944
 2503SOL    HW118968   1.178   2.356   5.455 -0.1005  1.0258 -1.2558
 2503SOL    HW218969   1.324   2.350   5.429  0.0835  0.7074  0.2180
 2504SOL     OW18970   4.191   3.903  15.833 -0.4519  0.4457  0.0564
 2504SOL    HW118971   4.147   3.901  15.918  1.2304  3.7815  0.9981
 2504SOL    HW218972   4.139   3.844  15.779  1.3148 -1.3324  0.2717
 2505SOL     OW18973   0.691   1.499   3.326 -0.5561 -0.1730  0.4326
 2505SOL    HW118974   0.757   1.537   3.268 -0.7192  0.4773  0.6823
 2505SOL    HW218975   0.690   1.405   3.308 -0.1389 -0.5044  2.0895
 2506SOL     OW18976   3.367   1.318  12.855  0.2610 -0.2265 -0.4521
 2506SOL    HW118977   3.449   1.345  12.815  1.4341 -3.0159  0.0538
 2506SOL    HW218978   3.353   1.382  12.924  0.6119 -1.5682  0.8509
 2507SOL     OW18979   3.520   3.491  14.943 -0.0667  0.3036 -0.3945
 2507SOL    HW118980   3.555   3.486  14.854 -1.4768  1.3603 -1.0073
 2507SOL    HW218981   3.535   3.580  14.975 -1.9222  0.5010 -0.0717
 2508SOL     OW18982   0.704   1.998   1.129  0.2373 -0.0512  0.2086
 2508SOL    HW118983   0.676   1.984   1.038  0.2276  0.2216  0.1681
 2508SOL    HW218984   0.701   1.906   1.155  0.5576  0.1821  1.0550
 2509SOL     OW18985   2.898   2.975   2.356 -0.4223  0.0599 -0.1066
 2509SOL    HW118986   2.898   3.000   2.449 -0.1916 -0.3492  0.0039
 2509SOL    HW218987   2.922   3.059   2.318  2.2724 -0.3726  0.6431
 2510SOL     OW18988   1.868   4.195   7.758  0.3359 -0.5941 -0.6799
 2510SOL    HW118989   1.862   4.178   7.664 -0.4395 -0.6312 -0.6198
 2510SOL    HW218990   1.874   4.106   7.792 -0.2559 -0.5915 -0.5762
 2511SOL     OW18991   0.982   3.507   4.222 -0.4116  0.6216 -0.4007
 2511SOL    HW118992   0.946   3.454   4.151  0.2917 -0.3134 -0.0636
 2511SOL    HW218993   0.904   3.516   4.277 -0.0964  0.3493  0.0965
 2512SOL     OW18994   4.504   0.279   6.646 -0.0820  0.2144  0.3072
 2512SOL    HW118995   4.521   0.368   6.616  0.3221  0.0686  0.0971
 2512SOL    HW218996   4.514   0.225   6.567  0.6206 -2.2643  2.0809
 2513SOL     OW18997   4.052   4.571   1.545 -0.0492 -0.3801  0.4562
 2513SOL    HW118998   3.967   4.536   1.573  0.0623 -1.7578 -0.8978
 2513SOL    HW218999   4.100   4.491   1.522  0.9514 -0.2239  2.0295
 2514SOL     OW19000   2.835   0.581   2.644  0.3088 -0.1413 -0.0649
 2514SOL    HW119001   2.748   0.602   2.611  0.5926  0.3151 -0.5231
 2514SOL    HW219002   2.882   0.660   2.615 -0.0953  1.1125  2.7132
 2515SOL     OW19003   3.869   3.468  14.829 -0.1141  0.7436  0.1771
 2515SOL    HW119004   3.900   3.558  14.820 -1.3651  1.3432  1.5886
 2515SOL    HW219005   3.778   3.494  14.845 -0.4179 -0.9412  1.2353
 2516SOL     OW19006   4.641   0.429   4.320 -0.4465  0.3790  0.0035
 2516SOL    HW119007   4.697   0.355   4.295  1.9220  1.1978  2.9215
 2516SOL    HW219008   4.599   0.458   4.240  1.7490  0.4394 -1.1310
 2517SOL     OW19009   3.033   0.228  14.498 -0.0652  0.2435  0.1363
 2517SOL    HW119010   3.024   0.252  14.590 -1.0715  1.4509 -0.2721
 2517SOL    HW219011   3.127   0.241  14.484 -0.3231  0.4688 -1.4050
 2518SOL     OW19012   1.842   0.945   4.542 -0.4190 -0.0466  0.2017
 2518SOL    HW119013   1.873   1.033   4.522  1.4014 -0.7767 -0.2365
 2518SOL    HW219014   1.801   0.963   4.626 -0.2397  2.3739 -0.2368
 2519SOL     OW19015   4.259   2.039  15.401  0.3345  0.1182 -0.3092
 2519SOL    HW119016   4.266   2.119  15.453  0.7680  0.6012 -1.1243
 2519SOL    HW219017   4.309   1.984  15.461  0.1332 -0.8922 -1.0720
 2520SOL     OW19018   2.204   0.705   8.591  0.2953  0.2823 -0.5627
 2520SOL    HW119019   2.257   0.783   8.581 -0.3805  0.9933  1.4141
 2520SOL    HW219020   2.151   0.706   8.511  2.6876  2.9634 -2.1103
 2521SOL     OW19021   0.304   0.739  14.331  0.3903 -0.2396  0.0736
 2521SOL    HW119022   0.398   0.750  14.322  0.1879  1.9115  0.5224
 2521SOL    HW219023   0.285   0.673  14.264  0.1620  0.4529 -0.5298
 2522SOL     OW19024   2.297   1.800   0.681  0.1040 -0.2208  0.1557
 2522SOL    HW119025   2.329   1.878   0.728 -0.1834  1.6466 -2.7620
 2522SOL    HW219026   2.362   1.730   0.685 -1.5680 -1.7878 -0.2968
 2523SOL     OW19027   2.927   2.767   7.888 -0.5219 -0.7084  0.0458
 2523SOL    HW119028   2.949   2.743   7.978  1.2567  1.2057  0.1329
 2523SOL    HW219029   2.835   2.744   7.872 -0.4061 -1.1358  0.0024
 2524SOL     OW19030   1.021   0.950  14.311 -0.5754  0.3376  0.3129
 2524SOL    HW119031   1.042   1.035  14.273 -0.3607  1.0323  1.9685
 2524SOL    HW219032   1.062   0.965  14.396 -0.0300 -1.3741  0.3430
 2525SOL     OW19033   4.113   3.323   6.391 -0.4753  0.1198 -0.2939
 2525SOL    HW119034   4.168   3.401   6.397 -0.0035 -0.2460  0.2551
 2525SOL    HW219035   4.028   3.365   6.381 -0.4950 -0.3714 -2.0633
 2526SOL     OW19036   0.888   0.377   3.151 -0.3089  0.4535 -0.5587
 2526SOL    HW119037   0.935   0.457   3.130  0.0662  0.3755 -0.0219
 2526SOL    HW219038   0.899   0.374   3.246  2.7857  1.3186 -0.8890
 2527SOL     OW19039   2.548   1.589  15.538  0.1733  0.1282 -0.4021
 2527SOL    HW119040   2.558   1.683  15.524  1.3729  0.0284 -0.2736
 2527SOL    HW219041   2.576   1.565  15.450  0.4067 -0.9162 -0.0347
 2528SOL     OW19042   3.002   0.023   6.675  0.3417  0.2405 -0.1028
 2528SOL    HW119043   2.924   4.702   6.641  1.3667 -0.5778 -1.4479
 2528SOL    HW219044   3.050   0.025   6.592  0.7489  1.7369  0.1657
 2529SOL     OW19045   2.343   2.806  11.358 -0.4181  0.3093  0.2024
 2529SOL    HW119046   2.428   2.849  11.358 -0.2395 -0.0466  0.8492
 2529SOL    HW219047   2.351   2.733  11.419  0.1173  0.5437  0.4173
 2530SOL     OW19048   1.367   1.798   1.916 -0.3650 -0.0656  0.6450
 2530SOL    HW119049   1.415   1.820   1.995 -0.5545 -0.4498  0.8653
 2530SOL    HW219050   1.442   1.762   1.869 -0.7204  0.2967 -0.2218
 2531SOL     OW19051   1.868   4.554   7.122  0.1510 -0.1039  0.5549
 2531SOL    HW119052   1.885   4.577   7.213 -2.1699 -0.8716  1.1990
 2531SOL    HW219053   1.874   4.459   7.133  0.0108 -0.1051  0.6259
 2532SOL     OW19054   3.275   3.749   4.451  0.1044  0.0743  0.0158
 2532SOL    HW119055   3.242   3.785   4.369  1.2093  2.0404  0.4339
 2532SOL    HW219056   3.275   3.824   4.512  0.5319  0.1974 -0.1377
 2533SOL     OW19057   3.660   1.304   8.424  0.1661  0.4494 -0.1398
 2533SOL    HW119058   3.753   1.294   8.443 -0.2788 -1.0871  1.2607
 2533SOL    HW219059   3.647   1.311   8.329 -2.1019  1.4616  0.2200
 2534SOL     OW19060   2.167   1.073  12.856  0.1076 -0.2125 -0.2366
 2534SOL    HW119061   2.090   1.091  12.802  0.0839  0.8226  0.1378
 2534SOL    HW219062   2.168   1.148  12.915  3.0756 -2.6587  2.8644
 2535SOL     OW19063   1.301   1.037   2.922 -0.3087 -0.4734  0.4451
 2535SOL    HW119064   1.372   1.059   2.862  0.0191  0.2325  1.0755
 2535SOL    HW219065   1.228   1.090   2.889  0.5175 -0.7753 -1.8062
 2536SOL     OW19066   4.289   0.091   1.246  0.0340 -0.8783 -0.5763
 2536SOL    HW119067   4.199   0.084   1.215  0.9686 -2.2521 -3.0028
 2536SOL    HW219068   4.306   0.001   1.276 -0.4240 -1.0365 -0.7957
 2537SOL     OW19069   3.336   1.361   4.296 -0.0936  0.4959  0.1586
 2537SOL    HW119070   3.287   1.311   4.231  0.8652  0.0667 -0.2320
 2537SOL    HW219071   3.426   1.332   4.279 -0.4226 -1.2536  1.3794
 2538SOL     OW19072   2.041   3.972   3.413  0.0037 -0.0037 -0.2790
 2538SOL    HW119073   2.060   3.949   3.323  2.2764 -0.9444  0.4373
 2538SOL    HW219074   2.019   4.066   3.413  1.6230  0.3703  0.2201
 2539SOL     OW19075   0.150   1.030   6.167 -0.2188 -0.4028  0.5640
 2539SOL    HW119076   0.174   1.099   6.105 -2.6404  1.1535  1.3736
 2539SOL    HW219077   0.079   1.063   6.223  0.7737  0.1626  1.4942
 2540SOL     OW19078   3.428   3.679   6.170  0.0116 -0.4837 -0.0891
 2540SOL    HW119079   3.491   3.722   6.228  1.5630 -0.3650 -1.8957
 2540SOL    HW219080   3.443   3.592   6.208 -3.3181 -1.6185 -1.3949
 2541SOL     OW19081   2.941   3.085   6.467 -0.1873 -0.3406  0.0358
 2541SOL    HW119082   2.916   3.163   6.517  1.5741  1.4646 -1.8653
 2541SOL    HW219083   3.033   3.070   6.489  0.2663  2.1182 -0.1842
 2542SOL     OW19084   2.628   0.994  14.747  0.1340  0.2156 -0.3260
 2542SOL    HW119085   2.631   1.034  14.834 -2.0594 -1.3835  0.4935
 2542SOL    HW219086   2.636   1.071  14.691  0.8533  1.0995  1.0083
 2543SOL     OW19087   3.584   2.966  16.073  0.4298  0.0477 -0.2071
 2543SOL    HW119088   3.634   3.041  16.104 -0.5927  0.1010  1.3167
 2543SOL    HW219089   3.631   2.896  16.119  1.6303 -0.6119 -2.4841
 2544SOL     OW19090   2.420   4.123   6.074  0.7430  0.2939 -0.2416
 2544SOL    HW119091   2.329   4.148   6.091  0.0057 -2.0264 -0.7917
 2544SOL    HW219092   2.457   4.169   6.149 -2.6653  1.2836  0.8492
 2545SOL     OW19093   2.195   3.601   6.877  0.1750 -0.0053  0.0964
 2545SOL    HW119094   2.285   3.627   6.857 -0.0459  1.8509  1.5124
 2545SOL    HW219095   2.146   3.601   6.795  1.3021 -3.3380 -0.5838
 2546SOL     OW19096   0.127   0.888  12.572 -0.1701  0.5449 -0.0660
 2546SOL    HW119097   0.161   0.825  12.635 -0.6619  1.3846  1.0546
 2546SOL    HW219098   0.128   0.836  12.492 -1.2612  0.0849  0.2129
 2547SOL     OW19099   3.387   0.673  15.655 -0.2187 -0.3246  0.1027
 2547SOL    HW119100   3.370   0.753  15.605 -0.6071 -0.9989 -0.8480
 2547SOL    HW219101   3.303   0.629  15.645  0.1578 -1.1381  0.4923
 2548SOL     OW19102   1.810   1.426   8.509  0.0150 -0.1731 -0.7839
 2548SOL    HW119103   1.901   1.453   8.520  0.3980 -1.5921 -0.4606
 2548SOL    HW219104   1.807   1.336   8.541 -3.0864 -0.1172 -0.9074
 2549SOL     OW19105   1.767   4.180   2.021  0.6401  0.1117 -0.5203
 2549SOL    HW119106   1.698   4.122   1.990  1.1322 -0.4461 -0.5866
 2549SOL    HW219107   1.803   4.215   1.939  2.1914  0.0284  0.1221
 2550SOL     OW19108   3.369   3.614  10.563  0.1394  0.3232 -0.2040
 2550SOL    HW119109   3.453   3.572  10.548 -1.3938 -2.6357 -0.4685
 2550SOL    HW219110   3.322   3.613  10.480  0.8366 -0.9326 -0.5747
 2551SOL     OW19111   2.902   1.678   6.706 -0.3599 -0.7450  0.6062
 2551SOL    HW119112   2.975   1.673   6.768 -3.0399 -1.7942  3.6778
 2551SOL    HW219113   2.914   1.596   6.658 -2.4286  0.7855 -2.5948
 2552SOL     OW19114   4.548   4.573  16.846  0.0242 -0.3230 -0.4373
 2552SOL    HW119115   4.565   4.621  16.927 -0.4227  0.2041 -0.6611
 2552SOL    HW219116   4.576   4.634  16.778  0.6195  0.2895  0.3523
 2553SOL     OW19117   4.491   0.728   0.565  0.2250 -0.0102 -0.4364
 2553SOL    HW119118   4.551   0.676   0.619  0.1464 -0.1848 -0.5175
 2553SOL    HW219119   4.407   0.684   0.579  0.6883 -1.1466 -1.2127
 2554SOL     OW19120   4.371   4.419  15.722 -0.6629 -0.4141 -0.2259
 2554SOL    HW119121   4.288   4.372  15.720 -0.4752 -0.8609  2.0427
 2554SOL    HW219122   4.357   4.461  15.637  0.7977 -2.2028 -1.3453
 2555SOL     OW19123   1.926   2.108   3.632 -0.0876 -0.8796 -0.5360
 2555SOL    HW119124   1.986   2.092   3.704  0.1827  1.1980 -0.3221
 2555SOL    HW219125   1.856   2.043   3.645  1.1892 -2.3056 -0.7384
 2556SOL     OW19126   0.176   2.909   1.484  0.4921 -0.0827  0.3948
 2556SOL    HW119127   0.108   2.960   1.529 -0.8908 -2.1419  0.6509
 2556SOL    HW219128   0.134   2.824   1.472 -0.5226  0.4243  0.2731
 2557SOL     OW19129   0.169   1.077   5.657 -0.1729  0.0195 -0.3132
 2557SOL    HW119130   0.232   1.070   5.729 -2.6547  0.2358  1.9035
 2557SOL    HW219131   0.200   1.011   5.596  1.9979  1.8608 -1.1842
 2558SOL     OW19132   0.556   1.521   6.124 -0.0824  0.3706 -0.5087
 2558SOL    HW119133   0.619   1.500   6.193 -1.2293 -1.2832  0.0464
 2558SOL    HW219134   0.562   1.442   6.071  1.3602  0.1253  0.0322
 2559SOL     OW19135   4.348   3.110   4.818  0.4593 -0.1333 -0.0755
 2559SOL    HW119136   4.255   3.117   4.837 -0.1046 -3.0259 -1.7314
 2559SOL    HW219137   4.366   3.026   4.860 -1.1224 -1.0227 -1.1998
 2560SOL     OW19138   3.943   1.325   1.590 -0.5872  0.6359  0.5319
 2560SOL    HW119139   3.986   1.390   1.535 -0.2647 -0.7858 -0.8855
 2560SOL    HW219140   3.994   1.337   1.670  0.5038 -0.1655 -0.0434
 2561SOL     OW19141   1.335   0.089  14.080  0.5838  0.6152  0.4126
 2561SOL    HW119142   1.337   0.116  14.172 -1.3206 -0.3492  0.7456
 2561SOL    HW219143   1.400   0.152  14.050  2.1759 -0.6834  1.0959
 2562SOL     OW19144   1.922   3.954   7.855  0.0310  0.4839  0.0239
 2562SOL    HW119145   1.938   3.863   7.879  2.5040  0.9536  0.2455
 2562SOL    HW219146   1.854   3.974   7.920 -0.4391  0.4406 -0.4569
 2563SOL     OW19147   3.431   3.725   9.020  0.0313 -0.6747  0.3290
 2563SOL    HW119148   3.413   3.643   8.975 -0.4656 -0.0583 -0.6123
 2563SOL    HW219149   3.361   3.732   9.085  0.5584 -1.0505  0.9334
 2564SOL     OW19150   3.714   3.608   5.672  0.2803  0.2970 -0.2629
 2564SOL    HW119151   3.634   3.659   5.686 -1.1558 -1.2996 -2.6144
 2564SOL    HW219152   3.704   3.575   5.582 -3.5716 -1.4399  0.7934
 2565SOL     OW19153   2.102   1.555  15.880  0.3110  0.1820  0.4035
 2565SOL    HW119154   2.171   1.494  15.908 -0.6720 -0.8970  0.4707
 2565SOL    HW219155   2.084   1.515  15.795 -0.6430 -0.9243  1.1188
 2566SOL     OW19156   4.677   0.613  15.033 -0.1019 -0.4965 -0.7781
 2566SOL    HW119157   4.629   0.552  14.977  0.1895  1.7291 -3.4243
 2566SOL    HW219158   4.684   0.694  14.982 -0.7994  0.5368  0.7836
 2567SOL     OW19159   4.352   0.141   9.401 -0.1004  0.1939  0.4614
 2567SOL    HW119160   4.370   0.053   9.435 -1.2823  0.6111  2.1594
 2567SOL    HW219161   4.402   0.189   9.467 -1.7570 -0.8566  2.4791
 2568SOL     OW19162   1.891   3.901  10.677 -0.1318  0.0570 -0.5406
 2568SOL    HW119163   1.936   3.840  10.735 -0.7635  0.3010  0.2014
 2568SOL    HW219164   1.949   3.900  10.601 -0.9794 -1.7529 -1.1579
 2569SOL     OW19165   1.353   0.749  16.256  0.0647 -0.4228  0.5989
 2569SOL    HW119166   1.282   0.813  16.256  0.2439 -0.2574 -2.9061
 2569SOL    HW219167   1.372   0.734  16.164  1.7436  1.7107  0.6080
 2570SOL     OW19168   0.713   2.243   3.838  0.3355 -0.1038 -0.2154
 2570SOL    HW119169   0.787   2.304   3.839 -0.4257  0.8486 -2.7148
 2570SOL    HW219170   0.743   2.178   3.774 -0.5037  0.9415 -1.6579
 2571SOL     OW19171   3.085   2.366   6.901 -0.6888 -0.1082 -0.3969
 2571SOL    HW119172   3.022   2.315   6.952 -0.5550 -0.6514 -0.7848
 2571SOL    HW219173   3.101   2.307   6.827 -1.4586 -1.2541  0.3489
 2572SOL     OW19174   3.382   1.277   1.796  0.1993 -0.1207 -0.2892
 2572SOL    HW119175   3.346   1.277   1.885 -1.6229  2.1477 -1.0188
 2572SOL    HW219176   3.440   1.201   1.801 -1.2812 -1.2322 -0.2650
 2573SOL     OW19177   2.257   4.705   2.515  0.1112 -0.3364 -0.1043
 2573SOL    HW119178   2.295   4.624   2.548 -0.2509 -0.3262  0.3400
 2573SOL    HW219179   2.176   4.719   2.564  0.3216 -1.3982  0.5545
 2574SOL     OW19180   4.194   1.713   2.772  0.3317 -0.1014  0.1469
 2574SOL    HW119181   4.212   1.804   2.749 -1.8516  0.2479 -0.1676
 2574SOL    HW219182   4.136   1.695   2.698  0.0256  0.2854  0.2939
 2575SOL     OW19183   0.365   3.087  15.733 -0.1509 -0.4050 -0.2064
 2575SOL    HW119184   0.432   3.025  15.762  0.8895 -0.0909 -1.9500
 2575SOL    HW219185   0.425   3.134  15.675 -0.3571 -0.0806 -0.1500
 2576SOL     OW19186   2.628   3.883   1.686 -0.7104 -0.5995  0.2058
 2576SOL    HW119187   2.705   3.827   1.681 -0.9989 -1.0423  0.7613
 2576SOL    HW219188   2.674   3.951   1.736 -2.8753  1.4591 -0.5845
 2577SOL     OW19189   1.619   0.306   9.281 -0.8751  0.2444  0.3244
 2577SOL    HW119190   1.534   0.265   9.297  0.5376 -2.1233  1.8454
 2577SOL    HW219191   1.662   0.306   9.367 -0.0446 -1.5854 -0.0889
 2578SOL     OW19192   1.658   4.681  12.436  0.3326 -0.1873  0.2454
 2578SOL    HW119193   1.642   0.053  12.421  1.2011  0.1116  1.1606
 2578SOL    HW219194   1.614   4.637  12.363 -1.4980  0.2812  1.0899
 2579SOL     OW19195   1.540   3.516   9.457  0.1314 -0.0407 -0.1637
 2579SOL    HW119196   1.592   3.454   9.508 -0.4337  0.8271  1.4950
 2579SOL    HW219197   1.557   3.480   9.370 -1.3586 -1.3704  0.1001
 2580SOL     OW19198   1.644   1.830   2.102  0.0359 -0.4627 -0.2521
 2580SOL    HW119199   1.592   1.760   2.142  3.5526 -2.8409  0.2710
 2580SOL    HW219200   1.581   1.901   2.103 -1.0587 -1.4239 -0.8490
 2581SOL     OW19201   0.630   0.997   0.285  0.3133 -0.2989  0.2695
 2581SOL    HW119202   0.702   1.046   0.325 -2.4159  1.8539  2.5467
 2581SOL    HW219203   0.680   0.928   0.242  3.2097  0.2050  2.8286
 2582SOL     OW19204   3.502   3.487   4.967 -0.6148 -0.4508 -0.2457
 2582SOL    HW119205   3.445   3.524   4.900 -0.7892 -1.3993 -0.6119
 2582SOL    HW219206   3.583   3.525   4.933 -0.0390 -0.9285  0.5849
 2583SOL     OW19207   4.289   2.774   7.147  0.0294  0.7655  0.4115
 2583SOL    HW119208   4.195   2.772   7.129  0.5108 -1.0318 -1.9070
 2583SOL    HW219209   4.295   2.809   7.236 -0.5684  0.3431  0.6182
 2584SOL     OW19210   1.326   0.106   5.691  0.0704  0.2715  0.3125
 2584SOL    HW119211   1.359   0.182   5.642  0.7309 -1.3447 -1.7320
 2584SOL    HW219212   1.242   0.134   5.727 -0.1581  0.9051 -0.7169
 2585SOL     OW19213   2.307   3.483   8.699 -0.0218  0.0757 -0.1026
 2585SOL    HW119214   2.222   3.473   8.741  0.9160 -0.5782  1.6402
 2585SOL    HW219215   2.323   3.575   8.720  0.8066 -0.2861  0.8728
 2586SOL     OW19216   2.985   2.614   7.268 -0.4336  0.2777 -0.4391
 2586SOL    HW119217   3.034   2.612   7.350  0.0811  1.1446 -0.7222
 2586SOL    HW219218   2.920   2.547   7.291 -0.9185  1.0582  0.4609
 2587SOL     OW19219   0.006   2.850  16.202 -0.9526 -0.5690  0.0272
 2587SOL    HW119220   0.078   2.846  16.265 -0.9701  2.3819  0.2260
 2587SOL    HW219221   4.654   2.805  16.245  0.0684 -2.7998 -0.5896
 2588SOL     OW19222   3.322   0.160   8.846 -0.2400  0.3050 -0.1195
 2588SOL    HW119223   3.403   0.212   8.849  0.6597 -1.1083  0.3156
 2588SOL    HW219224   3.340   0.117   8.762 -2.9017 -0.8279 -0.0947
 2589SOL     OW19225   1.371   0.329  14.652 -0.8429  0.5274 -0.0602
 2589SOL    HW119226   1.315   0.406  14.643  0.6615  1.7937  1.3278
 2589SOL    HW219227   1.438   0.356  14.715  1.8928  2.7711 -3.9898
 2590SOL     OW19228   1.513   2.207   2.633  0.2958  0.0810  0.1808
 2590SOL    HW119229   1.464   2.197   2.551  0.1749 -0.7870  0.3522
 2590SOL    HW219230   1.546   2.119   2.652  0.0607 -0.0034  0.1982
 2591SOL     OW19231   3.870   3.924  13.512  0.2685 -0.5812  0.0299
 2591SOL    HW119232   3.962   3.939  13.536  0.0069 -2.7341  2.4660
 2591SOL    HW219233   3.883   3.875  13.431  0.0304 -0.0275 -0.3439
 2592SOL     OW19234   0.599   3.086   2.061 -0.5723 -0.1565  0.1911
 2592SOL    HW119235   0.659   3.105   2.134 -1.9795  0.4950  1.1896
 2592SOL    HW219236   0.653   3.019   2.020 -1.7664 -1.7535  1.2108
 2593SOL     OW19237   4.214   0.543   4.673 -0.4895  0.1513 -0.9010
 2593SOL    HW119238   4.272   0.468   4.657  0.1631  0.6743 -0.9729
 2593SOL    HW219239   4.283   0.609   4.678  1.7735 -2.2444 -0.3848
 2594SOL     OW19240   2.103   4.313   7.791 -0.2423 -0.0203  0.6117
 2594SOL    HW119241   2.112   4.349   7.702 -1.8797 -0.2234  0.3645
 2594SOL    HW219242   2.022   4.263   7.784 -1.5953  2.0865  1.3440
 2595SOL     OW19243   4.623   3.156   2.983  0.4499  0.0014 -0.3590
 2595SOL    HW119244   4.709   3.171   2.942  0.4474  0.9940  0.0062
 2595SOL    HW219245   4.586   3.243   2.971 -0.6728 -0.3836  0.3323
 2596SOL     OW19246   2.128   1.966  12.523  0.4397 -0.0546  0.0729
 2596SOL    HW119247   2.189   1.993  12.454 -1.4375 -0.4585 -1.7467
 2596SOL    HW219248   2.116   2.039  12.583 -0.2270  0.0956 -0.2400
 2597SOL     OW19249   0.699   2.975   6.444  0.2031 -0.0302 -0.3720
 2597SOL    HW119250   0.649   2.898   6.418 -1.1466  0.5542  0.5121
 2597SOL    HW219251   0.779   2.943   6.485  0.6131  0.6424 -0.6488
 2598SOL     OW19252   3.751   0.183  16.249 -0.0331 -0.1634 -0.1323
 2598SOL    HW119253   3.789   0.256  16.202  0.5302 -0.0400  0.5143
 2598SOL    HW219254   3.818   0.115  16.239 -0.3526 -0.5215  0.1263
 2599SOL     OW19255   2.240   1.208   1.426  0.7141  0.2215  0.5486
 2599SOL    HW119256   2.264   1.206   1.518  1.9179 -2.6992  0.1727
 2599SOL    HW219257   2.155   1.251   1.417 -0.6677 -2.3948  1.0539
 2600SOL     OW19258   3.084   1.226   3.299 -0.2229  0.0959  0.1549
 2600SOL    HW119259   3.000   1.264   3.275 -0.7550 -0.7419  0.7149
 2600SOL    HW219260   3.102   1.282   3.374  0.4521  1.2412 -0.8484
 2601SOL     OW19261   4.066   2.045   0.649  0.1359  0.4389  0.5354
 2601SOL    HW119262   3.970   2.050   0.646  0.1816  2.5237  3.4282
 2601SOL    HW219263   4.085   1.997   0.568 -0.8190 -2.3235  1.9426
 2602SOL     OW19264   4.121   3.310   1.474 -0.3826 -0.8271 -0.2936
 2602SOL    HW119265   4.115   3.396   1.515  1.0269 -1.2847  0.8695
 2602SOL    HW219266   4.059   3.312   1.401 -1.6776  2.7305  0.8933
 2603SOL     OW19267   0.786   0.703   3.060  0.1420 -0.2814  0.0777
 2603SOL    HW119268   0.759   0.694   2.968  1.0358  2.0335 -0.4083
 2603SOL    HW219269   0.708   0.678   3.108 -0.2256  1.5167  0.4242
 2604SOL     OW19270   3.715   3.964   7.753 -0.6439  0.0470 -0.0385
 2604SOL    HW119271   3.633   4.014   7.750  0.5923  2.1857  1.8139
 2604SOL    HW219272   3.692   3.887   7.805 -1.3283  0.5159  0.3569
 2605SOL     OW19273   4.368   2.315  17.149 -0.1692 -0.0806 -0.0026
 2605SOL    HW119274   4.456   2.351  17.161  0.2811 -1.4074  0.7442
 2605SOL    HW219275   4.334   2.336  17.236 -0.5292 -0.9020  0.0578
 2606SOL     OW19276   4.216   0.924   6.626  0.0606  0.2444  0.3164
 2606SOL    HW119277   4.169   1.003   6.652 -1.2343 -1.2052  2.3078
 2606SOL    HW219278   4.200   0.923   6.532 -0.6094 -0.8045  0.4402
 2607SOL     OW19279   2.241   0.974   2.977 -0.0990  0.0022 -0.5503
 2607SOL    HW119280   2.160   0.983   3.027  0.3245 -1.3187  0.3602
 2607SOL    HW219281   2.271   1.063   2.961 -2.1491  0.8799  0.4123
 2608SOL     OW19282   2.036   4.347   1.956  0.1260  0.4059 -0.2372
 2608SOL    HW119283   2.062   4.338   2.048 -0.2923 -0.9704 -0.2496
 2608SOL    HW219284   2.059   4.438   1.939 -2.6496  1.0449 -0.5141
 2609SOL     OW19285   4.274   1.638   2.348  1.0385  0.6985 -0.0294
 2609SOL    HW119286   4.300   1.662   2.259 -0.8802  2.2831 -0.1316
 2609SOL    HW219287   4.356   1.600   2.383  0.3519 -1.6793 -0.9757
 2610SOL     OW19288   3.910   0.851  15.730 -0.5090  0.0393 -0.0108
 2610SOL    HW119289   3.963   0.861  15.809 -1.3970  0.1339  0.5854
 2610SOL    HW219290   3.949   0.773  15.691  1.8882  0.1903  2.0780
 2611SOL     OW19291   0.408   1.841   8.418  0.7400  0.3926  0.0641
 2611SOL    HW119292   0.443   1.869   8.503  2.0083  2.8180 -1.2480
 2611SOL    HW219293   0.332   1.899   8.413 -0.2622 -0.9335 -0.2069
 2612SOL     OW19294   3.695   1.814  10.377 -0.6676  0.2724 -0.5985
 2612SOL    HW119295   3.696   1.755  10.452  0.7522  1.0885  0.0241
 2612SOL    HW219296   3.772   1.865  10.401 -1.1133  1.1919 -1.1419
 2613SOL     OW19297   4.660   1.648  11.061 -0.3735  0.0049  0.5966
 2613SOL    HW119298   4.574   1.615  11.088 -0.5636 -0.1024 -0.1537
 2613SOL    HW219299   4.641   1.700  10.984  2.0851  0.0766  0.0422
 2614SOL     OW19300   3.425   1.439   9.323  0.5965 -0.4375  0.2479
 2614SOL    HW119301   3.501   1.388   9.296  1.3498  0.5218  0.5643
 2614SOL    HW219302   3.377   1.447   9.241 -0.0761 -1.4277  0.5499
 2615SOL     OW19303   3.291   1.286   9.659  0.1067 -0.3239  0.3593
 2615SOL    HW119304   3.317   1.342   9.733 -0.8509 -0.4622  0.8110
 2615SOL    HW219305   3.226   1.340   9.613 -1.7279 -1.1436  1.9629
 2616SOL     OW19306   3.592   2.504   3.246  0.0565  0.0426  0.6573
 2616SOL    HW119307   3.602   2.575   3.182  1.7493 -2.5549 -1.9391
 2616SOL    HW219308   3.682   2.490   3.273 -0.4954  0.9340  2.9634
 2617SOL     OW19309   1.630   1.434   1.106  0.1939  0.8063 -0.2183
 2617SOL    HW119310   1.600   1.371   1.041 -0.5703  0.9015  0.0417
 2617SOL    HW219311   1.579   1.408   1.183  1.6041 -1.1978  0.0488
 2618SOL     OW19312   4.192   0.370  12.923  0.2555  0.3985 -0.1221
 2618SOL    HW119313   4.245   0.402  12.996  1.0404 -0.5069 -0.3045
 2618SOL    HW219314   4.245   0.299  12.888  0.9935  1.9529 -2.1618
 2619SOL     OW19315   0.425   0.065   2.855 -0.7995  0.2758  0.7243
 2619SOL    HW119316   0.475   0.048   2.775 -0.3956  2.4243  0.5193
 2619SOL    HW219317   0.349   0.111   2.818  0.4687  2.6065  1.0083
 2620SOL     OW19318   2.082   0.313   7.792 -0.1219  0.0838 -0.4454
 2620SOL    HW119319   2.040   0.271   7.868 -0.5015  0.6166 -0.3650
 2620SOL    HW219320   2.011   0.334   7.732 -0.3510 -1.6234 -0.7778
 2621SOL     OW19321   1.657   2.776   8.980 -0.2202 -0.1089 -0.4700
 2621SOL    HW119322   1.660   2.710   9.048 -1.0832  1.5345  1.1693
 2621SOL    HW219323   1.710   2.722   8.921 -0.5104  0.2792 -1.0966
 2622SOL     OW19324   0.140   1.574   7.247  0.0492 -0.5383 -0.8920
 2622SOL    HW119325   0.208   1.518   7.209 -0.0515 -1.0205 -0.3523
 2622SOL    HW219326   0.124   1.522   7.326  2.4698 -1.3578 -0.9329
 2623SOL     OW19327   2.063   0.632   2.973 -0.6362  0.8550 -0.3233
 2623SOL    HW119328   2.030   0.628   2.883 -0.2290  1.4262 -0.4922
 2623SOL    HW219329   1.989   0.673   3.017 -0.0007  0.0702  1.4557
 2624SOL     OW19330   2.445   1.939   6.276  0.7248  0.6208  0.3340
 2624SOL    HW119331   2.432   2.008   6.341  0.6046 -0.0454  1.0257
 2624SOL    HW219332   2.530   1.898   6.293 -0.8416 -2.9231 -0.2409
 2625SOL     OW19333   3.501   1.160   6.938 -0.6181  0.4686 -0.3031
 2625SOL    HW119334   3.568   1.205   6.989 -0.8100  0.5954 -0.1614
 2625SOL    HW219335   3.425   1.197   6.984 -0.7448  0.7195 -0.7136
 2626SOL     OW19336   4.578   1.816   3.925  0.3060 -0.0958  0.2836
 2626SOL    HW119337   4.624   1.887   3.880 -0.6103  0.6207  0.4640
 2626SOL    HW219338   4.642   1.745   3.920  1.4513  0.9867 -0.3001
 2627SOL     OW19339   0.117   3.014  14.274 -0.1420 -0.1877 -0.9968
 2627SOL    HW119340   0.086   2.949  14.211  1.4670 -0.1835 -1.7796
 2627SOL    HW219341   0.045   3.076  14.265 -0.3459 -0.4165 -0.9552
 2628SOL     OW19342   0.591   0.349   7.557 -0.2577 -0.5619 -0.2528
 2628SOL    HW119343   0.584   0.261   7.519 -2.9101 -0.5123  0.1103
 2628SOL    HW219344   0.525   0.399   7.509  0.1254  0.6005  0.4429
 2629SOL     OW19345   3.070   0.092   3.199 -0.0794  0.1739  1.0336
 2629SOL    HW119346   3.013   0.143   3.142  0.5778  0.6603  0.8113
 2629SOL    HW219347   3.156   0.130   3.179  0.1438 -0.7129  0.3234
 2630SOL     OW19348   0.003   4.092   8.471  0.8811  0.4781 -0.2708
 2630SOL    HW119349   0.007   4.171   8.417 -0.4601  0.2373 -0.7054
 2630SOL    HW219350   4.661   4.125   8.534  1.7918 -0.3270  1.0684
 2631SOL     OW19351   1.427   2.398   8.438  0.5526  0.2040  0.0064
 2631SOL    HW119352   1.336   2.426   8.449  0.6748  0.7239 -0.3087
 2631SOL    HW219353   1.400   2.308   8.416  0.0162 -0.1669  2.0794
 2632SOL     OW19354   2.769   2.533  16.811  0.1015  0.1517  0.5680
 2632SOL    HW119355   2.801   2.575  16.891  3.4989  0.0661 -0.7404
 2632SOL    HW219356   2.686   2.580  16.806 -0.0612 -0.6004 -3.7617
 2633SOL     OW19357   1.140   1.160   3.598 -0.4873 -0.0693 -0.1810
 2633SOL    HW119358   1.050   1.190   3.594 -0.9132 -1.2815  0.2136
 2633SOL    HW219359   1.155   1.156   3.504 -0.1616  3.2667 -0.2634
 2634SOL     OW19360   1.366   2.915   2.814 -0.2486  0.0801  0.0019
 2634SOL    HW119361   1.401   2.992   2.859  0.0149 -0.0728  0.0563
 2634SOL    HW219362   1.301   2.952   2.754 -1.4162 -1.5571  0.2520
 2635SOL     OW19363   4.567   0.766   6.046  0.2137 -0.5453 -0.1097
 2635SOL    HW119364   4.473   0.749   6.048  0.7960 -3.4181  1.9713
 2635SOL    HW219365   4.588   0.674   6.031 -0.9286 -0.5822 -1.4586
 2636SOL     OW19366   0.453   1.054   5.121 -0.0021  0.5564 -0.1290
 2636SOL    HW119367   0.378   1.099   5.159  0.2353  2.0467 -1.4150
 2636SOL    HW219368   0.501   1.035   5.201  0.1552  0.1297 -0.3228
 2637SOL     OW19369   4.140   1.879   6.922  0.4627 -0.0022  0.2715
 2637SOL    HW119370   4.150   1.822   6.998 -2.0926 -0.1057  0.5506
 2637SOL    HW219371   4.119   1.819   6.850 -0.9617  0.5597  0.2081
 2638SOL     OW19372   1.682   1.061  13.921 -0.6571 -0.1301 -0.1622
 2638SOL    HW119373   1.733   1.127  13.968  2.4502 -1.9731 -0.9169
 2638SOL    HW219374   1.652   1.013  13.998  0.1835 -2.1891 -1.1288
 2639SOL     OW19375   3.477   2.306  14.481 -0.1690 -0.9750 -0.7534
 2639SOL    HW119376   3.503   2.265  14.563  0.8985  0.9106 -0.1513
 2639SOL    HW219377   3.406   2.248  14.453 -1.3825  0.7325 -1.2297
 2640SOL     OW19378   2.870   2.575   2.668 -0.4050  0.2580 -0.2737
 2640SOL    HW119379   2.957   2.555   2.636 -0.8505 -0.8060 -0.8120
 2640SOL    HW219380   2.832   2.629   2.598 -2.1760 -1.5139 -0.6910
 2641SOL     OW19381   3.954   3.343   4.874  0.1969 -0.1603  0.3914
 2641SOL    HW119382   3.862   3.362   4.856  0.0981 -0.2934  0.7478
 2641SOL    HW219383   3.994   3.355   4.788 -0.8203 -0.3587 -0.1106
 2642SOL     OW19384   1.836   1.613   1.959 -0.3834 -0.3457 -0.0864
 2642SOL    HW119385   1.919   1.590   1.999  1.5386  1.1479 -3.1941
 2642SOL    HW219386   1.786   1.611   2.040 -0.1266  1.1416  0.1115
 2643SOL     OW19387   4.442   4.254  14.035  0.5111  0.6184  0.0297
 2643SOL    HW119388   4.452   4.246  14.129  4.8019 -1.1152 -0.5470
 2643SOL    HW219389   4.357   4.212  14.038  0.1119  1.3493 -1.0130
 2644SOL     OW19390   2.796   4.270  15.056 -0.0703  0.5348  0.1807
 2644SOL    HW119391   2.729   4.216  15.015 -0.8580 -0.9830  3.4093
 2644SOL    HW219392   2.865   4.256  14.991 -0.1937  1.7712 -0.2166
 2645SOL     OW19393   0.230   0.435   5.642 -0.0356  0.2040  0.3920
 2645SOL    HW119394   0.232   0.503   5.709  0.0520 -0.0007  0.5943
 2645SOL    HW219395   0.170   0.468   5.575  0.1792  1.3572  0.7599
 2646SOL     OW19396   1.188   0.551  16.345  0.0735  0.3543  0.1030
 2646SOL    HW119397   1.154   0.606  16.416  1.1818 -1.6727  2.1871
 2646SOL    HW219398   1.259   0.602  16.305  0.8491 -0.7705  0.0399
 2647SOL     OW19399   4.562   4.002   3.968 -0.1405 -0.3818 -0.2259
 2647SOL    HW119400   4.574   4.090   4.004  1.6611 -0.0193 -1.7563
 2647SOL    HW219401   4.600   4.018   3.882 -2.7880  1.5748 -1.0414
 2648SOL     OW19402   0.494   0.957   3.835 -0.7694  0.4925  0.4966
 2648SOL    HW119403   0.549   0.889   3.873 -0.4850 -1.1072 -2.7710
 2648SOL    HW219404   0.429   0.915   3.780  2.4449 -1.1547 -2.0031
 2649SOL     OW19405   2.215   1.583   3.514  0.0370 -0.2108 -0.1576
 2649SOL    HW119406   2.130   1.568   3.556 -0.5481 -0.1931 -1.3466
 2649SOL    HW219407   2.196   1.609   3.424  1.4504  0.6051 -0.2235
 2650SOL     OW19408   0.736   1.789  12.341 -0.4559 -0.3148  0.4794
 2650SOL    HW119409   0.699   1.825  12.260  1.8822  1.0230 -0.0075
 2650SOL    HW219410   0.709   1.698  12.326  1.4112 -0.9204  0.8220
 2651SOL     OW19411   2.136   4.597   2.039 -0.2178 -0.0638  0.2988
 2651SOL    HW119412   2.145   4.656   1.964  0.5810 -1.3316 -0.5925
 2651SOL    HW219413   2.065   4.629   2.096 -1.3919 -1.8302 -0.1795
 2652SOL     OW19414   1.952   2.011   5.058  0.2339  0.6875  0.5537
 2652SOL    HW119415   1.932   1.917   5.049 -0.1620  1.0237 -2.1107
 2652SOL    HW219416   2.047   2.011   5.070 -0.0170  3.0027  2.5709
 2653SOL     OW19417   3.556   0.279   7.533  0.4428 -0.2109 -0.1036
 2653SOL    HW119418   3.536   0.298   7.624 -2.5932 -0.5451 -0.7111
 2653SOL    HW219419   3.555   0.363   7.487 -0.7594 -0.6177 -0.8293
 2654SOL     OW19420   2.226   4.528   4.454  0.0707  0.7937  0.0209
 2654SOL    HW119421   2.229   4.432   4.453  1.5623  0.8845 -2.8003
 2654SOL    HW219422   2.242   4.546   4.546  0.7052 -0.6545  0.1854
 2655SOL     OW19423   2.158   3.627   3.463  0.3641  0.0202 -0.5005
 2655SOL    HW119424   2.179   3.600   3.374 -0.0039  0.2694 -0.6660
 2655SOL    HW219425   2.224   3.696   3.458  0.2645 -0.0135 -2.2396
 2656SOL     OW19426   0.224   4.182  12.294 -0.0590  0.1972  0.3161
 2656SOL    HW119427   0.246   4.147  12.208  1.8170  0.8558  0.5239
 2656SOL    HW219428   0.128   4.184  12.293 -0.0669 -0.5298 -0.7485
 2657SOL     OW19429   1.135   0.581  14.926  0.4840  0.0204 -0.3881
 2657SOL    HW119430   1.107   0.514  14.863 -0.0139  0.3625 -0.5346
 2657SOL    HW219431   1.097   0.656  14.880 -1.7581 -1.5626 -1.0921
 2658SOL     OW19432   4.100   2.494  17.508 -0.0300  0.5228 -0.0201
 2658SOL    HW119433   4.038   2.568  17.500 -1.7889 -0.9391  0.0884
 2658SOL    HW219434   4.045   2.426  17.470  0.1953  1.3468 -1.8410
 2659SOL     OW19435   0.114   1.128  17.023  0.1491 -0.3404 -0.4850
 2659SOL    HW119436   0.071   1.198  16.974 -0.1760  0.4051  0.8733
 2659SOL    HW219437   0.205   1.159  17.025 -0.3131  1.0132 -0.5916
 2660SOL     OW19438   2.607   0.022  12.670  0.1375  0.4346 -0.0883
 2660SOL    HW119439   2.653   4.709  12.593  0.8002  0.0599  0.4699
 2660SOL    HW219440   2.524   0.055  12.635 -0.2539  1.4766  1.8461
 2661SOL     OW19441   4.676   4.203   5.837  0.0989 -0.7842  0.2029
 2661SOL    HW119442   0.009   4.127   5.859 -0.6271 -1.4941 -0.4529
 2661SOL    HW219443   4.644   4.229   5.923 -0.9683 -0.5114 -0.2808
 2662SOL     OW19444   0.412   3.097   2.373 -0.0748 -0.2074 -0.6910
 2662SOL    HW119445   0.331   3.054   2.401  0.7389 -1.1306  0.2679
 2662SOL    HW219446   0.448   3.029   2.316  4.4970 -0.0734  2.0485
 2663SOL     OW19447   4.427   4.246   3.041 -0.7455  0.4908  0.4536
 2663SOL    HW119448   4.508   4.286   3.075 -0.3948 -0.5433  0.8523
 2663SOL    HW219449   4.465   4.176   2.988 -1.0300 -0.5589  1.6270
 2664SOL     OW19450   4.562   3.943   5.700  0.2875  0.3924  0.4720
 2664SOL    HW119451   4.527   3.929   5.788  0.8744 -0.2104  0.6070
 2664SOL    HW219452   4.644   3.895   5.712  1.4079  1.7084 -1.7415
 2665SOL     OW19453   2.327   3.647  14.822  0.1823 -0.2632 -0.4376
 2665SOL    HW119454   2.276   3.609  14.893 -1.4670  2.1141 -0.3457
 2665SOL    HW219455   2.390   3.575  14.822 -0.8147 -1.1311  0.1122
 2666SOL     OW19456   4.393   0.018   2.670 -0.2141  1.1927  0.1080
 2666SOL    HW119457   4.345   4.716   2.590  2.6301  0.9396 -1.5137
 2666SOL    HW219458   4.443   4.660   2.687 -0.1125  0.6524 -2.6823
 2667SOL     OW19459   2.490   3.987  11.817  0.5217  0.9922  0.4273
 2667SOL    HW119460   2.405   3.976  11.774  0.6975  0.7200  0.1522
 2667SOL    HW219461   2.534   4.059  11.772  0.5178 -0.1870 -1.4295
 2668SOL     OW19462   3.773   1.310   9.997 -0.3583  0.5435  0.1005
 2668SOL    HW119463   3.699   1.263   9.958  1.2183 -2.5179  0.8858
 2668SOL    HW219464   3.800   1.354   9.916 -0.3156 -1.9994 -1.2708
 2669SOL     OW19465   2.137   1.488   1.824 -0.1300 -0.0292  0.2282
 2669SOL    HW119466   2.096   1.485   1.911  2.1063 -1.2364  1.2348
 2669SOL    HW219467   2.165   1.579   1.824  1.6893 -0.5873  0.0043
 2670SOL     OW19468   4.328   2.228  14.390 -0.1971  0.6370  0.0305
 2670SOL    HW119469   4.309   2.210  14.298 -0.4239 -0.7856  0.3419
 2670SOL    HW219470   4.324   2.323  14.401  0.2400  0.9668 -2.6798
 2671SOL     OW19471   3.142   0.898   2.177 -0.0356 -0.5247  0.4918
 2671SOL    HW119472   3.072   0.947   2.221 -2.1965 -1.8152 -1.5184
 2671SOL    HW219473   3.124   0.915   2.085 -2.1098 -2.4878  0.5322
 2672SOL     OW19474   3.007   3.872  16.915 -0.2397  0.6040 -0.0583
 2672SOL    HW119475   3.070   3.864  16.986  1.1108  1.8752 -1.1065
 2672SOL    HW219476   3.032   3.959  16.883 -0.0549  0.4219 -0.4163
 2673SOL     OW19477   2.982   3.535   1.021  0.0987 -0.0773 -0.1481
 2673SOL    HW119478   2.965   3.475   1.094  1.5082 -0.1702  0.1088
 2673SOL    HW219479   3.010   3.612   1.070 -2.1476  0.1763  0.6975
 2674SOL     OW19480   0.364   3.818  15.590 -0.3576  0.5580  0.0484
 2674SOL    HW119481   0.454   3.798  15.615 -1.1790 -0.4389  2.2606
 2674SOL    HW219482   0.323   3.740  15.553  0.1103  0.8299 -1.0363
 2675SOL     OW19483   1.508   1.306   2.631 -0.2345 -0.4993  0.5571
 2675SOL    HW119484   1.513   1.220   2.673 -1.8919 -0.8772 -0.0363
 2675SOL    HW219485   1.594   1.308   2.588 -0.8033  0.2025 -0.5452
 2676SOL     OW19486   3.425   3.788   7.727  0.2425  0.0371 -0.7428
 2676SOL    HW119487   3.441   3.871   7.682  2.2570  0.8695  1.5324
 2676SOL    HW219488   3.451   3.715   7.670  0.6107 -0.5156  0.1419
 2677SOL     OW19489   2.754   2.442   4.378 -0.3416  0.2660  0.6798
 2677SOL    HW119490   2.749   2.464   4.285  1.0088 -0.7689  0.3596
 2677SOL    HW219491   2.745   2.525   4.424 -1.2826  0.0229  0.9268
 2678SOL     OW19492   2.299   1.665   4.565  0.0910  0.0921 -0.0533
 2678SOL    HW119493   2.307   1.694   4.656  2.5495  1.7082 -0.7752
 2678SOL    HW219494   2.264   1.577   4.575  0.2438  0.3819  2.8444
 2679SOL     OW19495   1.917   4.293  11.420 -0.5039  0.5368 -0.1414
 2679SOL    HW119496   1.882   4.243  11.346  0.6550 -0.3160 -0.1211
 2679SOL    HW219497   1.834   4.314  11.462 -1.5231 -1.3907 -1.1400
 2680SOL     OW19498   2.294   3.180  14.965  0.1103 -0.0905 -0.0046
 2680SOL    HW119499   2.231   3.249  14.945 -1.0544 -0.6142  1.8519
 2680SOL    HW219500   2.372   3.188  14.910 -0.3419 -1.1394 -0.8026
 2681SOL     OW19501   2.525   0.648   3.179 -0.1684 -0.3002 -0.3601
 2681SOL    HW119502   2.453   0.633   3.118  0.1231  0.2390 -0.8331
 2681SOL    HW219503   2.496   0.731   3.217 -0.9546 -0.9647  0.5057
 2682SOL     OW19504   1.699   3.795  15.315 -0.2279 -0.2385 -0.0606
 2682SOL    HW119505   1.623   3.749  15.351  1.7825 -3.2220  0.3757
 2682SOL    HW219506   1.672   3.885  15.331  3.1506  0.2815  2.5881
 2683SOL     OW19507   1.817   1.515   4.442 -0.3139  0.2611 -0.1520
 2683SOL    HW119508   1.819   1.512   4.537 -0.6006 -2.1043 -0.1998
 2683SOL    HW219509   1.881   1.584   4.426 -0.0787 -0.2418 -1.3650
 2684SOL     OW19510   1.704   1.604   6.693  0.0933 -0.5086 -0.3204
 2684SOL    HW119511   1.686   1.513   6.667  0.9664 -1.5363  2.7125
 2684SOL    HW219512   1.794   1.593   6.724  0.8484  1.5069 -1.7872
 2685SOL     OW19513   4.476   4.304   5.695 -0.0815 -0.0810 -0.4778
 2685SOL    HW119514   4.539   4.288   5.765 -1.3804 -1.6418  0.3404
 2685SOL    HW219515   4.408   4.242   5.724  0.5783 -0.4091  0.3651
 2686SOL     OW19516   0.695   4.470   6.140 -0.0865  0.5606  0.1686
 2686SOL    HW119517   0.664   4.503   6.055  0.2708  1.8351  0.5290
 2686SOL    HW219518   0.778   4.519   6.141  0.5010 -0.3427 -2.6261
 2687SOL     OW19519   2.788   4.470  15.221  0.2332 -0.6069  0.0336
 2687SOL    HW119520   2.789   4.394  15.163  1.7174  0.0347 -0.7716
 2687SOL    HW219521   2.705   4.503  15.188 -1.3111 -2.3671  2.1396
 2688SOL     OW19522   0.369   0.935   0.169 -0.2604 -0.0215  0.2964
 2688SOL    HW119523   0.297   0.952   0.230 -1.9958 -2.4596 -1.0847
 2688SOL    HW219524   0.446   0.958   0.221 -0.8239  0.0037  1.1212
 2689SOL     OW19525   3.391   1.652   4.064  0.1760 -0.1735 -0.6450
 2689SOL    HW119526   3.299   1.627   4.072  0.6512 -0.9227  2.2125
 2689SOL    HW219527   3.436   1.568   4.071  1.4517  0.5039 -0.7220
 2690SOL     OW19528   3.450   2.858   5.587  0.2022 -0.8734 -0.1937
 2690SOL    HW119529   3.423   2.768   5.601  2.0165 -1.1072  1.7760
 2690SOL    HW219530   3.471   2.852   5.494  1.2291 -2.6341  0.1625
 2691SOL     OW19531   2.572   4.620   4.818  0.5303  0.4798  0.5368
 2691SOL    HW119532   2.556   4.534   4.856  2.0404 -1.0339 -2.2219
 2691SOL    HW219533   2.519   4.669   4.881 -0.3775  2.5479 -1.8324
 2692SOL     OW19534   3.213   2.989   1.236 -0.1066  0.0563 -0.1161
 2692SOL    HW119535   3.302   3.020   1.250 -0.0921 -0.2207  0.4059
 2692SOL    HW219536   3.157   3.022   1.306 -1.2918 -1.0867 -0.5219
 2693SOL     OW19537   1.758   4.003   6.250 -0.0682 -0.2120  0.2914
 2693SOL    HW119538   1.772   4.034   6.339 -1.3317  1.7310 -0.1873
 2693SOL    HW219539   1.666   3.975   6.255 -0.2994  0.9539  2.2385
 2694SOL     OW19540   2.665   3.533   3.602  0.6981  0.6301  0.0025
 2694SOL    HW119541   2.758   3.551   3.610  1.1289 -1.0997 -1.1719
 2694SOL    HW219542   2.669   3.443   3.636  0.0707  0.9988  1.0824
 2695SOL     OW19543   1.894   3.760   9.569  0.0771 -0.1866 -0.8489
 2695SOL    HW119544   1.902   3.731   9.660 -0.5873 -2.9037 -1.6716
 2695SOL    HW219545   1.802   3.784   9.568  0.5634  1.6541 -1.5302
 2696SOL     OW19546   3.417   2.308   5.388 -0.3106 -0.3637 -0.2876
 2696SOL    HW119547   3.411   2.401   5.366 -0.9975  0.1376  2.0454
 2696SOL    HW219548   3.431   2.300   5.482  1.0882 -0.6257 -0.5202
 2697SOL     OW19549   2.631   4.582   6.099 -0.4601 -0.5382  0.1287
 2697SOL    HW119550   2.603   4.597   6.009 -1.6602 -0.5389  0.4980
 2697SOL    HW219551   2.557   4.621   6.146 -0.0631  0.6338 -0.2125
 2698SOL     OW19552   1.429   3.863   7.657 -0.1084 -0.3702 -0.6182
 2698SOL    HW119553   1.480   3.943   7.662 -0.7556  0.0347 -0.5635
 2698SOL    HW219554   1.457   3.826   7.573 -4.4080 -2.5712 -1.0940
 2699SOL     OW19555   4.139   2.786   5.629  0.2275 -0.4861 -0.3337
 2699SOL    HW119556   4.171   2.701   5.658  1.5719  0.6893  1.6852
 2699SOL    HW219557   4.045   2.766   5.624  0.3049 -0.6794 -0.9993
 2700SOL     OW19558   0.634   1.386  12.040  0.4845 -0.3125  0.3238
 2700SOL    HW119559   0.582   1.306  12.047  1.2556 -0.7749  0.8277
 2700SOL    HW219560   0.566   1.447  12.013  0.7633  0.0812  0.5128
 2701SOL     OW19561   0.071   0.718   6.845  0.1103  0.0178 -0.3076
 2701SOL    HW119562   0.013   0.642   6.841 -0.3290  0.3247  0.2767
 2701SOL    HW219563   0.035   0.741   6.931 -1.4918 -1.4430 -0.5811
 2702SOL     OW19564   3.846   2.922   1.206 -0.7869 -0.7374 -0.5335
 2702SOL    HW119565   3.797   2.961   1.135  1.4123  2.6332 -0.2017
 2702SOL    HW219566   3.937   2.951   1.208  0.1006 -3.6169  1.3472
 2703SOL     OW19567   1.767   3.050   6.241 -0.1035  0.0045 -0.1935
 2703SOL    HW119568   1.853   3.029   6.207  0.9127  0.5369  2.0289
 2703SOL    HW219569   1.783   3.034   6.334 -1.6652 -1.8720 -0.2356
 2704SOL     OW19570   2.983   4.591   9.375 -0.0524  0.3489 -0.1815
 2704SOL    HW119571   3.068   4.549   9.359 -0.2726 -0.8639  1.7671
 2704SOL    HW219572   2.993   4.599   9.470  0.9158 -0.3792 -0.2150
 2705SOL     OW19573   3.239   4.251   6.525  0.1773 -0.2852 -0.4471
 2705SOL    HW119574   3.145   4.262   6.539 -0.0218 -2.6426  0.0036
 2705SOL    HW219575   3.253   4.339   6.560 -0.7070 -1.3885  2.7517
 2706SOL     OW19576   2.029   4.456  11.619 -0.1600 -0.7009 -0.1406
 2706SOL    HW119577   2.008   4.404  11.542 -1.7054  2.1807 -1.6770
 2706SOL    HW219578   2.120   4.469  11.590  0.2703 -1.8820  0.6670
 2707SOL     OW19579   4.210   1.250   1.958  0.0212 -0.3475  0.0208
 2707SOL    HW119580   4.279   1.185   1.975  2.1808  2.3927  1.8163
 2707SOL    HW219581   4.190   1.240   1.865  1.2711  2.1700 -0.5126
 2708SOL     OW19582   1.482   3.023   3.192 -0.4444  0.4440  0.1232
 2708SOL    HW119583   1.405   2.976   3.223 -1.2611 -0.3601 -3.1817
 2708SOL    HW219584   1.474   3.096   3.254 -0.2551  0.4970  0.0869
 2709SOL     OW19585   4.334   1.671   4.769 -0.1178  0.2340  0.0565
 2709SOL    HW119586   4.302   1.660   4.858 -0.4875 -0.6552 -0.1886
 2709SOL    HW219587   4.247   1.681   4.731 -0.0733 -0.6809 -0.2754
 2710SOL     OW19588   4.612   0.406   0.440 -0.7058  0.0646  0.3610
 2710SOL    HW119589   4.684   0.390   0.379 -3.0330 -2.5970 -1.6846
 2710SOL    HW219590   4.665   0.402   0.520  1.1130  0.1212 -0.8513
 2711SOL     OW19591   3.997   4.382   3.506 -0.4955  0.2985 -0.4233
 2711SOL    HW119592   3.953   4.312   3.457 -1.8449  0.1722  0.9876
 2711SOL    HW219593   4.078   4.334   3.524  0.1162  0.7068 -2.0531
 2712SOL     OW19594   2.544   0.147  15.902  0.2518  0.0123 -0.0115
 2712SOL    HW119595   2.506   0.212  15.843  0.4394 -1.3320 -1.6202
 2712SOL    HW219596   2.501   0.071  15.863 -0.9952  1.6266 -1.7646
 2713SOL     OW19597   2.524   3.861  14.804 -0.1354  0.2455  0.0473
 2713SOL    HW119598   2.453   3.803  14.778  0.8607 -1.5585  1.3227
 2713SOL    HW219599   2.584   3.855  14.730  1.3018  0.5528  1.1785
 2714SOL     OW19600   0.982   0.502   3.722 -0.1294  0.1822  0.4161
 2714SOL    HW119601   0.959   0.584   3.679 -0.9302 -0.9933 -1.3918
 2714SOL    HW219602   0.992   0.437   3.653 -0.0512 -1.1463  1.6756
 2715SOL     OW19603   4.377   1.236   9.951 -0.8635  0.1925  0.1341
 2715SOL    HW119604   4.393   1.248  10.045 -0.1835  1.8759 -0.1919
 2715SOL    HW219605   4.460   1.253   9.908 -0.4196  1.4306  1.5034
 2716SOL     OW19606   3.032   1.057  13.777  0.2231  0.0678 -0.0638
 2716SOL    HW119607   3.089   1.014  13.713 -0.2875  1.5626 -1.5279
 2716SOL    HW219608   3.028   0.988  13.843 -0.3104 -0.4404 -0.6250
 2717SOL     OW19609   3.843   3.320   4.069  0.8458  0.7808  0.2479
 2717SOL    HW119610   3.887   3.318   4.154  1.0792  2.0723  0.1663
 2717SOL    HW219611   3.843   3.227   4.049  1.0540  1.0299 -0.9202
 2718SOL     OW19612   0.081   2.611  15.907 -0.0366 -0.4380  0.1553
 2718SOL    HW119613   0.135   2.590  15.983 -0.3161 -0.4208  0.3589
 2718SOL    HW219614   0.098   2.536  15.850 -1.9127 -0.0686 -0.8835
 2719SOL     OW19615   2.116   3.892  10.456  0.3651  0.3774  0.2349
 2719SOL    HW119616   2.182   3.841  10.408 -0.5582 -0.9167  0.3681
 2719SOL    HW219617   2.167   3.939  10.522  2.2567  0.1566 -1.0369
 2720SOL     OW19618   2.345   2.335   6.581  0.2679 -0.2825 -0.4483
 2720SOL    HW119619   2.371   2.405   6.521 -0.2366 -0.0980 -0.4455
 2720SOL    HW219620   2.297   2.291   6.511 -2.8755 -0.4697  1.8674
 2721SOL     OW19621   2.558   1.813   4.926  0.7438 -0.0085 -0.1828
 2721SOL    HW119622   2.636   1.758   4.927 -0.6943 -2.0933 -1.8343
 2721SOL    HW219623   2.585   1.885   4.868  1.1489 -0.8189 -1.0093
 2722SOL     OW19624   2.631   1.830   0.753  0.0321 -0.3657 -0.0814
 2722SOL    HW119625   2.673   1.757   0.707  0.4653 -1.3983  1.9978
 2722SOL    HW219626   2.609   1.893   0.684 -1.9300 -0.0222  0.8688
 2723SOL     OW19627   4.111   0.511   7.812 -0.0523 -0.3929 -0.7128
 2723SOL    HW119628   4.032   0.474   7.773  0.6090 -0.9715 -1.5207
 2723SOL    HW219629   4.085   0.529   7.902  1.8824 -0.5609 -0.1165
 2724SOL     OW19630   4.042   0.359   5.534  0.7633 -0.1245 -0.3166
 2724SOL    HW119631   4.108   0.298   5.501  0.4779 -0.2295 -0.7044
 2724SOL    HW219632   3.990   0.289   5.574  0.7678  1.0494  1.7618
 2725SOL     OW19633   4.281   1.324   0.551 -0.1000  0.5486 -0.2112
 2725SOL    HW119634   4.330   1.271   0.614 -0.9793 -0.2301 -0.1866
 2725SOL    HW219635   4.344   1.321   0.478  2.0217  2.2429  1.5703
 2726SOL     OW19636   4.281   4.287  11.223 -0.0824 -0.0588  0.1646
 2726SOL    HW119637   4.334   4.227  11.171 -0.0666 -0.7145  0.9272
 2726SOL    HW219638   4.281   4.364  11.168  2.0116  0.1332  0.4313
 2727SOL     OW19639   4.088   3.688  10.471 -0.4906  0.3201 -0.0865
 2727SOL    HW119640   4.025   3.649  10.531  2.3772 -0.3447  2.4757
 2727SOL    HW219641   4.079   3.642  10.388  4.0918 -0.8201  0.0227
 2728SOL     OW19642   4.246   3.580   7.660  0.2657  0.1320 -0.1300
 2728SOL    HW119643   4.172   3.610   7.607 -1.7544 -1.7961  1.6397
 2728SOL    HW219644   4.206   3.524   7.726 -1.0792  0.0080 -1.0407
 2729SOL     OW19645   3.863   2.070   4.451 -0.0146  0.4643 -0.0323
 2729SOL    HW119646   3.945   2.021   4.462 -0.5364 -0.0351  1.6806
 2729SOL    HW219647   3.796   2.009   4.483  2.6961 -0.4083  3.9936
 2730SOL     OW19648   0.100   3.362   0.080  0.0569  0.1334  0.6585
 2730SOL    HW119649   0.095   3.266   0.079 -0.5292  0.1676 -0.1435
 2730SOL    HW219650   0.014   3.384   0.044 -0.3120  1.6221  2.4864
 2731SOL     OW19651   1.407   2.276   9.481  0.1028  0.5891  0.5617
 2731SOL    HW119652   1.382   2.323   9.561  1.1414 -0.4003  1.4690
 2731SOL    HW219653   1.339   2.209   9.471  0.0716  0.4344  1.7464
 2732SOL     OW19654   2.039   4.045   2.109  0.1307  0.1498 -0.5882
 2732SOL    HW119655   1.951   4.070   2.080 -0.1334 -1.9239 -1.5703
 2732SOL    HW219656   2.078   4.131   2.124 -1.5303  0.4244  2.1224
 2733SOL     OW19657   3.618   4.361   6.589 -0.1679 -1.0292  0.0749
 2733SOL    HW119658   3.650   4.405   6.511 -1.2895 -1.1711 -0.4591
 2733SOL    HW219659   3.558   4.429   6.618  2.1465  1.0244  0.0391
 2734SOL     OW19660   1.348   3.261  15.006 -0.0500 -0.7196  0.0871
 2734SOL    HW119661   1.252   3.269  15.001 -0.0367  0.0053  1.1015
 2734SOL    HW219662   1.369   3.295  14.919  0.3396 -0.7860  0.1594
 2735SOL     OW19663   3.440   2.955   2.097 -0.3055  0.1555  0.2010
 2735SOL    HW119664   3.525   2.981   2.132  1.1603 -0.2964 -3.0311
 2735SOL    HW219665   3.392   3.036   2.112 -2.2769 -0.5862 -2.0424
 2736SOL     OW19666   3.756   1.699   3.961  0.3133 -0.7136  0.6359
 2736SOL    HW119667   3.670   1.660   3.947 -0.1579  0.3867  0.4701
 2736SOL    HW219668   3.774   1.678   4.053 -0.3528  1.5693  1.3041
 2737SOL     OW19669   0.834   0.516  10.680 -0.0932  0.0247  0.1018
 2737SOL    HW119670   0.790   0.559  10.753  0.1461  0.6939 -0.1532
 2737SOL    HW219671   0.918   0.491  10.718 -0.1777  0.4106  0.5286
 2738SOL     OW19672   0.961   4.022   4.219 -0.3123 -0.3031 -0.2426
 2738SOL    HW119673   0.970   3.952   4.154  3.0630  1.4612 -1.7205
 2738SOL    HW219674   1.020   3.982   4.283  0.3669  2.8127  1.1201
 2739SOL     OW19675   3.809   1.376   5.919 -0.2615 -0.5301  0.0344
 2739SOL    HW119676   3.799   1.374   6.015 -1.0964  2.1732  0.0055
 2739SOL    HW219677   3.728   1.415   5.885 -0.8162 -1.5281  0.1967
 2740SOL     OW19678   1.812   2.029   3.119 -0.0900 -0.2697 -0.1629
 2740SOL    HW119679   1.728   2.029   3.073 -1.6233  0.9318  2.6604
 2740SOL    HW219680   1.833   2.123   3.126  0.0470 -0.2420 -0.8871
 2741SOL     OW19681   1.221   1.765   0.611 -0.4993 -0.6737 -0.1887
 2741SOL    HW119682   1.225   1.752   0.705 -0.9531 -4.0545 -0.6518
 2741SOL    HW219683   1.235   1.859   0.595  1.1671 -1.2611 -2.1428
 2742SOL     OW19684   1.814   0.778  13.183 -0.0546 -0.6497 -0.3305
 2742SOL    HW119685   1.863   0.847  13.138 -1.2320 -0.4454 -1.2774
 2742SOL    HW219686   1.824   0.705  13.122  1.7010  0.1174 -0.9780
 2743SOL     OW19687   1.134   2.210   6.260  0.0949  0.3830  0.2068
 2743SOL    HW119688   1.163   2.275   6.196 -0.3714 -1.2101 -1.6073
 2743SOL    HW219689   1.203   2.144   6.258  0.6011  0.9574 -0.8685
 2744SOL     OW19690   1.301   0.833   7.297  0.0962 -0.3330 -0.5349
 2744SOL    HW119691   1.297   0.844   7.392  0.6856  2.0235 -0.7860
 2744SOL    HW219692   1.380   0.879   7.266 -0.0178  0.1171 -0.1521
 2745SOL     OW19693   3.548   0.381  15.884 -0.1122 -0.4232  0.6511
 2745SOL    HW119694   3.580   0.470  15.875  1.0288 -0.9244 -0.2832
 2745SOL    HW219695   3.474   0.371  15.824 -0.8585 -1.2851  1.6947
 2746SOL     OW19696   4.720   4.368   6.882  0.3127 -0.1991  0.1844
 2746SOL    HW119697   0.033   4.283   6.910  0.8210 -0.7798 -2.1814
 2746SOL    HW219698   0.062   4.433   6.914 -1.4150  0.6314  1.9755
 2747SOL     OW19699   4.373   0.585  13.926 -0.5610  0.0197  0.0433
 2747SOL    HW119700   4.315   0.612  13.855 -1.3622 -0.6301  0.4535
 2747SOL    HW219701   4.398   0.495  13.904  3.1244  1.1619 -0.4936
 2748SOL     OW19702   3.928   4.165  16.038  0.1682  0.0331  0.6791
 2748SOL    HW119703   3.976   4.082  16.036 -2.2211 -1.3070 -0.7112
 2748SOL    HW219704   3.979   4.215  15.974 -2.1007 -0.6029 -1.5866
 2749SOL     OW19705   1.600   1.537   3.483 -0.1209  0.2255  0.2277
 2749SOL    HW119706   1.678   1.591   3.475  1.8983 -2.8690 -1.0721
 2749SOL    HW219707   1.560   1.542   3.396  0.7553 -1.0277 -0.2316
 2750SOL     OW19708   1.645   3.619  14.577  0.0218  0.4830 -0.1423
 2750SOL    HW119709   1.609   3.609  14.489 -0.6286  0.1945  0.1547
 2750SOL    HW219710   1.573   3.587  14.631  1.6329 -1.3986  0.8634
 2751SOL     OW19711   0.726   3.231   6.901 -0.1013 -0.2510 -0.1367
 2751SOL    HW119712   0.721   3.206   6.993  0.0268  1.4755  0.3406
 2751SOL    HW219713   0.706   3.323   6.916  0.3159  0.0881 -1.6625
 2752SOL     OW19714   0.679   2.043   5.970 -0.2980  0.0307 -0.6753
 2752SOL    HW119715   0.666   1.971   6.033 -0.7710  0.7437  0.0439
 2752SOL    HW219716   0.668   1.988   5.893 -1.3826  0.7259 -1.0271
 2753SOL     OW19717   1.636   2.469   8.020 -0.1225  0.1434 -0.2417
 2753SOL    HW119718   1.588   2.504   8.095  0.8566  2.9607 -0.9145
 2753SOL    HW219719   1.726   2.466   8.051 -0.5985  0.2604  1.1507
 2754SOL     OW19720   0.684   0.723  15.449 -0.2982 -0.2225  0.0653
 2754SOL    HW119721   0.711   0.649  15.395  0.4864 -1.6526  2.4542
 2754SOL    HW219722   0.602   0.742  15.403 -0.5387  1.2320  1.0860
 2755SOL     OW19723   0.905   1.577   4.957 -0.3140 -0.3242 -0.1498
 2755SOL    HW119724   0.819   1.617   4.948 -0.0145  0.1482 -0.8679
 2755SOL    HW219725   0.903   1.524   4.877  2.0642  2.5934 -2.1385
 2756SOL     OW19726   3.640   0.551   4.575 -0.3035  0.3784 -0.1378
 2756SOL    HW119727   3.639   0.568   4.669  1.8872 -0.6762  0.0800
 2756SOL    HW219728   3.566   0.597   4.535 -1.4364  0.2369  1.8016
 2757SOL     OW19729   2.089   0.286   3.125  0.6920 -0.1497 -0.1687
 2757SOL    HW119730   2.144   0.346   3.176  3.2963  0.4482 -3.6422
 2757SOL    HW219731   2.160   0.233   3.087 -0.1748 -0.9931 -0.6203
 2758SOL     OW19732   0.400   2.635   0.220 -0.5390  0.3094 -0.1022
 2758SOL    HW119733   0.393   2.549   0.260 -2.7389  0.3145 -0.4405
 2758SOL    HW219734   0.389   2.604   0.130 -2.7020  2.9363 -0.7648
 2759SOL     OW19735   1.889   1.209   4.508 -0.0881  0.6032 -0.1155
 2759SOL    HW119736   1.890   1.254   4.592  0.8212 -0.3055  0.3642
 2759SOL    HW219737   1.796   1.221   4.486 -0.2189 -1.4496 -0.7426
 2760SOL     OW19738   0.737   1.815  14.480  0.1722 -0.2903 -0.1095
 2760SOL    HW119739   0.667   1.848  14.536  1.8525 -0.1790  1.8923
 2760SOL    HW219740   0.699   1.843  14.396 -0.6061 -1.5287 -0.1788
 2761SOL     OW19741   0.103   4.052   3.273  0.1612  0.5565  0.5354
 2761SOL    HW119742   0.172   3.991   3.297  0.6268  1.0573  0.4802
 2761SOL    HW219743   0.054   3.987   3.223 -0.2938  0.1994  1.4588
 2762SOL     OW19744   2.799   0.091   1.649 -0.6677  0.1122 -0.2792
 2762SOL    HW119745   2.887   0.080   1.686 -0.2291  1.0914 -1.0310
 2762SOL    HW219746   2.777   0.178   1.682 -1.6963  0.3260 -1.5578
 2763SOL     OW19747   1.723   2.672  16.597  0.5270  0.8814 -0.1106
 2763SOL    HW119748   1.792   2.614  16.629 -1.4548 -1.9624 -1.0432
 2763SOL    HW219749   1.681   2.633  16.521  1.7993 -0.8091  0.0502
 2764SOL     OW19750   1.940   4.702   3.555 -0.2751 -0.0535  0.0987
 2764SOL    HW119751   1.932   0.055   3.615  1.9140  0.7844 -0.6335
 2764SOL    HW219752   1.881   4.717   3.481  1.1246 -1.7214 -1.3607
 2765SOL     OW19753   0.467   3.130   6.543  0.3340  0.2186 -0.1923
 2765SOL    HW119754   0.534   3.066   6.520 -2.0401 -1.4423 -2.5412
 2765SOL    HW219755   0.423   3.152   6.461 -0.9863 -2.4799 -0.2050
 2766SOL     OW19756   4.548   1.018  10.414  0.1811  0.2009  0.0789
 2766SOL    HW119757   4.582   1.009  10.503  0.0994 -1.5193 -0.0575
 2766SOL    HW219758   4.464   0.972  10.421 -0.0372  0.9907  2.4209
 2767SOL     OW19759   2.754   2.340  10.503  0.0865  0.8627  0.4530
 2767SOL    HW119760   2.783   2.309  10.417 -3.5072  0.6172 -0.6421
 2767SOL    HW219761   2.663   2.311  10.509  0.1921  0.7919  1.6821
 2768SOL     OW19762   0.605   2.412   2.202 -0.1418  0.2444 -0.3395
 2768SOL    HW119763   0.576   2.470   2.132 -0.1980  1.3579  0.6120
 2768SOL    HW219764   0.698   2.431   2.210  0.2393 -1.9201  0.5366
 2769SOL     OW19765   2.385   4.520  11.090  0.2180 -0.0139  0.5128
 2769SOL    HW119766   2.329   4.598  11.085 -0.7500 -0.8487 -1.2661
 2769SOL    HW219767   2.331   4.449  11.124 -0.7141  1.3336  1.8481
 2770SOL     OW19768   1.146   0.762  16.864  0.2742  0.2170 -0.2130
 2770SOL    HW119769   1.056   0.731  16.852  0.5344 -1.7867  2.7165
 2770SOL    HW219770   1.181   0.693  16.921  0.4622  1.3368  1.0137
 2771SOL     OW19771   4.149   4.675  12.374 -0.4860  0.0735  0.1134
 2771SOL    HW119772   4.229   0.008  12.374 -2.0538  2.3872  1.9094
 2771SOL    HW219773   4.162   4.613  12.302 -0.8339  1.5055 -1.1763
 2772SOL     OW19774   3.942   4.132   8.456 -0.1766 -0.1275 -0.1398
 2772SOL    HW119775   4.017   4.163   8.506  0.7772 -3.1646  0.3308
 2772SOL    HW219776   3.981   4.107   8.372  1.2834  0.7600  0.2859
 2773SOL     OW19777   4.393   0.489   5.590 -0.4551  0.6261 -0.0908
 2773SOL    HW119778   4.427   0.486   5.500  0.9861 -0.1376  0.4834
 2773SOL    HW219779   4.471   0.519   5.636 -0.6188  0.1994  0.4659
 2774SOL     OW19780   3.448   2.041  13.119  0.1082 -0.1579  0.3476
 2774SOL    HW119781   3.402   1.970  13.164  0.3072 -0.6272 -0.1990
 2774SOL    HW219782   3.416   2.119  13.164  0.9438 -0.0834  0.8227
 2775SOL     OW19783   1.176   2.125   2.820 -0.0116 -0.1203  0.4235
 2775SOL    HW119784   1.248   2.183   2.846 -0.5013  0.3350  0.7543
 2775SOL    HW219785   1.220   2.059   2.767 -0.4329  2.2508 -2.8814
 2776SOL     OW19786   4.520   0.243  14.733  0.4261 -0.6294 -0.9455
 2776SOL    HW119787   4.515   0.191  14.813 -2.3049  1.2618  0.1386
 2776SOL    HW219788   4.577   0.314  14.761 -0.7601  0.4841 -1.3283
 2777SOL     OW19789   2.363   4.244   6.756 -0.2089  0.4961 -0.2748
 2777SOL    HW119790   2.302   4.294   6.810  2.0287  0.0436  2.6553
 2777SOL    HW219791   2.311   4.166   6.775  0.6862 -0.1767 -0.5816
 2778SOL     OW19792   4.501   1.670   5.693  0.1414 -0.0583 -0.1984
 2778SOL    HW119793   4.461   1.757   5.696  0.2703 -0.0302  0.5935
 2778SOL    HW219794   4.572   1.678   5.629 -0.7020  0.8553 -1.0185
 2779SOL     OW19795   2.743   1.456   2.260 -0.2210 -0.3850 -0.6308
 2779SOL    HW119796   2.672   1.520   2.269  0.3182 -0.0866  1.6839
 2779SOL    HW219797   2.816   1.508   2.293 -1.5163  0.7161  0.5537
 2780SOL     OW19798   3.565   3.327   7.642 -0.2552  0.0740  0.0790
 2780SOL    HW119799   3.644   3.273   7.643  0.7093  1.5236  1.4037
 2780SOL    HW219800   3.527   3.307   7.556  2.2600  0.3305 -1.0782
 2781SOL     OW19801   1.572   4.095   7.618  0.0287  0.1707  0.0861
 2781SOL    HW119802   1.555   4.184   7.585 -0.0821  0.2703  0.4029
 2781SOL    HW219803   1.665   4.080   7.603 -0.5472 -1.7221 -1.5443
 2782SOL     OW19804   2.936   3.962   2.679 -0.2146  0.3462 -0.6045
 2782SOL    HW119805   2.865   3.932   2.735 -0.2007  0.3806 -0.5680
 2782SOL    HW219806   2.978   3.884   2.645 -1.7190 -0.2685 -1.0311
 2783SOL     OW19807   0.045   0.065   8.806 -0.0391  0.6456  0.5021
 2783SOL    HW119808   0.097   4.712   8.838 -3.7645 -2.0569  0.2297
 2783SOL    HW219809   0.073   0.120   8.880  1.8810  0.0342  0.2401
 2784SOL     OW19810   4.024   0.661   4.089 -0.0844 -0.6531  0.2226
 2784SOL    HW119811   3.964   0.589   4.107  0.9648 -2.5596 -3.8949
 2784SOL    HW219812   4.088   0.650   4.159 -0.4952  1.9686  1.0185
 2785SOL     OW19813   3.196   4.655  10.820  0.2937  0.1282 -0.0484
 2785SOL    HW119814   3.257   4.702  10.877  1.1657 -1.3443  0.2229
 2785SOL    HW219815   3.262   4.634  10.754  0.3310  1.0269 -0.2937
 2786SOL     OW19816   0.977   3.599   1.254 -0.2789  0.3723  0.3246
 2786SOL    HW119817   0.966   3.631   1.165 -2.1442  1.2612  0.8939
 2786SOL    HW219818   0.914   3.651   1.303 -1.5725 -1.3872  0.5424
 2787SOL     OW19819   0.621   2.533   3.736 -0.6473  0.0081  0.3902
 2787SOL    HW119820   0.711   2.500   3.735 -0.8568 -0.6177  1.9087
 2787SOL    HW219821   0.639   2.613   3.785 -2.0580  1.7566 -1.9847
 2788SOL     OW19822   1.029   1.790   2.439  0.6096  0.1912  0.5663
 2788SOL    HW119823   1.089   1.760   2.371  1.3096  0.4946  1.0479
 2788SOL    HW219824   1.094   1.824   2.501 -0.0288 -0.3089  1.5055
 2789SOL     OW19825   2.715   4.255   6.045  0.1027 -0.0299  0.1649
 2789SOL    HW119826   2.678   4.267   6.132 -0.5963  2.0500 -0.4240
 2789SOL    HW219827   2.798   4.215   6.073  1.4271  1.5782 -1.4204
 2790SOL     OW19828   3.551   2.658   5.161  0.3575 -0.5500 -0.4152
 2790SOL    HW119829   3.581   2.567   5.155  2.3083  0.0270  0.8936
 2790SOL    HW219830   3.457   2.653   5.142  0.2132 -2.1979  0.7481
 2791SOL     OW19831   2.521   4.651   2.730 -0.5209 -0.5846  0.3643
 2791SOL    HW119832   2.566   4.583   2.681 -0.1767  0.4562 -0.7679
 2791SOL    HW219833   2.538   0.009   2.679 -1.2993 -1.7871 -1.7579
 2792SOL     OW19834   2.724   1.823   4.653 -0.0744  0.3070  0.1186
 2792SOL    HW119835   2.663   1.885   4.694 -0.1818 -0.2307  0.7565
 2792SOL    HW219836   2.721   1.847   4.560 -2.7805  1.4773  0.5161
 2793SOL     OW19837   1.760   2.025   2.554  0.4253  0.1854 -0.0722
 2793SOL    HW119838   1.843   1.997   2.515 -2.3414 -2.3332 -4.1629
 2793SOL    HW219839   1.699   1.963   2.514  2.0933 -0.7219 -1.2026
 2794SOL     OW19840   2.988   3.063  10.841 -0.1412 -0.2164 -0.4889
 2794SOL    HW119841   3.002   3.158  10.837 -2.4996  0.0650 -2.0421
 2794SOL    HW219842   2.897   3.061  10.810 -0.4723  1.3252  0.3859
 2795SOL     OW19843   1.253   1.272   3.806  0.3000  0.0441 -0.3463
 2795SOL    HW119844   1.327   1.305   3.755 -0.3244  0.1063 -1.2134
 2795SOL    HW219845   1.215   1.221   3.734 -3.5004 -1.0179  2.4197
 2796SOL     OW19846   3.888   1.853   1.819  0.8795  0.2415 -0.1231
 2796SOL    HW119847   3.794   1.839   1.804  0.7841  1.6084 -0.7573
 2796SOL    HW219848   3.910   1.795   1.892 -1.2773  2.6270  2.4251
 2797SOL     OW19849   4.439   1.577  14.098 -0.4410 -0.3696 -0.2863
 2797SOL    HW119850   4.513   1.517  14.104 -0.7489 -0.6191  0.9205
 2797SOL    HW219851   4.368   1.529  14.054 -1.6325 -0.5456  1.8379
 2798SOL     OW19852   4.123   1.270   6.428  0.9801 -0.1048  0.3430
 2798SOL    HW119853   4.056   1.204   6.445 -0.1771  0.5954 -1.5663
 2798SOL    HW219854   4.126   1.309   6.515  1.1711 -1.8813  1.1186
 2799SOL     OW19855   2.171   0.008   1.799  0.1044 -0.0372  0.3522
 2799SOL    HW119856   2.169   0.015   1.703  0.8290  1.4793  0.4524
 2799SOL    HW219857   2.157   0.099   1.823  0.0081 -0.1149  0.5848
 2800SOL     OW19858   3.618   3.147   2.254 -0.8341 -0.6955 -0.0444
 2800SOL    HW119859   3.706   3.113   2.272 -0.1094  1.3015  0.2071
 2800SOL    HW219860   3.639   3.192   2.172  0.1311 -0.2277  0.4518
 2801SOL     OW19861   2.466   4.500   7.175 -0.5140  0.5031 -0.4082
 2801SOL    HW119862   2.433   4.546   7.252  0.3781  1.8760 -0.8434
 2801SOL    HW219863   2.382   4.495   7.130 -0.8889 -0.3105  0.3938
 2802SOL     OW19864   1.377   3.114   1.718 -0.0144 -0.7159 -0.4254
 2802SOL    HW119865   1.425   3.122   1.636  2.4954  1.6566  1.2754
 2802SOL    HW219866   1.347   3.024   1.728 -0.0501 -0.4390  2.0071
 2803SOL     OW19867   1.726   2.514   3.895 -0.3245  0.3083  0.8764
 2803SOL    HW119868   1.698   2.553   3.812 -0.2948  1.1952  1.2750
 2803SOL    HW219869   1.792   2.460   3.852 -1.5241  1.2444 -2.2025
 2804SOL     OW19870   1.059   3.806   8.438 -0.5211  0.7758  0.1902
 2804SOL    HW119871   1.043   3.899   8.421  3.3500  1.3013 -0.4417
 2804SOL    HW219872   0.983   3.758   8.405 -1.1801  1.6060  0.5011
 2805SOL     OW19873   2.280   0.445   3.259 -0.5590 -0.2984  0.5493
 2805SOL    HW119874   2.365   0.467   3.297  0.9332 -1.7345 -1.9392
 2805SOL    HW219875   2.304   0.458   3.167 -0.9898 -0.7413  0.3747
 2806SOL     OW19876   0.256   4.272  15.689  0.5472  0.1281  0.3306
 2806SOL    HW119877   0.211   4.190  15.671  1.0375 -0.3159  1.1242
 2806SOL    HW219878   0.276   4.308  15.603 -1.7128  1.7775  0.4947
 2807SOL     OW19879   3.094   3.809   7.076  0.1907  0.1516 -0.4475
 2807SOL    HW119880   3.134   3.896   7.077  0.1435  0.1673 -0.1910
 2807SOL    HW219881   3.052   3.821   7.161 -1.1791  0.5874 -1.1833
 2808SOL     OW19882   1.052   3.996   1.785 -0.5799  0.2272  0.7402
 2808SOL    HW119883   1.006   4.049   1.850 -1.8752 -1.1923  0.9739
 2808SOL    HW219884   1.135   4.044   1.780 -1.6136  1.8350 -1.1402
 2809SOL     OW19885   3.913   4.464   8.545 -0.1292 -0.1204  0.0685
 2809SOL    HW119886   3.835   4.417   8.576  0.5796 -1.2270  0.1852
 2809SOL    HW219887   3.896   4.449   8.451 -2.5553 -0.5269  0.5686
 2810SOL     OW19888   3.438   1.395   4.992 -0.1208 -0.4246 -0.0014
 2810SOL    HW119889   3.402   1.393   5.080 -4.5648 -0.7317 -1.8018
 2810SOL    HW219890   3.501   1.464   5.010 -0.5367 -0.2203  0.6671
 2811SOL     OW19891   2.378   4.095   9.778 -0.7321  0.0208  0.3490
 2811SOL    HW119892   2.415   4.183   9.775 -0.1844 -0.2185  0.1536
 2811SOL    HW219893   2.422   4.061   9.700 -0.1610  1.6801 -0.0573
 2812SOL     OW19894   0.117   0.287  16.374 -0.1153 -0.5451  0.1882
 2812SOL    HW119895   0.200   0.330  16.396  0.4126 -0.5210 -1.8419
 2812SOL    HW219896   0.049   0.349  16.400  0.2908  0.8427 -1.9806
 2813SOL     OW19897   0.177   3.968   7.934 -0.3540  0.1319 -0.3071
 2813SOL    HW119898   0.191   3.891   7.879 -0.6847 -0.8551  0.9763
 2813SOL    HW219899   0.107   4.004   7.879  0.5148 -1.7070 -2.5863
 2814SOL     OW19900   0.356   3.860   3.773  0.3975  0.0067 -0.2117
 2814SOL    HW119901   0.352   3.909   3.855  1.1949 -1.4278  0.6844
 2814SOL    HW219902   0.386   3.776   3.806  1.9935 -0.0205 -1.7208
 2815SOL     OW19903   1.156   2.061   1.689  0.0216 -0.1511  0.7984
 2815SOL    HW119904   1.129   2.024   1.605  1.3935  2.9581 -1.0332
 2815SOL    HW219905   1.234   2.112   1.665 -0.1767 -1.5043 -2.6780
 2816SOL     OW19906   1.081   1.702   0.205 -0.5214 -0.2747  0.1622
 2816SOL    HW119907   1.002   1.655   0.179 -1.0125 -0.0623  1.2960
 2816SOL    HW219908   1.051   1.792   0.199 -0.7385 -0.3657 -0.1208
 2817SOL     OW19909   4.634   1.221   0.635 -0.3170 -0.9585 -0.1260
 2817SOL    HW119910   4.645   1.220   0.540  0.5507  1.4902 -0.0413
 2817SOL    HW219911   4.560   1.168   0.664 -1.4067 -0.2286 -1.6079
 2818SOL     OW19912   0.949   1.204   4.629 -0.0814 -0.0463 -0.2794
 2818SOL    HW119913   1.019   1.181   4.690 -0.0595  0.8463  0.0229
 2818SOL    HW219914   0.882   1.141   4.653 -0.8354  0.9419  0.1994
 2819SOL     OW19915   0.359   1.854   8.038  0.8000  0.1782 -0.4766
 2819SOL    HW119916   0.444   1.857   8.081  2.0663  0.0463 -3.0218
 2819SOL    HW219917   0.361   1.935   7.988 -0.5715 -0.4841 -1.6033
 2820SOL     OW19918   0.189   0.564   8.277 -0.5150  0.3119 -0.2299
 2820SOL    HW119919   0.168   0.484   8.325  0.7316  0.2501  0.2122
 2820SOL    HW219920   0.276   0.542   8.242 -0.0568 -2.0307  2.4218
 2821SOL     OW19921   0.744   0.580  10.957  0.1003 -0.2315  0.8068
 2821SOL    HW119922   0.683   0.517  10.994 -0.1176  0.2276  1.2376
 2821SOL    HW219923   0.739   0.650  11.023  1.4393 -0.2144  0.9014
 2822SOL     OW19924   0.297   4.005   0.144  0.4189  0.2828  0.0411
 2822SOL    HW119925   0.279   4.033   0.234 -1.9359 -3.0873  0.6316
 2822SOL    HW219926   0.266   3.915   0.136  2.0482 -0.4068  1.4028
 2823SOL     OW19927   1.374   1.774   6.456  0.4515  0.4742 -0.4761
 2823SOL    HW119928   1.288   1.764   6.415 -0.4973  1.1697  1.3347
 2823SOL    HW219929   1.354   1.862   6.488  0.3854 -0.0058  0.7924
 2824SOL     OW19930   3.605   3.714   9.581  0.8308 -0.2672 -0.2943
 2824SOL    HW119931   3.572   3.777   9.645 -2.3788 -4.0847  1.8363
 2824SOL    HW219932   3.682   3.761   9.553  0.7039 -0.4401 -0.9359
 2825SOL     OW19933   1.979   3.507  10.208  0.3333  0.1379 -0.6914
 2825SOL    HW119934   1.894   3.502  10.165 -0.7436 -0.2328  1.4468
 2825SOL    HW219935   2.029   3.572  10.158  1.8710 -0.8538 -0.4334
 2826SOL     OW19936   0.829   4.391  10.892  0.4418  0.2556  0.0537
 2826SOL    HW119937   0.761   4.357  10.950 -0.5558 -1.1175 -1.9127
 2826SOL    HW219938   0.772   4.415  10.818  2.1833 -0.4265 -1.5225
 2827SOL     OW19939   2.866   0.592   4.127  0.1500  0.4257  0.1452
 2827SOL    HW119940   2.947   0.590   4.179 -0.3425 -2.0805  0.8088
 2827SOL    HW219941   2.891   0.651   4.056  0.5601 -1.5380 -1.3324
 2828SOL     OW19942   0.327   0.759   6.787  0.3064  0.2155  0.1199
 2828SOL    HW119943   0.357   0.670   6.768  1.2105  0.7771 -1.1067
 2828SOL    HW219944   0.235   0.756   6.811  0.8432  0.5659  2.2692
 2829SOL     OW19945   3.522   1.738   2.538  0.0540  0.0022 -0.2289
 2829SOL    HW119946   3.611   1.772   2.526 -0.9862  2.8246  0.1332
 2829SOL    HW219947   3.521   1.726   2.633 -1.1361 -1.7283 -0.4651
 2830SOL     OW19948   1.706   4.423   0.519 -0.0298 -0.4500  0.3410
 2830SOL    HW119949   1.785   4.447   0.471  0.9272  0.2950  2.2837
 2830SOL    HW219950   1.721   4.328   0.514 -1.9427 -0.6953 -0.5120
 2831SOL     OW19951   0.495   2.271  16.081  0.2903 -0.9616  0.1012
 2831SOL    HW119952   0.409   2.240  16.052 -0.0280  0.1075 -0.0853
 2831SOL    HW219953   0.473   2.329  16.154  1.4406  2.7206 -2.4738
 2832SOL     OW19954   2.642   0.892   6.879 -0.0570  0.2427  0.0852
 2832SOL    HW119955   2.597   0.908   6.796  0.2798 -0.4603 -0.2355
 2832SOL    HW219956   2.734   0.911   6.858  0.3362 -1.8302 -0.1030
 2833SOL     OW19957   2.152   4.530   5.183  0.2172  0.1541 -0.0871
 2833SOL    HW119958   2.216   4.541   5.113 -1.5418 -0.0629 -1.7422
 2833SOL    HW219959   2.102   4.612   5.182 -1.5013 -0.8976 -0.6203
 2834SOL     OW19960   1.816   3.705   7.923 -0.0558  0.3609 -0.5976
 2834SOL    HW119961   1.732   3.719   7.965 -0.0213 -0.0143 -0.4035
 2834SOL    HW219962   1.846   3.640   7.987 -1.8339  0.2887  0.1409
 2835SOL     OW19963   1.625   1.854   7.842  0.0616 -0.5658 -0.2025
 2835SOL    HW119964   1.587   1.937   7.870  1.0586 -0.7893  1.8012
 2835SOL    HW219965   1.581   1.852   7.756  1.5420 -0.0084 -0.9611
 2836SOL     OW19966   4.085   0.761   3.831 -0.1741 -0.0389  0.0859
 2836SOL    HW119967   4.012   0.725   3.781 -1.0751 -0.1933  1.5314
 2836SOL    HW219968   4.086   0.704   3.907 -0.9584 -0.7787 -0.4570
 2837SOL     OW19969   1.102   3.963   6.593 -0.3674 -0.6767  0.4602
 2837SOL    HW119970   1.054   4.023   6.650 -0.5026  0.7193 -1.1492
 2837SOL    HW219971   1.150   3.920   6.664  1.2861  2.3160  1.1527
 2838SOL     OW19972   3.423   3.794  15.831  0.5654 -0.1696 -0.3579
 2838SOL    HW119973   3.491   3.731  15.857  0.4757 -0.8655 -1.8140
 2838SOL    HW219974   3.435   3.867  15.892  0.1128 -0.6417  0.2906
 2839SOL     OW19975   2.428   2.497   4.083  0.2911  0.0738 -0.1507
 2839SOL    HW119976   2.476   2.445   4.019 -1.7980  0.1879 -1.8094
 2839SOL    HW219977   2.340   2.471   4.057  0.5344 -0.6883 -0.1868
 2840SOL     OW19978   3.533   3.642  11.304 -0.1336  0.2618  0.0799
 2840SOL    HW119979   3.541   3.713  11.367 -1.4098  0.5761 -0.1096
 2840SOL    HW219980   3.620   3.609  11.327  0.8085  1.6462 -1.4789
 2841SOL     OW19981   2.485   4.583   0.174 -0.2171  0.1838  0.4561
 2841SOL    HW119982   2.429   4.660   0.186  0.6045  0.5757  1.7972
 2841SOL    HW219983   2.420   4.528   0.130  0.8769  0.6569 -1.7953
 2842SOL     OW19984   2.285   3.735   5.730  0.5714  0.2400 -0.2357
 2842SOL    HW119985   2.280   3.773   5.818 -2.8410  1.1161 -0.7969
 2842SOL    HW219986   2.319   3.801   5.671  0.8071 -0.4435 -0.8553
 2843SOL     OW19987   0.943   3.268   9.067  0.0290 -0.3168  0.5928
 2843SOL    HW119988   0.901   3.316   9.138  0.7371 -2.1430  2.2541
 2843SOL    HW219989   0.939   3.335   9.000  1.3837 -0.7765  0.0468
 2844SOL     OW19990   3.054   0.202   8.075  0.3968  0.0304 -0.4639
 2844SOL    HW119991   3.130   0.237   8.122  0.2376 -0.6219  0.2757
 2844SOL    HW219992   3.019   0.285   8.042  0.5741  0.2803 -0.0245
 2845SOL     OW19993   3.365   1.172   3.587  0.0824  0.3829  0.0749
 2845SOL    HW119994   3.269   1.181   3.583  0.1915  1.7463  0.6896
 2845SOL    HW219995   3.393   1.217   3.667  2.4862  1.4321 -1.3700
 2846SOL     OW19996   2.818   1.412  10.559  0.2122 -0.1361  0.1366
 2846SOL    HW119997   2.801   1.469  10.634 -0.8509 -2.0074  1.3296
 2846SOL    HW219998   2.828   1.484  10.497  0.7662  1.2730  1.8806
 2847SOL     OW19999   3.485   4.416   8.583  0.3824 -0.3578 -0.3896
 2847SOL    HW120000   3.410   4.438   8.528  0.4481  0.6902 -0.0489
 2847SOL    HW220001   3.448   4.426   8.671 -1.6870 -2.6155 -1.0128
 2848SOL     OW20002   3.799   0.247  15.373  0.0664  0.3984  0.1701
 2848SOL    HW120003   3.739   0.303  15.325 -0.5905 -2.3701 -2.2747
 2848SOL    HW220004   3.764   0.251  15.462  1.9697  1.6940  0.8729
 2849SOL     OW20005   1.311   3.586   8.168 -0.5397  1.1360 -0.6827
 2849SOL    HW120006   1.340   3.571   8.258 -1.2072  0.0705 -0.6343
 2849SOL    HW220007   1.347   3.673   8.156 -0.2734  0.9295 -1.3300
 2850SOL     OW20008   1.504   1.917   5.818 -0.0366  0.4329  0.0434
 2850SOL    HW120009   1.419   1.928   5.861  0.6318 -2.1090  2.0406
 2850SOL    HW220010   1.483   1.832   5.779  2.9600 -1.7066  3.1073
 2851SOL     OW20011   4.062   4.025   6.200  0.4725  0.0054  0.5553
 2851SOL    HW120012   4.082   3.933   6.183  2.1845  0.2586  1.2101
 2851SOL    HW220013   4.149   4.061   6.217  0.3244 -0.8428  3.0816
 2852SOL     OW20014   3.105   3.096   7.316  0.3975 -0.2683  0.2919
 2852SOL    HW120015   3.019   3.055   7.331  0.5390 -0.8952 -0.6429
 2852SOL    HW220016   3.086   3.166   7.254 -0.5773 -0.9721 -0.2199
 2853SOL     OW20017   1.965   2.488   1.241 -0.4860  0.1751  0.0434
 2853SOL    HW120018   2.055   2.459   1.256 -0.1962  0.2727 -1.4661
 2853SOL    HW220019   1.917   2.432   1.301  0.1827  0.5150  0.9016
 2854SOL     OW20020   1.710   0.254   7.846 -0.1993  0.2681 -0.2182
 2854SOL    HW120021   1.668   0.335   7.818 -1.6568 -0.1239  0.9092
 2854SOL    HW220022   1.689   0.186   7.782  0.5104  1.8807 -2.1746
 2855SOL     OW20023   3.452   4.463  10.840 -0.4833  0.5124 -0.0002
 2855SOL    HW120024   3.465   4.376  10.879 -1.8103  0.9256  1.3653
 2855SOL    HW220025   3.378   4.450  10.781 -0.8157 -2.3654  1.0216
 2856SOL     OW20026   2.776   0.426  11.143  0.8791 -0.1838 -0.3221
 2856SOL    HW120027   2.705   0.375  11.181  0.9294 -0.5501 -0.7205
 2856SOL    HW220028   2.840   0.355  11.157 -0.3099 -1.1246  0.3631
 2857SOL     OW20029   4.054   1.108   5.060 -0.6009  0.6344  0.0005
 2857SOL    HW120030   3.968   1.070   5.077 -0.0400 -0.5038  0.2827
 2857SOL    HW220031   4.058   1.107   4.965  1.2272  2.8552  0.0515
 2858SOL     OW20032   1.416   4.335   5.345 -0.0251  0.4282 -0.0301
 2858SOL    HW120033   1.385   4.421   5.373  0.1615  0.5466 -0.1843
 2858SOL    HW220034   1.376   4.274   5.407  1.3661 -0.6925 -0.2322
 2859SOL     OW20035   2.209   3.839   1.740 -0.3486 -0.2804 -0.3156
 2859SOL    HW120036   2.206   3.803   1.829  0.9066 -1.7928 -0.8762
 2859SOL    HW220037   2.184   3.927   1.767 -0.1166 -0.3794  0.2313
 2860SOL     OW20038   3.503   2.578   6.222 -0.2115  0.2343 -0.3690
 2860SOL    HW120039   3.426   2.617   6.262 -0.7895 -0.3573 -0.8954
 2860SOL    HW220040   3.521   2.650   6.161  0.6031 -0.8793 -1.4634
 2861SOL     OW20041   0.245   1.528   2.197 -0.2182  0.0894  0.1464
 2861SOL    HW120042   0.243   1.506   2.104 -2.1492 -0.3605  0.2919
 2861SOL    HW220043   0.268   1.439   2.225 -1.1464 -0.4120 -0.6919
 2862SOL     OW20044   3.150   4.386   4.548 -0.0972 -0.6879 -0.2829
 2862SOL    HW120045   3.065   4.343   4.558  1.6607 -3.4582  2.8125
 2862SOL    HW220046   3.199   4.336   4.613 -0.1065  0.0776  0.3121
 2863SOL     OW20047   2.189   1.696  12.514 -0.0571 -0.0898  0.2083
 2863SOL    HW120048   2.161   1.783  12.543  0.2713  0.3921 -0.9101
 2863SOL    HW220049   2.184   1.714  12.420 -0.5766  0.7977  0.4111
 2864SOL     OW20050   3.547   2.054   5.986 -0.2159 -0.0367 -0.1654
 2864SOL    HW120051   3.529   2.148   5.982  0.8635  0.1540 -0.7229
 2864SOL    HW220052   3.467   2.016   5.950 -0.2801 -0.5953  0.5748
 2865SOL     OW20053   2.756   1.657   0.988  0.3415 -0.0603 -0.0654
 2865SOL    HW120054   2.829   1.640   0.928 -1.3135 -1.8756 -1.5680
 2865SOL    HW220055   2.774   1.585   1.048 -0.8877  0.3049  0.7346
 2866SOL     OW20056   4.362   4.165  13.635 -0.3448 -0.3252 -0.4598
 2866SOL    HW120057   4.309   4.244  13.644 -0.9891 -0.6858 -1.1240
 2866SOL    HW220058   4.369   4.161  13.540  1.5093 -0.1283 -0.3194
 2867SOL     OW20059   2.935   4.622  10.907  0.0711  0.6883 -0.3803
 2867SOL    HW120060   3.018   4.629  10.859  1.0453  0.2768  1.2342
 2867SOL    HW220061   2.969   4.610  10.996 -1.0364 -0.5160 -0.1311
 2868SOL     OW20062   4.547   4.113  13.846 -0.0973 -0.6222 -0.5054
 2868SOL    HW120063   4.529   4.179  13.913  1.3809  0.8791 -1.5888
 2868SOL    HW220064   4.509   4.159  13.771 -1.0450  0.2154  0.4826
 2869SOL     OW20065   1.037   0.826   8.451 -0.4626  0.1239 -0.9104
 2869SOL    HW120066   1.020   0.763   8.521  0.6489  0.2699 -0.5169
 2869SOL    HW220067   1.053   0.903   8.505 -0.9525  0.0225 -0.6258
 2870SOL     OW20068   3.930   2.772  12.356  0.4902  0.0894 -0.0009
 2870SOL    HW120069   3.880   2.707  12.307 -0.6261  0.2610  0.9266
 2870SOL    HW220070   4.005   2.783  12.297  0.8215 -2.6882 -0.1177
 2871SOL     OW20071   1.157   1.953   5.709 -0.2426 -0.0272  0.6758
 2871SOL    HW120072   1.131   1.947   5.801  2.4587  2.4694  1.5980
 2871SOL    HW220073   1.225   2.021   5.709 -1.2690  0.9905  1.6118
 2872SOL     OW20074   2.894   1.110   7.422 -0.0149  0.5584 -0.0941
 2872SOL    HW120075   2.853   1.025   7.438 -0.8881  1.5066  2.5698
 2872SOL    HW220076   2.822   1.170   7.402  2.8783  3.9064 -0.4093
 2873SOL     OW20077   3.837   0.875   3.998 -0.0219 -0.5409  0.2997
 2873SOL    HW120078   3.890   0.912   3.927 -0.8233 -1.1926 -0.6370
 2873SOL    HW220079   3.893   0.802   4.025  2.7034  1.9007  1.2312
 2874SOL     OW20080   1.014   1.759  12.490  0.1662  0.1534  0.1342
 2874SOL    HW120081   0.961   1.796  12.561 -1.8622 -0.2864 -1.1498
 2874SOL    HW220082   0.944   1.721  12.437 -1.4596  0.8419  1.7618
 2875SOL     OW20083   0.711   1.747   0.488 -0.1169 -0.0027  0.0138
 2875SOL    HW120084   0.782   1.718   0.545  1.6064 -0.3062 -2.2647
 2875SOL    HW220085   0.716   1.840   0.511 -1.6288 -0.0085  0.3542
 2876SOL     OW20086   1.193   2.538  16.061  0.3816  0.1520 -0.0737
 2876SOL    HW120087   1.107   2.580  16.065  0.4230  0.2964 -0.6138
 2876SOL    HW220088   1.198   2.533  15.965 -1.0154 -2.2230 -0.0109
 2877SOL     OW20089   0.901   1.740   1.781  0.6271  0.3997 -0.6903
 2877SOL    HW120090   0.966   1.805   1.806 -1.8578  3.4627 -2.1702
 2877SOL    HW220091   0.954   1.662   1.768 -1.6041 -1.0708 -1.0539
 2878SOL     OW20092   4.103   1.521   5.933  0.0390 -0.7185  0.1460
 2878SOL    HW120093   4.093   1.611   5.961  0.0640 -0.7813  0.3529
 2878SOL    HW220094   4.013   1.496   5.951  0.2806 -2.2023 -0.6145
 2879SOL     OW20095   0.966   2.780   1.380  0.0116  0.2963 -0.0619
 2879SOL    HW120096   0.942   2.871   1.398 -0.9073 -0.1583  1.0121
 2879SOL    HW220097   0.877   2.743   1.379  0.4433 -0.7453  0.2999
 2880SOL     OW20098   4.620   3.535   0.901 -0.0938  0.6139 -0.0079
 2880SOL    HW120099   4.700   3.538   0.953 -1.1868 -2.5566  1.8946
 2880SOL    HW220100   4.655   3.481   0.831  1.2622 -0.8486  1.8137
 2881SOL     OW20101   2.807   0.464   3.532 -0.8044  0.4736  0.2188
 2881SOL    HW120102   2.725   0.441   3.488 -0.1353  0.8010 -1.1994
 2881SOL    HW220103   2.803   0.559   3.547  0.0156  0.2354  1.9957
 2882SOL     OW20104   2.381   1.714   5.744  0.8597 -0.2657 -0.0590
 2882SOL    HW120105   2.398   1.676   5.658  3.4589 -0.1301  0.4016
 2882SOL    HW220106   2.470   1.734   5.773  0.8115  1.6242 -1.2324
 2883SOL     OW20107   2.208   0.595  16.826  0.1271 -0.0439  0.0968
 2883SOL    HW120108   2.184   0.674  16.874  1.4775  0.2160  0.3431
 2883SOL    HW220109   2.206   0.633  16.738 -0.1579 -1.8990 -0.7107
 2884SOL     OW20110   0.614   2.872   1.598  0.6420  0.2329  0.1872
 2884SOL    HW120111   0.572   2.825   1.526  0.8741  1.9717 -1.0861
 2884SOL    HW220112   0.568   2.956   1.606 -0.2109 -0.0824 -1.2801
 2885SOL     OW20113   4.493   2.053  14.622  0.5655  0.6089 -0.4484
 2885SOL    HW120114   4.549   2.067  14.698  1.2909 -1.9684 -0.5195
 2885SOL    HW220115   4.410   2.079  14.661 -0.3049  0.4662 -2.1814
 2886SOL     OW20116   2.864   1.594   7.290 -0.2477 -0.1575  0.5255
 2886SOL    HW120117   2.865   1.567   7.382 -0.5994 -0.6001  0.3983
 2886SOL    HW220118   2.780   1.554   7.267  0.1236 -1.0494  0.7288
 2887SOL     OW20119   4.425   4.001   5.485 -0.0457  0.2433  0.4264
 2887SOL    HW120120   4.467   3.998   5.571 -1.6162 -1.7327  1.1227
 2887SOL    HW220121   4.467   4.073   5.438 -0.0295 -0.2080 -0.2563
 2888SOL     OW20122   0.154   0.080   4.591  0.6465 -0.2605 -0.2538
 2888SOL    HW120123   0.078   0.138   4.584  1.1306  0.2582 -1.1428
 2888SOL    HW220124   0.113   4.715   4.586  0.6337 -0.1757 -1.6642
 2889SOL     OW20125   3.285   3.039   4.247 -0.4281  0.0257  0.4219
 2889SOL    HW120126   3.220   2.995   4.192  0.0812  1.0047 -0.9516
 2889SOL    HW220127   3.345   3.072   4.180  0.4758 -1.6222  0.4038
 2890SOL     OW20128   0.733   2.803  13.885  0.8303  0.1467  0.7583
 2890SOL    HW120129   0.798   2.745  13.926  0.8872 -1.3908 -1.5153
 2890SOL    HW220130   0.680   2.838  13.957 -1.4566  0.2171 -0.9845
 2891SOL     OW20131   0.705   0.552   7.640  0.2482 -0.7029 -0.3263
 2891SOL    HW120132   0.653   0.475   7.621 -0.2060 -0.6315  0.6353
 2891SOL    HW220133   0.795   0.522   7.644  0.2851 -0.5150  0.1987
 2892SOL     OW20134   1.268   1.631   8.245  0.1144  0.1998 -0.0598
 2892SOL    HW120135   1.195   1.608   8.303 -0.1570  0.2835 -0.3708
 2892SOL    HW220136   1.341   1.579   8.278  0.6025 -1.3563 -3.5541
 2893SOL     OW20137   0.288   3.928   2.294 -0.0437 -0.1184 -0.1374
 2893SOL    HW120138   0.383   3.927   2.286  0.0583 -0.8099  1.2896
 2893SOL    HW220139   0.286   3.997   2.360  0.2861  0.5311 -0.8035
 2894SOL     OW20140   3.270   0.515   4.980 -0.1376 -0.4696  0.1770
 2894SOL    HW120141   3.333   0.446   4.958  0.0300  0.1579 -1.3167
 2894SOL    HW220142   3.320   0.573   5.039 -0.4448 -0.6269  0.5903
 2895SOL     OW20143   3.302   2.574   8.014  0.3448  0.0084 -0.5343
 2895SOL    HW120144   3.233   2.530   7.964 -1.3129  2.4087 -0.3409
 2895SOL    HW220145   3.360   2.597   7.942 -0.1255 -0.2288 -0.9896
 2896SOL     OW20146   2.014   3.497   0.612  0.0650  0.2313 -0.3070
 2896SOL    HW120147   2.065   3.498   0.693 -0.7537 -3.4567  0.2890
 2896SOL    HW220148   1.938   3.446   0.641 -0.6779  0.5037 -1.7617
 2897SOL     OW20149   4.352   3.482  12.239  0.4673 -0.0754  0.7750
 2897SOL    HW120150   4.366   3.471  12.333  0.8707 -0.2085  0.6963
 2897SOL    HW220151   4.291   3.555  12.240  1.1555  0.4825  1.6411
 2898SOL     OW20152   4.221   4.220   3.579  0.3690  0.6796 -0.0277
 2898SOL    HW120153   4.314   4.212   3.561  0.1216 -0.3884 -0.9114
 2898SOL    HW220154   4.193   4.131   3.554 -1.1193  0.9445  0.6968
 2899SOL     OW20155   2.016   3.128   2.861  0.0711 -0.5284 -0.0614
 2899SOL    HW120156   1.939   3.146   2.916  0.7757  0.5990  0.5696
 2899SOL    HW220157   2.080   3.176   2.915  0.1506 -0.5532 -0.1352
 2900SOL     OW20158   2.866   2.210  14.861 -0.0217 -0.0166 -0.1972
 2900SOL    HW120159   2.942   2.185  14.809  0.9891 -2.1693  2.3206
 2900SOL    HW220160   2.908   2.278  14.913  1.8689 -1.3379 -0.0226
 2901SOL     OW20161   0.936   1.828  15.770  0.0166  0.0781 -0.7659
 2901SOL    HW120162   0.871   1.826  15.700 -0.2423 -3.6650 -0.4209
 2901SOL    HW220163   1.002   1.767  15.735  0.8538  0.3941  0.2673
 2902SOL     OW20164   1.221   0.876   3.250  0.5603 -0.6639 -0.5616
 2902SOL    HW120165   1.268   0.864   3.168 -2.0113  2.0670 -2.4446
 2902SOL    HW220166   1.175   0.793   3.242  0.8621 -1.0136  1.2408
 2903SOL     OW20167   2.893   3.420   4.389  0.1447 -0.5662  0.2834
 2903SOL    HW120168   2.985   3.442   4.402 -0.8484  4.1413 -0.5536
 2903SOL    HW220169   2.858   3.466   4.466 -2.3518  0.7752 -1.6547
 2904SOL     OW20170   0.697   3.011   4.951 -0.4543  0.1109 -0.1942
 2904SOL    HW120171   0.713   3.047   4.863 -2.4064  0.7767 -0.2818
 2904SOL    HW220172   0.747   2.930   4.954 -2.9652 -1.3737  1.0240
 2905SOL     OW20173   1.884   2.625   6.805  0.5779  0.2397  0.1870
 2905SOL    HW120174   1.929   2.645   6.887 -1.3713  1.4530  0.9392
 2905SOL    HW220175   1.800   2.606   6.846 -0.2815  1.7574 -0.8871
 2906SOL     OW20176   2.876   2.484  11.348 -0.1184 -0.1103 -0.4487
 2906SOL    HW120177   2.876   2.566  11.397  2.0314 -0.7718  0.6563
 2906SOL    HW220178   2.801   2.503  11.292 -1.5259  0.2786  1.5602
 2907SOL     OW20179   1.946   2.146   7.875  0.5295 -0.5281  0.3589
 2907SOL    HW120180   1.923   2.144   7.968  0.5079 -1.2438  0.3423
 2907SOL    HW220181   1.925   2.053   7.860  0.5675 -0.1742 -1.9338
 2908SOL     OW20182   2.775   3.509   4.158  0.1165 -0.4192  0.3443
 2908SOL    HW120183   2.830   3.472   4.226  0.8210 -1.1467 -0.6260
 2908SOL    HW220184   2.692   3.462   4.169 -0.1219 -0.0052  0.3519
 2909SOL     OW20185   3.093   3.761   8.100 -0.0616  0.5472 -0.1905
 2909SOL    HW120186   3.106   3.816   8.022  1.1322  0.8454  0.2102
 2909SOL    HW220187   3.057   3.676   8.077 -0.6091  1.2068 -1.7897
 2910SOL     OW20188   2.366   4.214   8.521 -0.3741  0.0531 -0.0511
 2910SOL    HW120189   2.372   4.178   8.609 -3.5344  1.4100  0.7165
 2910SOL    HW220190   2.450   4.190   8.482  0.2629  2.3063 -0.0934
 2911SOL     OW20191   1.350   2.605   2.290 -0.3759  0.2456  0.4895
 2911SOL    HW120192   1.395   2.567   2.365  1.1017  1.5016  0.2166
 2911SOL    HW220193   1.271   2.652   2.318  0.6242 -0.1530  3.9639
 2912SOL     OW20194   4.440   1.989   6.900  0.0277  0.2120 -0.2892
 2912SOL    HW120195   4.348   1.989   6.875  0.1873 -5.3528 -0.8136
 2912SOL    HW220196   4.485   1.968   6.818 -0.0815  3.8456 -1.2721
 2913SOL     OW20197   1.513   4.008   8.521 -0.3849  0.4975  0.2971
 2913SOL    HW120198   1.600   3.971   8.530 -0.1221  1.4159  1.4696
 2913SOL    HW220199   1.487   4.002   8.613  0.9741 -0.6872  0.6080
 2914SOL     OW20200   2.606   0.941  12.735  0.2242  0.2119  0.2775
 2914SOL    HW120201   2.658   1.019  12.753 -0.9853  0.8558  1.0189
 2914SOL    HW220202   2.542   0.960  12.667 -2.2687 -1.9830  1.9561
 2915SOL     OW20203   2.099   0.284   2.833  0.4022  0.1334  0.1049
 2915SOL    HW120204   2.074   0.296   2.924 -0.4237  0.8789 -0.2167
 2915SOL    HW220205   2.037   0.338   2.783 -1.6161 -2.4950 -0.2607
 2916SOL     OW20206   0.244   2.908   7.784 -0.4386  0.6886 -0.0976
 2916SOL    HW120207   0.255   2.999   7.813  1.0317  0.3811  0.3032
 2916SOL    HW220208   0.312   2.867   7.836  0.3160  2.2208  0.1275
 2917SOL     OW20209   0.454   3.683   2.533  0.4587  0.2583  0.4619
 2917SOL    HW120210   0.544   3.716   2.529  1.5627 -2.4284  2.8196
 2917SOL    HW220211   0.452   3.634   2.615 -0.2204 -0.0005  0.2933
 2918SOL     OW20212   0.942   0.778   6.013  0.6067 -0.2104 -0.4635
 2918SOL    HW120213   0.958   0.804   5.922  0.0780  0.0179 -0.4922
 2918SOL    HW220214   0.852   0.748   5.997  0.1653  0.1130  1.4365
 2919SOL     OW20215   3.520   1.744   0.917 -0.5526 -0.3633  0.1182
 2919SOL    HW120216   3.466   1.817   0.885 -1.2335 -0.8804  0.0863
 2919SOL    HW220217   3.448   1.693   0.953 -0.7815  1.3216  2.0073
 2920SOL     OW20218   0.851   0.157  17.566  0.5386 -0.0171  0.1283
 2920SOL    HW120219   0.903   0.105  17.627  1.9706 -1.0436 -1.9718
 2920SOL    HW220220   0.771   0.105  17.550  1.3168 -0.6971 -1.5953
 2921SOL     OW20221   1.415   3.304   8.379 -0.8322  0.0525 -0.0606
 2921SOL    HW120222   1.463   3.384   8.402  0.2944 -0.6952  0.1995
 2921SOL    HW220223   1.328   3.343   8.369 -2.1354 -2.6269  0.9647
 2922SOL     OW20224   2.485   3.766   8.544 -0.2971 -0.3342 -0.1803
 2922SOL    HW120225   2.422   3.734   8.480 -0.7903  2.3182 -1.0189
 2922SOL    HW220226   2.521   3.681   8.568  2.1351  0.3848 -1.3096
 2923SOL     OW20227   0.794   1.563   6.575 -0.2348  0.1141  0.4688
 2923SOL    HW120228   0.723   1.591   6.633  2.0042  0.3094  3.1535
 2923SOL    HW220229   0.858   1.524   6.635  2.1154  1.4281 -1.1905
 2924SOL     OW20230   3.071   1.259   9.010 -0.7541  0.1010 -0.2938
 2924SOL    HW120231   3.013   1.288   8.940 -2.7546 -0.1817  1.2464
 2924SOL    HW220232   3.004   1.256   9.079  0.7879  0.1477  1.2052
 2925SOL     OW20233   0.832   4.323   4.888 -0.5571  0.2030 -0.9099
 2925SOL    HW120234   0.861   4.338   4.798  0.6118  1.0995 -0.3839
 2925SOL    HW220235   0.875   4.393   4.938  1.3982 -1.9675  0.4559
 2926SOL     OW20236   1.551   3.190   5.375  0.9834  0.0669  0.3469
 2926SOL    HW120237   1.591   3.232   5.299  0.6067 -0.6435 -0.2335
 2926SOL    HW220238   1.539   3.100   5.346  2.6996 -0.7287  2.0942
 2927SOL     OW20239   1.244   3.100   3.981 -0.5064 -0.0140  0.2279
 2927SOL    HW120240   1.337   3.121   3.976 -0.1674 -1.6333 -0.3718
 2927SOL    HW220241   1.243   3.013   4.022  0.3620  0.5513  1.4477
 2928SOL     OW20242   2.657   3.100   0.967 -0.0934 -0.1897  0.6530
 2928SOL    HW120243   2.611   3.184   0.967 -0.2557 -0.2673 -2.1089
 2928SOL    HW220244   2.742   3.131   0.997  0.1058 -0.1565  0.0684
 2929SOL     OW20245   3.495   3.019   4.010  0.8317 -0.1425 -0.3877
 2929SOL    HW120246   3.564   2.953   4.006 -0.8991 -1.9711 -0.7721
 2929SOL    HW220247   3.413   2.970   3.998  0.6711  0.0041  0.1309
 2930SOL     OW20248   0.492   1.865   5.521 -0.2691 -0.1096  0.3409
 2930SOL    HW120249   0.427   1.931   5.543 -1.8280 -1.8307  0.8256
 2930SOL    HW220250   0.520   1.908   5.440 -2.8063 -1.6782 -1.3599
 2931SOL     OW20251   2.472   2.250   8.909  0.2731 -0.3043 -0.6732
 2931SOL    HW120252   2.533   2.254   8.835 -1.2394  0.9590 -1.8390
 2931SOL    HW220253   2.467   2.157   8.929  1.1989 -0.5109 -1.4236
 2932SOL     OW20254   2.174   0.490   4.419  0.1535  0.4404 -0.6588
 2932SOL    HW120255   2.223   0.421   4.463  2.3612  2.2363 -0.3113
 2932SOL    HW220256   2.228   0.564   4.448  0.4016  0.5698 -1.4465
 2933SOL     OW20257   3.688   3.534   1.066  0.6062  0.7147  0.3439
 2933SOL    HW120258   3.760   3.589   1.098  0.4475  2.3248 -2.0434
 2933SOL    HW220259   3.671   3.573   0.980 -0.2599 -0.4572 -0.0078
 2934SOL     OW20260   2.084   4.481   1.079  0.5362  0.4782 -0.4378
 2934SOL    HW120261   2.036   4.527   1.009  2.1886 -0.8446 -2.4261
 2934SOL    HW220262   2.154   4.543   1.101  0.8468  0.0603 -0.2520
 2935SOL     OW20263   3.400   1.257   2.530  0.9349 -0.5671 -0.6394
 2935SOL    HW120264   3.389   1.183   2.471 -0.4604 -0.1801 -0.8520
 2935SOL    HW220265   3.492   1.248   2.557  0.7600 -2.3786 -0.6562
 2936SOL     OW20266   3.940   0.780  12.082  0.1350 -0.3541 -0.1827
 2936SOL    HW120267   3.986   0.768  12.165  1.5442  0.3063 -0.8685
 2936SOL    HW220268   3.877   0.709  12.092 -0.7950  0.7538  1.7914
 2937SOL     OW20269   3.570   0.275   3.970 -0.0905  0.2689  0.0395
 2937SOL    HW120270   3.635   0.300   3.905  0.7745  0.6835  1.0606
 2937SOL    HW220271   3.528   0.198   3.932  1.8098 -0.4263 -0.6574
 2938SOL     OW20272   2.760   1.144   9.975  0.0733 -0.0831 -0.6326
 2938SOL    HW120273   2.675   1.175   9.944 -0.4398 -0.5615  0.3207
 2938SOL    HW220274   2.747   1.049   9.976 -0.3133 -0.0441 -1.8354
 2939SOL     OW20275   4.144   3.438   7.868  0.0824  0.4038 -0.0283
 2939SOL    HW120276   4.197   3.459   7.945 -2.2201  2.3326  1.0108
 2939SOL    HW220277   4.058   3.448   7.907 -0.4902 -2.4745 -0.5727
 2940SOL     OW20278   2.504   4.622   3.956  0.4147  0.4937  0.1707
 2940SOL    HW120279   2.508   4.599   4.049 -2.2966 -0.3919  0.0790
 2940SOL    HW220280   2.411   4.641   3.949  0.3049 -0.3523 -0.7309
 2941SOL     OW20281   3.147   0.535   9.378  1.1478 -0.7406 -0.3305
 2941SOL    HW120282   3.236   0.544   9.344  1.1328  0.7386  0.0130
 2941SOL    HW220283   3.153   0.459   9.437 -0.9109 -0.4114  0.3303
 2942SOL     OW20284   3.924   2.889   7.563  0.3535 -0.6821 -0.0723
 2942SOL    HW120285   3.885   2.845   7.488  0.0977  0.3972 -0.5673
 2942SOL    HW220286   4.002   2.934   7.531 -1.4941  1.4715 -1.4598
 2943SOL     OW20287   0.800   0.787   7.164 -0.1014  0.3279  0.4215
 2943SOL    HW120288   0.740   0.807   7.092  0.4700  0.3698 -0.0390
 2943SOL    HW220289   0.780   0.696   7.185 -0.9995  0.3640 -0.2681
 2944SOL     OW20290   4.530   3.008  12.715  0.2056 -0.1842  0.7846
 2944SOL    HW120291   4.573   2.927  12.743 -0.5747 -0.8258  0.1306
 2944SOL    HW220292   4.539   3.000  12.620 -0.2705  3.2060  0.4637
 2945SOL     OW20293   4.379   3.254  14.252 -0.1626 -0.5380 -0.1012
 2945SOL    HW120294   4.381   3.222  14.162  1.7575  1.1407 -0.6557
 2945SOL    HW220295   4.472   3.269  14.270  0.0087  1.1373 -2.3668
 2946SOL     OW20296   1.669   1.184   5.011  0.0194 -0.4429  0.3078
 2946SOL    HW120297   1.640   1.144   5.093  0.9261  0.9732  1.3250
 2946SOL    HW220298   1.672   1.278   5.031 -0.8710 -0.2153 -0.6088
 2947SOL     OW20299   1.487   3.001  12.075  0.3904 -0.1262  0.2975
 2947SOL    HW120300   1.542   3.036  12.145  0.0450 -0.3482  0.6814
 2947SOL    HW220301   1.493   2.906  12.081  2.1645 -0.0161  0.2628
 2948SOL     OW20302   4.378   2.939   2.214 -0.0614 -0.1099  0.0415
 2948SOL    HW120303   4.469   2.958   2.237  0.3196  0.3863 -1.8311
 2948SOL    HW220304   4.382   2.968   2.123 -3.2063  3.2231  1.0029
 2949SOL     OW20305   1.512   3.033   8.617 -0.0399  0.4476 -0.4427
 2949SOL    HW120306   1.430   3.057   8.661  0.0992  0.6523 -0.2894
 2949SOL    HW220307   1.559   3.110   8.651 -0.0190  0.8524 -1.3981
 2950SOL     OW20308   2.801   4.012  11.765 -0.0729  0.4066 -1.0218
 2950SOL    HW120309   2.790   3.966  11.683  1.1136 -0.8923 -0.4466
 2950SOL    HW220310   2.733   4.078  11.749  1.3012  1.4567 -2.5370
 2951SOL     OW20311   3.053   0.468  17.626 -0.0825  0.1680 -0.5446
 2951SOL    HW120312   3.061   0.380  17.661 -1.5535 -0.4528 -1.7923
 2951SOL    HW220313   2.964   0.489  17.656 -0.9114 -0.9266 -2.2788
 2952SOL     OW20314   2.167   0.044   3.736 -0.0066 -0.2303  0.4807
 2952SOL    HW120315   2.107   0.117   3.747 -0.7326 -0.7579  0.0920
 2952SOL    HW220316   2.124   4.720   3.663  1.3757 -1.2927  0.3176
 2953SOL     OW20317   3.994   1.163   3.183 -0.2272 -0.1580 -0.1123
 2953SOL    HW120318   3.946   1.216   3.247 -0.9991 -2.1080  0.9347
 2953SOL    HW220319   3.987   1.083   3.235 -0.2543  1.3446  2.2182
 2954SOL     OW20320   1.030   3.204   8.403 -0.2789 -0.0065  0.1764
 2954SOL    HW120321   1.082   3.284   8.395 -0.4978 -0.0014 -1.1242
 2954SOL    HW220322   1.013   3.198   8.497  1.0589  0.5443  0.4486
 2955SOL     OW20323   1.444   2.683   1.312 -0.3891  0.4319  0.0859
 2955SOL    HW120324   1.349   2.670   1.308 -0.3876  0.8534 -1.3517
 2955SOL    HW220325   1.471   2.618   1.377  3.8460  1.6792 -0.4700
 2956SOL     OW20326   2.475   1.496   1.249  0.4666  0.4396 -0.0106
 2956SOL    HW120327   2.555   1.455   1.282 -1.1010 -0.1720  3.0282
 2956SOL    HW220328   2.514   1.573   1.208  0.5900  0.8269  0.8335
 2957SOL     OW20329   0.835   0.195   4.520 -0.0617  0.2994 -0.3909
 2957SOL    HW120330   0.912   0.163   4.567 -1.1560 -1.6318  0.0716
 2957SOL    HW220331   0.860   0.283   4.492 -0.1847  0.6993  0.7590
 2958SOL     OW20332   2.467   2.585  11.047 -0.3189  0.1088 -0.2011
 2958SOL    HW120333   2.479   2.584  10.953 -0.9462  1.7862 -0.2926
 2958SOL    HW220334   2.445   2.495  11.072  0.3625 -0.6166 -2.2719
 2959SOL     OW20335   4.085   0.604  16.000 -0.0615  0.2048  0.3051
 2959SOL    HW120336   4.061   0.644  16.084  2.7026  0.9576  0.7061
 2959SOL    HW220337   4.153   0.666  15.974 -0.0013 -0.1936 -0.4821
 2960SOL     OW20338   0.766   0.138  10.229 -0.3705  0.0683 -0.1935
 2960SOL    HW120339   0.740   0.218  10.275  0.6634 -0.7456  1.7889
 2960SOL    HW220340   0.860   0.135  10.244 -0.0704  0.1324 -2.0694
 2961SOL     OW20341   3.311   2.608   5.045 -0.7188 -0.0343 -0.6272
 2961SOL    HW120342   3.276   2.532   5.091  3.6635 -0.5591  1.8591
 2961SOL    HW220343   3.230   2.658   5.037 -0.4372  0.3159 -1.2917
 2962SOL     OW20344   3.484   3.031   1.184 -0.4089  0.1442  0.0418
 2962SOL    HW120345   3.488   3.052   1.090  1.4101 -1.9251 -0.3478
 2962SOL    HW220346   3.505   2.937   1.182 -2.0269 -0.2073 -0.6698
 2963SOL     OW20347   0.200   3.351   3.548 -0.0392  0.2088  0.2116
 2963SOL    HW120348   0.166   3.318   3.632  0.2473 -0.4410  0.0641
 2963SOL    HW220349   0.292   3.329   3.558  0.1569  0.4709 -1.0822
 2964SOL     OW20350   2.346   3.402  13.544  0.4656 -0.2509 -0.5412
 2964SOL    HW120351   2.285   3.465  13.583  0.3888  0.3620 -1.6530
 2964SOL    HW220352   2.398   3.455  13.484  1.0025  0.9161  0.9441
 2965SOL     OW20353   4.599   3.304   8.718  0.2569  0.0581 -0.0922
 2965SOL    HW120354   4.670   3.242   8.705  1.6692  1.6908 -0.2448
 2965SOL    HW220355   4.544   3.288   8.640 -0.0130  1.7669 -0.2729
 2966SOL     OW20356   1.360   4.277   7.081 -0.5607  0.1532  0.0570
 2966SOL    HW120357   1.337   4.276   6.988  0.2779  0.1461 -0.1512
 2966SOL    HW220358   1.365   4.182   7.093  0.6247  0.4799  1.9870
 2967SOL     OW20359   1.407   3.686   8.640 -0.3431  0.3286 -0.4592
 2967SOL    HW120360   1.482   3.712   8.694  1.2494 -3.2208 -1.0005
 2967SOL    HW220361   1.337   3.749   8.655 -0.2851  0.4099 -0.5306
 2968SOL     OW20362   2.526   3.037   2.777  0.0767  0.6221 -0.4823
 2968SOL    HW120363   2.467   3.000   2.843 -0.0827  3.3715  0.9103
 2968SOL    HW220364   2.570   2.957   2.747 -1.0685  0.3359 -1.4267
 2969SOL     OW20365   2.688   3.433   6.467 -0.6073  0.1040  0.1180
 2969SOL    HW120366   2.630   3.372   6.512 -0.7664  0.5891  0.5678
 2969SOL    HW220367   2.770   3.406   6.509 -1.3361 -0.8209  0.9440
 2970SOL     OW20368   0.068   4.307   2.672  0.5227  0.2638  0.0930
 2970SOL    HW120369   0.020   4.227   2.649  2.2150 -0.4477 -0.9664
 2970SOL    HW220370   0.095   4.339   2.586  0.8267  1.3424  0.5825
 2971SOL     OW20371   4.573   0.124   6.366  0.1518  0.4135  0.1173
 2971SOL    HW120372   4.606   0.066   6.435 -3.9742 -1.1143  0.8356
 2971SOL    HW220373   4.533   0.060   6.307 -0.0539  0.0587  0.6354
 2972SOL     OW20374   3.846   2.982   5.641  0.2939 -0.3137 -0.4021
 2972SOL    HW120375   3.829   2.888   5.644 -0.2613 -0.3216 -3.7717
 2972SOL    HW220376   3.822   2.990   5.548  1.8312 -1.2489 -0.8753
 2973SOL     OW20377   3.591   2.693  17.385 -0.3848  0.0215 -1.1954
 2973SOL    HW120378   3.561   2.605  17.410 -1.5338  1.1044  1.1295
 2973SOL    HW220379   3.662   2.699  17.448 -1.4816  1.7075 -0.1336
 2974SOL     OW20380   4.544   0.511   8.426 -0.1761  0.1472 -0.3204
 2974SOL    HW120381   4.602   0.572   8.381  0.6061 -1.1968 -1.1153
 2974SOL    HW220382   4.612   0.488   8.489  1.7021  2.1476 -1.6491
 2975SOL     OW20383   2.084   2.463   8.629 -0.0379 -0.3915  0.3161
 2975SOL    HW120384   2.016   2.413   8.583 -1.6054  0.9493  1.1751
 2975SOL    HW220385   2.114   2.398   8.692 -0.4084 -0.2283  0.6613
 2976SOL     OW20386   0.499   0.084  10.748 -0.2593 -0.5181  0.2400
 2976SOL    HW120387   0.520   0.171  10.713  0.5190  0.2213  2.5466
 2976SOL    HW220388   0.404   0.091  10.756 -0.4473 -0.5752 -1.8983
 2977SOL     OW20389   3.057   3.904  10.718 -0.1807  0.0039  0.2759
 2977SOL    HW120390   3.043   3.916  10.812  0.2380 -0.2565  0.3654
 2977SOL    HW220391   3.039   3.811  10.710  0.8816  0.0197 -2.1929
 2978SOL     OW20392   1.521   3.050   5.640  0.1455  0.2773  0.6306
 2978SOL    HW120393   1.472   3.099   5.574 -0.8435 -0.3580  0.8992
 2978SOL    HW220394   1.441   3.000   5.660 -0.8617  0.6868 -2.3413
 2979SOL     OW20395   3.978   1.764   0.788  0.2448 -0.3747  0.3678
 2979SOL    HW120396   4.028   1.688   0.760  0.1664  0.1973 -1.3151
 2979SOL    HW220397   4.028   1.837   0.751 -2.2846  1.1329 -0.0565
 2980SOL     OW20398   3.151   0.357  12.711 -0.2002 -0.5992 -0.0552
 2980SOL    HW120399   3.166   0.412  12.788  0.1061  2.6797 -2.4263
 2980SOL    HW220400   3.082   0.400  12.661 -0.5212 -0.8821  0.1486
 2981SOL     OW20401   3.772   0.850   5.960  0.0986 -0.3051  0.2652
 2981SOL    HW120402   3.815   0.765   5.958 -0.7174 -0.6960 -0.7343
 2981SOL    HW220403   3.843   0.911   5.982  0.2841 -1.1126  1.9354
 2982SOL     OW20404   2.793   1.842  15.875 -0.0496  0.6306 -0.2697
 2982SOL    HW120405   2.824   1.777  15.938 -0.5763 -0.1465 -0.8250
 2982SOL    HW220406   2.702   1.815  15.862  0.3133  0.1024 -1.7228
 2983SOL     OW20407   4.492   1.336   4.348 -0.8021  0.0090 -0.8289
 2983SOL    HW120408   4.542   1.404   4.304  1.0540 -0.5102  0.4995
 2983SOL    HW220409   4.559   1.269   4.363  0.7559  1.2253 -2.3480
 2984SOL     OW20410   4.044   4.480   1.143 -0.2923 -0.2182 -0.4119
 2984SOL    HW120411   4.108   4.533   1.189 -1.3300  1.1715 -0.5887
 2984SOL    HW220412   4.102   4.413   1.105  0.3821  0.7855 -1.1334
 2985SOL     OW20413   2.728   3.875   7.515 -0.3650  1.2342  0.3662
 2985SOL    HW120414   2.790   3.809   7.483 -0.8196  0.5562  0.8867
 2985SOL    HW220415   2.662   3.822   7.558 -0.5869  3.0438  2.2776
 2986SOL     OW20416   1.620   4.551  11.254  0.0238 -0.2367  0.5035
 2986SOL    HW120417   1.621   4.630  11.200 -1.9277  0.3531  1.3379
 2986SOL    HW220418   1.618   4.599  11.337 -0.2647  0.5899  0.0124
 2987SOL     OW20419   1.816   0.357   5.230 -0.5484 -0.1352 -0.7072
 2987SOL    HW120420   1.783   0.297   5.164 -1.8656 -1.7218  1.3866
 2987SOL    HW220421   1.862   0.297   5.289  0.5017  1.0937 -0.2866
 2988SOL     OW20422   4.300   2.530   0.462  0.4388 -0.0030 -0.0096
 2988SOL    HW120423   4.329   2.584   0.388  0.5449  0.5855  0.4677
 2988SOL    HW220424   4.325   2.588   0.534  1.7122  1.2771 -1.4773
 2989SOL     OW20425   4.359   4.268   2.317  0.3423 -0.0574 -0.1414
 2989SOL    HW120426   4.426   4.208   2.349 -0.2752 -1.1475 -0.8982
 2989SOL    HW220427   4.374   4.340   2.378 -0.7069 -1.2615  1.5488
 2990SOL     OW20428   3.066   2.923  10.575 -0.1871 -0.7775 -0.1233
 2990SOL    HW120429   3.022   3.001  10.610  2.0046  0.0642  0.7517
 2990SOL    HW220430   3.105   2.892  10.657 -1.9633 -1.3914  0.5058
 2991SOL     OW20431   1.088   0.308  14.441 -0.2092 -0.7072  0.7104
 2991SOL    HW120432   0.997   0.283  14.426  0.1455 -1.1275 -0.7098
 2991SOL    HW220433   1.091   0.332  14.533 -0.8540 -0.7474  0.7435
 2992SOL     OW20434   3.828   0.410   9.585 -0.3668  0.0346  0.1952
 2992SOL    HW120435   3.887   0.453   9.648 -0.4144 -1.5395  1.3216
 2992SOL    HW220436   3.882   0.337   9.554 -0.9738 -1.5852  2.9293
 2993SOL     OW20437   0.483   2.263   6.803  0.0906  0.8377 -0.3513
 2993SOL    HW120438   0.524   2.237   6.886 -3.4455  0.5087  1.3037
 2993SOL    HW220439   0.514   2.352   6.784  3.1700 -0.1940 -0.1223
 2994SOL     OW20440   0.791   2.575   6.540 -0.1555 -0.1178 -0.0294
 2994SOL    HW120441   0.765   2.545   6.453 -0.0544 -1.9081  0.5613
 2994SOL    HW220442   0.877   2.533   6.545 -1.1615 -2.1193  0.4887
 2995SOL     OW20443   3.416   1.082   3.155 -0.0433 -0.7153  0.1717
 2995SOL    HW120444   3.448   1.071   3.244  0.9484 -1.0750 -0.2298
 2995SOL    HW220445   3.476   1.026   3.105 -1.2886 -1.0972 -0.8985
 2996SOL     OW20446   4.597   0.655  13.692  0.4467 -0.2286  0.2520
 2996SOL    HW120447   4.590   0.566  13.657 -3.0554  0.8158 -1.5827
 2996SOL    HW220448   4.506   0.680  13.707  0.8384  1.0118  0.5820
 2997SOL     OW20449   4.058   1.721  12.968 -0.0782 -0.1456  0.3654
 2997SOL    HW120450   4.107   1.791  13.012 -0.2501  1.2837 -1.7449
 2997SOL    HW220451   4.062   1.749  12.877  1.1419  0.3109  0.5651
 2998SOL     OW20452   1.696   1.477   2.852  0.2143 -0.8730 -0.2679
 2998SOL    HW120453   1.761   1.436   2.794  2.7516 -0.8266  2.5572
 2998SOL    HW220454   1.661   1.400   2.898 -3.1735  0.5180 -0.5190
 2999SOL     OW20455   3.616   4.282   8.374 -0.4263 -0.1732 -0.3679
 2999SOL    HW120456   3.651   4.249   8.457 -2.2395 -0.4291  0.3023
 2999SOL    HW220457   3.554   4.346   8.409 -0.8927 -0.1811 -1.1897
 3000SOL     OW20458   0.614   0.698   4.999  0.1505 -0.8360  0.0929
 3000SOL    HW120459   0.599   0.627   4.936 -2.5954 -0.1559  0.0056
 3000SOL    HW220460   0.531   0.705   5.045  0.1638  2.4261 -0.4187
 3001SOL     OW20461   1.986   4.625   4.048 -0.1732 -0.0474  0.3311
 3001SOL    HW120462   1.908   4.614   3.993  0.1927 -4.5854  0.7186
 3001SOL    HW220463   1.983   4.713   4.084 -4.2086  0.4327 -1.1802
 3002SOL     OW20464   1.144   1.673   2.867 -0.2005  0.0973  0.4976
 3002SOL    HW120465   1.203   1.735   2.910 -0.6534  0.2553  0.8982
 3002SOL    HW220466   1.208   1.603   2.855 -1.4781 -0.4829 -2.9331
 3003SOL     OW20467   3.543   2.033   4.383 -0.1931  0.1402  0.0860
 3003SOL    HW120468   3.619   1.980   4.409 -0.9994 -0.3579  1.3836
 3003SOL    HW220469   3.518   1.968   4.317  0.2759 -0.1273  0.1708
 3004SOL     OW20470   1.383   1.787  13.390 -0.3303 -0.0453 -0.3554
 3004SOL    HW120471   1.396   1.697  13.357 -0.3163  0.2133 -1.0601
 3004SOL    HW220472   1.424   1.776  13.476  1.6819 -0.6064 -1.3720
 3005SOL     OW20473   3.607   0.994   6.690  0.2977  0.4280  1.2439
 3005SOL    HW120474   3.665   0.947   6.630  0.2067  1.9079 -0.0104
 3005SOL    HW220475   3.607   1.081   6.652 -0.2087 -0.5602 -1.0269
 3006SOL     OW20476   2.326   1.560   7.506  0.3957 -0.0983  0.0432
 3006SOL    HW120477   2.252   1.598   7.553 -0.4645 -1.1679 -0.4348
 3006SOL    HW220478   2.404   1.597   7.546 -0.6143  1.5203  0.5491
 3007SOL     OW20479   2.893   0.793  13.677  0.5240 -0.3714  0.1929
 3007SOL    HW120480   2.898   0.773  13.770  1.9824 -2.5391 -0.3601
 3007SOL    HW220481   2.988   0.788  13.660  0.4728  3.4554 -1.1813
 3008SOL     OW20482   3.020   0.620   9.675 -0.6388  0.0016 -0.3136
 3008SOL    HW120483   2.965   0.673   9.732  2.8239  3.6612 -0.3663
 3008SOL    HW220484   2.983   0.534   9.697 -1.9401  0.2725 -1.4670
 3009SOL     OW20485   2.329   0.590   6.839 -0.5671  0.5872 -0.2976
 3009SOL    HW120486   2.408   0.620   6.885  0.4113 -0.0700 -1.5428
 3009SOL    HW220487   2.374   0.580   6.755 -1.2467 -1.5719 -0.4015
 3010SOL     OW20488   4.050   0.626   8.102 -0.4218 -0.2217  0.1964
 3010SOL    HW120489   4.140   0.659   8.093 -1.4761  3.0236  1.6387
 3010SOL    HW220490   3.993   0.702   8.095  1.2841  1.0713  0.3538
 3011SOL     OW20491   3.385   2.041  13.686 -0.1262  0.1999 -0.6203
 3011SOL    HW120492   3.361   2.012  13.598  2.2516  0.6974 -1.4433
 3011SOL    HW220493   3.339   1.977  13.740  3.0340 -0.8511  0.8380
 3012SOL     OW20494   2.136   1.228   6.998 -1.0613  0.1300 -0.2947
 3012SOL    HW120495   2.196   1.294   6.965 -1.1291 -0.2239 -1.1246
 3012SOL    HW220496   2.054   1.268   6.970 -1.6100 -0.9796 -0.2932
 3013SOL     OW20497   0.416   0.087   4.569 -0.0978 -0.3878  0.1797
 3013SOL    HW120498   0.322   0.106   4.570  0.1195  0.6410  1.0260
 3013SOL    HW220499   0.417   0.006   4.518 -1.1546 -0.9448  1.0562
 3014SOL     OW20500   2.402   3.068   5.699  0.0304 -0.2563 -0.5103
 3014SOL    HW120501   2.486   3.032   5.727 -0.0562  1.3916  1.8121
 3014SOL    HW220502   2.396   3.152   5.743 -0.5481 -0.7365  0.3086
 3015SOL     OW20503   2.361   4.654   7.360  0.3848  0.6363 -0.0762
 3015SOL    HW120504   2.267   4.650   7.342  0.5042 -0.7896 -0.3253
 3015SOL    HW220505   2.371   0.028   7.353 -0.4170  0.6547 -0.9392
 3016SOL     OW20506   1.845   0.903   5.140  0.2977 -0.3580  0.3043
 3016SOL    HW120507   1.793   0.879   5.064  1.4802 -0.0163 -0.6159
 3016SOL    HW220508   1.850   0.816   5.180 -1.1525  0.2770  1.8965
 3017SOL     OW20509   4.493   2.064   7.286  0.2192 -0.0782 -0.6029
 3017SOL    HW120510   4.460   1.991   7.338  0.6900 -0.0568 -0.2734
 3017SOL    HW220511   4.510   2.109   7.369  0.6609 -0.7432 -0.3369
 3018SOL     OW20512   0.430   2.424   7.544  0.0247 -0.1337 -0.4291
 3018SOL    HW120513   0.363   2.446   7.478  0.5951  0.0251 -0.9543
 3018SOL    HW220514   0.503   2.447   7.487  1.5726 -1.5886  0.9944
 3019SOL     OW20515   1.283   0.486  16.004  0.1452  0.2330  0.9308
 3019SOL    HW120516   1.258   0.578  15.992 -0.3977  0.2155  1.9254
 3019SOL    HW220517   1.376   0.501  16.021 -0.5684  3.2766  2.2153
 3020SOL     OW20518   3.728   2.622   1.755 -0.2081 -0.2251 -0.3959
 3020SOL    HW120519   3.664   2.623   1.827  1.0931  1.1138  0.7475
 3020SOL    HW220520   3.714   2.541   1.706  0.7099  0.4022 -1.6907
 3021SOL     OW20521   1.464   2.301  15.307  0.0005  0.1265 -0.1473
 3021SOL    HW120522   1.386   2.335  15.265 -0.1022  0.7088  0.5043
 3021SOL    HW220523   1.529   2.366  15.279 -0.7860  1.3199  0.8162
 3022SOL     OW20524   1.459   2.775  11.705  0.0845 -0.2559 -0.7647
 3022SOL    HW120525   1.392   2.803  11.767 -1.2328 -1.8133 -1.4867
 3022SOL    HW220526   1.493   2.858  11.672 -0.2452 -0.1403 -0.8118
 3023SOL     OW20527   1.462   1.179   5.712  0.2974  0.5643 -0.0169
 3023SOL    HW120528   1.516   1.256   5.698  1.7912 -0.5279 -0.1818
 3023SOL    HW220529   1.401   1.186   5.638 -0.2626 -2.7377  0.1394
 3024SOL     OW20530   2.065   0.677   5.025 -0.2258  0.2971 -0.1362
 3024SOL    HW120531   2.132   0.611   5.007 -1.8117 -1.7162  1.4036
 3024SOL    HW220532   2.025   0.641   5.104  0.7600 -0.9320 -0.1956
 3025SOL     OW20533   0.447   1.997  17.339  0.2014  0.0606  0.9915
 3025SOL    HW120534   0.415   2.084  17.316  0.3074 -0.2935 -0.5003
 3025SOL    HW220535   0.375   1.965  17.393 -0.7250  2.1228  0.9941
 3026SOL     OW20536   0.517   4.626  13.286  0.4418  0.8733  0.0191
 3026SOL    HW120537   0.517   4.657  13.377 -3.6645 -0.1282  0.3482
 3026SOL    HW220538   0.570   4.692  13.241  0.1592  1.4213  0.4967
 3027SOL     OW20539   1.228   1.894   5.989  0.2953 -0.3922 -0.0509
 3027SOL    HW120540   1.143   1.934   6.009 -0.1942 -1.1439 -0.6041
 3027SOL    HW220541   1.221   1.817   6.046 -0.5695 -0.8770 -0.8067
 3028SOL     OW20542   1.062   0.120   5.958 -0.1888 -0.4678  0.2943
 3028SOL    HW120543   0.998   0.149   5.893 -1.2021  0.7118  1.7964
 3028SOL    HW220544   1.121   0.196   5.956 -1.5785  0.6464  0.9893
 3029SOL     OW20545   4.294   1.390   1.338  0.3431 -0.5144 -0.0115
 3029SOL    HW120546   4.300   1.472   1.289  2.7177 -0.2417  0.7276
 3029SOL    HW220547   4.205   1.410   1.367  0.3690 -0.2552 -0.1079
 3030SOL     OW20548   3.931   2.441   7.412  0.5270 -0.1388 -0.3174
 3030SOL    HW120549   3.848   2.425   7.367  0.0617  0.0816  0.4553
 3030SOL    HW220550   3.950   2.533   7.391  1.5149 -0.2033  0.2929
 3031SOL     OW20551   2.220   1.928   9.279  0.4259  0.5625 -0.3363
 3031SOL    HW120552   2.297   1.873   9.290  0.1277  0.5653  1.7754
 3031SOL    HW220553   2.170   1.891   9.206 -0.0405 -0.8303  0.7047
 3032SOL     OW20554   1.806   4.198   4.062  0.5996 -0.1925  0.4269
 3032SOL    HW120555   1.884   4.253   4.052  0.1895  0.5126  1.0885
 3032SOL    HW220556   1.848   4.121   4.101 -0.1990  0.2429  2.1543
 3033SOL     OW20557   3.260   0.522   2.076  0.0963 -0.2204 -0.2983
 3033SOL    HW120558   3.187   0.557   2.127  0.0499 -0.5909 -0.1054
 3033SOL    HW220559   3.223   0.463   2.010 -0.7191 -0.2910  0.2292
 3034SOL     OW20560   4.366   1.588   7.462 -0.3546  0.3860 -0.3114
 3034SOL    HW120561   4.355   1.500   7.425 -0.2322 -0.0097  0.5742
 3034SOL    HW220562   4.436   1.570   7.526 -1.8456  1.5291  1.6529
 3035SOL     OW20563   2.284   4.400  11.468 -0.0431  0.2106 -0.4643
 3035SOL    HW120564   2.236   4.401  11.385 -0.1495 -1.3123 -0.4057
 3035SOL    HW220565   2.309   4.492  11.481  3.3384 -0.7451 -0.1505
 3036SOL     OW20566   3.417   4.573   2.555 -0.3942 -0.1466  0.6018
 3036SOL    HW120567   3.454   4.589   2.468 -0.8569  2.0464  0.8170
 3036SOL    HW220568   3.457   4.645   2.603  0.6744 -0.5459  0.3135
 3037SOL     OW20569   2.788   0.906   5.751  0.2044  0.1769 -0.0366
 3037SOL    HW120570   2.827   0.825   5.783  0.4730  0.1063 -0.5432
 3037SOL    HW220571   2.707   0.919   5.800  0.8526 -1.1032  1.3640
 3038SOL     OW20572   2.523   1.553  14.721  0.4488 -0.1331 -0.3219
 3038SOL    HW120573   2.613   1.529  14.746  0.0059 -0.3247  1.0971
 3038SOL    HW220574   2.529   1.537  14.627  2.3736  1.9120 -0.5516
 3039SOL     OW20575   4.395   0.582   6.447  0.0161 -0.1764  0.2381
 3039SOL    HW120576   4.478   0.544   6.420  0.1557 -2.0582  3.3240
 3039SOL    HW220577   4.426   0.637   6.519  1.0265  0.7223 -0.8810
 3040SOL     OW20578   0.940   0.474   7.724 -0.2120 -0.2035 -0.0883
 3040SOL    HW120579   0.996   0.546   7.694 -0.8801  0.5203  0.4007
 3040SOL    HW220580   0.954   0.407   7.657  0.9993  0.6408 -0.6748
 3041SOL     OW20581   3.592   3.137   7.434  0.1127 -1.2918  0.3260
 3041SOL    HW120582   3.666   3.154   7.375  0.4249 -1.8462  0.5548
 3041SOL    HW220583   3.534   3.086   7.377  2.0454 -2.6535 -0.4179
 3042SOL     OW20584   3.055   1.744  14.918 -0.2781  0.5222  0.0290
 3042SOL    HW120585   3.055   1.810  14.987  1.0095  0.8320 -0.2622
 3042SOL    HW220586   3.139   1.766  14.877 -0.5331  2.8364  0.7757
 3043SOL     OW20587   1.775   2.886  15.923  0.3467  0.4192 -0.0148
 3043SOL    HW120588   1.773   2.820  15.992 -2.4283  1.0263  0.4760
 3043SOL    HW220589   1.793   2.830  15.847 -1.3147 -0.1412  0.0158
 3044SOL     OW20590   0.958   3.213   7.358  0.0309  0.2610 -0.0905
 3044SOL    HW120591   0.925   3.150   7.422 -2.0775  0.3792 -1.0667
 3044SOL    HW220592   0.883   3.226   7.300  0.1221 -1.4355 -0.5926
 3045SOL     OW20593   3.616   2.175   9.104 -0.0129  0.4399  0.3469
 3045SOL    HW120594   3.527   2.141   9.100 -0.1010  1.0689 -3.0671
 3045SOL    HW220595   3.664   2.093   9.094 -1.5907 -0.3231 -0.9395
 3046SOL     OW20596   3.802   3.749   2.866 -0.4238 -0.6147  0.8091
 3046SOL    HW120597   3.809   3.693   2.789 -1.4337  1.1240 -0.5272
 3046SOL    HW220598   3.728   3.726   2.922  1.4447 -0.7417  3.2155
 3047SOL     OW20599   2.791   3.266  14.965 -0.3891  0.2733  0.6678
 3047SOL    HW120600   2.740   3.308  14.896  0.7520  1.2683  0.4330
 3047SOL    HW220601   2.808   3.343  15.019  0.5221  1.2859 -1.0620
 3048SOL     OW20602   3.834   4.381   1.284 -0.3583 -0.5304  0.0407
 3048SOL    HW120603   3.857   4.290   1.302  0.8736 -0.8101 -2.9177
 3048SOL    HW220604   3.922   4.404   1.254  0.2281  0.0102  2.1850
 3049SOL     OW20605   4.282   3.848   1.298  0.8139 -0.2365  0.1658
 3049SOL    HW120606   4.226   3.798   1.238 -0.1932 -0.1905  1.0837
 3049SOL    HW220607   4.223   3.868   1.370 -0.4830 -1.4250 -0.5670
 3050SOL     OW20608   4.372   0.400   0.321  0.1976 -0.5796  0.7285
 3050SOL    HW120609   4.462   0.413   0.352 -0.6589  0.8243  2.6068
 3050SOL    HW220610   4.356   0.491   0.296  0.5704  0.2461  3.5679
 3051SOL     OW20611   3.360   2.517   2.615 -0.4619  0.3491  0.1722
 3051SOL    HW120612   3.379   2.538   2.707 -4.1725 -1.5034  1.3834
 3051SOL    HW220613   3.333   2.601   2.580 -2.9126 -0.4638  0.0636
 3052SOL     OW20614   4.489   2.300   5.005  0.6051  0.1525  0.2174
 3052SOL    HW120615   4.424   2.316   4.937  1.0380  2.8726  0.4328
 3052SOL    HW220616   4.499   2.205   5.002  1.7967  0.2698  0.5240
 3053SOL     OW20617   4.560   4.481   7.666  0.3303 -0.4127  0.1635
 3053SOL    HW120618   4.475   4.525   7.655  0.1334 -0.3568  1.9101
 3053SOL    HW220619   4.618   4.554   7.647  1.0683 -0.8909  0.6073
 3054SOL     OW20620   4.047   3.738   2.582  0.1902 -0.3528 -0.2032
 3054SOL    HW120621   3.976   3.676   2.590  0.9157 -0.9415  1.6670
 3054SOL    HW220622   4.027   3.793   2.506 -0.4755 -1.4476 -0.8057
 3055SOL     OW20623   3.856   2.350   8.740  0.7098 -0.2650  0.2486
 3055SOL    HW120624   3.834   2.317   8.828 -1.2786  0.3916  0.0030
 3055SOL    HW220625   3.809   2.433   8.730  0.7634 -0.4151 -1.2901
 3056SOL     OW20626   3.554   0.947   8.026 -0.2581  0.2454 -0.0001
 3056SOL    HW120627   3.591   0.897   7.953  1.6139 -1.0014  1.8082
 3056SOL    HW220628   3.611   1.023   8.014 -1.3269  1.2050  0.9909
 3057SOL     OW20629   0.472   2.755   0.694 -0.2696 -0.4298  0.2469
 3057SOL    HW120630   0.552   2.715   0.728 -0.5323 -0.7763  0.4554
 3057SOL    HW220631   0.432   2.804   0.766 -1.1845  3.6281 -2.9775
 3058SOL     OW20632   2.238   1.280   2.131 -0.0518  0.1607  0.3259
 3058SOL    HW120633   2.270   1.205   2.182 -0.8403 -0.7697 -0.5644
 3058SOL    HW220634   2.304   1.345   2.157  0.0974 -0.3503  1.2541
 3059SOL     OW20635   1.094   0.966   6.432  0.2105  0.8092 -0.1366
 3059SOL    HW120636   1.169   0.906   6.428 -0.1226  0.4636 -1.3335
 3059SOL    HW220637   1.051   0.928   6.509 -1.3895  0.4727 -1.1988
 3060SOL     OW20638   3.048   2.624   6.612  0.6551 -0.2649  0.6512
 3060SOL    HW120639   2.982   2.557   6.630  0.7021 -0.5430 -0.2063
 3060SOL    HW220640   3.021   2.692   6.673  0.6801 -1.1454  1.6439
 3061SOL     OW20641   3.288   1.378  16.725 -0.2101  0.0053  0.3543
 3061SOL    HW120642   3.209   1.325  16.718  0.9220 -1.9892  3.2006
 3061SOL    HW220643   3.246   1.464  16.713  2.0273  1.2257  1.1784
 3062SOL     OW20644   3.277   3.431  11.652  0.0993  0.3098  0.3713
 3062SOL    HW120645   3.335   3.507  11.648  0.3187  0.1152 -0.1431
 3062SOL    HW220646   3.290   3.395  11.564  0.5464  1.3219  0.0259
 3063SOL     OW20647   2.715   2.669   5.704  0.4771  0.2205 -0.9497
 3063SOL    HW120648   2.691   2.756   5.675 -1.3364 -0.1852 -0.6603
 3063SOL    HW220649   2.785   2.649   5.642  0.2519  1.3198 -1.5454
 3064SOL     OW20650   4.213   4.185   7.889  0.2044 -0.2258 -0.2596
 3064SOL    HW120651   4.175   4.109   7.845 -0.0105 -1.1293  1.4661
 3064SOL    HW220652   4.183   4.244   7.820 -0.0891 -0.8828 -0.6967
 3065SOL     OW20653   1.166   1.927   4.555  0.6595  0.3585  0.3019
 3065SOL    HW120654   1.189   1.841   4.520 -0.7693 -0.0696  0.4035
 3065SOL    HW220655   1.078   1.906   4.588  0.8501  1.1880  1.3457
 3066SOL     OW20656   1.547   1.871   4.795  0.4273 -0.2342  0.2838
 3066SOL    HW120657   1.452   1.863   4.796  0.4906 -0.9790  0.3107
 3066SOL    HW220658   1.555   1.955   4.750  0.8850 -0.8416 -0.7749
 3067SOL     OW20659   1.932   3.294   8.774  0.2258  0.2011  0.5408
 3067SOL    HW120660   1.891   3.236   8.839  0.1138 -0.9991 -0.5952
 3067SOL    HW220661   1.922   3.231   8.702 -1.6185  1.0418  0.0565
 3068SOL     OW20662   3.550   1.847  17.209 -0.6343  0.1192  0.1965
 3068SOL    HW120663   3.579   1.790  17.280  0.3234 -0.8754 -0.9958
 3068SOL    HW220664   3.518   1.780  17.149 -1.8472 -0.6814  1.7152
 3069SOL     OW20665   3.242   3.087   1.658 -0.1658  0.2644 -0.1724
 3069SOL    HW120666   3.180   3.067   1.588 -0.2193  0.9034 -0.3073
 3069SOL    HW220667   3.182   3.079   1.732 -2.2415  2.6440 -1.6313
 3070SOL     OW20668   1.439   3.770   1.651  0.2854 -0.6168 -0.0809
 3070SOL    HW120669   1.427   3.786   1.745 -2.9449  2.6967 -1.0768
 3070SOL    HW220670   1.458   3.677   1.641  1.4997 -0.3670 -0.1114
 3071SOL     OW20671   1.412   4.697   2.758  0.5804 -0.0433 -0.6180
 3071SOL    HW120672   1.475   4.671   2.826  0.6492  1.9934  0.1137
 3071SOL    HW220673   1.381   0.066   2.765 -0.0696 -0.1378 -2.3234
 3072SOL     OW20674   4.522   2.676   8.075  0.1592  1.0857 -0.2908
 3072SOL    HW120675   4.579   2.737   8.030  0.9400  0.5876  0.0256
 3072SOL    HW220676   4.530   2.601   8.016 -0.5861  1.0708 -0.3814
 3073SOL     OW20677   4.262   0.392   7.613 -0.6583  0.5360 -0.4593
 3073SOL    HW120678   4.217   0.434   7.686 -0.6158  1.6117 -1.0516
 3073SOL    HW220679   4.289   0.466   7.559  0.5893 -0.4758 -1.2359
 3074SOL     OW20680   3.384   3.537   8.646  0.1040  0.7014 -0.0521
 3074SOL    HW120681   3.395   3.522   8.740 -0.5379 -3.6255 -0.6542
 3074SOL    HW220682   3.328   3.462   8.624  0.8784 -0.0857  0.6520
 3075SOL     OW20683   4.331   2.292   4.758  0.4839  0.2869 -0.1254
 3075SOL    HW120684   4.236   2.292   4.758  0.5034  2.5125 -1.2548
 3075SOL    HW220685   4.337   2.219   4.697  0.2029 -0.7518  1.0826
 3076SOL     OW20686   0.477   3.523   3.346  0.2071 -0.3872 -0.0486
 3076SOL    HW120687   0.501   3.534   3.438  1.8539 -3.0498 -0.1582
 3076SOL    HW220688   0.517   3.437   3.332  0.9650 -0.1080  0.4224
 3077SOL     OW20689   3.265   4.601   3.937  0.2360  0.2186  0.0538
 3077SOL    HW120690   3.208   4.606   4.014  0.4409  1.2352  0.1323
 3077SOL    HW220691   3.225   4.527   3.891  0.9673 -0.1988  0.0955
 3078SOL     OW20692   4.328   3.788  11.895 -0.1351 -0.1043  0.1288
 3078SOL    HW120693   4.418   3.777  11.923 -0.0114  2.1489  0.6220
 3078SOL    HW220694   4.320   3.883  11.903 -1.0112 -0.0743 -1.0033
 3079SOL     OW20695   2.060   1.730   4.072  0.0215 -0.6038 -0.4463
 3079SOL    HW120696   1.966   1.713   4.064 -0.4993  1.9770  0.2656
 3079SOL    HW220697   2.065   1.795   4.142  0.2250  0.5238 -1.5217
 3080SOL     OW20698   1.404   4.201   5.819 -0.7011 -0.1803 -0.4076
 3080SOL    HW120699   1.437   4.121   5.778 -0.2806 -0.5142  0.5758
 3080SOL    HW220700   1.389   4.164   5.906 -0.7291  2.4129  0.6904
 3081SOL     OW20701   2.300   0.835  12.758 -0.4422 -0.2112 -0.2104
 3081SOL    HW120702   2.252   0.895  12.815  0.1255 -1.3947  1.5194
 3081SOL    HW220703   2.277   0.857  12.668  0.5127  3.3885  0.4343
 3082SOL     OW20704   0.705   0.793   4.476  0.0083  0.3381  0.3401
 3082SOL    HW120705   0.702   0.774   4.569 -1.1617 -0.9630  0.0287
 3082SOL    HW220706   0.615   0.813   4.452  0.4366  2.5341  0.5598
 3083SOL     OW20707   2.394   3.403   9.943 -0.6440 -0.0713 -0.4755
 3083SOL    HW120708   2.418   3.496   9.952 -0.2239 -0.0172 -2.1057
 3083SOL    HW220709   2.405   3.380  10.035 -4.0249 -0.5560 -0.1901
 3084SOL     OW20710   0.617   4.624   3.569 -0.1157  0.1114 -0.0467
 3084SOL    HW120711   0.576   4.572   3.500 -0.2995  0.2426 -0.0342
 3084SOL    HW220712   0.545   4.632   3.631 -0.2810 -0.2972 -0.1856
 3085SOL     OW20713   4.472   3.722  10.721 -0.0233  0.2052 -0.3041
 3085SOL    HW120714   4.466   3.639  10.675  1.6397 -1.3827  2.3327
 3085SOL    HW220715   4.506   3.688  10.804 -3.4254  1.3676  1.5533
 3086SOL     OW20716   4.666   1.804  12.330 -0.1869 -0.0356  0.7195
 3086SOL    HW120717   0.037   1.821  12.348  0.2234  0.3267 -1.8090
 3086SOL    HW220718   4.682   1.721  12.286 -2.6252  0.7968 -1.7206
 3087SOL     OW20719   4.502   3.917   2.084  0.3637  0.6641  0.0989
 3087SOL    HW120720   4.589   3.905   2.122 -0.6204 -0.5769  1.9498
 3087SOL    HW220721   4.477   3.829   2.111  3.8812 -1.2414 -2.8714
 3088SOL     OW20722   3.385   1.177   1.526  0.6232  0.2137  0.7778
 3088SOL    HW120723   3.349   1.102   1.574 -0.3335 -1.3688 -2.4530
 3088SOL    HW220724   3.370   1.155   1.434  4.2124 -2.5713  0.8743
 3089SOL     OW20725   1.082   0.708   7.985  0.5306  0.9936  0.3944
 3089SOL    HW120726   1.148   0.641   7.965 -0.6935 -0.3798  0.9899
 3089SOL    HW220727   1.113   0.733   8.072  2.8193 -0.3134 -0.0460
 3090SOL     OW20728   3.627   4.511  13.107  0.1440 -0.0945  0.5043
 3090SOL    HW120729   3.661   4.529  13.019  3.9423 -2.6952  1.4440
 3090SOL    HW220730   3.539   4.479  13.093  0.9799 -2.3106  0.3930
 3091SOL     OW20731   1.023   2.459   7.992 -0.0909  0.1034  0.1503
 3091SOL    HW120732   0.958   2.390   8.002 -0.4240  0.7097  2.1122
 3091SOL    HW220733   0.973   2.534   8.025  0.0738  1.7141 -3.1839
 3092SOL     OW20734   3.262   0.321   8.198 -0.1092 -0.1533 -0.4774
 3092SOL    HW120735   3.348   0.320   8.240 -0.4415  1.4480  0.2358
 3092SOL    HW220736   3.235   0.413   8.196 -2.3319 -0.8644 -3.7706
 3093SOL     OW20737   0.292   3.863   3.288 -0.0163  0.2281 -0.3167
 3093SOL    HW120738   0.261   3.772   3.291  1.8533 -0.3838  0.3635
 3093SOL    HW220739   0.366   3.851   3.347  0.2076  3.2386 -0.0079
 3094SOL     OW20740   0.757   0.919   5.001 -0.3138  0.8283  0.2028
 3094SOL    HW120741   0.762   0.923   5.096 -0.4041 -1.6226  0.3287
 3094SOL    HW220742   0.691   0.850   4.989 -0.8097  1.3787 -0.2779
 3095SOL     OW20743   3.300   2.905   5.937  0.4180  0.0057 -0.1728
 3095SOL    HW120744   3.247   2.969   5.984 -1.0183 -0.1772 -1.5641
 3095SOL    HW220745   3.318   2.958   5.860 -0.6605 -0.0967 -0.4975
 3096SOL     OW20746   2.568   0.028   5.810  0.0374 -0.8452 -0.6314
 3096SOL    HW120747   2.582   0.113   5.852 -1.8387 -1.7875  1.9089
 3096SOL    HW220748   2.642   0.029   5.750  2.7508 -1.7235  2.6897
 3097SOL     OW20749   1.235   4.348   5.975 -0.8527  0.5100 -0.5181
 3097SOL    HW120750   1.164   4.375   5.918  0.3560 -0.1914 -2.3408
 3097SOL    HW220751   1.288   4.295   5.916 -1.4798 -2.1275  1.2742
 3098SOL     OW20752   1.395   0.695  17.263 -0.1634  0.4319 -0.3046
 3098SOL    HW120753   1.324   0.743  17.220  0.3401  0.4604 -1.1069
 3098SOL    HW220754   1.446   0.767  17.301  0.0748 -0.7999  1.7450
 3099SOL     OW20755   0.755   0.474   0.869  0.1171  0.3745  0.7560
 3099SOL    HW120756   0.773   0.509   0.957 -1.3795 -3.3972  2.5474
 3099SOL    HW220757   0.773   0.548   0.810 -1.8013  0.2300 -0.0121
 3100SOL     OW20758   3.037   1.055   8.104  0.2936 -0.4030  0.4309
 3100SOL    HW120759   2.975   1.035   8.174 -0.3411  0.8923  0.2356
 3100SOL    HW220760   3.088   1.127   8.140 -1.8891  1.1627  0.3716
 3101SOL     OW20761   0.765   3.100  13.559 -0.0626  0.7719 -0.3873
 3101SOL    HW120762   0.733   3.035  13.497  1.3153  0.5328 -0.8501
 3101SOL    HW220763   0.841   3.138  13.515 -0.9497  0.7645 -1.9143
 3102SOL     OW20764   0.214   2.865   7.378 -0.0881  0.2024 -0.1191
 3102SOL    HW120765   0.167   2.929   7.324  0.0401  0.1863 -0.2495
 3102SOL    HW220766   0.143   2.802   7.386 -1.5272  1.6969 -1.2312
 3103SOL     OW20767   3.072   0.840   2.574 -0.4618 -0.3529  0.4993
 3103SOL    HW120768   3.006   0.883   2.519 -1.0417 -2.9585 -0.8617
 3103SOL    HW220769   3.068   0.891   2.655 -0.5269 -1.4345  1.1794
 3104SOL     OW20770   4.246   1.258  11.717  0.2159  0.3160 -0.2238
 3104SOL    HW120771   4.155   1.240  11.741  0.2827 -0.4622 -0.5513
 3104SOL    HW220772   4.283   1.205  11.787  0.1268  0.6827  0.1011
 3105SOL     OW20773   3.751   1.404  17.409 -0.9239  0.2900  0.4689
 3105SOL    HW120774   3.730   1.487  17.451  0.8051 -0.0052  1.9343
 3105SOL    HW220775   3.830   1.379  17.458  0.0032  1.5135 -0.4068
 3106SOL     OW20776   4.017   3.068   1.736  0.1022 -0.1730 -0.6694
 3106SOL    HW120777   4.011   2.993   1.676  2.8081  0.6709 -2.0270
 3106SOL    HW220778   4.034   3.013   1.812  2.4042  2.2253  0.5579
 3107SOL     OW20779   3.289   0.232  12.537 -0.7878 -0.9677 -0.4453
 3107SOL    HW120780   3.230   0.271  12.601 -0.8364  1.0507 -1.7128
 3107SOL    HW220781   3.313   0.314  12.494  2.8144 -1.8301 -0.1076
 3108SOL     OW20782   0.891   3.753  13.168 -0.3904  0.0573  0.3516
 3108SOL    HW120783   0.891   3.674  13.115 -0.0798 -0.7963  1.6221
 3108SOL    HW220784   0.835   3.730  13.242 -0.6660  1.2523  0.5150
 3109SOL     OW20785   3.966   0.333  16.168 -0.1930  0.0129 -0.2506
 3109SOL    HW120786   3.944   0.325  16.075  0.5557  1.3378 -0.5475
 3109SOL    HW220787   3.987   0.426  16.176 -2.1805  0.4546 -0.2206
 3110SOL     OW20788   4.720   1.235  12.466  0.1537  0.1100 -0.3147
 3110SOL    HW120789   4.676   1.234  12.381 -0.4058 -2.2911  0.0069
 3110SOL    HW220790   0.089   1.226  12.435  0.5498 -0.9571  1.1233
 3111SOL     OW20791   0.559   2.485   8.975 -0.0057 -0.1748 -0.2967
 3111SOL    HW120792   0.633   2.540   9.000 -1.3153  1.0808  0.7898
 3111SOL    HW220793   0.487   2.524   9.024 -0.4354 -2.6097  0.9992
 3112SOL     OW20794   1.614   1.647   3.740 -0.0240  0.5922  0.5994
 3112SOL    HW120795   1.590   1.559   3.771  1.7022 -0.1949 -0.3084
 3112SOL    HW220796   1.585   1.634   3.650 -0.6513  1.1499  0.7217
 3113SOL     OW20797   0.041   3.990   6.665 -0.3168 -0.2084 -0.7678
 3113SOL    HW120798   0.040   3.961   6.574 -0.2925  1.8435 -1.4162
 3113SOL    HW220799   0.035   4.084   6.650  1.5994  0.0361  0.1113
 3114SOL     OW20800   1.912   1.104   2.943  0.2502  0.6033 -0.1311
 3114SOL    HW120801   1.909   1.095   2.848  1.1736 -0.2386 -0.0812
 3114SOL    HW220802   1.859   1.031   2.974  1.3613 -0.6375 -1.1731
 3115SOL     OW20803   3.053   4.403   7.773 -0.4071  0.4783  0.0872
 3115SOL    HW120804   2.958   4.388   7.764 -0.0974 -1.2111 -0.5714
 3115SOL    HW220805   3.073   4.358   7.855  0.6848  0.3165 -0.2690
 3116SOL     OW20806   1.166   1.973  12.981 -0.0776 -0.5175  0.3431
 3116SOL    HW120807   1.076   2.004  12.980 -0.2700 -1.0844 -0.0529
 3116SOL    HW220808   1.154   1.899  13.041  2.1689 -0.4924  0.8408
 3117SOL     OW20809   2.340   0.180   9.935 -0.3214  0.5797 -0.5644
 3117SOL    HW120810   2.269   0.129   9.894  0.2190 -1.8058  1.4751
 3117SOL    HW220811   2.416   0.162   9.880  1.5901  0.7995  2.0181
 3118SOL     OW20812   0.078   2.688  14.157 -0.1668 -0.0221 -0.4876
 3118SOL    HW120813   0.032   2.632  14.094  1.5057 -2.1005  0.1561
 3118SOL    HW220814   4.719   2.737  14.177  0.3167  1.1467 -1.4478
 3119SOL     OW20815   3.194   1.892   8.408  0.4250  0.5578 -0.4570
 3119SOL    HW120816   3.205   1.883   8.503  1.4009  1.0836 -0.5295
 3119SOL    HW220817   3.108   1.851   8.393  0.3247  1.3304 -1.8813
 3120SOL     OW20818   3.758   1.210  15.771 -0.2190  0.3365 -0.2584
 3120SOL    HW120819   3.718   1.287  15.811 -0.0653 -0.6571  1.8449
 3120SOL    HW220820   3.815   1.241  15.701 -1.4778  0.8266 -1.0544
 3121SOL     OW20821   0.647   0.961   1.780  0.0327 -0.2324 -0.1443
 3121SOL    HW120822   0.634   0.950   1.874  1.3051 -1.9374 -0.1709
 3121SOL    HW220823   0.602   0.886   1.742 -0.8193 -0.2277  0.8700
 3122SOL     OW20824   4.212   4.303   7.602  0.0034 -0.0396  0.3401
 3122SOL    HW120825   4.237   4.227   7.549  3.1756  0.9912  0.3122
 3122SOL    HW220826   4.125   4.322   7.568  0.0743 -1.6259 -0.7167
 3123SOL     OW20827   0.197   1.369  11.708  0.7911 -0.1243 -0.1213
 3123SOL    HW120828   0.262   1.439  11.721 -0.0664  0.6951 -0.2710
 3123SOL    HW220829   0.125   1.426  11.680  0.3805 -0.9038 -0.6525
 3124SOL     OW20830   1.109   2.338   1.356  0.0468  0.1513  0.4463
 3124SOL    HW120831   1.060   2.383   1.425 -0.3740  0.7421 -0.2344
 3124SOL    HW220832   1.073   2.371   1.274  2.4083  0.5687 -0.3962
 3125SOL     OW20833   4.108   2.830   4.876 -0.4246 -0.2151  0.5786
 3125SOL    HW120834   4.199   2.833   4.905 -0.5355 -2.8557  1.1948
 3125SOL    HW220835   4.080   2.745   4.908 -2.9897  0.1938 -0.5492
 3126SOL     OW20836   1.071   2.870   8.581 -0.3531 -0.0708 -0.0729
 3126SOL    HW120837   1.012   2.941   8.609  1.0978  0.6612  1.1165
 3126SOL    HW220838   1.029   2.840   8.500  1.0328  1.4686 -1.3851
 3127SOL     OW20839   2.586   1.309   2.678 -0.3386  0.1171 -1.1391
 3127SOL    HW120840   2.558   1.340   2.764  0.1799 -0.9891 -0.5652
 3127SOL    HW220841   2.678   1.327   2.694 -0.3080  0.3985 -1.6581
 3128SOL     OW20842   1.519   4.119   0.908  0.1502 -0.3350  0.1541
 3128SOL    HW120843   1.591   4.089   0.853 -0.8290  0.0235 -1.3267
 3128SOL    HW220844   1.447   4.129   0.846  0.3189 -1.6917 -0.2448
 3129SOL     OW20845   0.382   0.158   3.694  0.5003  0.6862  0.0867
 3129SOL    HW120846   0.375   0.148   3.599 -0.6780  0.1774  0.2324
 3129SOL    HW220847   0.470   0.132   3.722 -0.1433 -1.6256 -0.0549
 3130SOL     OW20848   2.417   4.423   2.401  0.1454  0.6422 -0.0886
 3130SOL    HW120849   2.392   4.426   2.309  0.3321 -1.0500 -0.1872
 3130SOL    HW220850   2.511   4.442   2.401 -0.0822  1.8433  1.3418
 3131SOL     OW20851   1.056   3.037   7.743  0.3692 -0.2408  0.0556
 3131SOL    HW120852   1.073   3.012   7.834  1.4930  0.1869 -0.0336
 3131SOL    HW220853   1.039   3.129   7.762 -3.2875 -1.1529  1.0830
 3132SOL     OW20854   4.474   0.249   9.594  0.2935 -0.2567  0.3182
 3132SOL    HW120855   4.522   0.330   9.610 -1.7027  0.4505  2.7938
 3132SOL    HW220856   4.478   0.203   9.678 -1.4638  0.8862  1.0314
 3133SOL     OW20857   3.508   3.851  11.506 -0.2339  0.1805 -0.0525
 3133SOL    HW120858   3.583   3.911  11.508 -0.5451  0.5602  0.1298
 3133SOL    HW220859   3.441   3.911  11.473  0.8217  0.4942 -1.6351
 3134SOL     OW20860   3.127   1.758   5.205  0.4097 -0.4559  0.4550
 3134SOL    HW120861   3.113   1.682   5.261 -0.5310 -1.4051 -1.0651
 3134SOL    HW220862   3.120   1.825   5.274 -1.2602  0.7296 -0.8781
 3135SOL     OW20863   3.636   1.811   8.314  0.1243 -0.5370 -0.4160
 3135SOL    HW120864   3.704   1.758   8.356  1.8869  0.9367 -1.3946
 3135SOL    HW220865   3.586   1.846   8.387  1.2191 -0.0767  0.1247
 3136SOL     OW20866   2.809   4.586   4.065 -0.1037  0.0937 -0.1539
 3136SOL    HW120867   2.845   4.652   4.006  0.5401 -0.8875 -0.8370
 3136SOL    HW220868   2.716   4.594   4.041  0.2715  2.2998 -0.9144
 3137SOL     OW20869   0.517   2.347  16.463 -0.3474  0.1481 -0.4820
 3137SOL    HW120870   0.504   2.281  16.532  3.1395  1.2644  1.2568
 3137SOL    HW220871   0.610   2.335  16.440  0.2467 -0.0168  1.9476
 3138SOL     OW20872   0.081   3.068   9.167  0.3706  0.1608  0.6405
 3138SOL    HW120873   0.000   3.069   9.219  0.4452 -0.7605  0.7882
 3138SOL    HW220874   0.140   3.135   9.202 -0.9568  1.7640 -0.2446
 3139SOL     OW20875   2.145   2.703   3.016  0.3375 -0.0647  0.4064
 3139SOL    HW120876   2.053   2.713   2.994  0.4605  0.0800 -0.0371
 3139SOL    HW220877   2.152   2.624   2.963  0.4240 -1.5054  2.5417
 3140SOL     OW20878   1.002   0.162   6.673 -0.4692  0.2144  0.3021
 3140SOL    HW120879   1.081   0.208   6.647  0.1858 -0.7629  0.5586
 3140SOL    HW220880   1.001   0.109   6.593  0.1832  0.1671  0.3252
 3141SOL     OW20881   3.783   4.310  16.396 -0.2159 -0.0451 -0.3224
 3141SOL    HW120882   3.782   4.332  16.303  2.4511 -1.1669 -0.6222
 3141SOL    HW220883   3.780   4.214  16.392  0.0279  0.0405 -2.3637
 3142SOL     OW20884   3.066   0.757   6.267  0.6948  0.2243  0.5479
 3142SOL    HW120885   3.110   0.673   6.252 -1.3722 -0.9602  1.2108
 3142SOL    HW220886   3.134   0.818   6.238  1.4380 -1.2670 -0.8448
 3143SOL     OW20887   0.895   1.283  10.037 -0.1854 -0.0544  0.4262
 3143SOL    HW120888   0.801   1.275  10.055 -0.3362  0.3167 -0.1944
 3143SOL    HW220889   0.897   1.294   9.942  0.5275 -1.4002  0.2833
 3144SOL     OW20890   3.932   2.389   3.969 -0.2089 -0.0397  0.5179
 3144SOL    HW120891   3.928   2.305   4.016 -3.0013  0.1294  0.5630
 3144SOL    HW220892   3.899   2.369   3.881 -0.4616 -0.2646  0.6642
 3145SOL     OW20893   2.399   2.234   7.831 -0.7346 -0.0938  0.1192
 3145SOL    HW120894   2.429   2.153   7.873 -0.3177 -0.6085 -1.1705
 3145SOL    HW220895   2.416   2.211   7.739 -2.8922 -0.6196 -0.1378
 3146SOL     OW20896   3.396   3.392  15.167 -0.0186 -0.5946 -0.2664
 3146SOL    HW120897   3.453   3.431  15.101 -1.0845 -2.0515 -2.0457
 3146SOL    HW220898   3.439   3.426  15.245 -0.6875  2.0679 -1.0362
 3147SOL     OW20899   2.516   2.851   5.510  0.1840 -0.3550  0.1402
 3147SOL    HW120900   2.548   2.930   5.467 -2.3019  0.5115 -0.1738
 3147SOL    HW220901   2.428   2.879   5.536  1.1928  1.5418  1.4788
 3148SOL     OW20902   2.733   3.905   9.055  0.6132  0.0413 -0.2001
 3148SOL    HW120903   2.822   3.874   9.065  1.0378  1.1507 -0.5458
 3148SOL    HW220904   2.677   3.834   9.088 -0.7609  1.5794  0.8299
 3149SOL     OW20905   3.144   2.442   2.763 -0.3321 -0.3239 -0.7366
 3149SOL    HW120906   3.211   2.487   2.712 -1.0264  0.7332 -0.6979
 3149SOL    HW220907   3.140   2.500   2.839 -0.4570  1.3268 -2.0242
 3150SOL     OW20908   3.144   3.602  15.319  0.2389  0.2051  0.3773
 3150SOL    HW120909   3.178   3.671  15.263  0.1287  0.3001  0.4281
 3150SOL    HW220910   3.097   3.650  15.387  1.4797  0.4600  1.0504
 3151SOL     OW20911   0.022   2.035   5.117 -0.0377  0.3667 -0.4272
 3151SOL    HW120912   0.110   2.029   5.153  0.3031 -1.6463 -1.5803
 3151SOL    HW220913   0.002   1.945   5.091  1.1967 -0.4854  1.5728
 3152SOL     OW20914   2.143   2.010   7.650  0.1974  0.0324  0.3697
 3152SOL    HW120915   2.054   2.024   7.683  0.7208 -0.3392  1.9373
 3152SOL    HW220916   2.186   1.970   7.726 -0.8292 -0.4134  0.7126
 3153SOL     OW20917   1.431   0.026  14.817 -0.0767 -0.3954 -0.2699
 3153SOL    HW120918   1.499   4.682  14.797  0.6741  0.7342 -1.4148
 3153SOL    HW220919   1.462   0.055  14.903 -0.9469 -0.0889 -0.0670
 3154SOL     OW20920   0.659   2.469   1.769 -0.5100 -0.6221 -0.5236
 3154SOL    HW120921   0.734   2.454   1.826  0.9047  1.5684 -1.8219
 3154SOL    HW220922   0.672   2.396   1.708  0.1347  0.4343 -1.6416
 3155SOL     OW20923   0.168   3.020   8.168  0.1234  0.2446 -0.3951
 3155SOL    HW120924   0.190   3.114   8.164  0.4339  0.2254  0.6942
 3155SOL    HW220925   0.187   2.999   8.077  0.6252 -0.9227 -0.0237
 3156SOL     OW20926   3.503   1.003   3.400  0.3905  0.0161  0.1720
 3156SOL    HW120927   3.482   1.067   3.469  0.0391  0.6881 -0.5510
 3156SOL    HW220928   3.450   0.929   3.426 -1.2099  0.9210 -0.4883
 3157SOL     OW20929   2.839   0.220   2.220 -0.1175  0.0294 -0.4756
 3157SOL    HW120930   2.841   0.160   2.295  3.1535 -0.5349 -1.0132
 3157SOL    HW220931   2.759   0.214   2.167  0.6711  1.2246 -1.8073
 3158SOL     OW20932   1.453   2.910  12.561 -0.3094 -0.7507  0.0709
 3158SOL    HW120933   1.543   2.890  12.588  0.4274  3.9670  1.1417
 3158SOL    HW220934   1.459   2.879  12.470  2.1096  1.3699 -0.5252
 3159SOL     OW20935   0.130   4.529  16.701 -0.1099  0.0250  0.4514
 3159SOL    HW120936   0.173   4.568  16.625  0.3564 -1.8891 -0.2701
 3159SOL    HW220937   0.133   4.603  16.761 -1.4971  1.4881 -1.2876
 3160SOL     OW20938   1.903   1.827   6.257  0.6798  0.3866  0.4002
 3160SOL    HW120939   1.861   1.745   6.231 -0.1784  0.6542  0.9144
 3160SOL    HW220940   1.849   1.858   6.330  1.0606  1.9046  0.0403
 3161SOL     OW20941   4.637   3.576   6.613 -0.0187 -0.4833  0.3601
 3161SOL    HW120942   4.663   3.562   6.704 -1.5579 -0.3713  0.8284
 3161SOL    HW220943   0.007   3.584   6.587  0.4033 -0.9988  1.6891
 3162SOL     OW20944   3.534   0.643   5.689 -0.1388 -0.3220  0.0541
 3162SOL    HW120945   3.501   0.710   5.749 -0.1047 -0.6421  0.4248
 3162SOL    HW220946   3.462   0.581   5.686 -2.9003  2.9493 -1.8795
 3163SOL     OW20947   2.994   3.358   6.529 -0.1128  0.2074  0.7154
 3163SOL    HW120948   3.053   3.380   6.457  0.0341 -1.3005  0.3752
 3163SOL    HW220949   3.007   3.421   6.600  0.0412 -1.2728  2.0016
 3164SOL     OW20950   0.889   3.742   3.385 -0.4086 -0.1173  0.0804
 3164SOL    HW120951   0.957   3.806   3.364 -1.8394  0.7627 -1.7740
 3164SOL    HW220952   0.855   3.781   3.466  0.9731 -1.6213  1.3996
 3165SOL     OW20953   1.538   1.113   8.201 -0.0891 -0.7849  0.4395
 3165SOL    HW120954   1.599   1.084   8.269 -2.0576 -2.6375  1.4151
 3165SOL    HW220955   1.584   1.107   8.117  0.3744 -0.3646  0.6595
 3166SOL     OW20956   0.065   2.808   4.236 -0.2846  0.1285 -0.5383
 3166SOL    HW120957   0.010   2.870   4.188  1.5014  0.4009 -2.2576
 3166SOL    HW220958   0.146   2.835   4.193  1.4903 -3.8705  0.3041
 3167SOL     OW20959   0.044   2.534   5.245 -0.0865  0.6909  0.7760
 3167SOL    HW120960   0.119   2.530   5.186 -0.8240  1.2993 -0.2065
 3167SOL    HW220961   4.701   2.467   5.218 -0.7952  1.0710  1.5034
 3168SOL     OW20962   4.089   1.442   7.398  0.0232 -0.2013  0.3102
 3168SOL    HW120963   4.117   1.532   7.381  2.4087 -0.2350  4.1259
 3168SOL    HW220964   4.071   1.448   7.492 -0.8819  2.1513 -0.0215
 3169SOL     OW20965   3.698   2.696   2.087  0.0585  0.4925  0.0451
 3169SOL    HW120966   3.755   2.712   2.162 -1.0363 -0.1852  1.0227
 3169SOL    HW220967   3.706   2.780   2.042  2.1560  0.2936  0.0217
 3170SOL     OW20968   0.564   1.321   9.286  0.3551  0.1691  0.2302
 3170SOL    HW120969   0.654   1.287   9.284 -0.0385 -0.7280 -1.8497
 3170SOL    HW220970   0.533   1.304   9.197  1.0493 -1.2580  0.2662
 3171SOL     OW20971   0.476   4.600   3.055  0.0157  0.1675 -0.4360
 3171SOL    HW120972   0.460   4.648   2.974 -0.0215 -0.4500 -0.7926
 3171SOL    HW220973   0.494   4.510   3.029 -1.3296 -0.2473  0.0576
 3172SOL     OW20974   2.284   0.737  15.330 -0.2130 -0.5691  0.5791
 3172SOL    HW120975   2.194   0.753  15.358  0.0442 -0.3657  1.3044
 3172SOL    HW220976   2.284   0.746  15.235  0.8651  0.9067  0.7182
 3173SOL     OW20977   4.294   4.166  17.473 -0.7830 -0.4979  0.4431
 3173SOL    HW120978   4.372   4.207  17.437  0.9638 -2.8248  1.5453
 3173SOL    HW220979   4.236   4.240  17.490 -1.5033 -0.7249 -1.1164
 3174SOL     OW20980   4.189   0.982   3.958 -0.4041 -0.4680 -0.7269
 3174SOL    HW120981   4.157   0.920   3.892 -0.6694  0.9974 -1.9868
 3174SOL    HW220982   4.151   0.952   4.040 -1.6542 -0.5909 -1.3497
 3175SOL     OW20983   1.858   0.351   7.603 -0.1654  0.4335 -0.3222
 3175SOL    HW120984   1.861   0.263   7.566  1.6592 -0.4865  2.0652
 3175SOL    HW220985   1.768   0.362   7.634  0.0846  2.3743 -0.2661
 3176SOL     OW20986   3.544   3.059   6.556  0.0720  0.3194 -0.6630
 3176SOL    HW120987   3.511   2.969   6.547  0.1285  0.2219  0.0983
 3176SOL    HW220988   3.634   3.037   6.580  1.1850  2.4210 -2.9100
 3177SOL     OW20989   4.667   0.994  16.000 -0.0779 -0.1908 -0.3162
 3177SOL    HW120990   4.705   1.073  15.963  1.1537  0.0565  1.4538
 3177SOL    HW220991   4.599   0.974  15.936  0.4986  3.2975 -1.9842
 3178SOL     OW20992   3.474   1.715   4.811  0.1838 -0.0060  0.1611
 3178SOL    HW120993   3.389   1.719   4.768  0.2140 -2.7572 -0.1824
 3178SOL    HW220994   3.467   1.766   4.891 -1.2905 -0.7745  0.5205
 3179SOL     OW20995   1.904   2.209   4.088  0.2380 -0.0613 -0.2159
 3179SOL    HW120996   2.000   2.201   4.093  0.1629 -0.2877  0.7106
 3179SOL    HW220997   1.868   2.184   4.173 -1.1595 -2.3756 -1.4723
 3180SOL     OW20998   2.304   3.666  11.701  0.0988 -0.5107 -0.5140
 3180SOL    HW120999   2.321   3.758  11.682 -0.0549 -0.1112  1.3099
 3180SOL    HW221000   2.387   3.634  11.736  0.0201 -0.9780 -0.7592
 3181SOL     OW21001   2.514   3.627   6.927 -0.1323  0.3308 -0.1394
 3181SOL    HW121002   2.498   3.720   6.910 -1.5766 -0.2659 -1.9623
 3181SOL    HW221003   2.501   3.599   6.837  0.1663 -1.6298  0.4238
 3182SOL     OW21004   2.450   2.402   6.197  0.3395  0.1472 -0.0640
 3182SOL    HW121005   2.500   2.351   6.134 -2.4583  0.2930 -2.3613
 3182SOL    HW221006   2.373   2.348   6.209 -0.6987  1.6534  0.0902
 3183SOL     OW21007   1.910   1.980   5.372 -0.0131 -0.2930 -0.2477
 3183SOL    HW121008   1.890   1.987   5.279 -0.8891  2.1432  0.1208
 3183SOL    HW221009   1.823   2.001   5.407 -0.2869 -1.0433 -0.4948
 3184SOL     OW21010   2.433   2.280  13.888  0.2296 -0.6433  1.4844
 3184SOL    HW121011   2.356   2.238  13.926 -2.2186  2.0976 -0.4023
 3184SOL    HW221012   2.407   2.370  13.908  2.5746  0.8908 -2.4346
 3185SOL     OW21013   0.118   4.289  17.669  0.1824  0.1174  0.2460
 3185SOL    HW121014   0.174   4.367  17.661 -0.3123  0.4141 -0.2818
 3185SOL    HW221015   0.153   4.240  17.594 -1.6142  0.1586 -0.6229
 3186SOL     OW21016   2.606   3.328   6.981 -0.7694  0.0421  0.0021
 3186SOL    HW121017   2.531   3.303   7.034  0.6996 -0.5228  1.8333
 3186SOL    HW221018   2.585   3.420   6.963  2.8617  1.5059  3.2545
 3187SOL     OW21019   1.911   4.383   4.390  0.1010 -0.8101 -0.4619
 3187SOL    HW121020   1.825   4.358   4.357 -1.0556 -0.1216  2.0220
 3187SOL    HW221021   1.891   4.455   4.450  0.8377  0.1465 -1.3701
 3188SOL     OW21022   1.408   3.779   1.927  0.7987  0.5336 -0.2242
 3188SOL    HW121023   1.472   3.830   1.977  2.3494 -0.3822 -1.2763
 3188SOL    HW221024   1.395   3.702   1.983 -0.3092  3.1475  3.1085
 3189SOL     OW21025   3.430   0.147   5.822 -0.1002  0.2596  0.0227
 3189SOL    HW121026   3.382   0.076   5.780 -0.0388  1.0774 -1.4346
 3189SOL    HW221027   3.496   0.156   5.753 -0.3576  1.8546 -0.0090
 3190SOL     OW21028   3.640   1.722  12.459 -0.5458  0.7949  0.3970
 3190SOL    HW121029   3.696   1.644  12.459 -2.5552 -0.6432 -0.0182
 3190SOL    HW221030   3.562   1.689  12.504 -0.6146  1.0383  0.4589
 3191SOL     OW21031   2.406   4.061  16.791 -0.2308 -0.1245  0.4231
 3191SOL    HW121032   2.319   4.100  16.804  0.3094 -0.4689  5.0488
 3191SOL    HW221033   2.463   4.083  16.865 -1.0842 -1.2375  1.4030
 3192SOL     OW21034   1.190   1.498  14.443 -0.1712  0.5107 -0.1176
 3192SOL    HW121035   1.166   1.567  14.382 -1.8073 -2.5747 -2.9708
 3192SOL    HW221036   1.248   1.550  14.498  0.5810  0.7981 -1.1823
 3193SOL     OW21037   1.518   0.263  13.976  0.4545  0.3608 -0.3960
 3193SOL    HW121038   1.559   0.303  13.899  0.9656  0.4026 -0.0974
 3193SOL    HW221039   1.585   0.229  14.034 -1.3029  1.0247  1.9998
 3194SOL     OW21040   4.263   0.251   5.854 -0.5446 -0.2108  0.6609
 3194SOL    HW121041   4.281   0.179   5.794  3.5544  1.1068  0.3144
 3194SOL    HW221042   4.198   0.206   5.908 -1.4160 -1.9060 -1.7852
 3195SOL     OW21043   1.303   0.115  10.716  0.4261 -0.1193  0.1288
 3195SOL    HW121044   1.376   0.105  10.656 -0.7027 -0.4244 -1.1762
 3195SOL    HW221045   1.232   0.061  10.682  2.4238 -0.7501 -2.9584
 3196SOL     OW21046   0.232   2.895   2.836 -0.4145  0.2978 -0.0830
 3196SOL    HW121047   0.184   2.948   2.772 -0.1172  0.3661 -0.2482
 3196SOL    HW221048   0.290   2.853   2.773 -1.3324 -0.1024 -0.6739
 3197SOL     OW21049   2.976   4.378   4.120 -0.3723 -0.1635 -0.0344
 3197SOL    HW121050   2.934   4.460   4.095 -1.3473 -0.2916  1.2053
 3197SOL    HW221051   2.901   4.334   4.158  0.1159  0.2638  1.4524
 3198SOL     OW21052   2.460   4.211  15.803  0.6006  0.2437  0.7243
 3198SOL    HW121053   2.481   4.119  15.815 -0.7076  0.2326  2.9415
 3198SOL    HW221054   2.420   4.215  15.717  0.6673  0.2135  0.6916
 3199SOL     OW21055   0.607   3.582   3.577  0.2908  0.1263  0.0893
 3199SOL    HW121056   0.657   3.582   3.658  0.6009 -1.6916 -0.1016
 3199SOL    HW221057   0.585   3.675   3.576 -2.8181 -0.5899 -0.5214
 3200SOL     OW21058   0.130   3.600   0.241  0.0856 -0.0915 -0.0896
 3200SOL    HW121059   0.077   3.568   0.314 -1.0417  1.3220 -0.2986
 3200SOL    HW221060   0.113   3.528   0.180 -0.2037 -0.7100  0.7183
 3201SOL     OW21061   3.925   3.535  12.596  0.1563 -0.1919 -0.5786
 3201SOL    HW121062   3.894   3.475  12.528  0.2067  0.3168 -1.0498
 3201SOL    HW221063   3.930   3.478  12.673 -0.8628 -1.0119 -1.1237
 3202SOL     OW21064   2.198   1.418   4.572  0.1735  0.4695  0.2293
 3202SOL    HW121065   2.190   1.339   4.519 -0.7689  1.0460 -0.4877
 3202SOL    HW221066   2.124   1.407   4.633  0.3117  0.4399  0.3930
 3203SOL     OW21067   1.987   2.824   1.303  0.2217  0.0135 -0.5104
 3203SOL    HW121068   2.009   2.828   1.396 -1.0841  0.6060 -0.2326
 3203SOL    HW221069   2.077   2.836   1.272  0.3513  0.1821 -0.0659
 3204SOL     OW21070   2.718   2.930   6.458 -0.0158 -0.1374 -0.4474
 3204SOL    HW121071   2.690   2.923   6.549  1.9376  1.3739  0.2547
 3204SOL    HW221072   2.799   2.979   6.470  1.0552 -1.8403 -0.6955
 3205SOL     OW21073   4.690   0.048   3.498  0.4904 -0.8041  0.2828
 3205SOL    HW121074   4.658   0.094   3.575  0.8658  0.2209 -0.1757
 3205SOL    HW221075   4.701   0.125   3.442 -2.0393 -0.6497 -0.0084
 3206SOL     OW21076   1.438   1.304  14.397 -0.0646  0.0408 -0.4515
 3206SOL    HW121077   1.353   1.311  14.442 -0.1907 -0.0658 -0.6719
 3206SOL    HW221078   1.421   1.248  14.321 -1.1938  1.3756 -1.1876
 3207SOL     OW21079   3.228   3.337  11.027  0.7443  0.0473  0.2865
 3207SOL    HW121080   3.260   3.281  10.956  1.3671  1.1479 -0.3145
 3207SOL    HW221081   3.281   3.414  11.003 -0.4875  0.9526  0.4390
 3208SOL     OW21082   1.140   4.159   2.854 -0.0002  0.3286 -0.0788
 3208SOL    HW121083   1.188   4.143   2.773  0.0921 -0.1900  0.0803
 3208SOL    HW221084   1.059   4.108   2.844  0.3707 -0.0670 -1.1353
 3209SOL     OW21085   1.843   1.355   3.844 -0.3506  0.3482  0.1214
 3209SOL    HW121086   1.936   1.376   3.856 -0.5072  0.8623  0.4232
 3209SOL    HW221087   1.835   1.282   3.905 -0.1982  0.4551  0.2699
 3210SOL     OW21088   2.252   3.491  14.597 -0.2355 -0.5521  0.5085
 3210SOL    HW121089   2.258   3.474  14.503  2.3834 -0.2795  0.6395
 3210SOL    HW221090   2.291   3.578  14.610  0.2570 -0.7515  0.3679
 3211SOL     OW21091   3.777   0.104   7.623  0.2787 -0.6952  0.0047
 3211SOL    HW121092   3.693   0.147   7.608 -0.4353 -2.2426 -0.4313
 3211SOL    HW221093   3.840   0.174   7.636 -0.3642 -0.3495  1.2498
 3212SOL     OW21094   2.892   2.881   4.295  0.1288  0.0574 -0.6126
 3212SOL    HW121095   2.892   2.976   4.287  0.4258 -0.0144 -1.4661
 3212SOL    HW221096   2.924   2.880   4.385 -0.1937 -2.0984 -0.5085
 3213SOL     OW21097   4.457   0.268   3.269 -0.3728 -0.0603 -0.3460
 3213SOL    HW121098   4.546   0.242   3.292 -1.2019 -2.3635  0.2197
 3213SOL    HW221099   4.411   0.188   3.295  0.8451  0.1151  2.3291
 3214SOL     OW21100   3.518   3.136   9.117  0.2425  0.1820  0.1250
 3214SOL    HW121101   3.485   3.202   9.178 -1.6599  2.0009 -2.8528
 3214SOL    HW221102   3.583   3.092   9.172 -0.2530 -2.6323 -1.5600
 3215SOL     OW21103   0.438   4.050   8.225  0.2987  0.1281  0.3066
 3215SOL    HW121104   0.439   4.123   8.164 -0.5006  0.4997  0.7382
 3215SOL    HW221105   0.411   4.092   8.307 -0.4470  0.6157 -0.1853
 3216SOL     OW21106   3.266   0.245   1.889  0.3527 -0.3958  0.5608
 3216SOL    HW121107   3.288   0.155   1.866  1.3055 -0.0397  0.0460
 3216SOL    HW221108   3.296   0.292   1.810 -2.4801  1.6521  0.6994
 3217SOL     OW21109   2.415   2.915   7.379 -0.0681  0.4800  0.0765
 3217SOL    HW121110   2.339   2.906   7.321  0.9303  0.7765 -1.2828
 3217SOL    HW221111   2.447   3.000   7.352  1.4083 -0.3488 -0.7900
 3218SOL     OW21112   3.735   2.516   5.916  0.0021 -0.4316 -0.5357
 3218SOL    HW121113   3.806   2.452   5.908  0.5912  0.1846 -0.2826
 3218SOL    HW221114   3.786   2.597   5.922 -1.1257  0.2322  0.0740
 3219SOL     OW21115   4.175   1.520   1.810  0.4188 -0.5149  0.3602
 3219SOL    HW121116   4.223   1.449   1.767  0.9415 -1.4400  2.4994
 3219SOL    HW221117   4.205   1.594   1.757 -0.6687  0.4884  1.1396
 3220SOL     OW21118   3.477   3.705   5.522  0.7674  0.3554 -0.2501
 3220SOL    HW121119   3.510   3.750   5.443 -1.0613  1.8292 -0.1681
 3220SOL    HW221120   3.463   3.774   5.587 -1.3450  0.6135 -0.9829
 3221SOL     OW21121   1.854   1.866  14.854 -0.0124 -0.3786  0.5097
 3221SOL    HW121122   1.839   1.906  14.768 -1.2645 -0.7057  0.5826
 3221SOL    HW221123   1.948   1.884  14.857 -0.0002  0.1895 -3.0592
 3222SOL     OW21124   2.288   2.433   9.546 -0.0436 -0.2725  0.0172
 3222SOL    HW121125   2.308   2.503   9.485  2.0796  0.1585  1.2206
 3222SOL    HW221126   2.249   2.367   9.488  0.1654  0.0822 -0.5231
 3223SOL     OW21127   1.767   3.034   3.148 -0.0144 -0.2904  0.1200
 3223SOL    HW121128   1.777   3.117   3.195  3.0774 -1.2696  1.1905
 3223SOL    HW221129   1.675   3.030   3.122 -0.8704 -0.4390  3.1513
 3224SOL     OW21130   2.447   1.261   3.879 -0.0636 -0.2516  0.2785
 3224SOL    HW121131   2.488   1.254   3.793  0.8665  0.0389  0.6993
 3224SOL    HW221132   2.468   1.183   3.931 -1.2855 -0.2222  0.8251
 3225SOL     OW21133   1.315   2.173   5.675 -0.0249 -0.2582 -0.3623
 3225SOL    HW121134   1.296   2.233   5.747  3.7585  1.7565 -1.0602
 3225SOL    HW221135   1.386   2.219   5.630 -0.5612 -0.4630 -1.4142
 3226SOL     OW21136   3.200   3.158   2.347 -0.1331  0.0663 -0.0225
 3226SOL    HW121137   3.110   3.189   2.338 -0.2289  0.1487  1.2619
 3226SOL    HW221138   3.225   3.174   2.256  1.4861 -1.9446  0.0492
 3227SOL     OW21139   1.986   2.755   5.944 -0.1136 -0.0670 -0.2710
 3227SOL    HW121140   1.917   2.691   5.964 -0.4536  0.1623 -0.7388
 3227SOL    HW221141   2.062   2.708   5.911  0.3731 -0.2562  1.0896
 3228SOL     OW21142   1.919   2.739  15.688  1.0311 -0.7183 -0.3589
 3228SOL    HW121143   1.995   2.786  15.656 -0.1468  2.4736  1.5389
 3228SOL    HW221144   1.894   2.702  15.603  0.4520 -1.0113 -0.0649
 3229SOL     OW21145   3.285   2.105  10.983  0.4437  0.3998  0.6948
 3229SOL    HW121146   3.223   2.145  11.044 -2.2635  0.1966 -1.9478
 3229SOL    HW221147   3.258   2.142  10.899  1.2194 -0.5700  0.0134
 3230SOL     OW21148   1.615   1.568   7.895 -0.1118  0.1695  0.2332
 3230SOL    HW121149   1.606   1.657   7.860 -1.4232 -1.6061 -3.8774
 3230SOL    HW221150   1.622   1.518   7.814 -1.1424  0.2935  0.0553
 3231SOL     OW21151   2.762   2.112  16.151 -0.2352 -0.3954 -0.7673
 3231SOL    HW121152   2.711   2.032  16.141  1.5485 -1.4443 -1.2546
 3231SOL    HW221153   2.846   2.096  16.109  0.7969  1.8794  0.4029
 3232SOL     OW21154   4.683   3.821   0.205 -0.1425  0.5810 -0.6673
 3232SOL    HW121155   0.030   3.754   0.198 -0.4394  0.1995  0.1306
 3232SOL    HW221156   4.656   3.829   0.114 -2.6637 -3.1387 -0.2623
 3233SOL     OW21157   4.002   2.975   4.675 -0.1365  0.0434  0.0349
 3233SOL    HW121158   4.023   2.943   4.763  0.4608  0.0779 -0.0914
 3233SOL    HW221159   4.050   2.916   4.617 -0.5915 -0.7543  0.4737
 3234SOL     OW21160   2.390   2.617   7.448 -0.1802  0.4330 -0.3940
 3234SOL    HW121161   2.358   2.669   7.522  1.1292  0.0024  0.4662
 3234SOL    HW221162   2.310   2.611   7.395  0.7144  0.7892 -1.7913
 3235SOL     OW21163   4.171   2.319   9.839 -0.7439 -0.1127  0.0242
 3235SOL    HW121164   4.260   2.350   9.858 -0.6499  0.0585 -0.6964
 3235SOL    HW221165   4.171   2.307   9.744 -0.0866 -1.8152  0.2327
 3236SOL     OW21166   1.274   3.988   7.980 -0.3747 -0.5931  0.0588
 3236SOL    HW121167   1.240   3.927   7.914  0.8776  0.3085 -1.4193
 3236SOL    HW221168   1.209   4.056   7.962  1.3154  0.9599 -0.1948
 3237SOL     OW21169   4.276   0.795  11.409  0.2390 -0.2453 -0.3883
 3237SOL    HW121170   4.268   0.788  11.504  1.6104  0.4682 -0.2328
 3237SOL    HW221171   4.235   0.712  11.383  1.0565 -1.0731  0.9389
 3238SOL     OW21172   4.614   0.416   5.336 -0.0658  0.2261  0.1227
 3238SOL    HW121173   4.647   0.372   5.257  1.9039 -0.6011  1.4202
 3238SOL    HW221174   4.537   0.455   5.294  0.2428  0.6107 -0.0931
 3239SOL     OW21175   3.292   1.561   1.740  0.2776 -0.1473  0.3990
 3239SOL    HW121176   3.322   1.640   1.785  0.1592 -0.4622  1.0281
 3239SOL    HW221177   3.207   1.563   1.784  0.3851 -0.9405  0.6496
 3240SOL     OW21178   2.546   0.913   5.907  0.0844 -0.0322 -0.1767
 3240SOL    HW121179   2.579   0.937   5.994 -0.4932 -1.0094  0.3205
 3240SOL    HW221180   2.512   0.827   5.932  0.1799  0.4935  1.7881
 3241SOL     OW21181   3.488   0.884  15.889  0.3045 -0.4260 -0.4882
 3241SOL    HW121182   3.514   0.897  15.798 -1.8450  0.0252 -1.0505
 3241SOL    HW221183   3.412   0.825  15.888 -0.6008  0.7541 -1.9645
 3242SOL     OW21184   2.234   2.135  14.765 -0.1441 -0.3224  0.0312
 3242SOL    HW121185   2.253   2.226  14.787 -1.7675  0.3826 -1.4422
 3242SOL    HW221186   2.299   2.117  14.697  0.3402 -1.3755  0.7737
 3243SOL     OW21187   1.152   0.435  15.744  0.0885  0.0475  0.1333
 3243SOL    HW121188   1.224   0.409  15.686 -0.1387 -1.5601  0.5694
 3243SOL    HW221189   1.196   0.424  15.829 -0.4354  1.3899  0.5769
 3244SOL     OW21190   3.267   0.076   9.469  0.4613 -0.0534  0.0658
 3244SOL    HW121191   3.227   4.715   9.499  0.4830  0.7485  2.2737
 3244SOL    HW221192   3.354   0.058   9.503 -0.0532 -1.5958  0.5716
 3245SOL     OW21193   3.551   3.027  14.227  0.2998  1.1905 -0.1681
 3245SOL    HW121194   3.581   3.041  14.317 -0.1215  2.6873 -0.2541
 3245SOL    HW221195   3.492   2.953  14.241  0.5271  0.8739 -0.8441
 3246SOL     OW21196   2.498   1.092   8.997 -0.2497 -0.3461  0.2324
 3246SOL    HW121197   2.585   1.070   9.029 -0.3219 -3.3041 -1.6509
 3246SOL    HW221198   2.451   1.131   9.071 -1.3137 -0.2509 -0.4943
 3247SOL     OW21199   3.502   2.555  14.365  0.1596  0.7952 -0.7117
 3247SOL    HW121200   3.598   2.550  14.370  0.0953  0.6320  0.3409
 3247SOL    HW221201   3.485   2.472  14.410 -0.4045  2.2581  1.7496
 3248SOL     OW21202   0.581   3.589   2.255 -0.2437 -0.3338 -0.4895
 3248SOL    HW121203   0.559   3.499   2.277 -0.2902 -0.4756 -1.1052
 3248SOL    HW221204   0.496   3.632   2.269  0.2224  0.4087  0.0360
 3249SOL     OW21205   2.788   3.380   5.340  1.0635  0.2972  0.1038
 3249SOL    HW121206   2.761   3.288   5.350 -0.3247  0.7245  0.3024
 3249SOL    HW221207   2.724   3.395   5.271 -1.6731 -1.1935  2.3189
 3250SOL     OW21208   0.534   1.245   4.077  0.1032  0.5068  0.2123
 3250SOL    HW121209   0.472   1.243   4.005  0.0551 -0.5408  0.2906
 3250SOL    HW221210   0.584   1.165   4.060 -0.2197  0.4482 -0.4174
 3251SOL     OW21211   2.284   3.299  15.224  1.2237 -0.1316  0.3237
 3251SOL    HW121212   2.304   3.260  15.139 -0.2863  0.2158 -0.1874
 3251SOL    HW221213   2.369   3.292  15.268  1.2874 -0.3400  0.1640
 3252SOL     OW21214   1.096   1.219   8.372  0.1489  0.1138  0.0841
 3252SOL    HW121215   1.142   1.181   8.447  0.1315  0.7334  0.4127
 3252SOL    HW221216   1.177   1.243   8.327  1.1115  0.4335  2.0196
 3253SOL     OW21217   0.055   4.525   7.999 -0.5518  0.4786  0.5397
 3253SOL    HW121218   0.042   4.612   8.037  0.2771  0.0059  1.9110
 3253SOL    HW221219   0.127   4.499   8.056 -0.8967 -1.0047  0.3076
 3254SOL     OW21220   2.484   3.962   7.284 -0.0666 -0.2238 -0.3847
 3254SOL    HW121221   2.519   3.962   7.373  0.4162  1.1844 -0.5615
 3254SOL    HW221222   2.509   3.873   7.262 -1.1969 -1.1707  2.1013
 3255SOL     OW21223   3.567   2.155   0.524 -0.1104 -0.7321 -0.3310
 3255SOL    HW121224   3.523   2.072   0.541 -2.0091  0.4257  0.3628
 3255SOL    HW221225   3.507   2.192   0.460  0.6873  0.9217 -0.1252
 3256SOL     OW21226   1.140   0.126  15.653  0.0470  0.2186 -0.4049
 3256SOL    HW121227   1.215   0.160  15.701  0.5036 -1.2203 -0.0941
 3256SOL    HW221228   1.062   0.168  15.689  0.5098 -1.2546  2.2860
 3257SOL     OW21229   1.566   1.541  17.225 -0.7932 -0.3784  0.2888
 3257SOL    HW121230   1.491   1.600  17.225  0.2348  0.9481 -0.6754
 3257SOL    HW221231   1.523   1.455  17.222  0.1723 -0.8993  1.2893
 3258SOL     OW21232   1.410   0.531   5.112 -0.4699 -1.3338 -0.1805
 3258SOL    HW121233   1.410   0.447   5.067 -0.7720 -1.1600 -0.5089
 3258SOL    HW221234   1.487   0.575   5.076  0.7567 -0.8429  3.0548
 3259SOL     OW21235   3.196   1.688  10.674 -0.2349  0.6351  0.1797
 3259SOL    HW121236   3.146   1.759  10.716 -2.1757  0.6953 -2.2304
 3259SOL    HW221237   3.128   1.623  10.692  1.5034 -1.2421 -0.0799
 3260SOL     OW21238   4.136   4.240   6.967 -0.0956 -0.1666  0.3279
 3260SOL    HW121239   4.046   4.264   6.989 -0.1694  0.0961 -0.2754
 3260SOL    HW221240   4.127   4.168   6.905 -0.5945  0.3655 -0.2180
 3261SOL     OW21241   0.358   2.287   3.177  0.0453  0.2475  0.0957
 3261SOL    HW121242   0.371   2.198   3.208  1.5120 -0.1186 -1.6039
 3261SOL    HW221243   0.328   2.287   3.087 -0.1537 -0.8009  0.1632
 3262SOL     OW21244   2.106   1.915  14.846  0.4231 -0.0640  0.0689
 3262SOL    HW121245   2.165   1.872  14.783 -0.2750 -1.4878  0.3728
 3262SOL    HW221246   2.120   2.006  14.821  0.0569  0.1539  0.6576
 3263SOL     OW21247   0.568   4.103  16.146  0.6528 -0.1777 -0.1819
 3263SOL    HW121248   0.498   4.047  16.113  0.2142  0.0153  0.4203
 3263SOL    HW221249   0.578   4.072  16.236  1.1918 -3.6338 -1.4241
 3264SOL     OW21250   3.180   3.082   0.519 -0.2096 -0.3335  0.7036
 3264SOL    HW121251   3.128   3.163   0.529  1.2888  0.0892  4.9062
 3264SOL    HW221252   3.209   3.097   0.429 -1.9657 -1.2102 -0.0144
 3265SOL     OW21253   1.769   2.872   7.044 -0.2050  0.2513  0.4364
 3265SOL    HW121254   1.751   2.950   7.096  1.8483 -0.8105  2.6941
 3265SOL    HW221255   1.732   2.909   6.963 -0.9254  0.1614  0.7213
 3266SOL     OW21256   0.866   0.670  10.442 -1.1047  0.4848 -0.2690
 3266SOL    HW121257   0.921   0.741  10.474 -0.5270 -0.4799  0.8557
 3266SOL    HW221258   0.843   0.624  10.523  1.2220  1.0405  0.7075
 3267SOL     OW21259   3.592   3.444  17.140 -0.1156 -0.4513 -0.7325
 3267SOL    HW121260   3.619   3.361  17.102  0.5997 -1.7407  2.5806
 3267SOL    HW221261   3.500   3.443  17.114 -0.8410  0.1500  1.8239
 3268SOL     OW21262   3.901   4.643   4.523  0.2082  0.2120 -0.2347
 3268SOL    HW121263   3.826   4.660   4.465 -0.6370 -0.2004  0.7201
 3268SOL    HW221264   3.854   4.589   4.587 -0.8267 -1.5929 -2.5130
 3269SOL     OW21265   2.095   4.648   8.114 -0.0879  0.3837  0.4303
 3269SOL    HW121266   2.094   4.555   8.138  2.1627  0.0721 -0.6350
 3269SOL    HW221267   2.034   4.648   8.041  2.7377 -2.4429 -1.9273
 3270SOL     OW21268   3.532   2.631  15.977  0.2387  0.0921 -0.2475
 3270SOL    HW121269   3.496   2.598  16.059  0.7209 -0.2351 -0.1645
 3270SOL    HW221270   3.458   2.679  15.941  0.5510 -0.6852 -1.9602
 3271SOL     OW21271   0.481   4.023   5.293 -0.1080  0.5932  0.1500
 3271SOL    HW121272   0.442   3.993   5.375 -0.7043 -2.4692 -1.2866
 3271SOL    HW221273   0.419   4.082   5.251 -0.3358  0.8252  0.8048
 3272SOL     OW21274   1.995   3.006   6.942  0.1219  0.2756 -0.2019
 3272SOL    HW121275   1.919   3.049   6.903  1.6623  3.0012 -0.2218
 3272SOL    HW221276   1.987   3.028   7.035 -2.0953 -0.7178 -0.1593
 3273SOL     OW21277   3.215   0.565  12.887  0.0598  0.7436  0.5014
 3273SOL    HW121278   3.267   0.590  12.810 -1.6515  1.5565 -0.3798
 3273SOL    HW221279   3.169   0.643  12.916  0.4795  0.7758  1.0655
 3274SOL     OW21280   1.651   0.574   3.472  0.0988 -0.0962 -0.0321
 3274SOL    HW121281   1.582   0.640   3.481  1.0828  0.6785  1.8251
 3274SOL    HW221282   1.650   0.538   3.383  0.7264  1.1664 -0.5570
 3275SOL     OW21283   4.004   0.825   4.929 -0.1338  0.1801 -0.2404
 3275SOL    HW121284   3.980   0.904   4.880 -1.1029 -2.2390 -3.6389
 3275SOL    HW221285   4.099   0.836   4.922  0.2741 -1.8720  2.3088
 3276SOL     OW21286   4.665   3.938  14.035 -0.3287  0.2514  0.1885
 3276SOL    HW121287   4.601   3.941  14.105 -1.5484 -0.7390 -0.8783
 3276SOL    HW221288   4.627   4.001  13.973 -1.3068 -2.2932 -1.7936
 3277SOL     OW21289   1.740   3.334   6.136  0.5854  0.1004  0.5839
 3277SOL    HW121290   1.695   3.275   6.196 -0.2647  0.7589  0.5937
 3277SOL    HW221291   1.756   3.280   6.059 -0.7141  0.3585  0.1364
 3278SOL     OW21292   0.685   4.361  14.063 -0.8322  0.4199  0.5224
 3278SOL    HW121293   0.757   4.301  14.082 -0.0260  0.6326 -1.8588
 3278SOL    HW221294   0.699   4.367  13.968  2.2070  2.0615  1.0707
 3279SOL     OW21295   2.135   4.703  14.364 -0.0392  0.1318  0.4105
 3279SOL    HW121296   2.120   4.618  14.322  2.6546 -0.4947  0.7188
 3279SOL    HW221297   2.209   4.676  14.418 -2.0036 -2.5045  1.7736
 3280SOL     OW21298   2.995   3.975   2.098  0.0239  0.5204  0.2333
 3280SOL    HW121299   2.972   3.995   2.188 -0.7046 -0.2516  0.2241
 3280SOL    HW221300   3.039   3.894   2.123 -0.2469  0.9915  2.2412
 3281SOL     OW21301   0.263   4.199  17.452 -0.1760 -0.2677 -0.4183
 3281SOL    HW121302   0.255   4.137  17.380  0.2199 -1.3506  0.4654
 3281SOL    HW221303   0.331   4.161  17.508  1.7737 -0.0369 -2.6709
 3282SOL     OW21304   2.113   1.799  10.671 -0.1019  0.2406 -0.5455
 3282SOL    HW121305   2.193   1.752  10.646 -0.6915 -0.4306 -1.1636
 3282SOL    HW221306   2.095   1.781  10.763 -1.1967  0.0820 -0.7917
 3283SOL     OW21307   4.718   1.087   9.334 -0.2506  0.1038  0.5502
 3283SOL    HW121308   4.691   1.167   9.380  0.9811  0.5619  0.4712
 3283SOL    HW221309   0.091   1.076   9.346  0.1438  0.4384 -2.1788
 3284SOL     OW21310   0.415   1.521  11.959 -0.5038  0.1972  0.2437
 3284SOL    HW121311   0.415   1.541  11.865 -0.5241  2.2449  0.6753
 3284SOL    HW221312   0.329   1.557  11.984 -0.5978  0.6820 -0.7651
 3285SOL     OW21313   4.103   2.244   1.430  0.1242  0.0697  0.2585
 3285SOL    HW121314   4.054   2.164   1.416 -2.7845  1.3312  3.3481
 3285SOL    HW221315   4.182   2.248   1.376 -0.1969 -0.0813 -0.2167
 3286SOL     OW21316   3.175   1.582  12.884  0.1444  0.0652 -0.0689
 3286SOL    HW121317   3.259   1.562  12.926  0.4451 -0.6735 -1.0338
 3286SOL    HW221318   3.151   1.664  12.928 -0.7804  0.0299 -0.5191
 3287SOL     OW21319   2.327   2.961   8.854 -0.5313 -0.2046 -0.3749
 3287SOL    HW121320   2.377   2.881   8.836  2.1201  0.6281  3.2243
 3287SOL    HW221321   2.385   3.034   8.830 -3.5605  2.8029  1.4931
 3288SOL     OW21322   4.567   1.078   5.712 -0.7752  0.0489 -0.6358
 3288SOL    HW121323   4.547   1.101   5.802  0.7286 -2.0687  0.2300
 3288SOL    HW221324   4.619   1.156   5.691 -1.7721  1.0050  0.4762
 3289SOL     OW21325   0.840   2.926   3.384  0.3574 -0.0634 -0.3207
 3289SOL    HW121326   0.877   2.983   3.317  0.8493 -1.8426 -1.5529
 3289SOL    HW221327   0.773   2.873   3.342 -2.0942  0.4996  2.8919
 3290SOL     OW21328   4.276   3.283   8.845 -0.1866  0.4278  0.2416
 3290SOL    HW121329   4.334   3.250   8.776  0.1212  0.2045  0.6106
 3290SOL    HW221330   4.253   3.198   8.882 -0.1086  1.8017  3.4440
 3291SOL     OW21331   4.174   1.887  14.783  0.5188  0.1668 -0.4476
 3291SOL    HW121332   4.202   1.972  14.817  0.4780 -0.2599  0.6717
 3291SOL    HW221333   4.091   1.903  14.827  0.3535  3.3413 -1.9403
 3292SOL     OW21334   1.186   2.120   8.557  0.5581  0.3394 -0.1218
 3292SOL    HW121335   1.219   2.201   8.596  0.6514  0.2364  0.0132
 3292SOL    HW221336   1.112   2.099   8.614  0.7861 -2.0630 -0.6982
 3293SOL     OW21337   3.495   2.611  10.591  0.0966  0.1444  0.5937
 3293SOL    HW121338   3.587   2.586  10.595  0.0350 -0.3556 -1.1203
 3293SOL    HW221339   3.441   2.547  10.639 -0.5172 -0.0480 -0.3509
 3294SOL     OW21340   0.370   2.295  15.564  0.4314 -0.3886  0.7859
 3294SOL    HW121341   0.345   2.323  15.477  0.5963 -0.3930  0.7358
 3294SOL    HW221342   0.351   2.201  15.559  0.0846 -0.4096  2.5262
 3295SOL     OW21343   1.709   1.458   4.844  0.2871 -0.3038 -0.4015
 3295SOL    HW121344   1.648   1.462   4.918 -0.6338 -0.2466 -1.1627
 3295SOL    HW221345   1.674   1.508   4.770 -1.0496 -1.3116 -0.4551
 3296SOL     OW21346   1.457   2.376   9.057  0.6161 -0.0021  0.1906
 3296SOL    HW121347   1.546   2.353   9.030 -0.3855 -1.0943 -2.1780
 3296SOL    HW221348   1.464   2.433   9.134  0.1866  2.2534 -1.4435
 3297SOL     OW21349   2.517   3.429   5.522 -0.1753  0.0422 -0.4567
 3297SOL    HW121350   2.459   3.424   5.598  2.3856  0.7440  1.5414
 3297SOL    HW221351   2.593   3.475   5.557  0.8422 -2.0202  0.0388
 3298SOL     OW21352   4.034   4.657   8.190  0.0182  0.1726 -1.0447
 3298SOL    HW121353   4.011   0.010   8.247 -0.4045  0.8180 -2.0317
 3298SOL    HW221354   4.099   4.612   8.243 -0.5941  0.0134 -0.4379
 3299SOL     OW21355   1.960   1.577  10.325 -0.3486  0.3300  0.0565
 3299SOL    HW121356   1.947   1.482  10.324 -0.3374  0.3569 -1.8656
 3299SOL    HW221357   1.872   1.594  10.292 -0.8921 -1.2920  0.6746
 3300SOL     OW21358   2.387   3.599   3.679 -0.2232  0.0977 -0.3134
 3300SOL    HW121359   2.474   3.586   3.641  1.3199  2.0453  2.5818
 3300SOL    HW221360   2.376   3.693   3.693  0.6100  0.3538 -1.3629
 3301SOL     OW21361   2.100   4.516  10.244  0.1751 -0.0466  0.2238
 3301SOL    HW121362   2.150   4.482  10.170 -1.5946 -0.2741 -0.8783
 3301SOL    HW221363   2.082   4.432  10.288  0.5673  0.5460  1.5034
 3302SOL     OW21364   3.912   2.044  12.942 -0.1727  0.1214  0.1189
 3302SOL    HW121365   3.919   2.091  12.860  1.2933  0.2022  0.2808
 3302SOL    HW221366   3.819   2.022  12.940 -0.5534  1.9482 -1.5181
 3303SOL     OW21367   0.031   1.779   1.954  0.2751  0.1171 -0.3223
 3303SOL    HW121368   0.115   1.806   1.992  0.2336 -1.3800  0.8506
 3303SOL    HW221369   0.023   1.685   1.970  2.0279  0.1321  0.7411
 3304SOL     OW21370   1.705   3.118   7.171 -0.2473 -0.8682 -0.0732
 3304SOL    HW121371   1.668   3.164   7.095 -0.2272 -2.6406 -1.1568
 3304SOL    HW221372   1.649   3.156   7.238  0.9335  2.0517 -0.7234
 3305SOL     OW21373   3.042   0.400   1.868  0.0602 -0.6659  0.0919
 3305SOL    HW121374   3.083   0.314   1.879  1.7975 -0.0344 -1.5046
 3305SOL    HW221375   2.954   0.379   1.835 -0.2193 -2.1519  1.7643
 3306SOL     OW21376   0.856   2.947   1.735  0.4037  0.6121  0.2108
 3306SOL    HW121377   0.917   2.879   1.707 -0.9861  0.6228 -2.8673
 3306SOL    HW221378   0.780   2.928   1.680  1.7519  0.7322 -1.6778
 3307SOL     OW21379   1.791   2.526   5.342 -0.6579  0.1511 -0.2089
 3307SOL    HW121380   1.710   2.505   5.295 -1.3834  1.0077  0.6807
 3307SOL    HW221381   1.832   2.596   5.290  0.2856 -1.2465 -1.3840
 3308SOL     OW21382   4.587   2.644   4.840  0.7343 -0.3757  0.2896
 3308SOL    HW121383   4.635   2.577   4.888  0.5593 -1.0559 -0.4664
 3308SOL    HW221384   4.532   2.592   4.781 -1.6280  1.0803  1.1968
 3309SOL     OW21385   1.299   4.383   3.850 -0.1807  0.0289  0.3795
 3309SOL    HW121386   1.295   4.349   3.760  0.1822 -0.1916  0.4449
 3309SOL    HW221387   1.391   4.395   3.876 -0.2218 -0.1991  0.6272
 3310SOL     OW21388   0.369   4.561   5.846 -0.0261 -0.4381 -0.0736
 3310SOL    HW121389   0.333   4.555   5.935 -0.6669  1.8847 -0.1661
 3310SOL    HW221390   0.289   4.585   5.799  0.2276  1.4057  0.4312
 3311SOL     OW21391   2.505   3.308  15.363  0.3638  0.3407  0.4794
 3311SOL    HW121392   2.584   3.275  15.405  0.5549  0.1548 -0.0218
 3311SOL    HW221393   2.532   3.384  15.310 -0.8429 -0.1972 -0.9007
 3312SOL     OW21394   2.365   2.548   4.760 -0.0549 -0.1612 -0.5637
 3312SOL    HW121395   2.336   2.502   4.838 -0.9355  2.7339  0.8448
 3312SOL    HW221396   2.306   2.623   4.768  1.0312  0.6628 -0.2734
 3313SOL     OW21397   1.680   2.180   2.927  0.7156 -0.6111  0.6424
 3313SOL    HW121398   1.763   2.158   2.884  0.2450  0.1732 -0.6878
 3313SOL    HW221399   1.697   2.269   2.955  0.8628 -0.5958  0.5114
 3314SOL     OW21400   0.402   3.564   5.429 -0.6788  0.0414  0.6621
 3314SOL    HW121401   0.458   3.596   5.358 -1.6903 -1.8359 -0.9860
 3314SOL    HW221402   0.357   3.490   5.388 -1.3829 -0.3737  2.1942
 3315SOL     OW21403   4.046   3.220   2.504 -0.2895  0.0564 -0.0028
 3315SOL    HW121404   4.078   3.310   2.500  2.5017 -0.9287  0.7095
 3315SOL    HW221405   3.965   3.224   2.555 -0.5920 -1.1254 -0.4063
 3316SOL     OW21406   0.163   2.817   0.270 -0.1714 -0.4501  0.4100
 3316SOL    HW121407   0.220   2.894   0.266 -0.7312  0.0283  1.3836
 3316SOL    HW221408   0.225   2.745   0.263 -1.2684 -1.3332 -0.1268
 3317SOL     OW21409   0.896   4.514  14.314  0.1238 -0.2756 -0.0540
 3317SOL    HW121410   0.961   4.570  14.356 -0.5832  0.9313 -0.5665
 3317SOL    HW221411   0.938   4.488  14.232 -2.0507  0.4761 -1.4141
 3318SOL     OW21412   1.700   0.309   0.530 -0.0042 -0.4310  0.3726
 3318SOL    HW121413   1.724   0.396   0.562  2.8657 -0.8787 -0.6001
 3318SOL    HW221414   1.748   0.259   0.597  0.1596 -1.2073 -0.3285
 3319SOL     OW21415   3.732   3.601   4.043  0.6571  0.4797 -0.5460
 3319SOL    HW121416   3.747   3.507   4.044  0.7371  0.4978 -0.2399
 3319SOL    HW221417   3.639   3.614   4.062  1.3248  2.2597  1.4466
 3320SOL     OW21418   3.377   1.888   7.119  0.2685  0.7261  0.1118
 3320SOL    HW121419   3.417   1.937   7.046 -1.0456  0.6216 -0.6772
 3320SOL    HW221420   3.454   1.878   7.175 -1.2856 -1.2911  1.8708
 3321SOL     OW21421   2.674   0.395   3.204  0.6104  0.3484  0.1723
 3321SOL    HW121422   2.641   0.484   3.202  1.1645  0.4991 -1.9694
 3321SOL    HW221423   2.700   0.392   3.112 -0.0532  0.7736 -0.0321
 3322SOL     OW21424   0.113   0.583  13.232  0.1291 -0.7229 -0.2682
 3322SOL    HW121425   0.145   0.640  13.162 -0.0969 -2.0575 -1.4807
 3322SOL    HW221426   0.094   0.652  13.295  0.3060 -0.5632 -0.3899
 3323SOL     OW21427   0.664   3.112   2.528  0.4232  0.6271  0.3253
 3323SOL    HW121428   0.580   3.109   2.484  1.7291 -0.6680 -2.0708
 3323SOL    HW221429   0.696   3.022   2.523 -1.3747 -0.0050  0.1967
 3324SOL     OW21430   3.557   4.328  12.556 -0.2420 -0.0037 -0.3968
 3324SOL    HW121431   3.642   4.361  12.527  1.1742 -3.6587 -0.4743
 3324SOL    HW221432   3.549   4.383  12.634 -1.5347  0.1879 -0.6761
 3325SOL     OW21433   2.231   0.836   3.415  0.1256 -0.2753  0.3831
 3325SOL    HW121434   2.286   0.829   3.493  1.1687  0.3619 -0.2968
 3325SOL    HW221435   2.185   0.919   3.422  1.1121  0.2883  0.1332
 3326SOL     OW21436   0.427   3.477   9.804 -0.0101  0.3853 -0.1399
 3326SOL    HW121437   0.336   3.487   9.776  0.3660  0.3488 -1.3664
 3326SOL    HW221438   0.466   3.554   9.763 -1.4004  1.9621  1.5148
 3327SOL     OW21439   0.471   3.704   0.713  0.0736 -0.0232  0.6933
 3327SOL    HW121440   0.425   3.735   0.635  2.3935 -0.1230 -0.7367
 3327SOL    HW221441   0.545   3.661   0.669 -0.6782  1.6699 -2.2207
 3328SOL     OW21442   2.480   0.520  13.451 -0.4664  0.1117 -0.0859
 3328SOL    HW121443   2.504   0.565  13.370  1.6935 -2.8556 -1.1060
 3328SOL    HW221444   2.544   0.557  13.511  0.2097 -2.2397  0.6492
 3329SOL     OW21445   1.177   3.838   2.763  0.0384  0.4800  0.2186
 3329SOL    HW121446   1.092   3.882   2.770 -0.1585  0.4758 -2.4421
 3329SOL    HW221447   1.232   3.870   2.835  1.6540  0.0141 -0.8312
 3330SOL     OW21448   0.361   3.257   0.775 -0.4277 -0.2894  0.2449
 3330SOL    HW121449   0.425   3.306   0.723 -0.1844  0.1670  0.9867
 3330SOL    HW221450   0.294   3.251   0.707  0.1817  3.5155 -0.7203
 3331SOL     OW21451   3.199   2.438   3.387 -0.0585  0.1540 -0.4382
 3331SOL    HW121452   3.135   2.470   3.450  0.6317  2.6934 -1.0239
 3331SOL    HW221453   3.222   2.354   3.427  2.9860  0.4437 -1.5552
 3332SOL     OW21454   2.467   2.924   6.342  0.5424  0.1727  0.1605
 3332SOL    HW121455   2.557   2.914   6.374  0.3196 -0.6158  0.5421
 3332SOL    HW221456   2.462   2.841   6.294 -1.1913 -0.2833  1.1163
 3333SOL     OW21457   4.698   0.332  13.736  0.1592 -0.6541 -0.1888
 3333SOL    HW121458   0.018   0.247  13.749 -1.3578 -1.4570 -0.6885
 3333SOL    HW221459   4.716   0.350  13.644 -0.0204  0.1830 -0.0584
 3334SOL     OW21460   1.304   0.787  14.662 -0.3581  0.1761 -0.2861
 3334SOL    HW121461   1.355   0.804  14.742 -0.8948 -1.7089  0.4663
 3334SOL    HW221462   1.379   0.737  14.630 -0.0607 -0.7198  1.7808
 3335SOL     OW21463   4.416   4.132   8.519 -0.0910 -0.0829  0.8461
 3335SOL    HW121464   4.448   4.046   8.546  0.3699 -0.4615 -0.9412
 3335SOL    HW221465   4.440   4.127   8.426  0.2544 -1.9954  1.0358
 3336SOL     OW21466   2.244   2.769   7.626  0.0012 -0.6396 -0.3391
 3336SOL    HW121467   2.208   2.846   7.583  0.3416 -0.0256  0.4772
 3336SOL    HW221468   2.171   2.750   7.684  0.1544 -0.0284  0.0574
 3337SOL     OW21469   0.857   1.250   8.190 -0.3026 -0.0066  0.2900
 3337SOL    HW121470   0.910   1.178   8.155  0.9019  0.9506  0.1293
 3337SOL    HW221471   0.881   1.234   8.281  0.0755 -0.6115  0.0848
 3338SOL     OW21472   2.574   2.393   6.789  0.8261 -0.6734 -0.3271
 3338SOL    HW121473   2.481   2.407   6.776  0.8376 -1.3020 -1.1093
 3338SOL    HW221474   2.609   2.478   6.762 -0.6055  0.2374  0.7306
 3339SOL     OW21475   0.052   2.068   3.399 -0.4213  0.2144 -0.4714
 3339SOL    HW121476   0.096   2.153   3.395 -1.9037  0.8941 -2.6764
 3339SOL    HW221477   0.133   2.017   3.398 -0.7835 -0.3573 -1.0650
 3340SOL     OW21478   2.050   3.698  16.429  0.1156 -0.1724  0.1239
 3340SOL    HW121479   2.112   3.633  16.461  1.5465  0.6388 -0.9547
 3340SOL    HW221480   1.967   3.651  16.427 -0.5574  0.9714  0.7154
 3341SOL     OW21481   3.194   1.452   2.348  0.2838 -0.2419 -0.2343
 3341SOL    HW121482   3.266   1.465   2.287  0.5358 -3.0587 -0.5542
 3341SOL    HW221483   3.237   1.479   2.429  2.5117  0.9266 -1.8437
 3342SOL     OW21484   2.216   2.088   6.140  0.2533 -0.1597  0.1024
 3342SOL    HW121485   2.165   2.057   6.065 -1.7227 -0.0354  1.4025
 3342SOL    HW221486   2.267   2.011   6.164 -2.3804 -1.9116  0.0842
 3343SOL     OW21487   0.640   2.237   0.617 -0.2311 -0.5133 -0.2065
 3343SOL    HW121488   0.545   2.219   0.614 -0.1519 -0.7438 -1.2734
 3343SOL    HW221489   0.649   2.283   0.534 -0.8039  0.7630  0.4498
 3344SOL     OW21490   2.938   0.924   9.569  0.5768  0.0602 -0.4286
 3344SOL    HW121491   2.861   0.943   9.623  1.1875 -0.8377  0.7526
 3344SOL    HW221492   2.938   0.990   9.500 -2.2328 -2.5147 -2.9475
 3345SOL     OW21493   3.408   4.071  11.737  0.1460 -0.7175 -0.2028
 3345SOL    HW121494   3.425   4.165  11.736  1.0134 -0.8769 -0.0562
 3345SOL    HW221495   3.497   4.044  11.760  0.9157  0.0974 -2.1979
 3346SOL     OW21496   1.692   3.954   4.466  0.5957 -0.7317 -0.5206
 3346SOL    HW121497   1.597   3.962   4.453  0.7119  1.0957 -0.3369
 3346SOL    HW221498   1.710   4.032   4.519 -0.8157 -0.5859 -0.2453
 3347SOL     OW21499   3.635   0.811   3.129  0.0201 -0.0770 -0.3455
 3347SOL    HW121500   3.617   0.754   3.203  1.5868  0.3440  0.3397
 3347SOL    HW221501   3.730   0.818   3.140 -0.1230 -0.2847  1.0334
 3348SOL     OW21502   0.951   2.526   5.263  0.2572 -0.1499  0.2981
 3348SOL    HW121503   0.926   2.434   5.253 -1.2104  0.2535  0.2397
 3348SOL    HW221504   0.880   2.551   5.322 -0.0233  0.4072 -0.2642
 3349SOL     OW21505   2.369   3.227  10.849  0.0825 -0.4082 -0.0581
 3349SOL    HW121506   2.461   3.245  10.867  0.6656 -2.1504 -1.2951
 3349SOL    HW221507   2.374   3.179  10.767 -0.9014 -1.7379  0.6579
 3350SOL     OW21508   2.051   1.172  13.883  0.3939 -0.2579  0.5518
 3350SOL    HW121509   1.961   1.188  13.910  1.7475  2.5044  3.5385
 3350SOL    HW221510   2.094   1.239  13.937 -1.3544  0.3709  1.1654
 3351SOL     OW21511   0.613   2.182   4.094  0.1689 -0.0237  0.1431
 3351SOL    HW121512   0.646   2.204   4.007  2.8110 -0.3408  1.0756
 3351SOL    HW221513   0.673   2.111   4.117  0.8391 -0.1820 -2.0375
 3352SOL     OW21514   0.081   3.952   1.654  0.7888  0.3304  0.1272
 3352SOL    HW121515   0.091   3.870   1.607  1.1552  0.3946  0.0983
 3352SOL    HW221516   4.709   3.952   1.679  0.9721 -1.7632  0.7782
 3353SOL     OW21517   2.593   1.302  15.945 -0.4694  0.4027  0.1125
 3353SOL    HW121518   2.603   1.393  15.916  0.5523  0.3375  0.2799
 3353SOL    HW221519   2.512   1.279  15.899  0.0039 -1.0350  0.0035
 3354SOL     OW21520   1.909   3.329   5.121  0.8546  0.7551 -0.2124
 3354SOL    HW121521   1.923   3.245   5.165 -0.9395 -0.2478 -1.5209
 3354SOL    HW221522   1.980   3.331   5.057 -0.5741  2.2772 -1.7540
 3355SOL     OW21523   0.162   1.985  10.426 -0.0244 -0.1360  0.0550
 3355SOL    HW121524   0.142   2.075  10.402 -1.5165 -0.4300  0.1755
 3355SOL    HW221525   0.253   2.002  10.449 -0.2517  2.1366 -0.7246
 3356SOL     OW21526   4.497   2.185  12.442  0.5110 -1.1138  0.1119
 3356SOL    HW121527   4.500   2.112  12.379  2.3533  0.4896 -1.6716
 3356SOL    HW221528   4.556   2.250  12.404 -0.2479 -0.6068 -0.1994
 3357SOL     OW21529   2.366   4.251   2.590 -0.3940 -0.1901 -0.0770
 3357SOL    HW121530   2.459   4.245   2.613  0.1343  1.9931 -1.5267
 3357SOL    HW221531   2.374   4.301   2.508 -0.2748 -2.2543 -1.3204
 3358SOL     OW21532   3.319   1.095   2.315  0.7413 -0.3910 -0.2826
 3358SOL    HW121533   3.377   1.135   2.250 -0.6707 -1.4397 -2.1593
 3358SOL    HW221534   3.257   1.046   2.262  0.5591  1.0753 -1.4192
 3359SOL     OW21535   2.003   2.487  16.501 -0.1599 -0.0939 -0.2431
 3359SOL    HW121536   1.964   2.481  16.588  0.9900 -0.8196  0.2348
 3359SOL    HW221537   1.988   2.578  16.479  1.3208 -0.3375 -2.2756
 3360SOL     OW21538   0.849   3.705   1.574  0.4035  0.2453  0.2063
 3360SOL    HW121539   0.818   3.781   1.526  2.3596  1.4922  0.9252
 3360SOL    HW221540   0.802   3.638   1.524  0.0864  0.4385  0.2470
 3361SOL     OW21541   2.707   1.858   6.808  0.2058 -0.5238 -0.1374
 3361SOL    HW121542   2.742   1.927   6.865  0.4117  0.6015 -1.6066
 3361SOL    HW221543   2.789   1.825   6.770  1.0897 -1.0741  2.2757
 3362SOL     OW21544   1.587   3.781   4.875  0.2629 -0.1587 -0.0528
 3362SOL    HW121545   1.621   3.713   4.817 -2.4225  0.8472 -2.8076
 3362SOL    HW221546   1.505   3.801   4.831 -0.5588 -1.4413  0.8909
 3363SOL     OW21547   4.459   2.179   3.656  0.0550  0.1064  0.1184
 3363SOL    HW121548   4.465   2.209   3.566  1.4148  1.7122  0.7216
 3363SOL    HW221549   4.535   2.121   3.665 -0.2946 -0.1794  1.2880
 3364SOL     OW21550   3.914   3.725   1.066  0.2211  0.1303 -0.2755
 3364SOL    HW121551   3.905   3.781   0.989  1.1636  1.9213  0.8955
 3364SOL    HW221552   3.909   3.790   1.137  2.6787  0.9777 -0.8583
 3365SOL     OW21553   3.706   1.804   0.162 -0.1658  0.3322 -0.3209
 3365SOL    HW121554   3.760   1.737   0.121  0.7038  0.2476  0.9722
 3365SOL    HW221555   3.682   1.856   0.086 -1.1498  0.3673  0.0036
 3366SOL     OW21556   4.428   1.483   2.513 -0.2776 -0.4475 -0.1107
 3366SOL    HW121557   4.515   1.523   2.505 -1.1620  2.1079  2.9177
 3366SOL    HW221558   4.459   1.402   2.553  0.8950  0.6997  1.3474
 3367SOL     OW21559   0.752   2.594   1.466 -0.1114 -0.7071  0.2431
 3367SOL    HW121560   0.697   2.671   1.455  0.0010 -0.6447  0.1141
 3367SOL    HW221561   0.685   2.537   1.503 -0.4562  1.3156  2.6905
 3368SOL     OW21562   1.150   0.060   7.150 -0.6694  0.3341  0.0695
 3368SOL    HW121563   1.135   0.001   7.077 -1.3928  1.0881 -0.3858
 3368SOL    HW221564   1.223   0.008   7.185 -1.4573 -0.9387 -0.2126
 3369SOL     OW21565   0.578   1.856  12.111  0.2600  0.6465  0.2483
 3369SOL    HW121566   0.549   1.914  12.041  1.2957 -0.1238 -0.8119
 3369SOL    HW221567   0.496   1.811  12.133  0.1736  1.0900  0.8207
 3370SOL     OW21568   4.556   0.252   1.357  0.7703  0.0490 -0.1680
 3370SOL    HW121569   4.468   0.255   1.319  0.8119  0.5780 -0.2193
 3370SOL    HW221570   4.549   0.173   1.411  0.5770  0.1766 -0.0072
 3371SOL     OW21571   2.277   4.627   7.886  0.0090  0.2090  0.1304
 3371SOL    HW121572   2.215   4.617   7.959  0.6533  1.1505  0.7998
 3371SOL    HW221573   2.345   4.649   7.949  0.4699 -1.1918  0.1260
 3372SOL     OW21574   0.872   2.198   6.825 -0.2706 -0.1027  0.2020
 3372SOL    HW121575   0.822   2.141   6.766  0.2762 -1.0389  0.6514
 3372SOL    HW221576   0.799   2.242   6.868  1.3049  3.1596 -0.4698
 3373SOL     OW21577   1.123   0.848   5.506 -0.8579 -0.4178  0.1020
 3373SOL    HW121578   1.213   0.862   5.476 -1.6734  0.2654 -2.0632
 3373SOL    HW221579   1.140   0.772   5.561  2.3205  1.1510  1.2964
 3374SOL     OW21580   3.339   2.762   7.412 -0.0990  0.5647 -0.1359
 3374SOL    HW121581   3.373   2.685   7.366  2.7431  1.9676 -0.4007
 3374SOL    HW221582   3.265   2.719   7.455 -0.0977  0.2416 -0.4613
 3375SOL     OW21583   1.877   1.859   7.440 -0.1622  0.1236 -0.6770
 3375SOL    HW121584   1.837   1.940   7.473  1.2244  0.5786 -0.1022
 3375SOL    HW221585   1.873   1.804   7.518 -0.0603 -1.4473 -1.7956
 3376SOL     OW21586   4.463   3.869   3.160 -0.2518 -0.2634  0.0318
 3376SOL    HW121587   4.439   3.855   3.069 -1.0335 -1.4179  0.4189
 3376SOL    HW221588   4.429   3.787   3.196  0.7498 -1.3318 -1.4349
 3377SOL     OW21589   1.538   0.857   5.006 -0.5460  0.5445  0.0240
 3377SOL    HW121590   1.464   0.860   4.946 -1.7398  3.1434  1.6295
 3377SOL    HW221591   1.622   0.845   4.963  0.7027  2.8321  1.8578
 3378SOL     OW21592   1.502   3.468   5.476 -0.6316 -0.3566 -0.3082
 3378SOL    HW121593   1.485   3.374   5.471  1.6275 -0.7109 -1.6195
 3378SOL    HW221594   1.458   3.499   5.555 -1.1459  0.1543 -0.7880
 3379SOL     OW21595   4.285   2.099   2.120 -0.0315  0.3878  0.3177
 3379SOL    HW121596   4.334   2.130   2.197  1.9078  1.7513 -1.4735
 3379SOL    HW221597   4.348   2.081   2.051 -0.0134 -0.5224  0.5638
 3380SOL     OW21598   2.308   3.804   5.987  0.3908  0.5963 -0.0100
 3380SOL    HW121599   2.311   3.898   6.007 -1.3484  0.3736  1.3017
 3380SOL    HW221600   2.219   3.775   6.010  0.8744 -0.6977  0.1916
 3381SOL     OW21601   0.764   0.628  11.728 -0.5275 -0.2264  0.5361
 3381SOL    HW121602   0.796   0.651  11.815  1.2672  2.7919 -0.9152
 3381SOL    HW221603   0.741   0.711  11.686 -0.5062 -1.0488 -1.1182
 3382SOL     OW21604   1.499   0.554   2.741 -0.1761 -0.4958  0.1621
 3382SOL    HW121605   1.495   0.471   2.695 -0.3330 -0.6277  0.4123
 3382SOL    HW221606   1.591   0.582   2.743  0.0729 -1.2494 -1.2364
 3383SOL     OW21607   1.211   2.500  17.535 -0.1191 -0.1304 -1.0038
 3383SOL    HW121608   1.287   2.545  17.572 -1.1099 -0.1332  0.9882
 3383SOL    HW221609   1.239   2.413  17.562  2.0025  0.8887  0.1301
 3384SOL     OW21610   2.815   4.223  17.312 -0.0773 -0.0066  0.0413
 3384SOL    HW121611   2.869   4.294  17.348  0.0542  0.2926 -0.7457
 3384SOL    HW221612   2.847   4.224  17.222  0.5277 -2.1250  0.2363
 3385SOL     OW21613   0.109   2.685   6.462 -0.0902 -0.6283 -0.0676
 3385SOL    HW121614   0.168   2.627   6.510 -1.5878 -1.8168  0.3550
 3385SOL    HW221615   0.126   2.764   6.514 -0.0881 -1.6150  1.4452
 3386SOL     OW21616   0.199   3.608  14.643 -0.0833 -0.6287 -0.2019
 3386SOL    HW121617   0.220   3.543  14.710  1.9122 -0.8653 -1.0607
 3386SOL    HW221618   0.212   3.565  14.558 -0.8104 -1.0875 -0.0795
 3387SOL     OW21619   2.004   4.113   5.855 -0.0573  0.0609  0.1118
 3387SOL    HW121620   1.922   4.163   5.850  0.0161  0.2942  1.2771
 3387SOL    HW221621   2.029   4.129   5.946  1.2934 -0.1793 -0.2269
 3388SOL     OW21622   1.327   4.239   4.256  0.7406  0.0553 -0.4612
 3388SOL    HW121623   1.325   4.273   4.167  0.7209  1.1206 -0.0484
 3388SOL    HW221624   1.390   4.167   4.244 -1.8416 -2.1976 -0.6726
 3389SOL     OW21625   3.527   1.780   6.225 -0.3252 -0.4396 -0.0782
 3389SOL    HW121626   3.470   1.767   6.150  1.0956 -1.6217 -0.9620
 3389SOL    HW221627   3.506   1.868   6.256  2.2074  0.3167 -0.5482
 3390SOL     OW21628   1.027   4.422   8.035 -0.4131 -0.2718 -0.4432
 3390SOL    HW121629   0.990   4.510   8.040  1.3733  0.6186 -2.8728
 3390SOL    HW221630   1.116   4.438   8.065 -0.2777 -1.8072 -0.0321
 3391SOL     OW21631   1.705   1.241  10.952  0.2005  0.0708  0.2377
 3391SOL    HW121632   1.718   1.256  11.045 -1.9884  0.3386  0.4902
 3391SOL    HW221633   1.757   1.162  10.938  1.6666  1.1169 -0.2640
 3392SOL     OW21634   3.886   0.130  10.983 -0.1868 -0.1030 -0.3218
 3392SOL    HW121635   3.923   0.210  11.020 -1.5443  0.9499 -1.2402
 3392SOL    HW221636   3.796   0.159  11.003 -0.2352 -0.6247  0.2415
 3393SOL     OW21637   1.121   2.605   3.257 -0.0669 -0.4279 -0.1829
 3393SOL    HW121638   1.195   2.582   3.201  0.7088  0.0487  0.6672
 3393SOL    HW221639   1.064   2.528   3.249 -0.5443  0.0914 -1.7281
 3394SOL     OW21640   3.184   2.581   5.399  0.6211 -0.1975 -0.0332
 3394SOL    HW121641   3.270   2.619   5.414  0.7317 -0.5242  0.1593
 3394SOL    HW221642   3.140   2.666   5.392  3.4723  1.3716  0.9453
 3395SOL     OW21643   4.154   1.338   7.120 -0.4431 -0.3579 -0.0671
 3395SOL    HW121644   4.112   1.350   7.206 -0.3327  1.0103 -0.2118
 3395SOL    HW221645   4.242   1.362   7.148  0.3521 -1.5090 -1.6059
 3396SOL     OW21646   1.888   2.679   4.782 -0.5081 -0.7162  0.1331
 3396SOL    HW121647   1.864   2.655   4.693 -1.5518  1.6975 -0.2385
 3396SOL    HW221648   1.804   2.684   4.827 -0.6388 -0.3870 -0.1523
 3397SOL     OW21649   3.079   1.351  12.474 -0.4040 -0.3748  0.2983
 3397SOL    HW121650   3.085   1.416  12.543  1.8741  0.6398 -0.8219
 3397SOL    HW221651   3.170   1.322  12.479 -0.7259 -1.4131  0.1321
 3398SOL     OW21652   3.837   4.060   7.303  0.3187  0.1798 -0.5527
 3398SOL    HW121653   3.762   4.035   7.249 -0.2010  0.5192  0.0136
 3398SOL    HW221654   3.843   4.151   7.275 -0.2526  1.1259  2.4453
 3399SOL     OW21655   0.312   1.876  11.564  0.8267 -0.0610  0.3360
 3399SOL    HW121656   0.376   1.927  11.614  1.0965  1.3689 -1.4255
 3399SOL    HW221657   0.242   1.938  11.543  1.5154 -0.3353 -2.8255
 3400SOL     OW21658   0.410   4.152   3.866  0.1233 -0.4195  0.3831
 3400SOL    HW121659   0.457   4.233   3.886  1.6133 -0.7000 -1.9314
 3400SOL    HW221660   0.396   4.170   3.773  2.1110  0.4791  0.2641
 3401SOL     OW21661   2.661   4.169   7.548  0.3427  0.2845  0.3189
 3401SOL    HW121662   2.707   4.085   7.541 -1.1983 -0.5537  0.1479
 3401SOL    HW221663   2.568   4.152   7.568  0.1640  1.2792  0.3594
 3402SOL     OW21664   2.035   0.495   8.962  0.7603 -0.4463  0.1055
 3402SOL    HW121665   2.099   0.549   9.009  0.1135 -2.1648  2.9143
 3402SOL    HW221666   2.075   0.489   8.875 -1.4144  1.0324 -0.9987
 3403SOL     OW21667   1.050   4.531   7.035 -0.4995 -0.1478 -0.6544
 3403SOL    HW121668   1.136   4.498   7.010 -0.1917  1.5441 -1.7531
 3403SOL    HW221669   1.008   4.466   6.978 -2.9170 -1.7087  2.9219
 3404SOL     OW21670   4.243   0.229   6.310 -0.6583  0.0987 -0.4495
 3404SOL    HW121671   4.197   0.244   6.227  0.7638  0.2202 -1.2116
 3404SOL    HW221672   4.312   0.174   6.272 -1.2342 -0.2902 -0.9426
 3405SOL     OW21673   4.191   2.074   3.684  0.0519  0.0217  0.4963
 3405SOL    HW121674   4.201   1.983   3.655  2.5556  0.9181 -1.4749
 3405SOL    HW221675   4.283   2.100   3.676 -0.5117  1.1473 -2.4135
 3406SOL     OW21676   1.021   1.795   1.090 -0.0178 -0.5787  0.9501
 3406SOL    HW121677   1.000   1.884   1.119  1.4639  0.7412 -2.0797
 3406SOL    HW221678   1.075   1.800   1.011  0.6139  2.0690  1.5501
 3407SOL     OW21679   3.786   1.920   9.132 -0.6336 -0.3190 -0.1970
 3407SOL    HW121680   3.743   1.904   9.216 -1.5128 -0.7186 -0.7265
 3407SOL    HW221681   3.780   1.830   9.099 -1.2377  0.2626 -1.6528
 3408SOL     OW21682   3.282   0.405   4.178  0.0237 -0.7196 -0.1311
 3408SOL    HW121683   3.279   0.419   4.083 -1.9172 -0.4913 -0.0409
 3408SOL    HW221684   3.246   0.488   4.210  1.4065  0.5123 -1.7425
 3409SOL     OW21685   1.209   2.460   3.018  0.2841  0.4270 -1.0289
 3409SOL    HW121686   1.267   2.412   3.076 -0.7895 -1.2736 -1.3662
 3409SOL    HW221687   1.255   2.471   2.935  2.6012  0.2700  0.2619
 3410SOL     OW21688   2.044   4.384   4.152 -0.5473 -0.5136 -0.2597
 3410SOL    HW121689   1.990   4.393   4.230  0.2855 -1.5617  0.4465
 3410SOL    HW221690   2.047   4.469   4.108  1.8582  0.6232  2.0791
 3411SOL     OW21691   3.189   1.923   2.213 -0.0675  0.5063 -0.1591
 3411SOL    HW121692   3.133   1.952   2.140  0.6918 -2.1280 -1.7763
 3411SOL    HW221693   3.162   1.832   2.216  1.6637 -0.0420 -1.2344
 3412SOL     OW21694   3.718   2.399   7.255 -0.1521 -0.1008 -0.2028
 3412SOL    HW121695   3.645   2.339   7.241 -0.6153  0.0090  1.6834
 3412SOL    HW221696   3.738   2.435   7.169  0.6826 -2.5240 -1.0154
 3413SOL     OW21697   3.866   1.148   2.430 -0.3350  0.2656 -0.3904
 3413SOL    HW121698   3.889   1.092   2.355  0.4044 -1.3813  1.0808
 3413SOL    HW221699   3.934   1.139   2.496 -0.3073 -2.1749 -0.7631
 3414SOL     OW21700   0.381   0.213   6.864  0.1345 -0.5939  0.2334
 3414SOL    HW121701   0.421   0.244   6.783 -2.4972  1.7419 -0.1859
 3414SOL    HW221702   0.351   0.299   6.896  0.9643 -0.0992 -0.3375
 3415SOL     OW21703   3.632   4.476   3.303 -0.1156 -0.4552 -0.2215
 3415SOL    HW121704   3.715   4.523   3.313 -2.1264  2.3088  3.6011
 3415SOL    HW221705   3.628   4.426   3.384  1.7583 -3.7025 -2.1336
 3416SOL     OW21706   3.597   0.791   3.903  0.0504 -1.0917  0.2578
 3416SOL    HW121707   3.569   0.710   3.946 -0.7326 -0.3870  1.0531
 3416SOL    HW221708   3.682   0.799   3.947 -0.4217  1.4787  0.6670
 3417SOL     OW21709   0.279   2.173  14.886  0.3251 -0.0632 -0.0812
 3417SOL    HW121710   0.247   2.228  14.957 -0.6010 -1.2011  0.3700
 3417SOL    HW221711   0.223   2.204  14.814  0.7808  0.8709 -0.0358
 3418SOL     OW21712   4.511   1.098   3.092  0.8066 -0.0088  0.4443
 3418SOL    HW121713   4.433   1.043   3.106  0.8023 -0.1569 -0.1719
 3418SOL    HW221714   4.492   1.130   3.004  1.1716 -0.9402  0.0242
 3419SOL     OW21715   4.468   1.211   2.588  0.3044  0.4628  0.6239
 3419SOL    HW121716   4.515   1.148   2.534 -1.5001 -1.0362  0.8060
 3419SOL    HW221717   4.424   1.151   2.648  1.9293  1.6134  2.9653
 3420SOL     OW21718   1.237   1.755   3.802  0.1396  0.0250 -0.3245
 3420SOL    HW121719   1.305   1.801   3.754 -1.1703 -0.1628 -2.3671
 3420SOL    HW221720   1.285   1.695   3.859  1.0992  1.8354  0.7732
 3421SOL     OW21721   3.114   3.965   9.331  0.0695 -0.4923  0.2330
 3421SOL    HW121722   3.104   4.049   9.286 -0.3641 -1.2127 -1.0229
 3421SOL    HW221723   3.023   3.959   9.362  0.1995 -0.1883  0.6774
 3422SOL     OW21724   2.338   3.174   3.025  0.3036  0.1378 -0.4176
 3422SOL    HW121725   2.284   3.233   2.972 -0.2241 -0.2249 -0.2959
 3422SOL    HW221726   2.358   3.097   2.971 -1.8744 -0.0780 -0.9452
 3423SOL     OW21727   2.888   2.322   9.831  0.0376  1.1770  0.0958
 3423SOL    HW121728   2.908   2.383   9.760  0.3552  2.4407  1.2600
 3423SOL    HW221729   2.967   2.306   9.882  1.4413  3.1351 -1.4737
 3424SOL     OW21730   1.014   1.815  14.453 -0.1042  0.2214 -0.4177
 3424SOL    HW121731   0.920   1.807  14.467 -0.3580  0.9176 -1.7279
 3424SOL    HW221732   1.025   1.786  14.363 -2.1955 -2.0075  0.0526
 3425SOL     OW21733   2.507   2.867   2.352 -0.3466 -0.1827  0.3725
 3425SOL    HW121734   2.419   2.842   2.323 -0.7229  0.1752  1.2336
 3425SOL    HW221735   2.508   2.956   2.316 -2.5222 -1.5787 -3.1321
 3426SOL     OW21736   4.309   0.476  14.988 -0.4766  0.0730 -0.7016
 3426SOL    HW121737   4.229   0.465  14.937  0.3456 -1.4915 -1.6432
 3426SOL    HW221738   4.350   0.539  14.929  2.4078  0.0272  1.2965
 3427SOL     OW21739   0.529   4.075   8.849  0.6045 -0.3381 -0.0136
 3427SOL    HW121740   0.463   4.060   8.916  0.5864 -0.0508  0.0344
 3427SOL    HW221741   0.481   4.061   8.768 -0.3159  1.7972  0.1414
 3428SOL     OW21742   1.116   3.394   2.954  0.4412 -0.0387 -0.0868
 3428SOL    HW121743   1.174   3.345   3.012  1.0759  1.8472  0.8641
 3428SOL    HW221744   1.140   3.486   2.966  1.8005 -0.2747 -0.9271
 3429SOL     OW21745   0.082   1.122  14.897  0.0842  0.6160 -0.1799
 3429SOL    HW121746   0.169   1.086  14.877 -0.1391  0.6417 -1.2012
 3429SOL    HW221747   0.045   1.146  14.812  0.0209  0.4227 -0.2074
 3430SOL     OW21748   0.993   1.433   0.592 -0.4574 -0.0909 -0.0633
 3430SOL    HW121749   1.016   1.394   0.677 -2.6562  1.3261  1.1724
 3430SOL    HW221750   1.069   1.430   0.534 -1.9524  0.0713 -2.0372
 3431SOL     OW21751   1.399   0.600   7.079 -0.0916  0.1209  0.0910
 3431SOL    HW121752   1.425   0.602   6.987 -0.1305  0.1750  0.0809
 3431SOL    HW221753   1.487   0.599   7.117 -0.5538 -1.5005  1.0976
 3432SOL     OW21754   2.635   1.227  14.622  0.4945  0.3544 -0.3888
 3432SOL    HW121755   2.542   1.251  14.616  0.4512 -0.2165 -1.8799
 3432SOL    HW221756   2.668   1.291  14.560 -3.0877 -0.0492 -2.7531
 3433SOL     OW21757   1.575   2.699   2.849  0.0940  0.2134  0.3912
 3433SOL    HW121758   1.516   2.748   2.792 -2.9650 -1.8998  1.7791
 3433SOL    HW221759   1.592   2.622   2.794  0.2200  1.2540 -1.0226
 3434SOL     OW21760   0.450   0.502   8.241  0.7283 -0.6072 -0.1495
 3434SOL    HW121761   0.458   0.461   8.327  0.3067 -0.6547 -0.1330
 3434SOL    HW221762   0.508   0.578   8.240 -0.8787  0.6002 -1.7912
 3435SOL     OW21763   1.085   3.912   3.315 -0.7431  0.0211 -0.1543
 3435SOL    HW121764   1.096   3.988   3.373  0.2986  0.2447 -0.6355
 3435SOL    HW221765   1.169   3.906   3.268 -1.0364 -1.5752 -0.4669
 3436SOL     OW21766   1.846   2.696  15.380 -0.7200  0.1103 -0.4465
 3436SOL    HW121767   1.752   2.710  15.395 -1.3430 -3.3315 -1.0377
 3436SOL    HW221768   1.886   2.780  15.360  0.2734 -0.1086  0.6290
 3437SOL     OW21769   3.399   2.274   2.508 -0.0391  0.6019  0.2928
 3437SOL    HW121770   3.394   2.359   2.552  0.4161  0.2662  0.9888
 3437SOL    HW221771   3.438   2.211   2.568 -1.0609 -0.2406  0.0690
 3438SOL     OW21772   2.493   3.519  11.846 -0.0780  0.1730  0.5560
 3438SOL    HW121773   2.496   3.441  11.901  0.1467  0.5274  1.0535
 3438SOL    HW221774   2.540   3.586  11.897 -0.8223  2.1441 -1.3281
 3439SOL     OW21775   0.572   3.188   7.620  0.1069  0.0137 -0.6744
 3439SOL    HW121776   0.493   3.146   7.654  0.4869 -2.1812 -2.5284
 3439SOL    HW221777   0.629   3.202   7.695 -0.0217  1.0444 -0.7686
 3440SOL     OW21778   2.932   3.361   3.418  0.2354 -0.0277  0.2731
 3440SOL    HW121779   3.004   3.354   3.355  0.6080  0.4480  0.6458
 3440SOL    HW221780   2.859   3.399   3.370 -0.3446 -0.6771  0.6385
 3441SOL     OW21781   2.966   3.982   6.668  0.1864  0.4612  0.5142
 3441SOL    HW121782   2.878   3.994   6.633  0.3409 -0.2462 -0.1353
 3441SOL    HW221783   2.952   3.968   6.761 -0.4663 -1.5229  0.1371
 3442SOL     OW21784   1.725   4.512   6.241 -0.4060  0.0664  0.1785
 3442SOL    HW121785   1.778   4.592   6.243 -0.1662 -0.1436  2.4737
 3442SOL    HW221786   1.702   4.506   6.334  0.4035 -0.2518  0.3633
 3443SOL     OW21787   0.876   2.838   5.243  0.0092 -0.1731 -0.3567
 3443SOL    HW121788   0.918   2.772   5.187 -1.7921 -0.8037 -0.9569
 3443SOL    HW221789   0.781   2.831   5.233  0.2727 -2.4065 -1.2723
 3444SOL     OW21790   1.202   1.271   8.048 -0.1873  0.5594 -0.2836
 3444SOL    HW121791   1.130   1.321   8.011 -1.3078  1.4338  3.1145
 3444SOL    HW221792   1.159   1.190   8.077 -1.0872  0.7821 -1.0102
 3445SOL     OW21793   1.927   4.624   7.893  0.3674 -0.1056  0.2971
 3445SOL    HW121794   1.910   4.626   7.799 -1.2793  2.4774  0.6601
 3445SOL    HW221795   1.888   4.538   7.913 -1.2965  0.9893  1.7135
 3446SOL     OW21796   4.367   0.794   4.643 -0.2113 -0.0449 -0.3158
 3446SOL    HW121797   4.459   0.781   4.666 -0.3553 -0.7072 -0.1291
 3446SOL    HW221798   4.375   0.782   4.548 -0.5235  0.7165 -0.4377
 3447SOL     OW21799   0.011   4.346   5.600 -0.3707  0.3289  0.2848
 3447SOL    HW121800   0.003   4.264   5.649 -0.7831 -0.0558 -0.4374
 3447SOL    HW221801   4.642   4.377   5.604 -0.0230  1.2413  1.3238
 3448SOL     OW21802   4.400   3.686   6.184  0.2324  0.0574  0.6105
 3448SOL    HW121803   4.342   3.661   6.256 -0.3386  1.1576  0.5212
 3448SOL    HW221804   4.481   3.646   6.216 -0.2652 -0.4337  1.2734
 3449SOL     OW21805   2.506   4.096   7.861  0.0738 -0.0304  0.0284
 3449SOL    HW121806   2.422   4.082   7.818 -0.0581  0.3067  0.1759
 3449SOL    HW221807   2.512   4.191   7.855  0.8360 -0.0205  1.1862
 3450SOL     OW21808   1.981   0.935   6.175 -0.2291 -0.1145  0.0264
 3450SOL    HW121809   1.977   0.891   6.090 -0.1030 -0.1105  0.0175
 3450SOL    HW221810   1.990   1.023   6.138 -1.4037  0.7923  1.9020
 3451SOL     OW21811   3.207   4.552  11.388  0.1010  0.0637 -0.4788
 3451SOL    HW121812   3.300   4.543  11.369 -0.0296 -2.0151 -0.0993
 3451SOL    HW221813   3.206   4.495  11.465  1.6986 -0.7723 -1.0975
 3452SOL     OW21814   0.978   2.425   6.953 -0.5662 -0.6239  0.2155
 3452SOL    HW121815   1.067   2.456   6.936 -1.6915  2.4157 -0.1520
 3452SOL    HW221816   0.972   2.374   6.872  1.2392 -0.9750  0.2884
 3453SOL     OW21817   2.424   0.675   0.498  0.0126 -0.2310 -0.1284
 3453SOL    HW121818   2.349   0.734   0.505  0.5165  0.2978  0.7634
 3453SOL    HW221819   2.456   0.712   0.415 -0.8020  1.3563  0.2566
 3454SOL     OW21820   3.126   1.330   5.834 -0.5309 -0.4619 -0.4927
 3454SOL    HW121821   3.065   1.256   5.842  0.2154 -0.9017  1.1171
 3454SOL    HW221822   3.154   1.337   5.925  2.7114  4.3698 -1.8711
 3455SOL     OW21823   3.767   1.596  15.516  0.5205  0.0074  0.5805
 3455SOL    HW121824   3.713   1.580  15.439  0.5514 -0.1386  0.5891
 3455SOL    HW221825   3.827   1.663  15.483  0.4781  0.4755  1.4589
 3456SOL     OW21826   4.582   3.024   6.009  0.2018 -0.3308  0.7895
 3456SOL    HW121827   4.623   3.021   6.095 -0.6762  1.3392  1.2624
 3456SOL    HW221828   4.492   3.046   6.033 -0.1809 -0.8765 -0.1338
 3457SOL     OW21829   2.567   4.137  14.915 -0.3427  0.1706 -0.9151
 3457SOL    HW121830   2.560   4.054  14.868  1.0784 -0.3664 -0.2003
 3457SOL    HW221831   2.483   4.179  14.898 -1.2742 -0.5857  1.8211
 3458SOL     OW21832   2.193   0.155  16.819  0.0943 -0.4590 -0.2478
 3458SOL    HW121833   2.140   0.157  16.740  1.5740 -1.0116 -1.2560
 3458SOL    HW221834   2.269   0.105  16.790  0.5315  1.5938 -2.6554
 3459SOL     OW21835   0.827   0.123  10.738 -0.3920 -0.3301 -0.0770
 3459SOL    HW121836   0.743   0.169  10.735 -0.9568 -1.2710  1.2850
 3459SOL    HW221837   0.847   0.124  10.832  2.8070  0.2695 -0.7491
 3460SOL     OW21838   1.118   2.819   5.567 -0.9812 -0.4978  0.1669
 3460SOL    HW121839   1.113   2.895   5.624  0.2250 -0.3699  0.0929
 3460SOL    HW221840   1.166   2.754   5.617  2.8679  0.2215 -2.6259
 3461SOL     OW21841   1.815   4.076   9.011  0.0028 -0.1832  0.1043
 3461SOL    HW121842   1.894   4.053   9.059  0.7435  0.8948 -0.5997
 3461SOL    HW221843   1.764   3.995   9.013 -3.2263  1.6688 -4.3362
 3462SOL     OW21844   0.351   4.057   0.430  0.0163  0.2097 -0.2753
 3462SOL    HW121845   0.322   3.971   0.461  0.6340  0.7075  1.6700
 3462SOL    HW221846   0.440   4.071   0.460  0.3658 -0.6564 -0.9102
 3463SOL     OW21847   2.296   0.989   8.540  0.4103 -0.4454 -0.5639
 3463SOL    HW121848   2.226   1.051   8.564  1.1979 -0.4624  1.8211
 3463SOL    HW221849   2.359   1.033   8.597 -0.7145  1.5880 -0.8897
 3464SOL     OW21850   1.419   0.713   4.023  0.7054  0.6096  0.1113
 3464SOL    HW121851   1.425   0.620   4.003 -0.8401  1.2854 -3.4440
 3464SOL    HW221852   1.359   0.742   3.954 -0.8776 -1.5016  0.6320
 3465SOL     OW21853   1.511   1.363  11.666  0.2097  0.5482  0.0398
 3465SOL    HW121854   1.464   1.446  11.659 -0.9378 -0.1766 -0.8207
 3465SOL    HW221855   1.463   1.300  11.612  1.0455 -1.5522  1.7557
 3466SOL     OW21856   3.638   4.134  10.660 -0.3253  0.9304  0.8310
 3466SOL    HW121857   3.603   4.179  10.737 -1.6119 -1.6649  1.7411
 3466SOL    HW221858   3.563   4.079  10.640  0.0289 -0.0579  2.2974
 3467SOL     OW21859   2.153   4.443  14.328  0.0505  1.1024  0.3662
 3467SOL    HW121860   2.085   4.377  14.313  0.3348 -0.0361  4.0158
 3467SOL    HW221861   2.177   4.435  14.420 -2.3356  1.8650  1.0515
 3468SOL     OW21862   2.574   4.095   3.078 -0.4612  0.0673  0.1802
 3468SOL    HW121863   2.602   4.164   3.018  2.1703 -0.2824  1.0169
 3468SOL    HW221864   2.540   4.026   3.020  1.0214 -0.8112  0.3560
 3469SOL     OW21865   3.929   1.811  12.718 -0.2490  0.1629 -0.2073
 3469SOL    HW121866   3.903   1.898  12.748 -0.6976 -0.6404  1.6991
 3469SOL    HW221867   4.022   1.822  12.697 -0.1009  2.0622  1.5246
 3470SOL     OW21868   3.263   1.774   1.446 -0.3166 -0.6365  0.0664
 3470SOL    HW121869   3.170   1.797   1.435 -0.4258 -1.4053 -0.6557
 3470SOL    HW221870   3.297   1.799   1.360  1.1997 -2.6940  0.0661
 3471SOL     OW21871   3.284   4.341   4.824 -0.0029  0.0663  1.4009
 3471SOL    HW121872   3.189   4.346   4.836 -0.1427  1.1887 -0.1072
 3471SOL    HW221873   3.296   4.435   4.808 -0.7126 -0.1357 -0.2864
 3472SOL     OW21874   1.733   0.250   8.553 -0.2159 -0.0862 -0.6173
 3472SOL    HW121875   1.669   0.270   8.485  0.4958 -0.2059 -1.3243
 3472SOL    HW221876   1.700   0.162   8.570  1.2336 -0.3605  0.7648
 3473SOL     OW21877   0.676   4.005  11.032  0.3576  0.4670 -0.4537
 3473SOL    HW121878   0.721   3.976  11.111  1.3370  0.7724 -0.9042
 3473SOL    HW221879   0.584   3.982  11.046  0.7121 -0.5817  0.1951
 3474SOL     OW21880   1.089   4.349   8.810 -0.4940  0.7577 -0.4449
 3474SOL    HW121881   1.079   4.324   8.901 -1.9909  0.9354 -0.5553
 3474SOL    HW221882   1.161   4.289   8.790 -1.2782 -1.0583  2.1549
 3475SOL     OW21883   0.383   1.736   7.479  0.1002  0.4781  0.0865
 3475SOL    HW121884   0.427   1.795   7.541 -2.0770  2.1299  0.0655
 3475SOL    HW221885   0.453   1.673   7.464 -1.6393 -1.1608 -1.1043
 3476SOL     OW21886   3.414   4.659   3.350  0.2059  0.3481  0.1483
 3476SOL    HW121887   3.339   4.628   3.299 -0.2839 -0.7393  1.5243
 3476SOL    HW221888   3.491   4.621   3.309  0.1453  1.7452 -1.2388
 3477SOL     OW21889   1.297   3.626   1.377 -0.3549  0.3351 -0.3417
 3477SOL    HW121890   1.284   3.633   1.282 -0.6612 -2.3221 -0.5013
 3477SOL    HW221891   1.269   3.715   1.396 -0.4947 -0.1751  1.8016
 3478SOL     OW21892   2.618   3.628   7.599  0.0153  0.1495  0.0013
 3478SOL    HW121893   2.662   3.543   7.599  1.2664  0.7917  0.3823
 3478SOL    HW221894   2.539   3.609   7.649  0.1871  2.3025  1.1074
 3479SOL     OW21895   4.431   2.147   5.914 -0.1166  0.2524 -0.2963
 3479SOL    HW121896   4.340   2.127   5.896 -0.6949  1.3510  1.4032
 3479SOL    HW221897   4.458   2.071   5.966 -0.5331 -0.6575 -1.4138
 3480SOL     OW21898   4.572   4.488   1.178  0.1907 -0.4030  0.3847
 3480SOL    HW121899   4.533   4.418   1.125  2.1928 -1.9354  0.9213
 3480SOL    HW221900   4.647   4.500   1.120 -1.5248  2.3720 -1.2274
 3481SOL     OW21901   3.373   1.361  16.984  0.7164  0.5591 -0.2306
 3481SOL    HW121902   3.354   1.357  16.891 -0.1346  0.2778 -0.0512
 3481SOL    HW221903   3.287   1.371  17.025 -0.8506  0.5233 -3.5215
 3482SOL     OW21904   2.391   4.641  11.539 -0.5582 -0.0551  0.3309
 3482SOL    HW121905   2.432   4.699  11.474 -0.6519 -0.3560  0.0075
 3482SOL    HW221906   2.353   4.714  11.589 -0.0029 -0.0155  0.7032
 3483SOL     OW21907   1.713   1.993   5.649 -0.7185  0.7988  0.0847
 3483SOL    HW121908   1.641   1.959   5.702  1.3290  0.7606  2.8356
 3483SOL    HW221909   1.685   2.084   5.649 -0.7628  0.7906 -4.3115
 3484SOL     OW21910   0.866   1.411  11.868 -0.1524  0.0873  0.6376
 3484SOL    HW121911   0.921   1.473  11.916 -0.1884  0.2311  0.4941
 3484SOL    HW221912   0.780   1.421  11.910 -0.8994  0.3176 -0.9093
 3485SOL     OW21913   2.357   4.615   1.408  0.0368  0.3913  0.5082
 3485SOL    HW121914   2.413   4.615   1.486  1.3636 -0.3604 -0.4356
 3485SOL    HW221915   2.293   4.546   1.426 -0.2757  0.5843  0.1099
 3486SOL     OW21916   3.405   3.888   6.761  0.0507 -0.3645 -0.1899
 3486SOL    HW121917   3.356   3.911   6.681 -2.5531 -0.6108  1.3440
 3486SOL    HW221918   3.458   3.967   6.751  2.0177 -1.4109  2.2171
 3487SOL     OW21919   3.844   0.488   7.382  0.1507  0.0224  0.0763
 3487SOL    HW121920   3.929   0.514   7.346 -0.8247  0.3853 -1.9552
 3487SOL    HW221921   3.865   0.396   7.400 -0.6367 -0.3235 -0.7864
 3488SOL     OW21922   2.568   1.397   8.058 -0.0491 -0.0460 -0.0623
 3488SOL    HW121923   2.579   1.469   7.995 -1.1138 -0.7820 -1.1003
 3488SOL    HW221924   2.552   1.433   8.145  0.0636 -0.7145  0.2291
 3489SOL     OW21925   0.628   1.852   8.137 -0.6105  0.5380 -0.2753
 3489SOL    HW121926   0.629   1.927   8.195 -2.6093  0.4818 -0.1600
 3489SOL    HW221927   0.647   1.781   8.198 -0.5663 -0.2665 -1.2210
 3490SOL     OW21928   2.054   1.385   1.574  0.4289 -0.4499 -0.1192
 3490SOL    HW121929   2.072   1.429   1.657  1.1717 -2.4308  0.7567
 3490SOL    HW221930   1.980   1.328   1.594  0.4803 -1.0138 -1.5375
 3491SOL     OW21931   2.318   0.377  16.923  0.0646  0.0554  0.1820
 3491SOL    HW121932   2.274   0.459  16.903  1.7086  0.8433 -0.1713
 3491SOL    HW221933   2.272   0.316  16.865  1.2643  1.0202 -1.7682
 3492SOL     OW21934   4.663   3.636   5.929  0.7617  0.8462  0.3019
 3492SOL    HW121935   4.716   3.693   5.873  2.3001 -1.0984 -0.2208
 3492SOL    HW221936   4.653   3.687   6.009  0.8767  0.5193  0.5221
 3493SOL     OW21937   3.281   2.171   5.891 -0.3911 -0.2994  0.2479
 3493SOL    HW121938   3.267   2.263   5.915 -1.0567 -0.1628 -0.6666
 3493SOL    HW221939   3.308   2.181   5.800  0.7944 -1.9992  0.4133
 3494SOL     OW21940   1.278   0.056  16.353 -0.1743 -0.3112  0.0245
 3494SOL    HW121941   1.209   0.121  16.363 -0.0165 -0.5085  2.4414
 3494SOL    HW221942   1.272   0.005  16.433  1.1624  1.6253  1.3577
 3495SOL     OW21943   3.700   0.311  13.605  0.0433 -0.7389 -0.6782
 3495SOL    HW121944   3.721   0.269  13.688  1.3891  0.7797 -0.2319
 3495SOL    HW221945   3.706   0.242  13.538 -1.5589 -2.5651  1.0893
 3496SOL     OW21946   2.499   0.998   6.602  0.0084 -0.0803 -0.3341
 3496SOL    HW121947   2.488   1.043   6.518 -1.0486  1.0114  0.3969
 3496SOL    HW221948   2.435   1.042   6.658  1.6575 -0.4100  1.8002
 3497SOL     OW21949   1.082   0.291   4.943 -0.8152 -0.3106 -0.5267
 3497SOL    HW121950   1.026   0.213   4.937  1.4623 -1.8890 -1.1327
 3497SOL    HW221951   1.131   0.258   5.018 -0.3876  1.4732 -0.0102
 3498SOL     OW21952   1.403   1.987   0.033 -0.4380 -0.3241 -0.2775
 3498SOL    HW121953   1.440   1.925  17.657 -0.1653 -1.1405  0.6793
 3498SOL    HW221954   1.401   1.941   0.117 -1.3702 -0.7863 -0.5432
 3499SOL     OW21955   4.642   3.854   7.345 -0.7362  0.2073  0.3861
 3499SOL    HW121956   4.576   3.875   7.411 -0.2002  4.2799 -0.4055
 3499SOL    HW221957   4.675   3.770   7.376 -2.1340 -0.6933 -0.5706
 3500SOL     OW21958   0.169   0.965   2.428 -0.0371 -0.3190 -0.1956
 3500SOL    HW121959   0.174   1.041   2.486  0.8518 -2.2498  2.2581
 3500SOL    HW221960   0.255   0.977   2.389 -0.2164  0.1309 -0.4516
 3501SOL     OW21961   2.345   2.657  12.105 -0.0974 -0.2951 -0.1156
 3501SOL    HW121962   2.439   2.642  12.116  0.2355  1.6010 -0.2734
 3501SOL    HW221963   2.339   2.752  12.118  0.4412 -0.3056  0.2186
 3502SOL     OW21964   0.586   0.677   6.407  0.2521 -0.5889  0.5691
 3502SOL    HW121965   0.633   0.648   6.485  0.8718 -2.6417 -0.5749
 3502SOL    HW221966   0.516   0.613   6.401 -0.1223 -0.2779  1.5808
 3503SOL     OW21967   1.796   1.426   1.770 -0.3381  0.0378 -0.1241
 3503SOL    HW121968   1.846   1.354   1.809 -0.3224  0.0773 -0.0712
 3503SOL    HW221969   1.823   1.499   1.826 -0.1355  0.8443 -1.2938
 3504SOL     OW21970   0.442   2.596   6.096  0.2646 -0.1763 -0.3442
 3504SOL    HW121971   0.406   2.540   6.165  0.1672  0.3291  0.0197
 3504SOL    HW221972   0.427   2.535   6.024  1.8079  1.8536 -2.3698
 3505SOL     OW21973   4.564   1.123   0.226 -0.3243 -0.4632  0.0978
 3505SOL    HW121974   4.522   1.071   0.295  0.5441 -1.3437 -0.0560
 3505SOL    HW221975   4.637   1.066   0.202 -0.3307 -1.1436  1.6862
 3506SOL     OW21976   2.711   2.803  16.462 -0.1433  0.0740 -0.1596
 3506SOL    HW121977   2.783   2.864  16.477  1.1734 -1.6113  0.3345
 3506SOL    HW221978   2.682   2.801  16.553  1.2728 -0.3785  0.2738
 3507SOL     OW21979   0.003   3.238  11.011  0.5450  0.2104 -0.2108
 3507SOL    HW121980   0.057   3.256  10.934  0.2187 -2.7257 -1.1151
 3507SOL    HW221981   4.688   3.326  11.025  1.4055  0.1983  2.1810
 3508SOL     OW21982   1.474   1.395   4.619 -0.0069 -0.2074  0.5470
 3508SOL    HW121983   1.524   1.476   4.623 -0.5403  0.2026 -1.3643
 3508SOL    HW221984   1.385   1.429   4.627 -0.1659 -0.7608  1.1345
 3509SOL     OW21985   0.474   2.923   3.713  0.3603  0.2517  0.1823
 3509SOL    HW121986   0.426   2.933   3.632 -1.8528 -1.3663  1.3173
 3509SOL    HW221987   0.425   2.984   3.768 -0.1426  0.1679 -0.1806
 3510SOL     OW21988   2.559   0.995   5.574  0.1744 -0.2205  0.2180
 3510SOL    HW121989   2.631   1.058   5.564  1.1831 -1.2808  0.7720
 3510SOL    HW221990   2.556   0.979   5.668 -0.5316  0.7395  0.3626
 3511SOL     OW21991   2.175   0.489   3.979  0.3492 -0.1240  0.1167
 3511SOL    HW121992   2.114   0.514   3.909 -0.5929  1.6387  1.5467
 3511SOL    HW221993   2.209   0.403   3.954 -1.0106 -1.5167  3.0488
 3512SOL     OW21994   4.205   1.810  17.270  0.0559 -0.6741 -0.6186
 3512SOL    HW121995   4.187   1.784  17.179  0.8907 -0.3589 -0.8748
 3512SOL    HW221996   4.212   1.904  17.258 -0.5943 -0.5961 -0.3923
 3513SOL     OW21997   2.044   0.491   6.470  0.0712 -0.5846 -0.0171
 3513SOL    HW121998   2.007   0.503   6.382  1.7577 -0.0252 -0.6450
 3513SOL    HW221999   2.136   0.495   6.443 -0.0291  1.4332 -0.0756
 3514SOL     OW22000   4.670   3.599   7.437 -0.0619 -0.0562  0.4566
 3514SOL    HW122001   4.625   3.564   7.360 -0.7183 -0.4555  1.0211
 3514SOL    HW222002   0.025   3.541   7.427 -0.7818 -1.3339  2.3834
 3515SOL     OW22003   0.675   0.979  15.131  0.0729  0.9549 -0.2316
 3515SOL    HW122004   0.587   0.995  15.097  0.2564  0.6896 -0.8164
 3515SOL    HW222005   0.689   1.053  15.190 -0.3713  1.5528 -0.8832
 3516SOL     OW22006   0.480   3.543   5.161 -0.2213 -0.0582  1.2200
 3516SOL    HW122007   0.517   3.618   5.115 -0.2499 -0.1246  1.0899
 3516SOL    HW222008   0.396   3.538   5.116 -0.1774  1.0693  1.0205
 3517SOL     OW22009   4.528   1.537   5.402 -0.1118  0.5327 -0.0234
 3517SOL    HW122010   4.515   1.452   5.359  0.6824 -0.2435  1.2456
 3517SOL    HW222011   4.623   1.544   5.396 -0.1237 -0.2131 -1.1885
 3518SOL     OW22012   0.627   2.780  14.884 -0.3431 -0.0174 -0.5244
 3518SOL    HW122013   0.648   2.812  14.796  0.4534  0.6885 -0.0736
 3518SOL    HW222014   0.532   2.781  14.879 -0.3222  1.3580 -0.5872
 3519SOL     OW22015   0.683   1.978   4.610 -0.0273  0.2881  0.0191
 3519SOL    HW122016   0.607   1.928   4.641  0.1913 -0.5404 -0.7862
 3519SOL    HW222017   0.659   2.058   4.658  0.6444  1.2084 -1.1775
 3520SOL     OW22018   0.474   2.954   9.857  0.0202 -0.9131  0.0707
 3520SOL    HW122019   0.389   2.992   9.836 -0.3978 -1.3678  0.9504
 3520SOL    HW222020   0.528   3.004   9.796  0.9020 -0.3076  1.3525
 3521SOL     OW22021   4.578   1.750   4.974 -0.0205  0.1384  0.2774
 3521SOL    HW122022   4.634   1.681   5.010  1.1932  1.3642  0.7515
 3521SOL    HW222023   4.501   1.701   4.947 -1.1830  2.7225 -1.1038
 3522SOL     OW22024   2.053   3.320   6.602  0.6206  0.0294 -0.3702
 3522SOL    HW122025   2.035   3.313   6.508 -1.1940 -0.5651  0.0196
 3522SOL    HW222026   2.120   3.253   6.614 -0.5564 -0.9796  0.5167
 3523SOL     OW22027   0.054   0.381   1.274  0.7724 -1.1093 -0.7990
 3523SOL    HW122028   4.690   0.343   1.298  0.8121  0.7888  2.3856
 3523SOL    HW222029   0.102   0.327   1.336 -1.2433 -1.2441  0.6590
 3524SOL     OW22030   0.216   2.932   5.470 -0.0292  0.1341 -0.3929
 3524SOL    HW122031   0.180   3.018   5.451 -0.1061  0.2838  0.4120
 3524SOL    HW222032   0.181   2.878   5.399  0.4230 -0.2256 -0.3422
 3525SOL     OW22033   2.275   0.057   0.274 -0.6988 -0.2602 -0.0328
 3525SOL    HW122034   2.253   0.076   0.183  0.9962  0.2879 -0.3268
 3525SOL    HW222035   2.189   0.071   0.313 -0.5239  1.2398 -0.2083
 3526SOL     OW22036   4.578   2.635  17.033 -0.0972 -0.9626 -1.1135
 3526SOL    HW122037   4.620   2.554  17.063  1.0516 -1.0046 -2.8469
 3526SOL    HW222038   4.596   2.642  16.939  0.6131  0.4244 -0.8849
 3527SOL     OW22039   0.090   2.994  10.289 -0.3100 -0.0835 -0.1757
 3527SOL    HW122040   0.037   3.060  10.334  1.3510  0.0129  1.6361
 3527SOL    HW222041   0.092   3.029  10.200  2.0721  0.3338  0.0425
 3528SOL     OW22042   0.067   2.703  10.307  0.1274  0.1396  0.4155
 3528SOL    HW122043   0.100   2.787  10.276 -0.8017 -0.0813 -1.1430
 3528SOL    HW222044   0.057   2.721  10.401 -0.7871 -1.1261  0.5649
 3529SOL     OW22045   3.736   3.059   4.717 -0.6017 -0.5534 -0.4504
 3529SOL    HW122046   3.708   2.968   4.725  0.1886 -0.8922 -1.5446
 3529SOL    HW222047   3.830   3.044   4.708 -0.6694 -0.6266 -1.0371
 3530SOL     OW22048   3.734   0.720  16.771 -0.2022  0.2015 -0.0266
 3530SOL    HW122049   3.662   0.747  16.713  1.8350 -0.1173 -2.7364
 3530SOL    HW222050   3.711   0.762  16.853  0.7706 -0.2801  0.4905
 3531SOL     OW22051   0.647   3.063   4.629  0.0080  0.6446  0.0249
 3531SOL    HW122052   0.608   2.989   4.582  0.2209 -0.6362  1.8725
 3531SOL    HW222053   0.732   3.024   4.652  0.4140  0.7233 -1.3321
 3532SOL     OW22054   1.603   0.932  12.723  0.1139 -0.2374 -0.2986
 3532SOL    HW122055   1.659   0.894  12.791  0.0908  0.6733  0.2354
 3532SOL    HW222056   1.634   0.881  12.648  3.5112  0.2711  0.7392
 3533SOL     OW22057   0.087   2.143   1.686  0.2999 -0.2518  0.3318
 3533SOL    HW122058   0.072   2.237   1.694  2.4844  0.2412 -1.4306
 3533SOL    HW222059   0.145   2.147   1.611 -0.0153 -1.9690 -0.0230
 3534SOL     OW22060   1.068   2.330   2.253  0.0398  0.3284 -0.3127
 3534SOL    HW122061   1.133   2.337   2.184  0.9373  0.1414  0.5214
 3534SOL    HW222062   1.063   2.235   2.263 -0.2826  0.2736 -0.9889
 3535SOL     OW22063   3.349   0.965  12.683  0.0118 -0.7073 -0.0526
 3535SOL    HW122064   3.263   1.004  12.698  1.1022  0.9685  1.9316
 3535SOL    HW222065   3.334   0.870  12.684 -0.5688 -0.5907  2.3132
 3536SOL     OW22066   4.398   2.953   8.459  0.0970  0.0938  0.1548
 3536SOL    HW122067   4.430   3.043   8.466  1.1975 -0.3605  1.0173
 3536SOL    HW222068   4.304   2.970   8.466  0.8628  4.1377  0.8027
 3537SOL     OW22069   0.689   1.677   4.223 -1.1802 -0.0982 -0.5788
 3537SOL    HW122070   0.769   1.652   4.269 -0.5098 -2.1869 -2.8427
 3537SOL    HW222071   0.673   1.594   4.177 -1.6916 -0.3357  0.0319
 3538SOL     OW22072   0.150   0.338   3.646  0.0355  1.0751  0.2184
 3538SOL    HW122073   0.173   0.276   3.715  0.0027  0.5185 -0.2690
 3538SOL    HW222074   0.233   0.362   3.605  0.3794 -0.5333 -0.0060
 3539SOL     OW22075   2.771   2.263   1.396 -0.2318 -0.7679 -0.1089
 3539SOL    HW122076   2.743   2.190   1.451 -0.5145 -0.0490  0.6933
 3539SOL    HW222077   2.772   2.222   1.310  0.6079  1.8557 -1.3450
 3540SOL     OW22078   3.081   1.257   0.164  0.3094 -0.1015 -0.3874
 3540SOL    HW122079   3.111   1.325   0.104 -0.0718  0.1248 -0.3199
 3540SOL    HW222080   2.987   1.269   0.175  0.9603  1.3065  3.4316
 3541SOL     OW22081   3.062   3.998  11.150 -0.2364  0.0702 -0.6336
 3541SOL    HW122082   3.121   4.064  11.113  0.6990 -1.3220 -1.6783
 3541SOL    HW222083   3.084   3.928  11.088 -1.0557 -2.1965  1.6592
 3542SOL     OW22084   3.755   1.283   7.462 -0.2842 -0.1739  0.3588
 3542SOL    HW122085   3.841   1.300   7.500 -0.1026  1.9162 -1.0364
 3542SOL    HW222086   3.766   1.344   7.390  0.4726 -0.8081 -0.0601
 3543SOL     OW22087   2.789   1.444  11.678  0.3324 -0.2111  0.3914
 3543SOL    HW122088   2.782   1.445  11.582  2.5283  1.2834  0.2516
 3543SOL    HW222089   2.748   1.525  11.709  0.2365 -1.3261  3.1347
 3544SOL     OW22090   3.908   1.374   8.117 -0.1764  0.1958 -0.0150
 3544SOL    HW122091   3.965   1.436   8.162 -1.2659  1.7216 -0.7572
 3544SOL    HW222092   3.911   1.298   8.175 -0.7860 -0.2686 -0.5956
 3545SOL     OW22093   2.235   1.264  16.573  0.0561 -0.5374  0.6030
 3545SOL    HW122094   2.324   1.295  16.558 -0.3643  0.7581  0.7891
 3545SOL    HW222095   2.208   1.338  16.628 -0.2871 -0.0334 -0.2496
 3546SOL     OW22096   2.902   4.018  11.359 -0.5497 -0.3643 -0.2982
 3546SOL    HW122097   2.964   4.081  11.397 -1.4474 -0.6821  1.7049
 3546SOL    HW222098   2.948   3.990  11.280  0.4756 -0.9805  0.5238
 3547SOL     OW22099   3.039   0.431   9.134  0.3854  0.2264 -0.0686
 3547SOL    HW122100   3.042   0.449   9.228  1.8056  1.0539 -0.2684
 3547SOL    HW222101   3.113   0.477   9.094 -0.3799  2.2317  0.8414
 3548SOL     OW22102   3.177   1.752   2.573 -0.3744 -0.2037 -0.4596
 3548SOL    HW122103   3.214   1.665   2.589  0.8212  0.3877  0.0081
 3548SOL    HW222104   3.254   1.807   2.588 -2.0037  2.3729 -1.5577
 3549SOL     OW22105   4.654   0.033   4.342  0.6772  0.5067  0.5535
 3549SOL    HW122106   4.706   0.080   4.276 -0.7993  1.3291 -0.0207
 3549SOL    HW222107   4.640   4.666   4.307  0.8803  1.3405 -1.6595
 3550SOL     OW22108   2.119   1.644  13.594 -0.8357  0.4509  0.1150
 3550SOL    HW122109   2.105   1.555  13.626 -0.1982 -0.1955 -1.4049
 3550SOL    HW222110   2.215   1.653  13.596 -0.6861 -0.7238 -2.6131
 3551SOL     OW22111   2.183   0.195   5.658 -0.0148  0.1821  0.1878
 3551SOL    HW122112   2.255   0.170   5.715 -1.7157 -0.9697  1.8076
 3551SOL    HW222113   2.207   0.282   5.624 -0.6620 -0.3159 -1.5564
 3552SOL     OW22114   2.830   4.454   8.477 -0.2500  0.4751 -0.0391
 3552SOL    HW122115   2.838   4.478   8.569 -2.9643  3.6418 -0.6479
 3552SOL    HW222116   2.913   4.408   8.463 -0.7320 -0.0057 -1.3476
 3553SOL     OW22117   3.446   1.047   2.058 -0.0433  0.3109 -0.7083
 3553SOL    HW122118   3.471   1.054   1.966  1.0243  1.1833 -0.3556
 3553SOL    HW222119   3.353   1.027   2.048 -0.1277 -0.5845  2.0627
 3554SOL     OW22120   0.337   4.142   4.385  0.1342  0.2057 -0.3054
 3554SOL    HW122121   0.408   4.183   4.434 -0.0170 -0.0791  0.1511
 3554SOL    HW222122   0.370   4.053   4.375  0.3258  0.3106 -0.6103
 3555SOL     OW22123   1.912   0.681   6.609  0.3965 -0.6208  0.2654
 3555SOL    HW122124   1.945   0.603   6.565  2.2540  0.7785 -0.8781
 3555SOL    HW222125   1.916   0.732   6.528  0.2846 -0.2067  0.5183
 3556SOL     OW22126   2.199   2.955  15.056  0.6912  0.8000 -0.0047
 3556SOL    HW122127   2.265   2.944  15.125  0.5451  1.9806  0.3261
 3556SOL    HW222128   2.234   3.035  15.018  0.1674  1.2244  0.3932
 3557SOL     OW22129   0.250   4.479  15.179 -0.4288  0.2519  0.1738
 3557SOL    HW122130   0.254   4.574  15.183  0.6311  0.1887  0.6475
 3557SOL    HW222131   0.328   4.463  15.126 -0.5263 -2.0927  0.7273
 3558SOL     OW22132   2.648   2.802   7.279 -0.2447  0.3118 -0.5072
 3558SOL    HW122133   2.640   2.708   7.296 -1.3342  0.0076 -2.7404
 3558SOL    HW222134   2.559   2.831   7.300 -0.8820 -0.5475 -2.0426
 3559SOL     OW22135   3.014   3.338   5.896 -0.0340  0.0801  0.0004
 3559SOL    HW122136   2.981   3.303   5.979  0.7295  1.2838  0.8032
 3559SOL    HW222137   3.065   3.416   5.915  1.8992 -0.7406 -1.8240
 3560SOL     OW22138   0.546   0.078   6.132  0.0611 -0.4511  0.0130
 3560SOL    HW122139   0.558   0.003   6.073  2.3980 -0.4329  0.4642
 3560SOL    HW222140   0.634   0.112   6.146 -0.2543  1.3376 -2.3030
 3561SOL     OW22141   0.566   2.522   6.743 -0.3093 -0.1061 -0.2260
 3561SOL    HW122142   0.567   2.614   6.768 -1.5433 -0.8279  2.5704
 3561SOL    HW222143   0.631   2.530   6.674  0.8138 -1.8316  0.6310
 3562SOL     OW22144   4.109   3.765   4.074  0.7178  0.5114  0.1169
 3562SOL    HW122145   4.139   3.686   4.029 -1.3647  0.1700 -0.6545
 3562SOL    HW222146   4.172   3.829   4.039  1.7391 -0.5315  0.0525
 3563SOL     OW22147   1.610   2.677   3.701 -0.3512  0.2412  0.5519
 3563SOL    HW122148   1.678   2.730   3.659  1.3809 -1.7381  0.8290
 3563SOL    HW222149   1.532   2.728   3.683  0.3386  0.5461 -1.5423
 3564SOL     OW22150   0.566   2.344   1.486 -0.3087  0.1419  0.1483
 3564SOL    HW122151   0.572   2.323   1.393 -0.8652 -0.1438  0.1773
 3564SOL    HW222152   0.643   2.303   1.526  0.5731 -1.5808 -3.3308
 3565SOL     OW22153   0.758   0.844   9.976  0.0104 -0.0827  0.2263
 3565SOL    HW122154   0.741   0.767  10.029  2.2318 -0.1009  0.9224
 3565SOL    HW222155   0.739   0.918  10.033  0.5250  0.6331 -0.5300
 3566SOL     OW22156   0.819   3.319   6.125 -0.4442 -0.5249  0.8605
 3566SOL    HW122157   0.767   3.245   6.095 -0.4054 -0.1416 -0.1314
 3566SOL    HW222158   0.897   3.319   6.070 -1.0379  0.0025  0.0231
 3567SOL     OW22159   1.534   1.474   1.698  0.2287  0.2232  0.3332
 3567SOL    HW122160   1.500   1.398   1.650  0.3490 -0.4526  1.3254
 3567SOL    HW222161   1.628   1.463   1.708  0.4829  0.5929 -1.6510
 3568SOL     OW22162   3.814   3.324   3.787  0.0728 -0.4313  0.3322
 3568SOL    HW122163   3.840   3.368   3.868  2.0548 -0.2495 -0.3996
 3568SOL    HW222164   3.824   3.230   3.806 -1.8142 -0.1747  2.5863
 3569SOL     OW22165   0.653   2.791   3.874 -0.5608  0.3842 -0.2801
 3569SOL    HW122166   0.692   2.870   3.911  2.2436 -2.1284  2.0990
 3569SOL    HW222167   0.594   2.824   3.806 -1.6527  1.2531  1.0924
 3570SOL     OW22168   3.830   4.441   1.641  0.2530  0.5601  0.1861
 3570SOL    HW122169   3.789   4.512   1.691 -0.6407  0.5181 -0.4763
 3570SOL    HW222170   3.816   4.363   1.695 -0.7965 -0.1770 -1.1440
 3571SOL     OW22171   0.978   0.994   7.238 -0.2198 -0.2980 -0.5378
 3571SOL    HW122172   0.970   1.044   7.157  0.1855 -1.8264 -1.5223
 3571SOL    HW222173   0.955   0.905   7.210  0.8681 -1.5098  2.4547
 3572SOL     OW22174   4.539   2.211   7.512 -0.5052  0.7563  0.3456
 3572SOL    HW122175   4.616   2.181   7.560 -0.0536  0.7197 -0.3920
 3572SOL    HW222176   4.490   2.229   7.592 -1.6435 -2.1935  0.3091
 3573SOL     OW22177   4.090   0.656   6.992  0.2844  0.5570  0.0281
 3573SOL    HW122178   4.107   0.680   6.901 -0.8251 -1.1982 -0.6440
 3573SOL    HW222179   4.053   0.570   6.971  1.3279 -0.0626  0.7180
 3574SOL     OW22180   1.597   2.852   4.270 -0.1199 -0.6627 -0.1561
 3574SOL    HW122181   1.598   2.803   4.188  1.4321 -0.5723 -0.2072
 3574SOL    HW222182   1.507   2.842   4.300  0.2517 -0.4216  1.0549
 3575SOL     OW22183   1.319   3.965   3.625 -0.1691 -0.2300 -0.6085
 3575SOL    HW122184   1.267   3.887   3.608  1.6347 -1.7541  0.8861
 3575SOL    HW222185   1.361   3.986   3.542  1.3875 -0.8325  0.0329
 3576SOL     OW22186   3.161   1.180  12.755 -0.2749  0.5448  0.1579
 3576SOL    HW122187   3.243   1.225  12.773  0.5572 -1.0943  0.4523
 3576SOL    HW222188   3.167   1.165  12.661 -0.5085 -0.5061  0.3103
 3577SOL     OW22189   4.056   2.575   7.044  0.1483  0.7176  0.0828
 3577SOL    HW122190   3.970   2.562   7.085 -0.0256  0.8907 -0.2246
 3577SOL    HW222191   4.062   2.670   7.051  1.9068  0.8409 -3.1176
 3578SOL     OW22192   1.342   0.056   8.209  0.3525 -0.1411 -0.0348
 3578SOL    HW122193   1.414   0.039   8.270  1.4778  0.8602 -1.0810
 3578SOL    HW222194   1.389   0.126   8.163 -1.7892  1.0392 -0.4114
 3579SOL     OW22195   1.807   3.061   8.920  0.1259  0.5084 -0.1224
 3579SOL    HW122196   1.770   2.993   8.975 -0.9976 -0.1963 -1.7503
 3579SOL    HW222197   1.832   3.007   8.845  1.4496  0.4921  0.3391
 3580SOL     OW22198   3.016   3.118   3.555 -0.0041 -0.1420  0.1700
 3580SOL    HW122199   3.086   3.115   3.620 -0.9110 -1.1725  1.1144
 3580SOL    HW222200   3.029   3.200   3.507  0.8989 -0.4708 -0.1451
 3581SOL     OW22201   3.889   1.654   8.391  0.0107  0.0369  0.5457
 3581SOL    HW122202   3.928   1.600   8.323  0.8586  1.7763 -0.3462
 3581SOL    HW222203   3.960   1.671   8.453  1.0117  0.7542 -0.7988
 3582SOL     OW22204   0.364   4.230   3.596  0.4433  0.0587 -0.0745
 3582SOL    HW122205   0.270   4.213   3.605  0.3070  0.6925 -0.2609
 3582SOL    HW222206   0.375   4.323   3.576  1.6704 -0.4287 -1.6035
 3583SOL     OW22207   3.542   3.333  10.371 -0.0558 -0.0200  0.2010
 3583SOL    HW122208   3.591   3.339  10.453  2.0223  0.5265 -1.0832
 3583SOL    HW222209   3.575   3.399  10.311  2.1312  0.6125  2.0950
 3584SOL     OW22210   3.745   1.974   0.864  0.2275  0.4872  0.6331
 3584SOL    HW122211   3.694   2.055   0.868  1.4446  1.3064 -0.4727
 3584SOL    HW222212   3.766   1.986   0.772 -0.5306  1.9825  0.6608
 3585SOL     OW22213   4.049   3.495  16.404  0.2351 -0.1193  0.1593
 3585SOL    HW122214   4.092   3.557  16.464 -2.6678  1.6270  0.4382
 3585SOL    HW222215   4.117   3.478  16.339 -1.2526 -0.6930 -1.2308
 3586SOL     OW22216   0.286   3.776   0.489  0.6297 -0.0834  0.0597
 3586SOL    HW122217   0.220   3.708   0.498  0.3894  0.0942 -0.3934
 3586SOL    HW222218   0.335   3.750   0.411  0.2671 -2.5104  0.6613
 3587SOL     OW22219   1.056   0.464   3.984 -0.2912  0.1952 -0.5755
 3587SOL    HW122220   1.081   0.372   3.995  1.8552  0.7785 -0.5144
 3587SOL    HW222221   1.066   0.467   3.889 -1.0427 -0.1884 -0.6654
 3588SOL     OW22222   1.607   0.036   8.352 -0.2393 -0.7264 -0.1884
 3588SOL    HW122223   1.687   0.019   8.303 -0.7624  0.2345 -1.3819
 3588SOL    HW222224   1.631   4.714   8.434  0.3737  2.4592  1.3256
 3589SOL     OW22225   3.132   2.275   0.384  0.6388  0.6283 -0.0541
 3589SOL    HW122226   3.051   2.325   0.398  0.7709  0.6136  0.7829
 3589SOL    HW222227   3.102   2.193   0.345  1.9927  0.1711 -0.1272
 3590SOL     OW22228   3.570   3.064  12.146 -0.2930  0.5014 -0.5858
 3590SOL    HW122229   3.495   3.023  12.103  0.3213 -2.0092  0.7568
 3590SOL    HW222230   3.634   2.993  12.146  1.6022  2.2297  3.2031
 3591SOL     OW22231   3.408   1.467  10.240  0.1532 -0.0638 -0.3438
 3591SOL    HW122232   3.353   1.390  10.232 -0.5645  0.6321 -2.1029
 3591SOL    HW222233   3.377   1.514  10.318  1.0893  2.2606 -1.3667
 3592SOL     OW22234   4.698   0.185   8.543 -0.6659 -0.5684  0.4556
 3592SOL    HW122235   4.619   0.229   8.575 -0.3967 -0.1554  0.5577
 3592SOL    HW222236   0.005   0.153   8.629  1.4277  1.7518  0.6563
 3593SOL     OW22237   4.087   2.207   2.426 -0.2358 -0.2224  0.1363
 3593SOL    HW122238   4.041   2.125   2.441 -1.2224  0.2564 -0.2840
 3593SOL    HW222239   4.066   2.228   2.335 -1.5291 -0.0800  0.4739
 3594SOL     OW22240   0.632   0.270   5.087  0.1568 -0.2555 -0.5277
 3594SOL    HW122241   0.645   0.188   5.040 -1.4323 -0.3275 -0.8393
 3594SOL    HW222242   0.695   0.331   5.049  1.9897 -0.9459  1.3666
 3595SOL     OW22243   2.863   2.606  12.588  0.6896 -0.8117 -0.0649
 3595SOL    HW122244   2.885   2.614  12.495  0.4135 -0.3858 -0.0955
 3595SOL    HW222245   2.936   2.566  12.635  0.1078 -4.0831 -1.9376
 3596SOL     OW22246   4.186   4.281   9.444 -0.0267 -0.3157  0.5280
 3596SOL    HW122247   4.099   4.259   9.478 -0.9399  0.8505 -0.9873
 3596SOL    HW222248   4.162   4.374   9.442 -1.0307 -0.5401  2.2593
 3597SOL     OW22249   4.238   2.203   2.883 -0.0164  1.1559 -0.3023
 3597SOL    HW122250   4.192   2.174   2.962  1.1076  0.3702  0.0595
 3597SOL    HW222251   4.186   2.282   2.868 -2.7823 -0.2143  2.1119
 3598SOL     OW22252   4.159   0.938   7.885 -0.3382 -0.2270 -0.2043
 3598SOL    HW122253   4.091   0.954   7.950 -2.5126 -0.6296 -2.3745
 3598SOL    HW222254   4.147   0.848   7.854  2.0541 -0.7473  0.3982
 3599SOL     OW22255   1.785   4.406   3.061 -0.2253  0.3840 -0.5459
 3599SOL    HW122256   1.830   4.452   3.132 -0.3020  0.4692 -0.5530
 3599SOL    HW222257   1.858   4.369   3.011 -0.1302 -0.7618  0.4289
 3600SOL     OW22258   1.631   1.960   0.342  0.2688 -0.3817  0.6042
 3600SOL    HW122259   1.690   1.925   0.275 -0.7034 -0.6679 -0.1027
 3600SOL    HW222260   1.685   2.019   0.395  0.8790  0.8920 -1.4127
 3601SOL     OW22261   0.937   0.584  16.144 -0.5782  0.4000 -0.0043
 3601SOL    HW122262   0.941   0.516  16.076 -1.0560  1.2999 -0.9476
 3601SOL    HW222263   1.026   0.617  16.155 -0.2724 -0.8578  1.2750
 3602SOL     OW22264   1.456   4.087   3.841 -0.2812  0.3157 -0.2092
 3602SOL    HW122265   1.420   4.065   3.755  1.2592 -0.2789 -0.6906
 3602SOL    HW222266   1.415   4.021   3.896 -0.9899 -0.2187 -1.3866
 3603SOL     OW22267   3.911   0.646   6.532 -1.0348 -0.4063 -0.0093
 3603SOL    HW122268   3.869   0.573   6.486 -2.0928  1.3233 -1.7558
 3603SOL    HW222269   3.964   0.675   6.458 -0.3271  3.5941  2.1280
 3604SOL     OW22270   4.619   1.151   2.139  0.3942 -0.1772  0.2637
 3604SOL    HW122271   4.562   1.097   2.084  0.1969 -1.1119  1.3723
 3604SOL    HW222272   4.695   1.170   2.083  2.3945 -2.5305  2.1406
 3605SOL     OW22273   1.553   2.771  13.762  0.2677 -0.6780  0.0453
 3605SOL    HW122274   1.511   2.685  13.770  1.7430 -1.3690  0.3805
 3605SOL    HW222275   1.501   2.817  13.696  1.4670 -0.8658 -1.0500
 3606SOL     OW22276   3.942   4.539   5.887 -0.5787 -0.6559 -0.0934
 3606SOL    HW122277   3.956   4.518   5.979  2.0109 -2.1820 -0.8386
 3606SOL    HW222278   3.856   4.582   5.884  0.2653  0.9084 -1.6972
 3607SOL     OW22279   2.861   0.466   1.568 -0.4184  0.0699  0.2332
 3607SOL    HW122280   2.871   0.561   1.573  1.8946 -0.0662 -2.1513
 3607SOL    HW222281   2.928   0.439   1.506  0.3714  1.0063  0.6829
 3608SOL     OW22282   0.133   3.657  15.376 -0.0414 -0.2310  0.0974
 3608SOL    HW122283   0.087   3.736  15.350  1.1264 -0.0647 -1.4543
 3608SOL    HW222284   0.058   3.603  15.400  0.0104 -0.8990 -1.2485
 3609SOL     OW22285   3.903   0.827  11.411  0.6106 -0.2978  0.4982
 3609SOL    HW122286   3.955   0.894  11.454  0.7437 -1.4558  2.1604
 3609SOL    HW222287   3.851   0.882  11.353  2.8902 -0.4601 -1.6887
 3610SOL     OW22288   4.103   0.830  14.323 -0.2637  0.7792 -0.2526
 3610SOL    HW122289   4.108   0.909  14.269 -0.2698 -0.0048 -1.4110
 3610SOL    HW222290   4.009   0.814  14.332 -0.0247 -0.6010 -0.1822
 3611SOL     OW22291   0.729   2.620   5.919 -0.2325  0.3506 -0.0567
 3611SOL    HW122292   0.763   2.547   5.867  0.5062 -0.6030  1.7669
 3611SOL    HW222293   0.659   2.642   5.857 -1.2582  1.4802  1.5103
 3612SOL     OW22294   1.532   3.138   4.964 -0.5568 -0.1588  0.2904
 3612SOL    HW122295   1.479   3.212   4.995  1.7175  2.8593 -3.0771
 3612SOL    HW222296   1.475   3.066   4.991 -1.1379 -0.2660 -1.2043
 3613SOL     OW22297   0.186   3.273  10.040  0.0001  0.0321  0.0345
 3613SOL    HW122298   0.117   3.283  10.106  1.1352  2.0686  0.9061
 3613SOL    HW222299   0.140   3.221   9.973  1.2507 -1.6987  0.5380
 3614SOL     OW22300   2.559   3.734   1.921  0.3360 -0.2204  0.1724
 3614SOL    HW122301   2.550   3.778   1.837  1.9130 -2.4310 -1.1440
 3614SOL    HW222302   2.655   3.728   1.920  0.2348 -1.5267 -2.0185
 3615SOL     OW22303   3.334   0.370   5.310  0.8546 -0.1749 -0.1268
 3615SOL    HW122304   3.413   0.338   5.267  0.7720  0.7721 -0.9838
 3615SOL    HW222305   3.360   0.461   5.329 -2.1813  0.8349 -0.8205
 3616SOL     OW22306   0.553   4.053   3.140 -0.6980 -0.0770 -0.5250
 3616SOL    HW122307   0.641   4.089   3.136 -0.5878 -0.3668 -0.6640
 3616SOL    HW222308   0.577   3.967   3.175 -2.6450 -0.0970  0.8030
 3617SOL     OW22309   2.080   3.890   5.254 -0.2736  0.0543 -0.2331
 3617SOL    HW122310   2.157   3.879   5.310 -0.8578  0.2345  0.6073
 3617SOL    HW222311   2.014   3.887   5.323 -2.7056  2.3665 -2.4994
 3618SOL     OW22312   1.190   1.655   6.133  0.1775  0.2586  0.0418
 3618SOL    HW122313   1.220   1.566   6.154  0.8137  0.9172  1.9927
 3618SOL    HW222314   1.115   1.657   6.193 -1.4091 -0.0949 -1.9559
 3619SOL     OW22315   0.165   1.992   8.437 -0.5281  0.5291  0.0895
 3619SOL    HW122316   0.110   2.027   8.507  1.3889 -0.6093  2.1578
 3619SOL    HW222317   0.189   2.072   8.389  2.0381  0.5081  1.3498
 3620SOL     OW22318   3.497   3.851   5.271 -0.3275 -0.3821 -0.3145
 3620SOL    HW122319   3.479   3.905   5.194  0.8661  2.8242  1.6857
 3620SOL    HW222320   3.543   3.910   5.330 -1.2048 -1.4370  1.4275
 3621SOL     OW22321   3.981   1.291  11.585  0.7194  0.2739  0.8106
 3621SOL    HW122322   3.989   1.220  11.648 -0.8063  1.0971  1.9316
 3621SOL    HW222323   3.902   1.275  11.533  0.5474  0.0204  1.1538
 3622SOL     OW22324   3.564   0.576   2.725  0.3277  0.1924  0.3878
 3622SOL    HW122325   3.621   0.567   2.802  0.7309  0.0441  0.0761
 3622SOL    HW222326   3.521   0.659   2.745 -0.0809 -0.3614  1.7889
 3623SOL     OW22327   0.005   1.924  11.336  0.6845  0.3387  0.0962
 3623SOL    HW122328   4.673   1.855  11.375 -0.1181  1.2140  0.5605
 3623SOL    HW222329   0.088   1.882  11.315 -0.9707 -2.0912 -1.6119
 3624SOL     OW22330   4.340   2.572   6.297  0.1585  0.1165 -0.4896
 3624SOL    HW122331   4.404   2.607   6.359 -0.3119 -2.6262  1.5142
 3624SOL    HW222332   4.267   2.628   6.323 -0.8759  0.5404 -4.2230
 3625SOL     OW22333   2.342   1.766   4.015 -0.3180  0.5211  0.0454
 3625SOL    HW122334   2.303   1.776   4.102  0.5878 -0.5080  0.5683
 3625SOL    HW222335   2.263   1.764   3.960 -1.8304  1.4712  2.1794
 3626SOL     OW22336   0.111   3.948   8.799 -0.3250  0.0381  0.1647
 3626SOL    HW122337   0.175   4.007   8.838  1.1172 -0.4002 -1.5364
 3626SOL    HW222338   0.061   4.014   8.751  0.6739  2.4393  2.4128
 3627SOL     OW22339   4.139   2.462   9.068  0.0939  0.1937 -0.5322
 3627SOL    HW122340   4.106   2.531   9.011  0.4971  0.6503 -0.2045
 3627SOL    HW222341   4.159   2.388   9.009  0.4006  0.7088 -1.0735
 3628SOL     OW22342   3.534   4.432   3.636 -0.0393 -0.0006  0.6992
 3628SOL    HW122343   3.528   4.361   3.572 -0.4976  0.3548  0.3454
 3628SOL    HW222344   3.450   4.476   3.623 -0.7935 -1.6600  0.0309
 3629SOL     OW22345   0.940   2.088   7.445 -0.1463 -0.2678  1.0155
 3629SOL    HW122346   1.014   2.113   7.500  0.5823 -0.5160  0.1522
 3629SOL    HW222347   0.967   1.998   7.425  2.1992  0.3726  1.3289
 3630SOL     OW22348   4.287   1.725   1.645  0.1455  0.0945 -0.1884
 3630SOL    HW122349   4.244   1.804   1.613 -1.5587 -0.4366  0.7605
 3630SOL    HW222350   4.362   1.719   1.586  0.8551  1.6711  0.5575
 3631SOL     OW22351   0.005   3.814   0.801 -0.1471 -0.3552  0.0292
 3631SOL    HW122352   4.659   3.750   0.778 -1.6486  1.4761 -0.6781
 3631SOL    HW222353   4.674   3.890   0.827  0.2893 -0.5776  1.5537
 3632SOL     OW22354   1.034   1.576  17.565  0.2813  0.1447 -0.7692
 3632SOL    HW122355   0.976   1.556  17.639  3.6423  0.3259  1.8854
 3632SOL    HW222356   1.036   1.671  17.577 -3.5051  0.0110  1.1093
 3633SOL     OW22357   2.547   2.211   4.970  0.6112 -0.0050  0.4951
 3633SOL    HW122358   2.568   2.305   4.963  1.4431 -0.2451 -0.2184
 3633SOL    HW222359   2.596   2.190   5.050  1.2476  1.6321  0.5490
 3634SOL     OW22360   1.898   0.996  10.116 -0.3505 -0.3702 -0.7531
 3634SOL    HW122361   1.831   1.049  10.073  1.1572 -0.4995 -3.2939
 3634SOL    HW222362   1.843   0.987  10.194  0.8304  2.3151  0.4097
 3635SOL     OW22363   2.441   4.659   8.117 -0.1213 -0.2024  0.1517
 3635SOL    HW122364   2.449   4.565   8.131 -0.7046 -0.3649 -0.6047
 3635SOL    HW222365   2.522   4.696   8.151  0.2290 -0.1748 -0.7324
 3636SOL     OW22366   2.830   1.872   8.591 -0.2818 -0.3168  0.7236
 3636SOL    HW122367   2.775   1.797   8.614  1.7843 -1.6466  1.3465
 3636SOL    HW222368   2.889   1.875   8.666 -0.2836  1.1512  0.6753
 3637SOL     OW22369   1.661   1.459   8.959  0.1465  0.2994 -0.5598
 3637SOL    HW122370   1.716   1.478   8.883  0.7756 -2.3496 -0.7678
 3637SOL    HW222371   1.689   1.380   9.003  0.3021  0.2524 -0.7406
 3638SOL     OW22372   3.620   2.644   2.758 -0.0732  0.1393 -0.0565
 3638SOL    HW122373   3.549   2.633   2.822  0.5670 -1.7794  0.3371
 3638SOL    HW222374   3.612   2.555   2.725  0.8669  0.9491 -2.4670
 3639SOL     OW22375   0.246   1.224  11.979 -0.1054  0.2908  0.4563
 3639SOL    HW122376   0.342   1.219  11.982 -0.0520  0.2132 -1.2289
 3639SOL    HW222377   0.220   1.298  12.034  0.1694 -0.4625  1.5906
 3640SOL     OW22378   1.065   1.563   1.239 -0.0439  0.3284 -0.1535
 3640SOL    HW122379   1.039   1.623   1.169  2.1862  2.4397  0.8350
 3640SOL    HW222380   1.148   1.528   1.207  0.5037  0.9994  0.5432
 3641SOL     OW22381   4.400   2.568   2.960 -0.3952  0.1993  0.0170
 3641SOL    HW122382   4.308   2.584   2.938 -0.3813 -1.0039 -0.9032
 3641SOL    HW222383   4.445   2.600   2.882  1.1782  1.2071  1.3270
 3642SOL     OW22384   1.749   0.600  17.453 -0.5051  0.0437  0.2454
 3642SOL    HW122385   1.703   0.630  17.374 -0.2094 -0.9866 -0.3174
 3642SOL    HW222386   1.775   0.685  17.489 -1.0865 -0.4315  1.7760
 3643SOL     OW22387   0.133   1.700   7.676  0.6242 -0.5728  0.3930
 3643SOL    HW122388   0.211   1.702   7.732 -0.2962 -0.6810  1.6819
 3643SOL    HW222389   0.154   1.744   7.594  1.6039 -1.7594  0.0160
 3644SOL     OW22390   0.903   1.251  10.660  0.0272 -0.0685  0.1316
 3644SOL    HW122391   0.811   1.228  10.647  0.1425 -1.6150  2.0169
 3644SOL    HW222392   0.904   1.244  10.756  1.4669 -0.9849  0.0529
 3645SOL     OW22393   1.427   0.247   6.142  0.6692  0.0888  0.0208
 3645SOL    HW122394   1.408   0.153   6.137  1.3977 -0.0762  0.3418
 3645SOL    HW222395   1.522   0.239   6.129  0.9936 -0.6000  2.6683
 3646SOL     OW22396   2.148   4.573  14.865 -0.2821  0.0626  0.3697
 3646SOL    HW122397   2.137   4.515  14.940 -1.0853 -2.1568 -1.4560
 3646SOL    HW222398   2.110   4.644  14.917 -0.9391  0.0738 -0.1257
 3647SOL     OW22399   2.326   4.061   7.667  0.0951 -0.3289 -0.2793
 3647SOL    HW122400   2.245   4.011   7.663  0.0193 -0.4800  2.7194
 3647SOL    HW222401   2.324   4.085   7.575  1.2209 -1.0482 -0.4986
 3648SOL     OW22402   3.592   1.337  15.937  0.2891 -0.1906 -0.0931
 3648SOL    HW122403   3.622   1.352  16.027  2.3169 -0.9239 -0.6285
 3648SOL    HW222404   3.500   1.360  15.950  0.4237 -0.6748  1.7075
 3649SOL     OW22405   0.348   2.797  14.787  0.3960 -0.6270  0.4664
 3649SOL    HW122406   0.270   2.789  14.841 -0.5654  0.3673 -0.7756
 3649SOL    HW222407   0.331   2.723  14.729 -0.3573  1.0210 -1.4232
 3650SOL     OW22408   1.299   2.843   4.042 -0.5346  0.1720 -0.6118
 3650SOL    HW122409   1.293   2.831   3.947  1.2187  0.5188 -0.7671
 3650SOL    HW222410   1.388   2.810   4.052 -0.5633  0.5573  0.8179
 3651SOL     OW22411   2.957   0.942  13.451  0.2922  0.0064 -0.6548
 3651SOL    HW122412   3.020   1.011  13.474 -0.5958  0.7657 -0.4915
 3651SOL    HW222413   2.916   0.925  13.536 -1.4677  0.3865 -1.4322
 3652SOL     OW22414   3.344   3.195   6.234 -0.8674  0.1321 -0.3557
 3652SOL    HW122415   3.425   3.166   6.193 -1.6401 -1.3256 -0.8292
 3652SOL    HW222416   3.275   3.131   6.217  0.1026 -1.5777  2.0260
 3653SOL     OW22417   0.199   1.560   4.605  0.4170  0.1839 -0.1072
 3653SOL    HW122418   0.199   1.642   4.556  1.0328 -0.5283 -1.3019
 3653SOL    HW222419   0.112   1.561   4.644 -0.4462 -1.9114 -2.0342
 3654SOL     OW22420   3.131   1.257   7.421  0.2999  0.3103  0.2804
 3654SOL    HW122421   3.068   1.186   7.434 -1.5619  1.7466 -0.9955
 3654SOL    HW222422   3.087   1.336   7.390 -1.3056 -0.2252  1.2122
 3655SOL     OW22423   3.908   4.563   6.396  0.1351  0.2011  0.0144
 3655SOL    HW122424   3.919   4.576   6.490  1.1383  2.1135 -0.3578
 3655SOL    HW222425   3.813   4.563   6.389  0.0508  2.3293  1.2791
 3656SOL     OW22426   0.859   1.088  16.097  0.3422  0.4011  0.2788
 3656SOL    HW122427   0.849   1.157  16.164 -0.8587 -0.1363  0.6409
 3656SOL    HW222428   0.928   1.039  16.142 -0.2749  0.5145  1.3404
 3657SOL     OW22429   3.714   1.484   6.784 -0.4628 -0.4247 -0.5261
 3657SOL    HW122430   3.751   1.446   6.864 -1.3901 -1.0165 -0.3790
 3657SOL    HW222431   3.720   1.575   6.815 -3.0588 -0.1466 -0.7953
 3658SOL     OW22432   4.321   3.911   3.865  0.8495  0.0108  0.0045
 3658SOL    HW122433   4.409   3.933   3.894  1.0081 -0.2636 -0.2777
 3658SOL    HW222434   4.323   3.945   3.776  2.2495 -0.8257 -0.2680
 3659SOL     OW22435   2.142   4.637   6.708  0.5447 -0.5008 -0.1861
 3659SOL    HW122436   2.077   4.632   6.778  0.3468 -3.6317 -0.5957
 3659SOL    HW222437   2.141   4.549   6.670  1.1570  0.6957 -2.9300
 3660SOL     OW22438   4.520   4.138   1.537  0.4728 -0.4243  0.1422
 3660SOL    HW122439   4.526   4.082   1.460  0.7020  2.4922 -1.9951
 3660SOL    HW222440   4.486   4.085   1.609 -2.3050  0.4622 -0.5318
 3661SOL     OW22441   3.265   4.680   9.064 -0.5561 -0.0066  0.5541
 3661SOL    HW122442   3.262   0.033   9.004 -0.1010 -1.6380 -1.4851
 3661SOL    HW222443   3.257   0.006   9.147 -1.4168 -1.3907  1.2736
 3662SOL     OW22444   3.580   0.201   0.045  0.2654  0.2788 -0.1375
 3662SOL    HW122445   3.615   0.187   0.133  0.2783 -0.0270 -0.1919
 3662SOL    HW222446   3.534   0.283   0.061 -0.5725 -0.3619  0.7042
 3663SOL     OW22447   3.678   3.296   1.174  0.7485  0.2331 -0.1377
 3663SOL    HW122448   3.689   3.378   1.126  0.5227  0.9532  1.0591
 3663SOL    HW222449   3.623   3.320   1.247 -0.5222 -2.2204 -0.2829
 3664SOL     OW22450   3.265   3.416   3.739  0.5148 -0.0528  0.0215
 3664SOL    HW122451   3.284   3.509   3.749  1.3617 -0.3454  1.1649
 3664SOL    HW222452   3.263   3.406   3.644 -0.5117  1.0789 -0.0712
 3665SOL     OW22453   3.013   0.008  13.667  0.0649  0.5671 -0.4558
 3665SOL    HW122454   3.047   4.677  13.739  0.3505  0.8887 -0.3607
 3665SOL    HW222455   2.926   4.690  13.662  0.2292  0.2380 -0.7107
 3666SOL     OW22456   2.677   1.643   8.643 -0.1285  0.7185 -0.3993
 3666SOL    HW122457   2.581   1.634   8.638  0.0016 -0.9498  0.3033
 3666SOL    HW222458   2.691   1.607   8.730 -0.7938  0.4310 -0.4077
 3667SOL     OW22459   2.300   0.658   7.104 -0.6785  0.1291  0.3548
 3667SOL    HW122460   2.266   0.629   7.019 -0.4916  0.6803  0.0839
 3667SOL    HW222461   2.303   0.754   7.098  1.3806  0.2203  3.0008
 3668SOL     OW22462   2.013   0.744   4.491  0.1690  0.3123  0.0158
 3668SOL    HW122463   1.949   0.801   4.449  1.2263  1.0316 -0.6102
 3668SOL    HW222464   2.022   0.768   4.583  0.4873  1.0028 -0.1999
 3669SOL     OW22465   1.021   4.454  14.080 -0.5242 -0.5038  0.4033
 3669SOL    HW122466   0.970   4.456  13.999 -0.7636 -3.2998  0.4906
 3669SOL    HW222467   1.099   4.483  14.033 -1.0784  0.7290  0.2437
 3670SOL     OW22468   2.021   1.318   7.306 -0.2253  0.5487 -0.1851
 3670SOL    HW122469   2.034   1.239   7.254 -2.0275 -1.4971  2.4769
 3670SOL    HW222470   2.105   1.327   7.352  0.0521 -0.3588 -0.5070
 3671SOL     OW22471   2.445   1.604  12.565 -0.1302 -0.3996  0.2095
 3671SOL    HW122472   2.359   1.643  12.551  0.3258  0.6545  0.3269
 3671SOL    HW222473   2.472   1.601  12.474 -1.2670 -0.1623 -0.1312
 3672SOL     OW22474   4.299   1.505   2.926  0.2185  0.2344  0.1705
 3672SOL    HW122475   4.273   1.563   2.854  1.1387  1.5569  0.8951
 3672SOL    HW222476   4.275   1.419   2.892 -2.1395  1.0191 -0.1535
 3673SOL     OW22477   0.414   1.261   6.325  0.2473 -0.1689 -0.1262
 3673SOL    HW122478   0.482   1.209   6.281  0.9827 -1.0902  2.0870
 3673SOL    HW222479   0.363   1.188   6.360 -1.3820  1.0396  0.0397
 3674SOL     OW22480   2.769   3.513   2.757  0.3405  0.0131  0.5038
 3674SOL    HW122481   2.702   3.577   2.731 -1.0157 -1.5059  0.2785
 3674SOL    HW222482   2.785   3.468   2.674 -0.6322 -3.1033  2.0292
 3675SOL     OW22483   3.830   2.607  12.130  0.7476 -0.3852  0.3171
 3675SOL    HW122484   3.903   2.576  12.077  1.2628 -1.7283  1.8125
 3675SOL    HW222485   3.830   2.699  12.102 -2.2558 -0.4459  0.1478
 3676SOL     OW22486   2.089   1.200  11.574  0.5956  0.0984  0.0580
 3676SOL    HW122487   2.055   1.206  11.664  2.5512  0.2964  0.7847
 3676SOL    HW222488   2.163   1.259  11.568 -1.0298  2.1691  0.4183
 3677SOL     OW22489   1.746   0.250   8.913  0.0630 -0.0075  0.0586
 3677SOL    HW122490   1.742   0.167   8.960 -0.0758  0.9181  1.6935
 3677SOL    HW222491   1.699   0.212   8.839 -0.0822 -1.4082  0.8827
 3678SOL     OW22492   1.185   2.348   4.666 -0.0707 -0.2350 -0.1792
 3678SOL    HW122493   1.195   2.432   4.711  2.3045 -0.4657 -0.3098
 3678SOL    HW222494   1.143   2.378   4.585 -1.4556 -0.1557  0.5598
 3679SOL     OW22495   1.049   1.610   7.314  0.0746  0.6767  0.8109
 3679SOL    HW122496   1.028   1.522   7.343  1.2374  0.3401  0.6157
 3679SOL    HW222497   1.134   1.623   7.355  1.5062 -0.5305 -1.7541
 3680SOL     OW22498   2.369   3.111  17.525 -0.1667 -0.0443  0.3893
 3680SOL    HW122499   2.317   3.070  17.594 -0.9919 -1.8500 -1.3242
 3680SOL    HW222500   2.320   3.192  17.512  0.5671  0.0357 -1.8060
 3681SOL     OW22501   0.742   1.505   6.305 -0.4097  0.0110 -0.3203
 3681SOL    HW122502   0.717   1.545   6.389  0.5784 -2.8499  1.3328
 3681SOL    HW222503   0.797   1.431   6.332 -1.2335 -0.3911  0.2374
 3682SOL     OW22504   1.301   2.986   4.509  0.2845 -0.7772 -0.0883
 3682SOL    HW122505   1.283   3.032   4.591 -0.0189  0.0075 -0.5910
 3682SOL    HW222506   1.396   2.972   4.518  0.0892 -1.1655  1.4549
 3683SOL     OW22507   1.820   3.666   4.490 -0.5802 -0.2909  0.0268
 3683SOL    HW122508   1.767   3.635   4.563 -1.3910  0.7472 -0.1230
 3683SOL    HW222509   1.830   3.758   4.514 -0.5200 -0.3533  0.2354
 3684SOL     OW22510   1.558   3.656   5.115  0.3541 -0.1667  0.0183
 3684SOL    HW122511   1.564   3.693   5.027  0.1994  2.0789  0.9545
 3684SOL    HW222512   1.651   3.643   5.135  0.3329 -1.0084 -0.4136
 3685SOL     OW22513   2.140   4.460   7.536  0.4121 -0.9852 -0.6823
 3685SOL    HW122514   2.090   4.435   7.457  0.2279 -1.1667 -0.5084
 3685SOL    HW222515   2.067   4.512   7.571  0.6786 -0.5625 -0.7548
 3686SOL     OW22516   2.493   3.718   4.469 -0.0889 -0.4761  0.6595
 3686SOL    HW122517   2.557   3.788   4.481 -0.9704 -0.0628  2.9785
 3686SOL    HW222518   2.537   3.638   4.498 -0.8405 -0.9220  0.5874
 3687SOL     OW22519   3.502   1.830   2.819 -0.0085  0.0364 -0.3676
 3687SOL    HW122520   3.563   1.865   2.884  2.4407 -1.1183 -2.0380
 3687SOL    HW222521   3.422   1.875   2.843  0.1152  0.7442 -1.2961
 3688SOL     OW22522   1.216   2.418   6.704  0.2432 -0.0150 -0.6749
 3688SOL    HW122523   1.191   2.500   6.661 -2.6588  0.9651  2.9158
 3688SOL    HW222524   1.296   2.453   6.744  0.1157 -0.1716 -0.2910
 3689SOL     OW22525   3.817   0.346   4.505  0.0749  0.1592  0.3638
 3689SOL    HW122526   3.890   0.401   4.475 -1.9589  1.3110 -2.4687
 3689SOL    HW222527   3.752   0.414   4.523  1.0334  0.4520  2.7407
 3690SOL     OW22528   3.636   0.618   4.863 -0.1747 -0.2381 -0.2984
 3690SOL    HW122529   3.627   0.701   4.910  1.4223 -0.8940  1.1488
 3690SOL    HW222530   3.569   0.564   4.904  0.6555 -0.9852  0.0655
 3691SOL     OW22531   4.018   2.172  15.553 -0.3649  0.2071  0.2251
 3691SOL    HW122532   3.963   2.246  15.529 -0.2108 -0.1995 -1.3554
 3691SOL    HW222533   4.104   2.212  15.536 -0.4815  0.2327 -0.3002
 3692SOL     OW22534   4.055   1.677   6.724 -0.1704 -0.2547 -0.0416
 3692SOL    HW122535   4.009   1.659   6.642  0.3880 -2.6324  0.1623
 3692SOL    HW222536   4.097   1.593   6.741 -1.3220 -1.0153 -0.9793
 3693SOL     OW22537   3.412   2.250   0.341  0.1743  0.1012  0.4114
 3693SOL    HW122538   3.412   2.258   0.245  0.7398  0.8218  0.4690
 3693SOL    HW222539   3.317   2.249   0.352  0.0553  1.7739 -0.3858
 3694SOL     OW22540   3.051   3.497   1.931  0.1226  0.1850 -0.3163
 3694SOL    HW122541   3.070   3.474   1.840  1.2632  1.9145 -0.5189
 3694SOL    HW222542   3.044   3.414   1.978  1.8025 -1.3073 -2.7351
 3695SOL     OW22543   0.468   3.504   2.781 -0.3938 -0.0142  0.4728
 3695SOL    HW122544   0.487   3.478   2.871  1.2726 -1.3955 -0.2492
 3695SOL    HW222545   0.529   3.444   2.737 -0.1043  0.8710 -0.3376
 3696SOL     OW22546   1.633   4.389  16.666  1.0481 -0.0265  0.1721
 3696SOL    HW122547   1.596   4.355  16.748 -0.9973  2.6437  0.3412
 3696SOL    HW222548   1.678   4.315  16.625 -1.1831 -1.8558  0.9833
 3697SOL     OW22549   3.206   0.178   9.233  0.3712  0.4814  0.5218
 3697SOL    HW122550   3.225   0.148   9.322 -3.8670 -1.4655  0.7431
 3697SOL    HW222551   3.111   0.184   9.227  0.3211  0.8562  1.6646
 3698SOL     OW22552   3.452   2.843   4.402 -0.1879  0.2208 -0.3632
 3698SOL    HW122553   3.434   2.896   4.325  0.6441 -1.1601 -1.5112
 3698SOL    HW222554   3.502   2.766   4.374  1.3476  1.9527 -2.3515
 3699SOL     OW22555   0.825   4.561   6.519  0.1789  0.1005 -0.5645
 3699SOL    HW122556   0.899   4.616   6.492 -0.4630  0.8711 -0.7489
 3699SOL    HW222557   0.812   4.506   6.441 -1.0383  1.7313 -1.5031
 3700SOL     OW22558   2.305   1.841   7.818  0.4285  0.3166 -0.0594
 3700SOL    HW122559   2.352   1.893   7.885 -2.0240  1.0290  1.1095
 3700SOL    HW222560   2.380   1.828   7.760 -0.2884 -1.4970 -0.5606
 3701SOL     OW22561   1.838   2.526   4.176  0.2510  0.4264  0.1414
 3701SOL    HW122562   1.747   2.524   4.205 -0.8211  2.0374 -3.1166
 3701SOL    HW222563   1.819   2.547   4.084 -2.6695 -3.5975 -0.1787
 3702SOL     OW22564   2.876   1.215   9.691  0.0801 -0.0818  0.2029
 3702SOL    HW122565   2.857   1.220   9.784  2.6663  1.6292  0.6540
 3702SOL    HW222566   2.862   1.124   9.665  2.0672  0.2540 -2.0592
 3703SOL     OW22567   1.319   3.684   6.133  0.2255 -0.0175 -0.5134
 3703SOL    HW122568   1.391   3.624   6.115  0.0923 -0.1421 -0.6299
 3703SOL    HW222569   1.345   3.758   6.077  2.4356  0.9595  1.8246
 3704SOL     OW22570   3.682   1.229   2.606  0.0374 -0.4254  0.3855
 3704SOL    HW122571   3.736   1.184   2.541  0.4856  1.7793 -0.7595
 3704SOL    HW222572   3.750   1.272   2.657 -2.5947  0.7093  2.9408
 3705SOL     OW22573   3.099   2.378  13.434 -0.3097 -0.2403 -0.3433
 3705SOL    HW122574   3.017   2.361  13.480 -1.9974  2.4803 -2.3973
 3705SOL    HW222575   3.090   2.336  13.348 -2.2789 -0.3150 -0.0996
 3706SOL     OW22576   4.411   4.125  13.371  0.2949  0.0706  0.2986
 3706SOL    HW122577   4.503   4.150  13.380  0.5497 -0.2588 -1.5150
 3706SOL    HW222578   4.409   4.045  13.317  0.6819 -1.1017  2.0137
 3707SOL     OW22579   2.125   3.513   5.776  0.2430  0.4388 -0.1333
 3707SOL    HW122580   2.182   3.587   5.753  0.8410  0.0047 -0.0672
 3707SOL    HW222581   2.071   3.497   5.699 -1.0948 -1.3080  1.1669
 3708SOL     OW22582   2.849   0.849  10.741  0.3510 -0.1730 -0.5023
 3708SOL    HW122583   2.773   0.832  10.686  0.7861 -0.5758 -0.9824
 3708SOL    HW222584   2.921   0.865  10.680  1.0280 -0.8879  0.0982
 3709SOL     OW22585   3.775   3.933  13.781 -0.0472  0.1075  0.0811
 3709SOL    HW122586   3.753   3.841  13.794  0.6775 -0.0269  0.3575
 3709SOL    HW222587   3.800   3.938  13.689 -0.1270  0.6742  0.0897
 3710SOL     OW22588   2.254   2.630   8.171 -0.4595 -0.0881  0.4392
 3710SOL    HW122589   2.346   2.642   8.194 -0.0212 -2.6821  0.1092
 3710SOL    HW222590   2.217   2.675   8.247 -0.4338  0.3513  0.1894
 3711SOL     OW22591   1.710   4.212   5.885 -0.1309 -0.1375 -0.2238
 3711SOL    HW122592   1.687   4.261   5.806  1.1199 -1.0858 -1.1933
 3711SOL    HW222593   1.649   4.139   5.884  0.2289 -0.4250 -2.4202
 3712SOL     OW22594   2.070   2.108  14.534  0.2843 -0.1623  0.4985
 3712SOL    HW122595   2.010   2.047  14.577 -3.3414  0.2791 -3.9888
 3712SOL    HW222596   2.065   2.172  14.606 -0.5304  1.8829 -1.3749
 3713SOL     OW22597   3.240   4.425  11.034 -0.1762 -0.2500 -0.0903
 3713SOL    HW122598   3.172   4.493  11.032  1.3269  1.3205  2.0681
 3713SOL    HW222599   3.314   4.466  10.990  0.1770 -1.1704 -0.3348
 3714SOL     OW22600   1.840   1.373   7.580 -0.0289 -0.2678 -0.4172
 3714SOL    HW122601   1.826   1.281   7.601  2.9060 -0.5102  0.5946
 3714SOL    HW222602   1.849   1.377   7.485 -0.6215 -0.8672 -0.4997
 3715SOL     OW22603   2.761   3.141  15.467  0.1702 -0.2218 -0.1305
 3715SOL    HW122604   2.847   3.173  15.495 -0.1185  0.1971  0.2752
 3715SOL    HW222605   2.791   3.070  15.409 -1.3216 -0.5917 -0.4590
 3716SOL     OW22606   4.597   2.514   0.735 -0.3357 -0.3367 -1.1010
 3716SOL    HW122607   4.600   2.511   0.830 -1.2147 -2.6307 -1.1542
 3716SOL    HW222608   4.518   2.568   0.728  0.6972  1.0940 -1.6679
 3717SOL     OW22609   0.257   2.814  17.257 -0.1855 -0.0797  0.0715
 3717SOL    HW122610   0.219   2.769  17.332 -1.1687 -1.8964 -1.5055
 3717SOL    HW222611   0.279   2.889  17.312 -2.6102 -0.0201  0.9679
 3718SOL     OW22612   1.016   0.003   0.008  0.4068 -0.1922 -0.1176
 3718SOL    HW122613   1.082   0.071   0.021 -0.8421  1.0851 -0.5260
 3718SOL    HW222614   1.060   4.655   0.058 -0.1819 -0.8286 -0.4805
 3719SOL     OW22615   3.171   3.119   2.621  0.4097  0.2580 -0.0669
 3719SOL    HW122616   3.083   3.157   2.629  0.1705  0.0373 -1.6513
 3719SOL    HW222617   3.194   3.137   2.530  0.0407  2.2011  0.2086
 3720SOL     OW22618   3.883   3.478   7.968 -0.1370 -0.0618 -0.0366
 3720SOL    HW122619   3.868   3.391   7.930  0.4711  0.6901 -2.0084
 3720SOL    HW222620   3.828   3.479   8.046 -0.1860  0.6967 -0.0888
 3721SOL     OW22621   2.573   3.689   5.983 -0.5562  0.6688 -0.7319
 3721SOL    HW122622   2.606   3.778   5.979  0.0076  0.6723  3.6451
 3721SOL    HW222623   2.479   3.698   5.967 -1.0063 -0.2582  1.3741
 3722SOL     OW22624   2.827   3.144   6.948 -0.3826  0.1887  0.0883
 3722SOL    HW122625   2.762   3.213   6.944 -2.2461 -1.4392  2.1952
 3722SOL    HW222626   2.780   3.061   6.951 -0.4226  0.2190  0.3481
 3723SOL     OW22627   0.398   2.077  10.549  0.0130 -0.5494 -0.2607
 3723SOL    HW122628   0.358   2.165  10.547  0.5829 -0.2839  0.0005
 3723SOL    HW222629   0.490   2.099  10.560 -0.1157 -0.3375  0.4341
 3724SOL     OW22630   1.868   0.580  14.383 -0.5041  0.1787 -0.4260
 3724SOL    HW122631   1.780   0.598  14.416 -0.3828 -0.2265  0.1151
 3724SOL    HW222632   1.839   0.537  14.303 -0.6838 -0.6998  0.1132
 3725SOL     OW22633   2.878   3.283  16.531 -0.1692  0.3030  0.4266
 3725SOL    HW122634   2.922   3.359  16.570 -0.2329 -0.6307  2.3174
 3725SOL    HW222635   2.788   3.301  16.558 -0.1498 -0.6197  1.1042
 3726SOL     OW22636   0.099   0.206   6.009 -0.4060  0.6049 -0.1493
 3726SOL    HW122637   0.097   0.120   6.051 -0.6606 -0.4188 -2.3041
 3726SOL    HW222638   0.061   0.258   6.081  0.3965  0.7951  0.1329
 3727SOL     OW22639   0.460   2.699   8.144 -0.3127 -0.0432 -0.1418
 3727SOL    HW122640   0.495   2.619   8.183 -0.8023 -0.8340 -1.3456
 3727SOL    HW222641   0.475   2.764   8.213  1.4276 -0.8686  0.2562
 3728SOL     OW22642   2.654   4.365   7.040  0.6036  0.7595 -0.3055
 3728SOL    HW122643   2.684   4.456   7.043  0.7701  0.6346  1.5186
 3728SOL    HW222644   2.583   4.362   7.104  0.5688  1.2100 -0.3248
 3729SOL     OW22645   0.314   0.521   6.330  0.0240  0.1426  0.1994
 3729SOL    HW122646   0.335   0.451   6.268  0.1754  1.0627 -0.7897
 3729SOL    HW222647   0.263   0.578   6.272  2.6467  0.7406 -1.5306
 3730SOL     OW22648   1.343   1.674  17.555 -0.1858  0.1576 -0.0880
 3730SOL    HW122649   1.341   1.656  17.461  0.4707  0.7548 -0.2167
 3730SOL    HW222650   1.273   1.738  17.570  2.3527  2.8532  0.0902
 3731SOL     OW22651   4.179   1.327   1.031 -0.3014 -0.4783 -0.1983
 3731SOL    HW122652   4.261   1.354   1.073 -0.1029 -2.5890  0.7873
 3731SOL    HW222653   4.219   1.260   0.976  0.7684 -0.8444  1.0241
 3732SOL     OW22654   1.123   0.619   6.334  0.0691  0.1411 -0.4453
 3732SOL    HW122655   1.180   0.547   6.308  0.2536 -0.0555  0.4918
 3732SOL    HW222656   1.180   0.665   6.397 -0.9323  2.2897 -1.1245
 3733SOL     OW22657   4.461   1.325   7.537 -0.3405  1.0769  0.0645
 3733SOL    HW122658   4.493   1.241   7.505  2.4440  1.7659  0.9664
 3733SOL    HW222659   4.542   1.375   7.543 -0.6755  1.5717  0.4176
 3734SOL     OW22660   0.136   1.947   4.141  0.0571  0.2639 -0.0859
 3734SOL    HW122661   0.221   1.988   4.160  0.4506 -1.0507  1.0178
 3734SOL    HW222662   0.132   1.968   4.048 -0.7994 -0.0701 -0.1244
 3735SOL     OW22663   3.720   2.847  17.194 -0.1179 -0.0293 -0.3814
 3735SOL    HW122664   3.669   2.892  17.126 -0.6305  0.3745  0.2592
 3735SOL    HW222665   3.653   2.799  17.242  2.0847 -2.2300  0.4286
 3736SOL     OW22666   0.372   0.933  11.625 -0.1447 -0.5268 -0.3398
 3736SOL    HW122667   0.465   0.910  11.630 -0.0668 -0.2445 -0.5092
 3736SOL    HW222668   0.339   0.883  11.550 -0.0685 -2.0578  0.6548
 3737SOL     OW22669   0.163   0.724   0.410 -0.4383  0.6009 -0.3418
 3737SOL    HW122670   0.156   0.686   0.498 -0.5725 -0.4635 -0.8143
 3737SOL    HW222671   0.085   0.692   0.365 -1.0173  1.3355  0.1232
 3738SOL     OW22672   1.348   0.498  11.709 -0.0360 -0.0743 -0.1939
 3738SOL    HW122673   1.359   0.591  11.687  0.4870  0.0081  0.4368
 3738SOL    HW222674   1.254   0.498  11.691 -0.1471 -0.4298  0.3984
 3739SOL     OW22675   4.616   2.632   6.994 -0.0573  0.2235 -0.5040
 3739SOL    HW122676   4.697   2.583   7.011 -0.0810  0.5153  0.4814
 3739SOL    HW222677   4.602   2.633   6.899  1.7750 -0.2316 -0.7922
 3740SOL     OW22678   3.384   2.705  10.988 -0.1185  0.1860  0.2436
 3740SOL    HW122679   3.312   2.650  11.018 -1.5915  0.7601 -2.2893
 3740SOL    HW222680   3.447   2.646  10.947 -1.5747 -0.7620 -0.5961
 3741SOL     OW22681   1.791   4.446   2.100 -0.1086 -0.5337  1.0451
 3741SOL    HW122682   1.837   4.412   2.177  0.6877 -0.9876  0.3638
 3741SOL    HW222683   1.769   4.364   2.055 -2.8892  0.2535  0.9837
 3742SOL     OW22684   2.380   3.011  14.172 -0.3430  0.1577  0.1580
 3742SOL    HW122685   2.462   3.061  14.168 -0.0771 -0.2578  0.4404
 3742SOL    HW222686   2.330   3.080  14.216 -1.4124 -0.1781 -0.5505
 3743SOL     OW22687   0.249   2.856   7.074 -0.8847 -0.3530  0.2125
 3743SOL    HW122688   0.274   2.796   7.144 -0.5965 -2.5993 -1.8142
 3743SOL    HW222689   0.282   2.793   7.010 -0.4095 -2.0503  2.1558
 3744SOL     OW22690   0.876   3.859   4.493  0.1042 -0.0782 -0.0193
 3744SOL    HW122691   0.967   3.889   4.486 -1.0457  3.1310 -1.4010
 3744SOL    HW222692   0.846   3.945   4.525 -2.4428 -1.0980  0.3144
 3745SOL     OW22693   3.600   0.635   3.353 -0.1770 -0.3831  0.0401
 3745SOL    HW122694   3.634   0.654   3.440  1.5869 -0.4039 -0.6348
 3745SOL    HW222695   3.587   0.541   3.361  0.6938 -0.5290 -0.2217
 3746SOL     OW22696   2.180   0.100  15.094 -0.2858 -0.2960 -0.0234
 3746SOL    HW122697   2.270   0.085  15.064  0.5144  0.9254  1.7701
 3746SOL    HW222698   2.182   0.194  15.077 -2.6670 -0.1806  0.2933
 3747SOL     OW22699   2.222   2.778  15.775  0.5331  0.2529 -0.1762
 3747SOL    HW122700   2.202   2.859  15.822 -0.0400 -0.5920  1.0357
 3747SOL    HW222701   2.186   2.718  15.840 -2.1477  1.8226 -0.1686
 3748SOL     OW22702   4.458   4.233  12.714 -0.3349  0.0470  0.3939
 3748SOL    HW122703   4.420   4.219  12.801  1.0333  1.4692  1.2275
 3748SOL    HW222704   4.445   4.145  12.680  1.2808 -0.3188  0.7233
 3749SOL     OW22705   4.022   2.810   1.926 -0.0540 -0.3873  0.5590
 3749SOL    HW122706   3.947   2.834   1.980 -1.3070  0.9185 -1.7513
 3749SOL    HW222707   4.011   2.714   1.924  0.1579 -0.4262  1.2814
 3750SOL     OW22708   3.090   4.700   4.121  0.2905 -0.0366 -0.2348
 3750SOL    HW122709   3.034   4.705   4.198  0.9861 -1.4747  0.3570
 3750SOL    HW222710   3.040   0.023   4.052  0.0622 -0.5970 -0.4213
 3751SOL     OW22711   2.972   3.875   1.541  0.4697 -0.0806  0.1519
 3751SOL    HW122712   3.054   3.878   1.592 -0.2665  0.3636  1.3128
 3751SOL    HW222713   2.941   3.797   1.588 -0.1096 -0.2823 -0.5729
 3752SOL     OW22714   2.728   0.031   0.174 -0.0415 -0.4044 -0.2666
 3752SOL    HW122715   2.798   4.717   0.229 -1.4986 -1.4351  0.9124
 3752SOL    HW222716   2.660   4.685   0.179 -1.4177  1.0443  0.7050
 3753SOL     OW22717   4.060   3.406   6.864  0.2873  0.4811  0.2018
 3753SOL    HW122718   4.003   3.438   6.795  0.1985 -1.2965 -0.5430
 3753SOL    HW222719   4.108   3.485   6.887  1.2784  0.1899 -0.8595
 3754SOL     OW22720   0.009   0.004   7.602  0.6281  0.3160 -0.4569
 3754SOL    HW122721   0.013   0.034   7.693  3.3570  2.6724 -1.3461
 3754SOL    HW222722   4.646   0.047   7.583  1.3049  0.7699 -2.4018
 3755SOL     OW22723   2.324   1.221   2.696  0.3872  0.5397 -0.3637
 3755SOL    HW122724   2.391   1.260   2.640 -1.0188  2.5022 -0.6606
 3755SOL    HW222725   2.263   1.175   2.638  1.1451 -1.2313  0.2273
 3756SOL     OW22726   1.696   4.448  10.998 -0.1905  0.0725  0.1012
 3756SOL    HW122727   1.667   4.446  11.089  0.4631 -0.5704  0.2922
 3756SOL    HW222728   1.790   4.461  11.012 -0.3429  0.2345  1.0037
 3757SOL     OW22729   1.118   1.252  13.567 -0.0005  0.0053  0.2098
 3757SOL    HW122730   1.061   1.246  13.643 -0.2151  2.0420  0.2036
 3757SOL    HW222731   1.049   1.242  13.501  0.9410  3.6546 -1.3017
 3758SOL     OW22732   0.041   2.000   8.007  0.6572 -0.2217 -0.0012
 3758SOL    HW122733   0.015   1.978   7.918  1.1006 -2.9768  0.5474
 3758SOL    HW222734   0.080   2.086   7.997 -0.1709  0.1745  0.1740
 3759SOL     OW22735   3.986   3.183   6.142  0.2861 -0.5009  0.0225
 3759SOL    HW122736   4.061   3.216   6.092 -0.0430 -1.5105 -1.1660
 3759SOL    HW222737   4.007   3.214   6.230  2.2823  0.2126 -0.7095
 3760SOL     OW22738   0.494   3.357  16.852 -0.0199  0.2554 -0.4646
 3760SOL    HW122739   0.511   3.272  16.810  1.3636  0.9019 -1.2222
 3760SOL    HW222740   0.460   3.323  16.935  0.5701 -0.2337 -0.4193
 3761SOL     OW22741   0.924   0.098   6.410  0.4131  0.1928  0.3710
 3761SOL    HW122742   1.011   0.135   6.394  0.1229  1.0166  0.6479
 3761SOL    HW222743   0.865   0.160   6.367  0.1237  0.2250  0.8120
 3762SOL     OW22744   3.683   3.916   2.265 -0.3002  0.3350  0.0857
 3762SOL    HW122745   3.710   3.878   2.181  0.1660  0.1342  0.3315
 3762SOL    HW222746   3.642   3.996   2.231 -2.3425 -0.4962  0.6110
 3763SOL     OW22747   4.102   3.309   3.289 -0.5565 -0.7900  0.0044
 3763SOL    HW122748   4.041   3.243   3.322  0.1161 -1.6530 -0.4823
 3763SOL    HW222749   4.135   3.258   3.215 -1.0856 -2.7884  1.1618
 3764SOL     OW22750   0.927   4.440   3.405 -0.6659 -0.1502  1.0584
 3764SOL    HW122751   0.960   4.517   3.359  0.0773 -1.3356 -0.3908
 3764SOL    HW222752   0.905   4.475   3.492  2.3980  0.8129  1.4330
 3765SOL     OW22753   3.167   2.415   1.540 -0.9874  0.3759  0.2965
 3765SOL    HW122754   3.249   2.371   1.563 -0.6301  2.1144  2.4056
 3765SOL    HW222755   3.161   2.481   1.610  2.0765  0.3632  0.5794
 3766SOL     OW22756   4.246   0.234   5.029  0.0945 -0.6675  0.1036
 3766SOL    HW122757   4.292   0.159   4.992  1.1668  0.0987 -0.1168
 3766SOL    HW222758   4.196   0.266   4.955 -0.9526  0.4476  1.3060
 3767SOL     OW22759   2.928   2.379   3.453 -0.2518 -0.2640  0.0894
 3767SOL    HW122760   2.950   2.286   3.444 -0.6221 -0.3186 -0.2494
 3767SOL    HW222761   2.843   2.374   3.409 -0.3932  1.8974  0.1224
 3768SOL     OW22762   1.360   4.085   6.558 -0.5237  0.1530  0.3871
 3768SOL    HW122763   1.431   4.043   6.606  2.0702  1.2782 -2.4709
 3768SOL    HW222764   1.285   4.027   6.566 -1.2156  0.6532 -2.5693
 3769SOL     OW22765   0.766   2.869   6.079 -0.6961 -0.6123  0.0962
 3769SOL    HW122766   0.708   2.819   6.136  0.3668 -0.7843  1.0349
 3769SOL    HW222767   0.789   2.804   6.014 -2.7906 -1.5917  0.3379
 3770SOL     OW22768   2.562   3.895  10.436 -0.1099 -0.2427 -0.4297
 3770SOL    HW122769   2.567   3.967  10.499 -0.2731  0.4042 -1.1494
 3770SOL    HW222770   2.504   3.829  10.474  0.6403 -0.2654  0.6798
 3771SOL     OW22771   4.308   4.524   7.882 -0.0807  0.0475 -0.1308
 3771SOL    HW122772   4.328   4.440   7.841 -1.6031  0.3658 -1.5359
 3771SOL    HW222773   4.361   4.519   7.962 -1.8756  1.6220  1.1450
 3772SOL     OW22774   3.827   0.481   5.342 -0.4773  0.0923 -0.4888
 3772SOL    HW122775   3.859   0.566   5.372  0.8586 -0.4848 -0.2876
 3772SOL    HW222776   3.879   0.422   5.397 -1.2940 -0.9772 -0.8557
 3773SOL     OW22777   1.829   0.063  13.001  0.0440  0.0220 -0.5373
 3773SOL    HW122778   1.817   4.693  12.975 -0.9898  0.2621 -0.8877
 3773SOL    HW222779   1.922   0.084  13.008  0.3850 -1.3345 -0.9501
 3774SOL     OW22780   0.051   1.707   2.325  0.3295 -0.6412 -0.0400
 3774SOL    HW122781   4.709   1.763   2.279 -2.8954 -1.6154  3.2151
 3774SOL    HW222782   0.095   1.652   2.261  0.5170  0.5404 -0.9239
 3775SOL     OW22783   0.364   3.518  15.326  0.1934  0.1967 -0.5215
 3775SOL    HW122784   0.279   3.562  15.328  0.9708  1.8031 -2.5072
 3775SOL    HW222785   0.405   3.527  15.412  3.2219  3.3321 -2.2565
 3776SOL     OW22786   3.184   0.413  12.061  0.0826 -0.3311 -0.3350
 3776SOL    HW122787   3.215   0.423  11.971  0.8904 -0.1635 -0.0407
 3776SOL    HW222788   3.205   0.322  12.080  2.7691  0.0642 -1.4564
 3777SOL     OW22789   4.258   4.679   4.918  0.1429 -0.0879  0.1763
 3777SOL    HW122790   4.177   4.709   4.876  0.8686  0.8293 -0.5717
 3777SOL    HW222791   4.283   4.612   4.855 -0.7632  0.5771 -0.8877
 3778SOL     OW22792   0.307   3.381   2.519 -0.0535  0.0259  0.0231
 3778SOL    HW122793   0.260   3.389   2.436  1.6009  1.3377 -0.7864
 3778SOL    HW222794   0.395   3.402   2.490 -0.2445  0.3287 -0.3439
 3779SOL     OW22795   3.883   3.146   8.692 -0.2400 -0.4772  0.5207
 3779SOL    HW122796   3.820   3.188   8.752  1.0187  3.3939 -0.8738
 3779SOL    HW222797   3.853   3.187   8.611  0.8724  0.2159  0.4643
 3780SOL     OW22798   0.939   1.762   8.308  0.1415  0.7050  0.6695
 3780SOL    HW122799   0.934   1.796   8.397  0.2437 -2.4659  1.8931
 3780SOL    HW222800   0.882   1.685   8.313  0.2160  0.6335  0.4441
 3781SOL     OW22801   4.289   4.527  17.136  0.0145 -0.1232  0.4400
 3781SOL    HW122802   4.271   4.618  17.161 -2.9943 -0.2296 -1.2920
 3781SOL    HW222803   4.247   4.510  17.051 -2.5723 -0.9593  1.8907
 3782SOL     OW22804   3.857   0.065  13.462 -0.3484 -0.4256  0.4089
 3782SOL    HW122805   3.813   4.711  13.501  0.8102 -0.1718  2.2086
 3782SOL    HW222806   3.872   0.025  13.377 -2.4594  1.3230 -0.8009
 3783SOL     OW22807   3.966   0.084   4.814 -0.3842  0.1683  0.2017
 3783SOL    HW122808   3.963   0.104   4.720  0.2802  0.2253  0.1966
 3783SOL    HW222809   3.983   0.172   4.846  1.9803 -0.6509  1.1731
 3784SOL     OW22810   1.243   1.401   8.808 -0.5443  0.4198 -0.1112
 3784SOL    HW122811   1.165   1.358   8.773 -1.8952  1.1849  1.9326
 3784SOL    HW222812   1.282   1.436   8.728 -0.3330 -2.6816 -1.3651
 3785SOL     OW22813   1.773   4.589  14.538 -0.1509 -0.2866  0.0910
 3785SOL    HW122814   1.822   4.670  14.526 -0.4999 -0.0725  0.1102
 3785SOL    HW222815   1.737   4.591  14.449  0.6251 -1.2952 -0.2367
 3786SOL     OW22816   2.095   4.339   6.887 -0.3801  0.1922  0.4264
 3786SOL    HW122817   2.057   4.267   6.937 -2.1441  0.5199 -0.4548
 3786SOL    HW222818   2.130   4.402   6.950  1.6150  0.9720 -1.4293
 3787SOL     OW22819   2.966   0.766   8.817  0.0579  0.5173 -0.7958
 3787SOL    HW122820   2.961   0.671   8.822 -2.0607  0.7339  1.1005
 3787SOL    HW222821   2.994   0.779   8.726  2.1473 -0.0138 -0.2155
 3788SOL     OW22822   1.336   1.717   1.420 -0.5034 -0.0362  0.4780
 3788SOL    HW122823   1.350   1.626   1.393 -1.0373  0.0996 -0.2610
 3788SOL    HW222824   1.300   1.694   1.506  1.0067  1.0914  1.3937
 3789SOL     OW22825   4.378   1.537   6.044 -0.2476  0.2652  0.3386
 3789SOL    HW122826   4.363   1.480   6.119 -0.1366 -0.3064 -0.0680
 3789SOL    HW222827   4.305   1.515   5.986  0.4532  0.5422 -0.6702
 3790SOL     OW22828   0.758   3.692   3.813  0.2036  0.0969  0.2486
 3790SOL    HW122829   0.810   3.705   3.893  1.1097  1.4958 -0.5773
 3790SOL    HW222830   0.668   3.708   3.841 -0.3407 -0.5246 -1.1546
 3791SOL     OW22831   1.405   2.910   5.069  0.5319 -0.3361  0.3663
 3791SOL    HW122832   1.475   2.875   5.124  2.1229 -1.2127 -2.2591
 3791SOL    HW222833   1.329   2.904   5.126  0.1498  0.1181 -0.0974
 3792SOL     OW22834   1.753   0.590   5.687 -0.5118 -0.2114  0.0406
 3792SOL    HW122835   1.831   0.534   5.689  0.1267  0.5766 -2.8222
 3792SOL    HW222836   1.680   0.531   5.706 -1.3739  0.4981 -1.1685
 3793SOL     OW22837   1.544   4.081  13.405 -0.0709  0.8342  0.1338
 3793SOL    HW122838   1.510   4.128  13.481 -0.1956 -0.6519  1.0031
 3793SOL    HW222839   1.473   4.099  13.343 -0.6261 -0.5324  0.3759
 3794SOL     OW22840   0.788   2.256   1.619  0.4109 -0.0294 -0.0866
 3794SOL    HW122841   0.875   2.260   1.658  0.1069  1.6274  0.4301
 3794SOL    HW222842   0.790   2.178   1.563 -1.1514 -0.5334  0.5472
 3795SOL     OW22843   0.228   2.930   2.483  0.3962  0.1611 -0.6947
 3795SOL    HW122844   0.280   2.878   2.546 -0.8489 -2.2282 -1.6411
 3795SOL    HW222845   0.161   2.958   2.545  1.5964 -1.2427  1.2684
 3796SOL     OW22846   2.606   2.712  13.451 -0.0963  0.1943 -0.2185
 3796SOL    HW122847   2.557   2.632  13.430 -0.1723  0.6985 -1.9719
 3796SOL    HW222848   2.588   2.715  13.545 -2.3136  2.8603 -0.7162
 3797SOL     OW22849   3.797   3.898  11.814  0.3700  0.3955 -1.0467
 3797SOL    HW122850   3.819   3.990  11.803 -0.4152  0.7052  0.0325
 3797SOL    HW222851   3.824   3.862  11.729 -1.0142 -0.5295 -1.0920
 3798SOL     OW22852   1.711   3.576   4.729 -0.0709  0.2610  0.7073
 3798SOL    HW122853   1.734   3.529   4.809 -0.7232 -0.9286  0.1967
 3798SOL    HW222854   1.630   3.534   4.700  1.0276 -1.9008  0.7451
 3799SOL     OW22855   3.241   1.764   0.961 -0.0356 -0.2080  0.0211
 3799SOL    HW122856   3.200   1.828   0.904  0.9623  1.5715  1.3005
 3799SOL    HW222857   3.274   1.823   1.029  1.2708 -1.4548  0.4760
 3800SOL     OW22858   3.531   3.320  12.080 -0.2770  0.0464 -0.3995
 3800SOL    HW122859   3.552   3.234  12.116  0.0727 -0.1572 -1.0900
 3800SOL    HW222860   3.508   3.373  12.157 -1.0026  1.2778 -1.4602
 3801SOL     OW22861   2.144   2.804   6.145 -0.1612 -0.2814  0.0869
 3801SOL    HW122862   2.110   2.745   6.211  0.9285 -1.1533 -0.1354
 3801SOL    HW222863   2.072   2.801   6.081  0.4413  2.8939 -0.7502
 3802SOL     OW22864   3.880   3.736   1.553 -0.7765 -0.1291 -0.1159
 3802SOL    HW122865   3.942   3.708   1.621  0.0748  0.4142 -0.6727
 3802SOL    HW222866   3.852   3.658   1.506 -0.6319  1.0147 -2.0961
 3803SOL     OW22867   0.478   1.675   0.377  0.1033 -0.7182  0.4895
 3803SOL    HW122868   0.549   1.717   0.426 -0.6675 -1.7875  2.5225
 3803SOL    HW222869   0.514   1.587   0.364 -0.7099 -0.9658 -0.1064
 3804SOL     OW22870   0.047   0.539   7.563  0.0092  0.3333 -0.4527
 3804SOL    HW122871   0.036   0.459   7.614  2.2863  0.5002  0.3089
 3804SOL    HW222872   0.066   0.611   7.622 -1.9315  0.1020  0.4735
 3805SOL     OW22873   0.345   3.576   9.532 -0.3858  0.1734 -0.2977
 3805SOL    HW122874   0.262   3.537   9.561 -0.7070  0.5109 -0.7543
 3805SOL    HW222875   0.341   3.664   9.568 -2.8881 -0.0638  0.0122
 3806SOL     OW22876   3.419   1.682  12.639 -0.2088  0.4655  0.0902
 3806SOL    HW122877   3.402   1.775  12.652 -2.3204  0.3874 -2.1188
 3806SOL    HW222878   3.494   1.667  12.698  1.1531 -0.0979 -1.7818
 3807SOL     OW22879   2.801   0.680  12.651  0.5786 -0.0160 -0.0665
 3807SOL    HW122880   2.716   0.707  12.617  0.4865 -1.0091 -0.6209
 3807SOL    HW222881   2.789   0.711  12.740 -0.7362 -0.3655 -0.1290
 3808SOL     OW22882   0.429   3.903   4.324  0.3349 -0.3101 -0.0828
 3808SOL    HW122883   0.503   3.931   4.269  0.5299 -0.5430  0.0647
 3808SOL    HW222884   0.479   3.835   4.368 -0.5378 -0.4831  0.6299
 3809SOL     OW22885   1.046   4.117  14.831 -0.1455 -0.5526  0.5069
 3809SOL    HW122886   1.108   4.046  14.848  2.5812  1.4707 -0.8323
 3809SOL    HW222887   1.060   4.139  14.739 -0.5180  2.0716  1.0589
 3810SOL     OW22888   0.955   0.851   4.207  0.0732  0.3868 -1.0139
 3810SOL    HW122889   1.045   0.883   4.208  0.7263 -1.5049  0.4933
 3810SOL    HW222890   0.922   0.915   4.270 -0.5418 -0.8158 -0.1199
 3811SOL     OW22891   2.739   2.345   3.224 -0.3329 -0.1566  0.0452
 3811SOL    HW122892   2.798   2.288   3.174 -1.4190 -0.4842 -0.8865
 3811SOL    HW222893   2.655   2.315   3.187 -0.3898 -1.6286  1.3618
 3812SOL     OW22894   2.831   3.918   6.946 -1.1642 -0.2796  0.2288
 3812SOL    HW122895   2.795   3.976   7.013 -1.0711  0.2033 -0.1397
 3812SOL    HW222896   2.904   3.874   6.989 -0.1071  1.4536  0.1712
 3813SOL     OW22897   3.598   0.074   6.289 -0.8152  0.2873  0.4081
 3813SOL    HW122898   3.587   0.156   6.338 -0.4748 -1.0764  2.7229
 3813SOL    HW222899   3.656   0.103   6.219 -1.6510  0.8344 -0.0589
 3814SOL     OW22900   1.035   2.489  12.386 -0.5391 -0.5850  0.4203
 3814SOL    HW122901   1.010   2.396  12.390  0.8542 -0.9543  0.7310
 3814SOL    HW222902   0.984   2.498  12.306  2.2307  0.2792 -1.2611
 3815SOL     OW22903   4.501   1.012   6.141 -0.0683 -0.3790 -0.0973
 3815SOL    HW122904   4.511   1.085   6.079  1.9256 -0.0955  0.5554
 3815SOL    HW222905   4.517   0.934   6.088  1.0192  0.4929 -1.0486
 3816SOL     OW22906   0.416   4.102   7.153 -0.1034  0.2240 -0.3833
 3816SOL    HW122907   0.467   4.181   7.173 -1.3990  0.3473  2.3198
 3816SOL    HW222908   0.446   4.045   7.223 -0.0055  0.8650  0.0935
 3817SOL     OW22909   3.385   0.659   7.567 -0.2310 -0.8337  0.2106
 3817SOL    HW122910   3.424   0.643   7.654 -0.0670 -1.9918 -0.0767
 3817SOL    HW222911   3.452   0.703   7.514 -0.3799  0.7220  1.3077
 3818SOL     OW22912   3.889   4.179   6.044 -0.4923  0.0709 -0.4376
 3818SOL    HW122913   3.870   4.241   6.114  0.7986  1.4887 -1.3285
 3818SOL    HW222914   3.934   4.114   6.099 -1.3377  1.6211  2.0263
 3819SOL     OW22915   3.381   1.053  13.027 -0.2173  0.1099 -0.7774
 3819SOL    HW122916   3.467   1.031  12.992 -0.1185  0.5890 -0.8391
 3819SOL    HW222917   3.362   1.136  12.983  1.9963 -0.0938 -2.1225
 3820SOL     OW22918   4.340   2.852   2.852 -0.4570 -0.3833  0.7234
 3820SOL    HW122919   4.330   2.779   2.913 -1.5846  0.9463  2.1053
 3820SOL    HW222920   4.382   2.808   2.778  1.3579  1.4115  0.6811
 3821SOL     OW22921   2.396   2.854  12.882 -0.2146 -0.0120 -0.4544
 3821SOL    HW122922   2.403   2.905  12.802  1.1156 -1.8026 -1.4803
 3821SOL    HW222923   2.305   2.824  12.876 -0.0968 -0.7272  1.4233
 3822SOL     OW22924   0.884   2.685  16.838 -0.2935  0.2183 -0.1402
 3822SOL    HW122925   0.966   2.726  16.808  1.3770 -1.5951  1.9364
 3822SOL    HW222926   0.832   2.675  16.758 -1.2598  0.2637  0.4800
 3823SOL     OW22927   2.640   2.682   2.229  0.4304 -0.5223 -0.0055
 3823SOL    HW122928   2.596   2.751   2.279  1.1486  1.1569 -1.6692
 3823SOL    HW222929   2.719   2.662   2.279 -0.0588  0.2108  1.0479
 3824SOL     OW22930   4.471   3.435   5.957 -0.1482 -0.0252 -0.5204
 3824SOL    HW122931   4.399   3.464   5.900 -3.0366 -2.0836  2.1184
 3824SOL    HW222932   4.534   3.502   5.930 -0.4094  0.1339 -0.7379
 3825SOL     OW22933   1.340   1.638   2.512  0.2316 -0.2981  0.7667
 3825SOL    HW122934   1.275   1.571   2.490  0.2968  0.1158 -0.6913
 3825SOL    HW222935   1.420   1.589   2.494  0.2145 -0.1206  0.2320
 3826SOL     OW22936   3.913   4.565   9.687  0.4464 -0.1478 -0.7763
 3826SOL    HW122937   3.840   4.596   9.742 -0.3473  0.1547 -2.0017
 3826SOL    HW222938   3.990   4.614   9.715  0.4687 -0.4226 -0.3499
 3827SOL     OW22939   0.715   2.289   4.373 -0.3609  0.3345 -0.0437
 3827SOL    HW122940   0.685   2.291   4.282 -1.7287  0.0428  0.4083
 3827SOL    HW222941   0.631   2.298   4.418 -0.2884 -0.0469  0.1611
 3828SOL     OW22942   1.935   1.461  16.634 -0.2958 -0.2127  0.0279
 3828SOL    HW122943   1.952   1.508  16.553  1.3157 -0.2549  0.3429
 3828SOL    HW222944   1.895   1.379  16.606 -1.0085 -0.4946  1.8570
 3829SOL     OW22945   1.887   2.261  17.621  0.1267 -0.0883  0.4673
 3829SOL    HW122946   1.957   2.321  17.596 -0.5020  0.0956 -0.8273
 3829SOL    HW222947   1.939   2.181  17.619  0.1645 -0.1187  2.1730
 3830SOL     OW22948   1.575   0.811   7.586 -0.3426  0.7961  0.4336
 3830SOL    HW122949   1.617   0.833   7.669  1.2511  1.1143 -0.4618
 3830SOL    HW222950   1.647   0.818   7.523 -1.1801 -1.8163 -0.7904
 3831SOL     OW22951   4.471   0.823   7.240 -0.1680 -0.5378 -0.2043
 3831SOL    HW122952   4.495   0.785   7.325 -1.8485  1.3421  1.1193
 3831SOL    HW222953   4.375   0.817   7.235 -0.2444 -0.0166  0.5346
 3832SOL     OW22954   2.388   1.862  13.167  0.3300 -0.1361  0.4361
 3832SOL    HW122955   2.328   1.797  13.131  0.3221  0.3816 -0.4970
 3832SOL    HW222956   2.461   1.801  13.177 -0.7717 -1.4355  0.5355
 3833SOL     OW22957   1.566   2.592  12.654  0.6916 -0.4150 -0.3027
 3833SOL    HW122958   1.582   2.525  12.720 -1.0014 -0.7309 -0.2068
 3833SOL    HW222959   1.491   2.550  12.612  1.3598 -1.5529 -0.3713
 3834SOL     OW22960   0.607   0.195   4.223  0.3671 -0.0205 -0.2379
 3834SOL    HW122961   0.654   0.230   4.299 -0.9635 -0.1538  0.6305
 3834SOL    HW222962   0.657   0.116   4.201 -2.2093 -1.1612 -2.0640
 3835SOL     OW22963   3.916   2.714   7.764 -0.1418  0.0490  0.4594
 3835SOL    HW122964   3.918   2.771   7.687 -3.3458  0.1717  0.4983
 3835SOL    HW222965   3.846   2.758   7.812  0.0885  1.3408 -0.3700
 3836SOL     OW22966   3.934   3.780  11.610 -0.6648  0.2974  0.4028
 3836SOL    HW122967   4.012   3.732  11.637 -0.2220  0.3040 -0.8472
 3836SOL    HW222968   3.966   3.840  11.542  0.7088  0.2661  1.0097
 3837SOL     OW22969   3.929   1.200   8.749 -0.4987 -0.2581  0.2608
 3837SOL    HW122970   4.022   1.214   8.731 -0.5845 -1.3603 -1.0172
 3837SOL    HW222971   3.899   1.250   8.673 -0.1337  0.5318  0.6301
 3838SOL     OW22972   4.629   2.983   2.266  0.3100 -0.1808 -0.0588
 3838SOL    HW122973   4.667   3.062   2.306  0.8932 -0.8765  0.7504
 3838SOL    HW222974   4.702   2.923   2.254 -1.1925 -1.7522 -1.3644
 3839SOL     OW22975   1.638   2.161   5.985  0.2615  0.4271  0.2764
 3839SOL    HW122976   1.701   2.150   6.056  1.6028 -1.2790 -1.2048
 3839SOL    HW222977   1.648   2.071   5.955  1.0454  1.2856 -2.0414
 3840SOL     OW22978   0.256   3.877   7.490 -0.1640  0.4200 -0.0947
 3840SOL    HW122979   0.302   3.956   7.521 -1.2569  0.8372  0.4841
 3840SOL    HW222980   0.183   3.887   7.551  1.1744  1.9685  1.2892
 3841SOL     OW22981   2.008   2.979   4.024  0.0391 -0.3246  0.1984
 3841SOL    HW122982   2.078   3.020   3.973 -0.0655 -0.8311 -0.3412
 3841SOL    HW222983   2.053   2.896   4.037  1.3712  0.4186  0.3956
 3842SOL     OW22984   3.157   0.301   9.526  0.1659  0.0479  0.1370
 3842SOL    HW122985   3.074   0.252   9.524  0.0841  0.1561  1.2744
 3842SOL    HW222986   3.222   0.237   9.497  1.1318 -0.2772  3.0698
 3843SOL     OW22987   1.516   0.819  16.480 -0.5186  0.3182 -0.4475
 3843SOL    HW122988   1.457   0.804  16.407 -0.8435 -0.1489 -0.0901
 3843SOL    HW222989   1.466   0.789  16.556 -0.8505 -1.6288 -1.4310
 3844SOL     OW22990   4.221   2.938   8.143  0.5139 -0.6584  0.2900
 3844SOL    HW122991   4.253   2.860   8.189 -1.8537 -2.2254 -0.6774
 3844SOL    HW222992   4.161   2.896   8.081  2.3337 -2.9727  0.0897
 3845SOL     OW22993   2.631   3.149   6.052  0.0882 -0.3559  0.5269
 3845SOL    HW122994   2.619   3.218   6.117 -0.3808  0.9602 -0.9622
 3845SOL    HW222995   2.705   3.099   6.086  1.0992 -0.0034 -1.1703
 3846SOL     OW22996   3.521   0.391   4.993  0.6603 -0.1501 -0.2386
 3846SOL    HW122997   3.516   0.342   5.074  2.4392  1.2108  0.6939
 3846SOL    HW222998   3.584   0.355   4.931  1.7585  0.3115  0.6000
 3847SOL     OW22999   3.886   3.785   8.208 -0.1819 -0.4107 -0.0616
 3847SOL    HW123000   3.820   3.832   8.261 -0.0873 -2.3490  1.7526
 3847SOL    HW223001   3.957   3.774   8.271  0.0884 -2.0305 -0.6597
 3848SOL     OW23002   4.127   1.957  13.081 -0.1238  0.1803  0.3550
 3848SOL    HW123003   4.044   1.982  13.043  0.9454  0.7213 -1.6063
 3848SOL    HW223004   4.129   2.009  13.162 -2.2307  1.0908 -0.1816
 3849SOL     OW23005   4.625   2.466   7.930  0.9211 -0.1699  0.0388
 3849SOL    HW123006   4.698   2.420   7.972  0.3238  0.1966  1.4784
 3849SOL    HW223007   4.576   2.391   7.897  0.7612 -0.5044  1.0318
 3850SOL     OW23008   4.313   0.490   3.331 -0.2460  0.0546  0.1321
 3850SOL    HW123009   4.366   0.414   3.307 -0.3961 -0.0447  0.1121
 3850SOL    HW223010   4.361   0.535   3.400  0.8991  0.4455 -0.9034
 3851SOL     OW23011   3.783   0.972   4.777  0.6517 -0.1887  0.6086
 3851SOL    HW123012   3.715   0.941   4.838  0.5042 -0.2021  0.4381
 3851SOL    HW223013   3.719   1.015   4.721  1.9094  2.2499  1.0704
 3852SOL     OW23014   3.794   3.574   6.979  0.0647 -0.0067 -0.0010
 3852SOL    HW123015   3.722   3.548   7.036 -0.6294  0.9319 -0.4457
 3852SOL    HW223016   3.768   3.647   6.922 -2.0757 -0.2268  0.7034
 3853SOL     OW23017   0.732   3.838   6.382  0.7548 -0.4910 -0.1824
 3853SOL    HW123018   0.718   3.806   6.293 -1.6936  0.6932 -0.2260
 3853SOL    HW223019   0.690   3.923   6.370 -1.4645 -1.3005  1.9828
 3854SOL     OW23020   1.120   1.930   5.454  0.2769 -0.6990 -0.0055
 3854SOL    HW123021   1.152   1.958   5.540 -1.9704 -0.7834  0.8401
 3854SOL    HW223022   1.031   1.898   5.468  0.7318 -2.1077 -0.2865
 3855SOL     OW23023   2.975   4.351  11.255 -0.0627  0.3377 -0.1335
 3855SOL    HW123024   3.032   4.408  11.203 -2.6013  1.2860 -1.8975
 3855SOL    HW223025   2.913   4.336  11.183 -0.0026  0.1459 -0.1442
 3856SOL     OW23026   0.129   2.691   4.470 -0.2620  0.1860 -0.0570
 3856SOL    HW123027   0.078   2.615   4.496 -0.7276  0.8836  1.0575
 3856SOL    HW223028   0.070   2.739   4.411  2.6304  0.0196 -3.0908
 3857SOL     OW23029   0.889   0.139   8.130 -0.0020  0.2899  0.5233
 3857SOL    HW123030   0.862   0.047   8.120 -0.1241  0.4047 -0.1995
 3857SOL    HW223031   0.813   0.186   8.096 -1.0702 -0.7773  1.4222
 3858SOL     OW23032   0.864   4.161   5.077  0.7161 -0.0547 -0.6954
 3858SOL    HW123033   0.942   4.204   5.111 -0.1454  0.9255  0.0317
 3858SOL    HW223034   0.852   4.206   4.993 -0.2225 -0.9076 -1.0247
 3859SOL     OW23035   3.146   1.651   7.958 -0.0813 -0.3091 -0.3584
 3859SOL    HW123036   3.185   1.697   8.032 -2.1728  1.1668 -0.1731
 3859SOL    HW223037   3.059   1.637   7.995 -0.6085  2.2274 -0.6555
 3860SOL     OW23038   2.784   4.098   8.248  0.0860  0.0120  0.0988
 3860SOL    HW123039   2.865   4.057   8.278  1.3252  1.6579 -1.0297
 3860SOL    HW223040   2.801   4.103   8.154  0.5639  1.3515  0.2520
 3861SOL     OW23041   0.586   2.181  12.630  0.4459 -0.5060  0.1125
 3861SOL    HW123042   0.640   2.110  12.595  0.2888 -0.2136 -0.7264
 3861SOL    HW223043   0.644   2.228  12.690 -0.7888  0.3304  0.6410
 3862SOL     OW23044   4.468   1.206  10.240 -0.4608  0.1745 -0.1106
 3862SOL    HW123045   4.492   1.290  10.278 -2.0410  1.2567 -1.4935
 3862SOL    HW223046   4.517   1.141  10.290  3.8854  4.2578  0.8373
 3863SOL     OW23047   0.087   3.544   9.164  0.0739 -0.5075  0.1767
 3863SOL    HW123048   0.030   3.485   9.114  0.0175  0.4828 -0.9195
 3863SOL    HW223049   0.059   3.509   9.249 -0.0798  1.7576  1.0501
 3864SOL     OW23050   3.669   2.575   0.127 -0.0397 -0.8467  0.0993
 3864SOL    HW123051   3.621   2.503   0.087  1.3964 -0.2861 -2.6510
 3864SOL    HW223052   3.739   2.520   0.161  0.8827 -0.1124 -0.6223
 3865SOL     OW23053   2.692   3.731   4.713 -0.3525 -0.3816  0.3974
 3865SOL    HW123054   2.646   3.650   4.732  0.8515 -0.8040  1.5029
 3865SOL    HW223055   2.781   3.705   4.689  0.4308  2.2344  0.4717
 3866SOL     OW23056   1.695   2.562   9.525 -0.2158  0.0102  0.2729
 3866SOL    HW123057   1.732   2.538   9.610 -2.0581 -1.5707  0.6200
 3866SOL    HW223058   1.601   2.566   9.542 -0.0767  0.5162  0.9244
 3867SOL     OW23059   1.007   2.461   9.664  0.7893 -0.3043  0.1212
 3867SOL    HW123060   0.934   2.400   9.679  1.9459 -0.3983  5.4242
 3867SOL    HW223061   0.992   2.538   9.718  1.2972 -2.3542  3.1573
 3868SOL     OW23062   3.133   2.994  13.477  0.5225  0.5143 -0.4516
 3868SOL    HW123063   3.137   3.081  13.437  0.3287  0.5224 -0.4541
 3868SOL    HW223064   3.042   2.984  13.505  0.7210  0.0301  0.0283
 3869SOL     OW23065   4.572   3.641   8.699 -0.2577  0.3460  0.0085
 3869SOL    HW123066   4.557   3.551   8.670 -1.6314  0.0219  1.7103
 3869SOL    HW223067   4.601   3.628   8.789 -2.4047 -2.9061  0.2549
 3870SOL     OW23068   3.444   4.380   5.884  0.1932 -0.2517  0.3026
 3870SOL    HW123069   3.494   4.389   5.803  0.9150 -0.4751  0.7202
 3870SOL    HW223070   3.355   4.377   5.849  0.3888  0.0768 -0.2163
 3871SOL     OW23071   1.037   3.970   1.205  0.0323 -0.4388 -0.0469
 3871SOL    HW123072   0.976   4.044   1.214  1.1847  0.6037 -0.8810
 3871SOL    HW223073   1.032   3.945   1.297 -0.5192 -0.4208 -0.0704
 3872SOL     OW23074   3.032   2.156  15.546 -0.2050 -0.4119 -0.5776
 3872SOL    HW123075   2.992   2.072  15.571 -1.2677  0.6696  1.3504
 3872SOL    HW223076   2.999   2.200  15.625  1.9490 -0.8818  0.5872
 3873SOL     OW23077   0.472   4.358   7.773 -0.4313 -0.3522  0.3646
 3873SOL    HW123078   0.383   4.342   7.742 -1.1953  2.8666  0.8866
 3873SOL    HW223079   0.454   4.442   7.816  0.8141  0.5004 -0.7794
 3874SOL     OW23080   1.167   3.318   5.241  0.2160 -0.4965 -0.1913
 3874SOL    HW123081   1.145   3.246   5.182 -0.9133  0.8387 -1.4056
 3874SOL    HW223082   1.105   3.390   5.225  1.9912  1.1809  0.4176
 3875SOL     OW23083   0.451   0.933   8.410  0.6132 -0.1786  0.3770
 3875SOL    HW123084   0.498   0.954   8.491 -0.6249  2.5815  0.3870
 3875SOL    HW223085   0.498   0.857   8.376 -1.2733 -1.3298  0.3367
 3876SOL     OW23086   3.223   1.846   4.533  0.2175  0.0737  0.2096
 3876SOL    HW123087   3.276   1.768   4.517 -1.5272 -0.8654 -0.9535
 3876SOL    HW223088   3.157   1.840   4.465 -0.7319  0.8354  1.0700
 3877SOL     OW23089   1.665   0.339   2.228  0.1497  0.3614  0.3338
 3877SOL    HW123090   1.717   0.328   2.148 -1.0565  0.3396 -0.4498
 3877SOL    HW223091   1.593   0.283   2.200  0.7278 -1.0995  1.7750
 3878SOL     OW23092   4.314   4.594  15.512 -0.5584  0.1872  0.0623
 3878SOL    HW123093   4.370   4.571  15.437 -0.5324  0.7307 -0.0849
 3878SOL    HW223094   4.362   4.669  15.547 -0.4113 -0.3627  1.0321
 3879SOL     OW23095   0.820   1.214   3.250 -0.1608 -0.2016  0.6549
 3879SOL    HW123096   0.731   1.207   3.217 -0.4103  1.2736  0.9943
 3879SOL    HW223097   0.852   1.127   3.274  1.7924  0.3459  0.0218
 3880SOL     OW23098   4.034   1.461   3.915 -0.9322 -0.0584 -0.3137
 3880SOL    HW123099   4.080   1.377   3.914 -0.9903 -0.1213  1.6483
 3880SOL    HW223100   4.087   1.513   3.975 -1.6426  1.7375 -1.2561
 3881SOL     OW23101   2.621   1.636   6.653  0.9134 -0.2562  0.2134
 3881SOL    HW123102   2.642   1.709   6.711  4.5863 -1.3578  0.2721
 3881SOL    HW223103   2.702   1.585   6.655 -0.1233 -1.8660  0.7193
 3882SOL     OW23104   2.084   2.043   6.613 -0.1026  0.3767  0.5676
 3882SOL    HW123105   1.991   2.056   6.633 -0.3923  1.5095 -1.4555
 3882SOL    HW223106   2.098   2.104   6.540  0.3439  1.6561  1.7167
 3883SOL     OW23107   3.433   1.157  13.770 -0.2399  0.5182 -0.4691
 3883SOL    HW123108   3.525   1.172  13.749  0.4577 -0.8839  1.6397
 3883SOL    HW223109   3.389   1.235  13.737  1.1468  1.8887  0.9200
 3884SOL     OW23110   4.625   4.383   7.309  0.6399  0.3150 -0.1089
 3884SOL    HW123111   4.551   4.443   7.294 -1.2554 -1.7753  0.9472
 3884SOL    HW223112   4.604   4.303   7.260 -2.0622  1.1456 -0.3186
 3885SOL     OW23113   4.474   3.960   3.604 -0.7370  0.2575  0.0345
 3885SOL    HW123114   4.564   3.973   3.636 -0.6960  2.9914 -1.2548
 3885SOL    HW223115   4.496   3.895   3.537 -0.6434 -1.9417  2.1686
 3886SOL     OW23116   4.086   1.694   2.538  0.9693  0.1684  0.1152
 3886SOL    HW123117   4.163   1.695   2.480  1.1898 -0.2900  0.4020
 3886SOL    HW223118   4.040   1.621   2.496  2.0842  0.5776 -1.8182
 3887SOL     OW23119   4.415   1.006   6.970 -0.0107 -0.0252 -0.3274
 3887SOL    HW123120   4.418   1.050   7.055  0.8818 -0.3444 -0.1841
 3887SOL    HW223121   4.435   1.069   6.901  1.5500 -0.4215 -0.2627
 3888SOL     OW23122   4.405   0.782   5.420 -0.3924 -0.1242  0.5666
 3888SOL    HW123123   4.333   0.816   5.367 -0.4401 -0.0459  0.6818
 3888SOL    HW223124   4.367   0.699   5.448  1.3464 -0.7279  1.1223
 3889SOL     OW23125   4.582   3.418   2.818 -0.1952  0.5857  0.0589
 3889SOL    HW123126   4.616   3.497   2.859 -1.0131  0.3232  1.2264
 3889SOL    HW223127   4.668   3.400   2.780 -1.5687 -0.7249 -2.5014
 3890SOL     OW23128   2.099   1.807  15.181  0.1837  0.5367 -0.5911
 3890SOL    HW123129   2.135   1.875  15.123 -0.3134  0.6477 -0.7721
 3890SOL    HW223130   2.071   1.743  15.116 -4.3774 -1.3621  3.2457
 3891SOL     OW23131   1.862   2.743   2.952  0.6323 -0.7691  0.4085
 3891SOL    HW123132   1.858   2.669   3.013  0.1076 -0.0113  1.2853
 3891SOL    HW223133   1.772   2.772   2.961  0.7477 -0.3544  0.2118
 3892SOL     OW23134   4.118   3.754   3.347  0.6145  0.3558 -0.0537
 3892SOL    HW123135   4.131   3.682   3.408 -0.0424 -1.9619 -2.6250
 3892SOL    HW223136   4.158   3.728   3.263 -2.0741 -0.1241 -1.1874
 3893SOL     OW23137   0.569   0.710  16.898 -0.6167 -0.1545 -0.1025
 3893SOL    HW123138   0.580   0.801  16.927  1.2044  0.1310 -1.6586
 3893SOL    HW223139   0.532   0.729  16.812 -0.4152  0.2603 -0.0999
 3894SOL     OW23140   3.980   1.510   1.108 -0.1878  0.6128 -0.0108
 3894SOL    HW123141   3.894   1.488   1.072 -0.4140 -1.1086  1.5606
 3894SOL    HW223142   4.025   1.441   1.060  0.2165 -0.5595  2.0422
 3895SOL     OW23143   3.894   4.279   5.774 -0.0284  0.2022  0.2172
 3895SOL    HW123144   3.904   4.365   5.814  0.8485  0.3628 -0.3353
 3895SOL    HW223145   3.885   4.230   5.856  0.2581  0.1621  0.2253
 3896SOL     OW23146   3.157   3.686   1.175  0.7046  0.3340 -0.1412
 3896SOL    HW123147   3.140   3.780   1.175 -0.1998  0.1625 -0.0722
 3896SOL    HW223148   3.105   3.653   1.248 -0.0528  0.5199 -0.5998
 3897SOL     OW23149   2.840   3.454   9.771 -0.3996  0.6206  0.0946
 3897SOL    HW123150   2.868   3.388   9.707  0.7673  0.4718  0.7667
 3897SOL    HW223151   2.799   3.521   9.715  2.3857  2.5942  0.4009
 3898SOL     OW23152   3.564   4.561  11.133  0.0321  0.0203  0.1464
 3898SOL    HW123153   3.615   4.485  11.105 -0.8425 -0.3592 -0.4136
 3898SOL    HW223154   3.542   4.543  11.224  1.3701 -0.4263  0.3793
 3899SOL     OW23155   4.158   3.511   3.457 -0.1511  0.2579  0.1063
 3899SOL    HW123156   4.140   3.435   3.403 -0.1133 -0.6730  1.4133
 3899SOL    HW223157   4.096   3.512   3.530  0.0085  1.4737  0.2406
 3900SOL     OW23158   2.992   3.241  15.572  0.5373 -0.0916 -0.2635
 3900SOL    HW123159   2.986   3.335  15.588 -0.4994 -0.5589  2.1367
 3900SOL    HW223160   3.014   3.197  15.654 -0.1174 -1.8313 -1.0173
 3901SOL     OW23161   4.646   0.490   2.754  0.0823  0.7795  0.1203
 3901SOL    HW123162   4.652   0.534   2.670  1.8726  0.3018  0.0030
 3901SOL    HW223163   4.623   0.398   2.736 -0.0051  0.6115  1.0954
 3902SOL     OW23164   3.977   4.318   2.572 -0.5770 -0.1358  0.2311
 3902SOL    HW123165   3.949   4.322   2.663 -0.1439 -2.4450  0.4729
 3902SOL    HW223166   3.984   4.412   2.555 -0.5274 -0.1849 -0.0273
 3903SOL     OW23167   0.433   0.228   8.551  0.6442  0.5978 -0.0735
 3903SOL    HW123168   0.379   0.304   8.573  1.3621  1.4032 -1.1204
 3903SOL    HW223169   0.496   0.225   8.623 -0.0167  0.4859  0.5022
 3904SOL     OW23170   1.526   3.427   6.528 -0.1362  0.3744  0.3276
 3904SOL    HW123171   1.611   3.386   6.542  0.9014  1.8168 -1.7258
 3904SOL    HW223172   1.489   3.375   6.457 -1.4250 -1.1395  2.1282
 3905SOL     OW23173   2.509   0.680  16.571  0.1979  0.2021 -0.2633
 3905SOL    HW123174   2.450   0.745  16.610  0.5042  1.2293 -1.5194
 3905SOL    HW223175   2.582   0.676  16.633 -0.1345  3.2077  0.3372
 3906SOL     OW23176   3.470   4.037   8.785  0.2352 -0.2402  0.6444
 3906SOL    HW123177   3.431   4.114   8.826 -1.5951 -0.3348 -0.9074
 3906SOL    HW223178   3.545   4.031   8.844  1.8702  1.5220 -1.2688
 3907SOL     OW23179   2.148   2.620   7.351  0.2754 -0.2570 -0.3326
 3907SOL    HW123180   2.072   2.581   7.307  0.2173 -0.5433  0.0219
 3907SOL    HW223181   2.117   2.709   7.368  0.1648 -0.7325  1.9772
 3908SOL     OW23182   3.929   3.895   2.007 -0.3145 -0.7187  0.4162
 3908SOL    HW123183   4.005   3.858   1.963 -1.8080 -1.5131 -1.5178
 3908SOL    HW223184   3.892   3.811   2.036  0.5168 -0.1387  3.2016
 3909SOL     OW23185   2.423   1.455   8.318 -0.1623  0.2035  0.6628
 3909SOL    HW123186   2.379   1.498   8.392 -1.6285 -1.3270  0.6670
 3909SOL    HW223187   2.492   1.403   8.358  0.4994  0.7488  0.2487
 3910SOL     OW23188   3.766   3.858  12.255 -0.3717 -0.4547 -0.1529
 3910SOL    HW123189   3.755   3.805  12.176  1.3146 -1.2949  0.1633
 3910SOL    HW223190   3.850   3.902  12.244  0.8772 -2.8120 -0.0006
 3911SOL     OW23191   2.751   4.119   7.112  0.2370  0.2392 -0.1709
 3911SOL    HW123192   2.734   4.210   7.091  1.1034  1.0633  2.7134
 3911SOL    HW223193   2.667   4.089   7.145  0.4697  1.1714  1.2571
 3912SOL     OW23194   3.924   0.848   1.252 -0.0138  0.3425 -0.1137
 3912SOL    HW123195   3.882   0.856   1.167 -0.0824  0.0520 -0.1078
 3912SOL    HW223196   4.011   0.812   1.233 -0.5726  0.0244 -2.0558
 3913SOL     OW23197   1.252   3.256  17.250  0.2712  0.5396  0.5130
 3913SOL    HW123198   1.302   3.205  17.313 -0.0968  0.7838  1.0028
 3913SOL    HW223199   1.289   3.229  17.166 -2.6292  1.6556 -1.1063
 3914SOL     OW23200   0.373   1.386  13.977  0.0317  0.7106 -0.0252
 3914SOL    HW123201   0.460   1.404  14.014  0.0507  0.7432 -0.0858
 3914SOL    HW223202   0.379   1.411  13.885  2.0120  1.3592  0.2869
 3915SOL     OW23203   0.327   0.840   1.941 -0.1041  0.0046  0.1694
 3915SOL    HW123204   0.324   0.782   1.864 -1.3864 -0.7674  0.7895
 3915SOL    HW223205   0.420   0.830   1.960 -0.2100 -0.9766  0.1881
 3916SOL     OW23206   3.478   2.303   4.251 -0.2123  0.3392  0.1469
 3916SOL    HW123207   3.490   2.232   4.315 -0.7044  0.7796  0.7214
 3916SOL    HW223208   3.399   2.269   4.210 -1.4820  2.7741  0.5944
 3917SOL     OW23209   2.134   2.895   9.582 -0.7789  0.1770 -0.4034
 3917SOL    HW123210   2.123   2.803   9.557  0.5577 -0.0118 -0.2832
 3917SOL    HW223211   2.181   2.881   9.664  0.0103  1.3721 -0.6481
 3918SOL     OW23212   3.306   0.796   8.884 -0.1317  0.0923  0.0146
 3918SOL    HW123213   3.270   0.878   8.919 -0.3635 -0.6659  1.5505
 3918SOL    HW223214   3.397   0.808   8.912 -0.3640 -0.8532  1.1372
 3919SOL     OW23215   4.331   3.008   7.882 -0.3896  0.3578 -0.1830
 3919SOL    HW123216   4.376   3.000   7.966 -3.0863 -1.5240  1.1144
 3919SOL    HW223217   4.272   2.932   7.877  0.3697 -0.1451 -1.4219
 3920SOL     OW23218   3.475   0.967   9.773  0.2753 -0.0768  0.2300
 3920SOL    HW123219   3.520   1.049   9.795  2.2929 -0.6169 -1.8918
 3920SOL    HW223220   3.388   1.005   9.764 -0.2640 -1.1313  1.0425
 3921SOL     OW23221   1.499   0.715   8.631  0.0649 -0.1079  0.5456
 3921SOL    HW123222   1.514   0.808   8.611  1.7631 -0.7559 -1.1126
 3921SOL    HW223223   1.406   0.711   8.654  0.2680 -0.9836  1.1932
 3922SOL     OW23224   0.633   2.148  15.544 -0.5824 -0.1409  0.1642
 3922SOL    HW123225   0.725   2.160  15.566 -0.5476  0.8389 -0.4852
 3922SOL    HW223226   0.594   2.170  15.628 -1.0445 -1.8954  0.4136
 3923SOL     OW23227   0.597   0.773   1.503  0.0090 -0.3334  0.3144
 3923SOL    HW123228   0.508   0.763   1.469  0.6089 -2.7583 -0.5384
 3923SOL    HW223229   0.621   0.862   1.478 -0.3448 -0.0078  1.1250
 3924SOL     OW23230   0.441   2.196   7.126 -0.0796 -0.1175  0.5733
 3924SOL    HW123231   0.452   2.119   7.071  2.0765 -1.6827  3.2410
 3924SOL    HW223232   0.531   2.230   7.126  0.4504 -1.5387 -0.1004
 3925SOL     OW23233   3.463   0.661   5.147  0.2554  0.0811 -0.3637
 3925SOL    HW123234   3.512   0.663   5.230  0.9749  1.0625 -0.8257
 3925SOL    HW223235   3.527   0.705   5.093 -1.2369  0.8186 -1.5270
 3926SOL     OW23236   0.358   3.605   9.213 -0.2342 -0.4112  0.0025
 3926SOL    HW123237   0.317   3.543   9.273  0.5418 -0.2090  0.7466
 3926SOL    HW223238   0.276   3.630   9.172 -2.2245 -0.6596  3.8472
 3927SOL     OW23239   3.530   3.541   3.481 -0.4388 -0.2004 -0.2631
 3927SOL    HW123240   3.470   3.615   3.494 -0.3977 -0.7188  2.8692
 3927SOL    HW223241   3.532   3.500   3.567  3.2617 -0.9297 -0.7124
 3928SOL     OW23242   2.348   1.327   4.223  0.2613  0.0020  0.0842
 3928SOL    HW123243   2.422   1.275   4.192  0.2514 -0.2444  0.4763
 3928SOL    HW223244   2.284   1.266   4.260 -0.4443 -0.5218 -1.9789
 3929SOL     OW23245   3.639   1.556   5.057  0.3353 -0.5530  0.1692
 3929SOL    HW123246   3.595   1.611   5.121 -0.1538  0.4683 -1.0583
 3929SOL    HW223247   3.681   1.621   5.001  0.1284  0.1817  0.8839
 3930SOL     OW23248   3.660   3.470   2.823  0.0320 -0.1387  0.2890
 3930SOL    HW123249   3.584   3.413   2.814  0.2857 -0.1124 -2.0434
 3930SOL    HW223250   3.625   3.535   2.885 -1.1292  1.2165 -1.8113
 3931SOL     OW23251   0.696   1.524   5.505 -0.2151 -0.1410  0.1700
 3931SOL    HW123252   0.745   1.443   5.520  1.8144  1.4227  1.9168
 3931SOL    HW223253   0.700   1.538   5.410  3.9477 -0.8824  0.2508
 3932SOL     OW23254   2.189   0.509   5.569  0.1460 -0.0232 -0.0462
 3932SOL    HW123255   2.276   0.523   5.606 -0.5499 -0.7736  1.8739
 3932SOL    HW223256   2.175   0.582   5.510  2.1095  1.5353  1.4074
 3933SOL     OW23257   3.134   1.330   8.187 -0.0833 -0.0752 -0.2542
 3933SOL    HW123258   3.176   1.387   8.251 -0.7972  1.0809 -0.8167
 3933SOL    HW223259   3.042   1.356   8.186  0.4111  1.6761  0.1138
 3934SOL     OW23260   4.053   4.592   5.307 -0.3281  0.2322  0.3025
 3934SOL    HW123261   4.008   4.670   5.275  0.5128  0.7395  0.3635
 3934SOL    HW223262   4.140   4.599   5.268  0.0093  1.6806  1.3271
 3935SOL     OW23263   0.233   2.822  14.451 -1.0022 -0.6762  0.5060
 3935SOL    HW123264   0.166   2.872  14.406 -0.9549  1.2955  2.5818
 3935SOL    HW223265   0.283   2.778  14.382  0.0364 -0.9735  1.4373
 3936SOL     OW23266   4.398   2.950   1.930 -0.7435  0.0058 -0.5644
 3936SOL    HW123267   4.388   2.856   1.913  3.1579 -0.7358  1.2704
 3936SOL    HW223268   4.487   2.959   1.896 -0.1365  0.4898  1.1757
 3937SOL     OW23269   1.427   4.337   8.675  0.5475  0.0535 -0.0058
 3937SOL    HW123270   1.473   4.336   8.590 -0.9946 -0.7959 -0.8356
 3937SOL    HW223271   1.368   4.262   8.666  1.3959 -0.4585 -1.4008
 3938SOL     OW23272   2.135   2.406   6.783  0.3610 -0.1248 -0.2246
 3938SOL    HW123273   2.088   2.471   6.731  0.2833 -0.2701 -0.3363
 3938SOL    HW223274   2.198   2.367   6.722  1.1927 -2.1849  1.9460
 3939SOL     OW23275   2.586   1.610   2.018  0.4643 -0.6975  0.1771
 3939SOL    HW123276   2.520   1.646   1.960  0.5656  0.0400  0.5180
 3939SOL    HW223277   2.653   1.679   2.019  0.5444 -0.7661 -0.3604
 3940SOL     OW23278   3.063   3.130   3.024 -0.2108 -0.1200  0.4398
 3940SOL    HW123279   3.125   3.149   2.954 -0.6021  0.1412  0.1603
 3940SOL    HW223280   3.057   3.035   3.018  0.6200 -0.2185  1.2961
 3941SOL     OW23281   1.790   2.153  14.771 -0.4164 -0.1491  0.5966
 3941SOL    HW123282   1.805   2.091  14.700  0.5013 -1.0019  1.5282
 3941SOL    HW223283   1.708   2.119  14.809 -1.8752  0.3949 -2.0699
 3942SOL     OW23284   3.705   4.537  15.998  0.0049 -0.1952  0.3221
 3942SOL    HW123285   3.648   4.578  16.063 -0.1179 -1.6987  1.1705
 3942SOL    HW223286   3.650   4.548  15.921  0.0659  1.5551  0.5335
 3943SOL     OW23287   4.230   1.261   2.829  0.3028  0.0811  0.6056
 3943SOL    HW123288   4.278   1.179   2.815  0.3776  0.2581 -0.1671
 3943SOL    HW223289   4.157   1.220   2.875 -0.8772  0.0064 -1.3573
 3944SOL     OW23290   0.478   1.809   4.642  0.1286 -0.1979  0.0210
 3944SOL    HW123291   0.470   1.820   4.548  0.3820 -0.2225 -0.0049
 3944SOL    HW223292   0.496   1.716   4.659  0.8749 -0.1643 -0.6011
 3945SOL     OW23293   1.979   2.107   1.046  0.4635  0.3005 -0.1138
 3945SOL    HW123294   2.058   2.054   1.034  0.3750  0.4804 -1.5277
 3945SOL    HW223295   1.905   2.047   1.043  0.0474  0.9444 -3.0063
 3946SOL     OW23296   2.557   2.642  11.466 -0.4623  0.2010 -0.4484
 3946SOL    HW123297   2.536   2.593  11.545  1.0696  1.6209  0.8446
 3946SOL    HW223298   2.648   2.663  11.488  0.2462 -2.8008 -0.5378
 3947SOL     OW23299   4.524   0.470   4.043 -0.2649 -0.2486 -0.7042
 3947SOL    HW123300   4.486   0.384   4.031  0.6082 -0.9966  2.0061
 3947SOL    HW223301   4.598   0.466   3.982  0.6504 -0.7324  0.4365
 3948SOL     OW23302   3.362   4.691   8.644  0.5301  0.4988  0.4697
 3948SOL    HW123303   3.282   4.639   8.650 -0.0268  1.1915 -0.8582
 3948SOL    HW223304   3.371   4.720   8.553 -0.1235 -1.1298 -0.1003
 3949SOL     OW23305   2.855   2.315   0.626  0.0244 -0.0635  0.1377
 3949SOL    HW123306   2.893   2.400   0.649 -1.5401  0.2486  1.6027
 3949SOL    HW223307   2.860   2.316   0.530 -0.5951 -3.8395  0.0624
 3950SOL     OW23308   1.506   1.196   7.591 -0.0448  0.0093  0.4771
 3950SOL    HW123309   1.455   1.204   7.672 -2.1433 -2.0060 -0.6357
 3950SOL    HW223310   1.589   1.217   7.632  1.3800 -1.2920 -1.7577
 3951SOL     OW23311   2.213   2.995  10.932  0.4658  0.1220 -0.2548
 3951SOL    HW123312   2.249   2.932  10.994  1.1193  1.2046  0.4786
 3951SOL    HW223313   2.273   3.070  10.927 -0.6472  1.0569  0.4347
 3952SOL     OW23314   1.662   3.831   3.219 -0.4831 -0.4376  0.1845
 3952SOL    HW123315   1.696   3.823   3.308 -1.7060 -5.2178  0.2514
 3952SOL    HW223316   1.668   3.926   3.212  0.4206 -0.6057 -1.3187
 3953SOL     OW23317   4.368   2.818   7.436 -0.0166  0.9184  0.3055
 3953SOL    HW123318   4.349   2.735   7.479 -0.1563  0.5086 -0.5410
 3953SOL    HW223319   4.428   2.862   7.496 -1.3462  0.6253  1.8186
 3954SOL     OW23320   4.068   1.281  15.069  0.3845 -0.2950  0.1339
 3954SOL    HW123321   4.086   1.188  15.056 -1.0590 -0.7727  1.4535
 3954SOL    HW223322   4.085   1.325  14.986 -0.6822  0.7314  0.4640
 3955SOL     OW23323   3.844   2.485   3.262 -0.7235  0.0865  0.2360
 3955SOL    HW123324   3.925   2.437   3.280  0.1628  1.9323  1.0865
 3955SOL    HW223325   3.875   2.550   3.200  1.3737 -0.5966  0.5523
 3956SOL     OW23326   0.515   1.125   2.902 -0.3935  0.1384  0.2873
 3956SOL    HW123327   0.459   1.192   2.861 -1.5855 -0.8117  0.3673
 3956SOL    HW223328   0.510   1.054   2.838 -1.5628 -0.8785  1.5094
 3957SOL     OW23329   3.479   4.702  11.634 -0.1238  0.3175  0.1342
 3957SOL    HW123330   3.453   4.711  11.542 -0.9351  1.5124  0.4899
 3957SOL    HW223331   3.528   4.620  11.632  2.7206  1.9870 -0.2092
 3958SOL     OW23332   0.518   1.743   8.897 -0.2888  0.3638 -0.7257
 3958SOL    HW123333   0.589   1.680   8.906 -1.5140 -0.9557 -0.3299
 3958SOL    HW223334   0.469   1.748   8.979  1.2182 -2.1668  0.3099
 3959SOL     OW23335   1.997   4.202   6.437  0.3799  0.4594  0.3119
 3959SOL    HW123336   1.951   4.241   6.363 -1.1464 -1.1852  0.3731
 3959SOL    HW223337   2.054   4.138   6.394 -0.0776 -1.2022  2.1399
 3960SOL     OW23338   1.991   3.483  14.659 -0.4255 -0.1368  0.1948
 3960SOL    HW123339   2.085   3.479  14.643 -0.8339 -0.5352 -2.1053
 3960SOL    HW223340   1.975   3.564  14.706  0.8609  0.8109 -0.9854
 3961SOL     OW23341   3.782   0.571  11.395  0.4115  0.4460 -0.2179
 3961SOL    HW123342   3.831   0.548  11.474 -0.4815 -0.4345  0.0806
 3961SOL    HW223343   3.820   0.659  11.387 -0.0382  0.6448 -0.1758
 3962SOL     OW23344   1.842   2.888   7.894 -0.3899  0.0045 -0.4747
 3962SOL    HW123345   1.910   2.836   7.935 -1.1991 -0.2000  0.6203
 3962SOL    HW223346   1.789   2.902   7.973  0.5244  1.2452 -0.0745
 3963SOL     OW23347   2.284   2.975   4.091  0.5133  0.5371  0.2996
 3963SOL    HW123348   2.293   2.991   3.998  1.3596  2.9963  0.8045
 3963SOL    HW223349   2.261   2.883   4.078  1.6780  0.3225 -0.2079
 3964SOL     OW23350   3.218   4.246   8.697  0.3050 -0.1964 -0.0525
 3964SOL    HW123351   3.273   4.243   8.776  0.2296 -2.0292 -0.0632
 3964SOL    HW223352   3.163   4.169   8.709  0.1959  0.0492  0.9903
 3965SOL     OW23353   1.490   1.468   1.973  0.3150 -0.6035 -0.2768
 3965SOL    HW123354   1.446   1.470   1.888  0.3813  0.9801 -0.2848
 3965SOL    HW223355   1.529   1.382   1.962  0.9341 -0.2939 -0.4767
 3966SOL     OW23356   2.663   0.031   7.861  0.1383 -0.5133  0.0003
 3966SOL    HW123357   2.752   0.022   7.895  0.8457 -2.4246 -2.2790
 3966SOL    HW223358   2.648   4.658   7.848  0.9608 -0.7023  0.4207
 3967SOL     OW23359   1.510   0.431  13.300 -0.2182  0.0758  0.1812
 3967SOL    HW123360   1.418   0.404  13.304 -0.2979  0.4023  0.5527
 3967SOL    HW223361   1.503   0.526  13.286 -0.2449  0.2579  1.4561
 3968SOL     OW23362   4.249   3.187   3.088  0.2125 -0.3944  0.4128
 3968SOL    HW123363   4.271   3.273   3.053  0.7387  0.6095  3.1831
 3968SOL    HW223364   4.232   3.135   3.010  1.6172 -0.7149  0.3212
 3969SOL     OW23365   0.520   1.005   5.543  0.7342 -0.5334 -0.2498
 3969SOL    HW123366   0.539   1.098   5.527  0.5934 -0.2728  1.0656
 3969SOL    HW223367   0.551   0.996   5.633  1.2250 -0.0580 -0.3700
 3970SOL     OW23368   1.574   2.293   1.711  0.0517  0.8113 -0.1999
 3970SOL    HW123369   1.610   2.334   1.789  0.8317  0.1357 -0.2078
 3970SOL    HW223370   1.628   2.214   1.707 -2.6933 -1.0222 -1.3063
 3971SOL     OW23371   2.655   3.412  12.379 -0.0397 -0.3524 -0.1422
 3971SOL    HW123372   2.707   3.341  12.418  0.1937  0.3748  0.8667
 3971SOL    HW223373   2.632   3.472  12.449  1.6096  0.2835 -0.1600
 3972SOL     OW23374   3.442   4.089   2.783 -0.5182  0.0376 -0.1172
 3972SOL    HW123375   3.474   4.177   2.806 -2.3128  0.8056 -0.5928
 3972SOL    HW223376   3.468   4.082   2.692 -0.6353  0.9373 -0.2269
 3973SOL     OW23377   1.456   0.342   8.977 -0.5154  0.2384  0.1022
 3973SOL    HW123378   1.541   0.323   9.016  0.1615  0.3468 -1.3365
 3973SOL    HW223379   1.473   0.421   8.926  0.6491 -0.5644 -0.7570
 3974SOL     OW23380   2.579   0.931   8.321 -0.5393  0.1114 -0.3099
 3974SOL    HW123381   2.488   0.948   8.346 -0.2251 -1.0484  1.5805
 3974SOL    HW223382   2.562   0.903   8.231 -2.0279  0.4595 -0.1399
 3975SOL     OW23383   0.470   3.855   3.498  0.7927  0.5199  0.1278
 3975SOL    HW123384   0.525   3.933   3.503  0.9872  0.3974 -0.0561
 3975SOL    HW223385   0.411   3.864   3.572 -0.8231  1.4660 -1.2662
 3976SOL     OW23386   0.822   2.965   3.731 -0.1964 -0.7196 -1.0289
 3976SOL    HW123387   0.860   2.878   3.731  1.0268 -0.2197  2.7051
 3976SOL    HW223388   0.895   3.025   3.749 -0.7863 -0.3083  0.0160
 3977SOL     OW23389   4.437   1.055   7.527 -0.3822  0.3713  0.1743
 3977SOL    HW123390   4.414   1.047   7.620 -0.3768 -0.4867  0.1059
 3977SOL    HW223391   4.350   1.063   7.489  0.5901 -0.2325 -2.2029
 3978SOL     OW23392   1.866   0.830   6.876 -0.4511  0.4482  0.0538
 3978SOL    HW123393   1.878   0.782   6.794 -1.5177  0.3805 -0.0679
 3978SOL    HW223394   1.954   0.865   6.885 -0.4283  0.5804 -0.6871
 3979SOL     OW23395   2.953   1.795   2.924  0.1426  0.2094 -0.3535
 3979SOL    HW123396   2.867   1.824   2.954 -0.6531  1.4719 -3.7827
 3979SOL    HW223397   2.940   1.829   2.835  1.8347  1.3469 -0.1516
 3980SOL     OW23398   3.713   0.014  15.243  0.4046  0.2095 -0.4141
 3980SOL    HW123399   3.758   0.086  15.286 -2.2250  1.8728 -0.4637
 3980SOL    HW223400   3.655   4.699  15.311 -0.4392  2.8656  0.2505
 3981SOL     OW23401   2.521   0.070   2.438  0.0522  0.2283 -0.2366
 3981SOL    HW123402   2.430   0.051   2.461  0.8416 -2.1416  0.9847
 3981SOL    HW223403   2.514   0.159   2.404  0.3568  0.2171 -0.3244
 3982SOL     OW23404   4.608   2.279   3.112  0.2305 -0.8610 -0.2175
 3982SOL    HW123405   4.669   2.280   3.039 -0.0250  1.5460 -0.4189
 3982SOL    HW223406   4.656   2.333   3.175 -1.2422 -0.7151  0.7943
 3983SOL     OW23407   2.672   0.772   4.024  0.5224  0.3449 -0.0347
 3983SOL    HW123408   2.675   0.704   4.092 -0.1086  0.5166  0.1571
 3983SOL    HW223409   2.655   0.850   4.077  2.7914  1.0026 -0.2551
 3984SOL     OW23410   1.434   3.363   5.102 -1.2476 -0.2788  0.5812
 3984SOL    HW123411   1.371   3.352   5.173  0.0363 -1.4300  1.5346
 3984SOL    HW223412   1.450   3.457   5.102  1.5032 -0.7391  1.0172
 3985SOL     OW23413   3.314   3.992  14.829  0.5837  0.2769 -0.2652
 3985SOL    HW123414   3.265   3.997  14.748 -1.1373  1.3839  0.8385
 3985SOL    HW223415   3.353   3.905  14.816  1.1064  0.6012 -0.8284
 3986SOL     OW23416   1.550   0.581  15.836  0.4928 -0.0598 -0.2578
 3986SOL    HW123417   1.641   0.585  15.809  0.2379 -0.3597 -1.1703
 3986SOL    HW223418   1.543   0.660  15.891  0.8408  0.4793 -0.9864
 3987SOL     OW23419   4.200   4.650   1.798  0.0773  0.6020 -0.7184
 3987SOL    HW123420   4.270   4.590   1.824 -0.3718  1.2052  1.8161
 3987SOL    HW223421   4.181   4.629   1.706  0.5475 -0.0966 -0.6516
 3988SOL     OW23422   0.243   1.256  13.687 -0.0725 -0.1620  0.4738
 3988SOL    HW123423   0.266   1.166  13.664 -2.4197 -0.9654  1.2842
 3988SOL    HW223424   0.171   1.236  13.747  1.1437  0.2438  2.0498
 3989SOL     OW23425   0.920   2.603   6.171  0.0941  0.0009 -0.1541
 3989SOL    HW123426   0.836   2.647   6.166  0.9141  1.5684 -0.2901
 3989SOL    HW223427   0.904   2.550   6.094  1.7464  0.4049 -0.7889
 3990SOL     OW23428   3.862   0.895   5.158  0.2134 -0.3066  0.0132
 3990SOL    HW123429   3.873   0.861   5.247  3.6291 -2.4417 -1.2223
 3990SOL    HW223430   3.903   0.832   5.100  1.2717  0.4527 -0.0617
 3991SOL     OW23431   4.681   0.458   8.111 -0.4399 -0.0346 -0.2745
 3991SOL    HW123432   4.710   0.530   8.168 -0.1818  0.4408 -1.0117
 3991SOL    HW223433   0.043   0.450   8.064 -1.1794 -1.5232 -1.2984
 3992SOL     OW23434   1.292   3.224   5.517  0.3185 -0.8882 -0.0869
 3992SOL    HW123435   1.312   3.220   5.423 -0.1564  0.8344 -0.2722
 3992SOL    HW223436   1.263   3.315   5.525  0.3073 -0.7640 -1.5147
 3993SOL     OW23437   0.495   2.998  12.215 -0.0429  0.1142 -0.6321
 3993SOL    HW123438   0.531   2.959  12.135  0.4362 -1.6551  0.4707
 3993SOL    HW223439   0.418   2.944  12.228 -0.0073  0.2223 -0.0042
 3994SOL     OW23440   1.296   0.006   6.912 -0.7447  0.6846 -0.0301
 3994SOL    HW123441   1.273   4.662   6.846  1.3313 -0.3383  0.2379
 3994SOL    HW223442   1.268   0.087   6.871 -2.5304 -0.1310 -0.4008
 3995SOL     OW23443   1.243   4.683   0.313  0.6590  0.7302  0.2774
 3995SOL    HW123444   1.296   4.683   0.393 -0.8834  1.0643  1.2979
 3995SOL    HW223445   1.300   4.704   0.240  0.1897 -0.9559 -0.5893
 3996SOL     OW23446   1.833   2.049  15.230 -0.1219 -0.0579  0.0757
 3996SOL    HW123447   1.870   2.107  15.297 -1.0247 -2.1709  2.4157
 3996SOL    HW223448   1.740   2.063  15.248 -0.3767 -3.0518  1.1660
 3997SOL     OW23449   1.411   0.565   5.952 -0.0836  0.5675 -0.3155
 3997SOL    HW123450   1.348   0.552   6.023 -0.9553  0.6558 -1.0742
 3997SOL    HW223451   1.444   0.651   5.976  1.3525 -0.0460 -0.0619
 3998SOL     OW23452   0.764   0.873  15.946  0.2792  0.8530  0.9916
 3998SOL    HW123453   0.838   0.833  15.900 -0.1459  2.5105 -1.1104
 3998SOL    HW223454   0.814   0.949  15.978  0.3766  0.6172  1.4110
 3999SOL     OW23455   3.001   3.745   3.862 -0.1206 -0.7687  0.3159
 3999SOL    HW123456   2.992   3.750   3.767 -1.2720  1.0865  0.5114
 3999SOL    HW223457   3.001   3.650   3.868 -0.5310 -0.7844  0.0857
 4000SOL     OW23458   3.434   1.786   9.016 -0.3845 -0.1674 -0.4565
 4000SOL    HW123459   3.476   1.808   8.933 -0.3135  0.7763 -0.1719
 4000SOL    HW223460   3.459   1.694   9.028 -1.1310 -0.2043  0.8590
 4001SOL     OW23461   0.734   1.400  10.374 -0.8413 -0.0386 -0.2253
 4001SOL    HW123462   0.700   1.483  10.340 -0.2986  0.5837  0.7628
 4001SOL    HW223463   0.714   1.405  10.468  0.5624 -0.9518  0.1218
 4002SOL     OW23464   4.452   3.148  11.980 -0.5908  0.6827  0.1631
 4002SOL    HW123465   4.479   3.071  11.931  1.3915 -0.1961  2.6381
 4002SOL    HW223466   4.455   3.217  11.913  1.1168  0.6346  0.1965
 4003SOL     OW23467   3.007   1.705   8.285  0.0633  0.3441 -0.1606
 4003SOL    HW123468   3.016   1.654   8.365  0.4959  0.4810 -0.1186
 4003SOL    HW223469   2.948   1.655   8.230 -1.0546  2.4147 -0.8515
 4004SOL     OW23470   1.309   3.295   6.759  0.1220 -0.3164 -0.7022
 4004SOL    HW123471   1.257   3.286   6.839  1.1163  1.3733  0.1144
 4004SOL    HW223472   1.266   3.221   6.716 -2.4044  1.5781 -1.4922
 4005SOL     OW23473   0.981   4.399  16.082 -0.2140  0.1831  0.0653
 4005SOL    HW123474   0.945   4.448  16.156  0.3685 -2.2852  1.9555
 4005SOL    HW223475   0.914   4.337  16.055  0.2437 -0.7965  1.2041
 4006SOL     OW23476   1.977   1.457   7.929  0.0538  0.3691  0.5344
 4006SOL    HW123477   1.961   1.397   7.856  1.9679 -0.1478  0.5345
 4006SOL    HW223478   2.054   1.418   7.970  0.3317  1.1032  0.7190
 4007SOL     OW23479   2.198   4.383   2.766 -0.5815 -0.3213  0.2908
 4007SOL    HW123480   2.227   4.340   2.685 -2.0397  0.5111 -0.6671
 4007SOL    HW223481   2.274   4.436   2.791 -1.1387  0.5406  0.1184
 4008SOL     OW23482   1.948   3.871   5.492 -0.1040 -0.5196  0.6210
 4008SOL    HW123483   1.914   3.866   5.582 -0.7423 -0.3496  0.3853
 4008SOL    HW223484   2.019   3.807   5.502  0.0158 -0.4521  0.2082
 4009SOL     OW23485   1.935   3.813   5.007  0.1474 -0.0344 -0.3014
 4009SOL    HW123486   1.861   3.872   5.017  0.9088  1.0060 -0.8054
 4009SOL    HW223487   1.991   3.840   5.080 -0.5874  2.7317 -0.7700
 4010SOL     OW23488   1.758   1.091   8.378  0.1268 -0.5503  0.3403
 4010SOL    HW123489   1.789   1.128   8.461 -0.1465  0.1557  0.1318
 4010SOL    HW223490   1.830   1.107   8.318 -0.2091  0.7177  0.2708
 4011SOL     OW23491   2.320   0.720   7.966  0.5377  0.2147 -0.1227
 4011SOL    HW123492   2.390   0.765   8.013 -0.5377  0.3599  1.3597
 4011SOL    HW223493   2.290   0.658   8.033  2.1693 -0.6689 -0.2099
 4012SOL     OW23494   1.272   3.882   5.460  0.1717  0.1415  0.0434
 4012SOL    HW123495   1.330   3.837   5.521 -0.9232 -0.5340  0.5736
 4012SOL    HW223496   1.207   3.913   5.523  0.2996 -0.0387  0.2618
 4013SOL     OW23497   1.552   1.646   7.546 -0.4388  0.1243  0.3008
 4013SOL    HW123498   1.567   1.729   7.500  1.7031 -0.7213 -0.5330
 4013SOL    HW223499   1.471   1.658   7.595 -1.8067  0.6871 -2.0687
 4014SOL     OW23500   3.684   3.684   8.966  0.3715 -0.0729 -0.1381
 4014SOL    HW123501   3.599   3.710   9.001  0.2485 -0.2451 -0.3091
 4014SOL    HW223502   3.691   3.589   8.978  2.1658  0.0649 -0.1749
 4015SOL     OW23503   4.646   0.017   6.593  0.1429 -0.2185  0.1095
 4015SOL    HW123504   4.663   0.057   6.678 -0.3297 -2.2254  1.1414
 4015SOL    HW223505   0.004   4.688   6.572 -1.0224 -1.2901 -1.7029
 4016SOL     OW23506   3.930   2.479   2.288 -0.0701  0.0854  0.5227
 4016SOL    HW123507   3.916   2.570   2.315  2.1093  0.6429 -0.1585
 4016SOL    HW223508   3.985   2.502   2.213 -1.1839 -0.2564 -0.3904
 4017SOL     OW23509   3.245   1.116  13.985  0.1452 -0.0425 -0.5718
 4017SOL    HW123510   3.170   1.170  13.960 -0.1116  0.1161  0.5426
 4017SOL    HW223511   3.302   1.120  13.908  1.2517  1.7673  0.3424
 4018SOL     OW23512   0.321   1.829  17.536  0.3578  0.3851  0.2033
 4018SOL    HW123513   0.367   1.845  17.619  4.5236 -0.8944 -1.8478
 4018SOL    HW223514   0.331   1.734  17.532  1.4782  0.4712  0.8998
 4019SOL     OW23515   0.281   2.963  15.476 -0.3733  0.3081  0.3228
 4019SOL    HW123516   0.325   3.043  15.449 -1.2803  1.2214  1.5142
 4019SOL    HW223517   0.265   2.981  15.569 -2.5168  0.2315 -0.0350
 4020SOL     OW23518   1.749   2.990  12.984  0.2943  0.2467  0.1163
 4020SOL    HW123519   1.717   3.008  13.072  2.4697  0.6961  0.8060
 4020SOL    HW223520   1.691   3.045  12.930  0.2531  1.8288  1.7614
 4021SOL     OW23521   2.703   1.582  16.323  0.1666 -0.0704  0.0537
 4021SOL    HW123522   2.742   1.568  16.410  2.5163 -0.2565 -1.0145
 4021SOL    HW223523   2.610   1.571  16.340  0.5415 -1.7288  1.0337
 4022SOL     OW23524   2.234   3.779   2.924 -0.7551  0.1416 -0.3461
 4022SOL    HW123525   2.188   3.800   2.843  1.5326 -0.4296 -1.7827
 4022SOL    HW223526   2.188   3.696   2.940 -1.4657  0.7393  0.7805
 4023SOL     OW23527   0.005   4.061  17.043  0.5091  0.8566 -0.9862
 4023SOL    HW123528   4.634   4.044  17.023  0.2168  1.8027 -0.4647
 4023SOL    HW223529   0.054   4.014  16.976  1.2524  1.1797 -0.6729
 4024SOL     OW23530   2.276   0.749   6.244  0.6268 -0.0564  0.3462
 4024SOL    HW123531   2.187   0.745   6.210  1.1175 -0.0091 -0.9412
 4024SOL    HW223532   2.291   0.693   6.320 -2.5473  0.2838  1.2032
 4025SOL     OW23533   0.999   0.229  13.308 -0.1872 -0.5009  1.0047
 4025SOL    HW123534   0.939   0.176  13.360  0.7916  0.5758  3.2436
 4025SOL    HW223535   0.940   0.241  13.234 -0.1218  0.2250  1.0650
 4026SOL     OW23536   3.715   1.568   2.977  0.0604 -0.1427  0.2808
 4026SOL    HW123537   3.692   1.616   3.057 -0.1652  1.9130 -1.0222
 4026SOL    HW223538   3.781   1.631   2.947 -0.6357  0.1422 -0.6469
 4027SOL     OW23539   1.500   3.950   5.327  0.7275 -0.0521 -0.3751
 4027SOL    HW123540   1.503   3.922   5.235  1.0912  2.5711 -1.1591
 4027SOL    HW223541   1.408   3.953   5.352  0.4025 -3.3913 -1.2051
 4028SOL     OW23542   0.856   4.361  10.543 -0.5763 -0.0390 -0.0154
 4028SOL    HW123543   0.812   4.365  10.458 -0.0985 -0.5873 -0.2937
 4028SOL    HW223544   0.860   4.452  10.571 -1.6799 -0.1824  0.6072
 4029SOL     OW23545   0.318   2.669   3.105  0.0818 -0.4912  0.4179
 4029SOL    HW123546   0.389   2.608   3.124  1.4731  0.9677 -0.1205
 4029SOL    HW223547   0.299   2.635   3.018  1.2191  0.5461 -0.2228
 4030SOL     OW23548   0.396   0.933   4.886 -0.0058 -0.2704 -0.6757
 4030SOL    HW123549   0.406   0.954   4.979  0.0520  1.3351 -1.0445
 4030SOL    HW223550   0.309   0.893   4.894 -1.1421  1.8133 -2.5623
 4031SOL     OW23551   2.993   2.119   2.536  0.4265 -0.1191 -0.1942
 4031SOL    HW123552   2.981   2.029   2.565 -0.9624  0.1744  0.1378
 4031SOL    HW223553   3.083   2.119   2.504 -0.4338  0.4367 -2.5566
 4032SOL     OW23554   0.061   4.474   5.894  0.7133  0.3407 -0.1413
 4032SOL    HW123555   0.094   4.533   5.826  2.3775  0.1279  0.4969
 4032SOL    HW223556   0.045   4.391   5.849  0.6896  0.7807 -0.9450
 4033SOL     OW23557   0.992   1.340  16.740  0.3246 -0.6318 -0.3986
 4033SOL    HW123558   0.977   1.431  16.713 -3.1023 -0.8110  0.8799
 4033SOL    HW223559   0.928   1.293  16.686 -0.3699 -0.4566  0.2556
 4034SOL     OW23560   1.678   2.036   1.699 -0.2253  0.0201 -0.1078
 4034SOL    HW123561   1.621   1.960   1.683 -2.4919  1.5835  0.4979
 4034SOL    HW223562   1.755   1.985   1.723 -1.1187 -0.6675  1.3184
 4035SOL     OW23563   2.774   3.723   9.346  0.1204 -0.0954  0.0529
 4035SOL    HW123564   2.813   3.658   9.287  1.3521  0.3744  0.3567
 4035SOL    HW223565   2.682   3.710   9.322  0.1778  0.2580 -0.3573
 4036SOL     OW23566   1.789   1.340   0.554  0.1500 -0.5639 -0.2506
 4036SOL    HW123567   1.730   1.373   0.486  0.6872 -0.9941 -0.9252
 4036SOL    HW223568   1.857   1.402   0.576  0.6294 -0.6659 -1.4559
 4037SOL     OW23569   2.601   1.514  14.424  0.4427  0.0695  0.6928
 4037SOL    HW123570   2.546   1.469  14.361  0.5034  0.1566  0.5764
 4037SOL    HW223571   2.648   1.584  14.378 -0.8920  0.1892 -0.4839
 4038SOL     OW23572   0.792   4.380   8.805 -0.5220 -0.2487  0.3504
 4038SOL    HW123573   0.825   4.291   8.816 -1.1819 -0.4950  0.3228
 4038SOL    HW223574   0.871   4.432   8.788 -0.2985 -0.8065 -0.3562
 4039SOL     OW23575   2.538   0.289  12.781  0.6910 -0.3199  0.4359
 4039SOL    HW123576   2.559   0.333  12.863 -1.3073  1.6291 -0.0876
 4039SOL    HW223577   2.618   0.243  12.758  0.2037 -0.6464 -0.6158
 4040SOL     OW23578   3.636   1.984   7.606  0.5492 -0.1629 -0.5188
 4040SOL    HW123579   3.692   2.061   7.616 -2.3587  1.9655 -0.7025
 4040SOL    HW223580   3.664   1.929   7.680  1.1059 -0.8480 -1.2364
 4041SOL     OW23581   0.931   1.702   0.643 -0.0528  0.1127  0.5640
 4041SOL    HW123582   0.964   1.620   0.607  1.3955  1.4234 -1.1286
 4041SOL    HW223583   1.009   1.757   0.634  0.5396 -0.9850 -1.0996
 4042SOL     OW23584   3.875   1.180  15.266 -0.4567  0.6736 -0.3778
 4042SOL    HW123585   3.917   1.094  15.265 -0.7396  0.5315 -0.1583
 4042SOL    HW223586   3.946   1.224  15.220 -0.4798  1.2438  0.1260
 4043SOL     OW23587   2.025   3.595   4.348  0.3524 -0.1607 -0.5153
 4043SOL    HW123588   1.945   3.630   4.387  1.9992  1.1105  1.6419
 4043SOL    HW223589   2.082   3.566   4.419 -0.4672  1.8556  0.9729
 4044SOL     OW23590   3.799   3.580  10.940 -0.5237 -0.2335 -0.1555
 4044SOL    HW123591   3.779   3.500  10.892 -0.9780 -0.6748  0.7697
 4044SOL    HW223592   3.823   3.547  11.027 -1.3952  1.6116  0.7928
 4045SOL     OW23593   1.349   2.490   0.660 -0.0255  0.1119  0.0758
 4045SOL    HW123594   1.359   2.531   0.574  1.9583 -1.4877 -0.4604
 4045SOL    HW223595   1.407   2.545   0.713 -0.0107  0.7670 -0.6144
 4046SOL     OW23596   2.011   1.731   8.028  0.0636 -0.2412 -0.3234
 4046SOL    HW123597   2.074   1.779   7.974  2.0367 -0.6806  1.5859
 4046SOL    HW223598   1.996   1.651   7.978  1.1274 -1.3561  1.1559
 4047SOL     OW23599   0.316   2.831   4.121 -0.2098 -0.4261 -0.4466
 4047SOL    HW123600   0.381   2.901   4.127  0.7662 -1.2598 -1.2262
 4047SOL    HW223601   0.330   2.797   4.032 -3.2418  0.1680 -1.1402
 4048SOL     OW23602   1.560   1.278   9.935  0.8724 -1.2998  0.3610
 4048SOL    HW123603   1.499   1.235   9.875 -0.0544 -1.0969  1.1366
 4048SOL    HW223604   1.592   1.352   9.883 -2.5098 -0.4923 -0.5896
 4049SOL     OW23605   1.383   2.144   7.051 -0.0139  0.1560 -0.4774
 4049SOL    HW123606   1.460   2.149   6.996  0.0555 -0.7692 -0.4723
 4049SOL    HW223607   1.377   2.049   7.067 -2.2796  0.3707 -0.1007
 4050SOL     OW23608   3.753   3.124   1.408  0.3290  0.0401 -0.0646
 4050SOL    HW123609   3.666   3.163   1.422 -0.0099  0.1918 -2.5605
 4050SOL    HW223610   3.740   3.074   1.327 -1.8791 -1.0327  0.9447
 4051SOL     OW23611   3.074   2.538   4.488 -0.1679  0.1587 -0.0244
 4051SOL    HW123612   3.039   2.618   4.526  0.3846 -0.1149  1.0692
 4051SOL    HW223613   3.160   2.537   4.531  0.6061  1.0870 -1.5564
 4052SOL     OW23614   4.268   3.629  15.745  1.1742 -0.5961  0.1940
 4052SOL    HW123615   4.360   3.611  15.762  0.7971 -1.9604  0.7759
 4052SOL    HW223616   4.260   3.620  15.650  1.8499 -0.0492  0.0837
 4053SOL     OW23617   2.138   4.134  12.913 -0.6005 -1.1041 -0.1840
 4053SOL    HW123618   2.155   4.202  12.847 -1.9303  0.9990  1.6260
 4053SOL    HW223619   2.225   4.096  12.921  0.2795  1.4915  2.3339
 4054SOL     OW23620   0.406   2.830   7.599 -0.1848  0.2346  0.6410
 4054SOL    HW123621   0.346   2.801   7.531 -0.7481 -1.5743  1.9109
 4054SOL    HW223622   0.352   2.885   7.656 -2.5454 -0.3241 -1.0971
 4055SOL     OW23623   0.948   1.944   6.014  0.3372 -0.1124 -0.1471
 4055SOL    HW123624   0.923   1.969   6.103 -0.4454 -3.1849  0.5012
 4055SOL    HW223625   0.880   1.989   5.963 -0.7089 -0.1668  1.2008
 4056SOL     OW23626   0.405   0.873  12.358  0.4172  0.9595  0.0655
 4056SOL    HW123627   0.456   0.796  12.332 -0.5684 -0.1592  1.4258
 4056SOL    HW223628   0.324   0.826  12.376  0.2194  0.9742 -0.8017
 4057SOL     OW23629   2.409   3.244  10.172 -0.0864 -0.2533  0.5622
 4057SOL    HW123630   2.406   3.149  10.161 -2.0824 -0.2413  1.0727
 4057SOL    HW223631   2.316   3.264  10.172  0.2213  1.1702 -0.2339
 4058SOL     OW23632   3.246   0.975  10.049  0.2720 -0.0244 -0.4331
 4058SOL    HW123633   3.243   0.979   9.953  0.7882 -0.0204 -0.4485
 4058SOL    HW223634   3.175   1.038  10.066 -0.0338 -0.0046 -1.8009
 4059SOL     OW23635   0.615   1.168   4.933 -0.2112 -0.2687  0.1157
 4059SOL    HW123636   0.675   1.098   4.908 -1.1251 -0.2975 -1.9958
 4059SOL    HW223637   0.555   1.119   4.990  0.1557  2.0350  2.4690
 4060SOL     OW23638   1.043   3.121   3.793  0.0941  0.3357  0.0910
 4060SOL    HW123639   1.101   3.114   3.868 -0.3876 -0.9696  0.3354
 4060SOL    HW223640   1.113   3.112   3.728  1.6458  0.3540  1.7626
 4061SOL     OW23641   1.283   0.447   3.710  0.2998  0.2311  0.1820
 4061SOL    HW123642   1.336   0.442   3.789 -0.0052  0.4756  0.4023
 4061SOL    HW223643   1.191   0.460   3.733  0.0725  1.0811 -1.1742
 4062SOL     OW23644   1.194   1.147   3.312 -0.2990 -0.4227  0.1356
 4062SOL    HW123645   1.172   1.058   3.283  0.9673 -0.7404  0.1384
 4062SOL    HW223646   1.170   1.204   3.239  0.1865  1.5489  1.5316
 4063SOL     OW23647   1.544   2.515   4.201 -0.1960 -0.1695 -0.4303
 4063SOL    HW123648   1.527   2.566   4.122 -0.7439  0.5059  0.1247
 4063SOL    HW223649   1.455   2.485   4.215 -0.3854  0.7322  0.2655
 4064SOL     OW23650   3.087   0.877   4.386  0.0895 -0.3168 -0.2625
 4064SOL    HW123651   3.164   0.922   4.422 -0.7387  1.8235 -1.1486
 4064SOL    HW223652   3.032   0.954   4.373 -0.0512 -0.8811 -3.0360
 4065SOL     OW23653   2.982   2.770   4.567  0.0491  0.2398  0.1471
 4065SOL    HW123654   3.072   2.801   4.574  0.4104 -0.9393  0.7494
 4065SOL    HW223655   2.946   2.821   4.639 -1.6900  1.1708 -1.3775
 4066SOL     OW23656   1.941   4.438  11.139  0.2868  0.4910 -0.0347
 4066SOL    HW123657   2.018   4.383  11.151 -0.3730 -0.1947  1.1323
 4066SOL    HW223658   1.886   4.402  11.208 -2.5531  2.6392 -1.1542
 4067SOL     OW23659   3.165   1.377   4.538  0.1613  0.2552  0.2620
 4067SOL    HW123660   3.212   1.383   4.621  5.4619  0.3462 -2.7234
 4067SOL    HW223661   3.234   1.358   4.474  1.1429  1.6700  0.9059
 4068SOL     OW23662   1.630   3.909  13.107 -0.0618 -0.0043 -0.6335
 4068SOL    HW123663   1.706   3.912  13.166 -1.4922 -1.0243  1.2401
 4068SOL    HW223664   1.598   3.999  13.102  1.3379  0.6954  3.0235
 4069SOL     OW23665   2.159   3.807  16.052 -0.1093 -0.3997  0.5679
 4069SOL    HW123666   2.074   3.807  16.097 -2.1303 -1.6984 -3.2376
 4069SOL    HW223667   2.174   3.900  16.036 -0.3690 -0.3552  0.5829
 4070SOL     OW23668   0.906   0.440   4.453  0.3307 -0.0843  0.3060
 4070SOL    HW123669   1.001   0.447   4.454  0.2268  1.3959 -0.0047
 4070SOL    HW223670   0.887   0.519   4.403  0.1301  0.4004  1.1375
 4071SOL     OW23671   2.441   3.716  10.675 -0.2860 -0.1104 -0.2539
 4071SOL    HW123672   2.495   3.637  10.674 -1.8198 -1.1336 -2.9914
 4071SOL    HW223673   2.354   3.686  10.701  0.3742 -0.0770  1.9237
 4072SOL     OW23674   0.009   0.555  13.929  0.3512  0.1683  0.2433
 4072SOL    HW123675   4.708   0.601  13.848 -0.5386  1.4489  1.2026
 4072SOL    HW223676   0.018   0.469  13.887 -2.1075  0.2025 -0.3536
 4073SOL     OW23677   4.189   1.370  11.354  0.0128 -0.2054  0.0632
 4073SOL    HW123678   4.158   1.280  11.345 -0.3355 -0.2622  1.9155
 4073SOL    HW223679   4.153   1.412  11.275  1.7667  0.8526 -0.1772
 4074SOL     OW23680   3.642   4.431   2.662 -0.7208  0.2915 -0.0329
 4074SOL    HW123681   3.690   4.513   2.673  1.1265 -0.7822 -0.2053
 4074SOL    HW223682   3.582   4.448   2.589 -0.2180  1.9307 -0.0810
 4075SOL     OW23683   0.763   1.078   6.592 -0.2310  0.2429  0.1550
 4075SOL    HW123684   0.835   1.015   6.588 -0.6191 -0.2301  0.7318
 4075SOL    HW223685   0.696   1.043   6.533  0.7984  0.1143 -0.9278
 4076SOL     OW23686   0.804   2.605   8.088  0.3789 -0.4959  0.2491
 4076SOL    HW123687   0.798   2.700   8.094  1.2558 -0.4810  0.9610
 4076SOL    HW223688   0.833   2.600   8.179 -0.0163 -0.1598  0.3945
 4077SOL     OW23689   3.969   4.035   4.885 -0.4785 -0.0506  0.4582
 4077SOL    HW123690   3.927   4.025   4.799  0.6475  0.4416 -0.1431
 4077SOL    HW223691   4.020   4.115   4.886 -0.2976 -0.1732  1.0033
 4078SOL     OW23692   4.408   1.573  11.412 -0.1234  0.4585 -0.5341
 4078SOL    HW123693   4.421   1.563  11.317 -0.7673 -0.1017 -0.5642
 4078SOL    HW223694   4.492   1.616  11.431  0.7711 -0.1605 -2.9761
 4079SOL     OW23695   1.607   1.964   5.359 -0.5877  0.2685 -0.2117
 4079SOL    HW123696   1.594   1.895   5.424 -1.4799  2.4924  1.9740
 4079SOL    HW223697   1.516   1.971   5.330 -1.1112 -3.7619  0.4135
 4080SOL     OW23698   0.551   1.078   6.200 -1.0502 -1.0592 -0.6276
 4080SOL    HW123699   0.502   1.004   6.166 -0.6012  0.0688 -3.7570
 4080SOL    HW223700   0.636   1.036   6.212 -0.9722 -0.7535 -0.1193
 4081SOL     OW23701   4.666   1.393   1.799  0.3631  0.1696 -0.4032
 4081SOL    HW123702   4.645   1.300   1.794  0.2352  0.2181 -0.6983
 4081SOL    HW223703   4.660   1.415   1.706 -1.9012  1.0058 -0.0476
 4082SOL     OW23704   3.871   3.318   1.613 -0.3717 -0.3245  0.5464
 4082SOL    HW123705   3.962   3.301   1.590  0.5880  3.5324  1.4867
 4082SOL    HW223706   3.829   3.233   1.601  0.5914 -0.5533 -1.2425
 4083SOL     OW23707   3.970   3.843   7.152 -0.6495 -0.1140 -0.7455
 4083SOL    HW123708   3.935   3.930   7.172  0.4200  0.4193 -1.1775
 4083SOL    HW223709   3.969   3.809   7.241  1.1406 -0.5263 -0.8700
 4084SOL     OW23710   1.079   4.683  13.831 -0.2039  0.4481  0.4477
 4084SOL    HW123711   1.000   4.629  13.830 -0.7630  1.3133 -1.8155
 4084SOL    HW223712   1.079   4.712  13.740 -1.8789 -0.6710  0.0869
 4085SOL     OW23713   2.098   0.552   1.509  0.2510 -0.2657  0.0424
 4085SOL    HW123714   2.069   0.471   1.553  0.0518 -1.6755 -2.6957
 4085SOL    HW223715   2.014   0.598   1.514  0.5949  0.4463 -0.9197
 4086SOL     OW23716   1.897   3.788   4.746  0.9958 -0.4028 -0.0213
 4086SOL    HW123717   1.845   3.708   4.748  0.7315 -0.2366 -0.2536
 4086SOL    HW223718   1.921   3.810   4.836  1.2431  0.5387 -0.3127
 4087SOL     OW23719   3.486   2.043   6.270  0.4669 -0.5194  0.2477
 4087SOL    HW123720   3.560   2.069   6.214 -0.2559 -2.1895 -1.4879
 4087SOL    HW223721   3.458   2.130   6.299 -1.5451 -0.6053 -1.4284
 4088SOL     OW23722   2.551   0.630   7.287  0.6591 -0.2890  0.1490
 4088SOL    HW123723   2.644   0.651   7.290  1.3637 -3.0614 -1.4549
 4088SOL    HW223724   2.525   0.660   7.200  1.3506 -0.5482 -0.1472
 4089SOL     OW23725   4.101   4.240  17.170  0.4531 -0.1247 -0.1032
 4089SOL    HW123726   4.158   4.317  17.173  1.6196 -1.0194  0.5211
 4089SOL    HW223727   4.125   4.181  17.241 -1.8650  0.4477  1.1651
 4090SOL     OW23728   2.358   4.181   9.075 -0.8624 -0.1203  0.2579
 4090SOL    HW123729   2.429   4.136   9.030 -1.0544 -0.0141 -0.1517
 4090SOL    HW223730   2.392   4.271   9.072  0.6650 -0.7803 -1.6424
 4091SOL     OW23731   3.571   0.643   5.393 -0.1473 -0.2895  0.2688
 4091SOL    HW123732   3.638   0.583   5.361 -0.8742 -1.5504  1.0939
 4091SOL    HW223733   3.597   0.646   5.485 -4.0043  3.7552  1.2456
 4092SOL     OW23734   4.102   0.128   3.308  0.3519 -0.2559  0.2097
 4092SOL    HW123735   4.170   0.122   3.241  0.1877 -1.1471  0.1253
 4092SOL    HW223736   4.120   0.067   3.379  0.5491 -1.2480 -0.6856
 4093SOL     OW23737   2.297   4.563   9.908  0.0588  0.4641 -0.0853
 4093SOL    HW123738   2.330   4.593   9.993 -0.7979 -1.6916  1.0045
 4093SOL    HW223739   2.231   4.630   9.888  0.4598  0.8485 -0.1024
 4094SOL     OW23740   4.681   0.556   9.875 -0.0489 -0.1084  0.2782
 4094SOL    HW123741   0.018   0.633   9.881  1.3677 -1.1968  0.5788
 4094SOL    HW223742   4.630   0.575   9.954  1.6679  0.5715  1.2475
 4095SOL     OW23743   1.392   0.953   1.683  0.1880 -0.0710 -0.3686
 4095SOL    HW123744   1.304   0.941   1.720 -0.6402 -1.4928 -2.7972
 4095SOL    HW223745   1.376   0.982   1.593 -0.8202  1.3538  0.2614
 4096SOL     OW23746   0.145   3.598   5.499 -0.2112  0.5981  0.4932
 4096SOL    HW123747   0.238   3.619   5.490  0.5664 -1.7319  2.8705
 4096SOL    HW223748   0.146   3.503   5.488  0.0813  0.5857  0.6385
 4097SOL     OW23749   4.563   4.024   6.282 -0.0602  0.2523  0.1525
 4097SOL    HW123750   4.496   3.995   6.344 -0.4349 -0.7290 -0.7044
 4097SOL    HW223751   4.563   4.118   6.299  0.0556  0.2439  0.1982
 4098SOL     OW23752   1.763   2.997  17.205 -0.4960 -0.7820  0.1547
 4098SOL    HW123753   1.727   3.063  17.145  0.8607 -0.8113 -0.6739
 4098SOL    HW223754   1.738   3.019  17.295 -0.6827  3.3943 -0.9095
 4099SOL     OW23755   3.504   4.672  16.634  0.3757  0.5140 -0.0910
 4099SOL    HW123756   3.465   4.612  16.698 -0.5563  1.0144 -0.1781
 4099SOL    HW223757   3.435   0.017  16.638 -1.1015 -1.1052  1.2812
 4100SOL     OW23758   3.302   4.602  11.861  0.0402 -0.4172  0.0812
 4100SOL    HW123759   3.365   4.640  11.800 -1.1128  2.2846  0.5647
 4100SOL    HW223760   3.353   4.574  11.937 -0.6103 -1.6052  0.0848
 4101SOL     OW23761   0.214   2.263   6.705 -0.1617 -0.7891  0.1910
 4101SOL    HW123762   0.302   2.241   6.736  1.1898  1.9738 -1.6872
 4101SOL    HW223763   0.232   2.239   6.614  1.5741 -0.3092  0.4122
 4102SOL     OW23764   1.884   2.050   6.121 -0.2712  0.7608 -0.3870
 4102SOL    HW123765   1.891   2.112   6.194 -2.2367  1.2385 -0.5895
 4102SOL    HW223766   1.910   1.966   6.161 -0.5269  1.2577  0.8287
 4103SOL     OW23767   1.591   1.446   5.077 -0.2784 -0.1542 -0.2415
 4103SOL    HW123768   1.528   1.402   5.134  0.1701 -1.0001 -0.4081
 4103SOL    HW223769   1.593   1.531   5.122  2.2711 -0.1230 -0.4391
 4104SOL     OW23770   0.917   0.373   9.857  0.0458  0.5059  0.1158
 4104SOL    HW123771   0.825   0.354   9.875 -1.0106  2.2091 -3.4242
 4104SOL    HW223772   0.960   0.298   9.896 -1.9217 -0.4032  0.5240
 4105SOL     OW23773   4.114   0.745   7.687  0.5116  0.1851 -0.2635
 4105SOL    HW123774   4.112   0.655   7.721  2.2669  0.5591  0.7790
 4105SOL    HW223775   4.172   0.734   7.612  2.3709 -1.0077  1.3546
 4106SOL     OW23776   0.700   0.575   7.315 -0.0858  0.9776 -0.0794
 4106SOL    HW123777   0.620   0.541   7.274 -0.7203  1.3644  0.8408
 4106SOL    HW223778   0.720   0.531   7.398 -0.0899 -0.8696 -1.0425
 4107SOL     OW23779   1.340   1.437   5.254  1.2875  0.4501 -0.4578
 4107SOL    HW123780   1.305   1.392   5.178  0.2008  0.9514 -0.2549
 4107SOL    HW223781   1.340   1.527   5.223 -2.5349  0.6493  0.0648
 4108SOL     OW23782   4.287   3.064   1.465 -0.5918  0.6315  0.0035
 4108SOL    HW123783   4.254   3.051   1.554 -1.0694  2.2417  0.0472
 4108SOL    HW223784   4.272   3.157   1.452  1.3980  0.7847 -1.1835
 4109SOL     OW23785   4.058   3.323   2.794  0.4027  0.6946 -0.1397
 4109SOL    HW123786   3.992   3.261   2.824  0.3238  1.4483  1.2444
 4109SOL    HW223787   4.030   3.405   2.836 -5.1451 -1.2520 -0.0459
 4110SOL     OW23788   1.791   1.890   3.738  0.2158 -0.0955  0.3943
 4110SOL    HW123789   1.788   1.965   3.796 -3.0998  0.2990 -0.3074
 4110SOL    HW223790   1.747   1.825   3.793  0.3363 -1.2820 -0.8987
 4111SOL     OW23791   1.783   2.097   2.048  0.3372 -0.1431 -0.3492
 4111SOL    HW123792   1.797   2.054   2.132  1.9159 -0.1467 -0.6259
 4111SOL    HW223793   1.763   2.024   1.989 -1.1637 -1.8018  2.1876
 4112SOL     OW23794   1.336   1.321   2.183 -0.2664 -0.2274 -0.3298
 4112SOL    HW123795   1.361   1.373   2.107 -0.5232 -2.2220 -1.7727
 4112SOL    HW223796   1.417   1.279   2.214 -1.5386 -0.7249  2.3051
 4113SOL     OW23797   4.064   2.201   9.149  0.4938 -0.4967  0.2917
 4113SOL    HW123798   4.005   2.166   9.217 -0.1980  0.5571  0.2350
 4113SOL    HW223799   4.134   2.244   9.198 -0.5881  0.1955  1.2556
 4114SOL     OW23800   3.113   0.584  16.866  0.0851 -0.6971 -0.1031
 4114SOL    HW123801   3.133   0.625  16.950  1.7507 -1.4527 -0.1375
 4114SOL    HW223802   3.164   0.504  16.870  0.9481 -0.1570 -0.2818
 4115SOL     OW23803   0.683   1.321   6.775 -0.6455 -0.3735 -0.6437
 4115SOL    HW123804   0.668   1.232   6.744  1.6862 -0.8772 -0.3645
 4115SOL    HW223805   0.650   1.368   6.698  0.2102  0.9261 -0.2153
 4116SOL     OW23806   1.121   0.271  16.388  0.2483  1.1700 -0.2110
 4116SOL    HW123807   1.082   0.270  16.475 -1.9425 -0.9711 -1.2234
 4116SOL    HW223808   1.107   0.363  16.362  0.1250  0.8081 -1.4130
 4117SOL     OW23809   3.199   1.965   5.032 -0.0550 -0.4970  0.3812
 4117SOL    HW123810   3.175   1.901   5.098 -2.0636 -0.6132 -0.4702
 4117SOL    HW223811   3.160   2.040   5.078  1.7293  1.6996 -1.6988
 4118SOL     OW23812   3.349   2.656   7.719 -0.0989 -0.3432  0.1284
 4118SOL    HW123813   3.266   2.672   7.764  0.7437  0.4001  1.4191
 4118SOL    HW223814   3.376   2.743   7.687  1.5180 -0.6145  0.7495
 4119SOL     OW23815   3.850   0.895   4.439  0.3107  0.4716  0.4589
 4119SOL    HW123816   3.911   0.919   4.509 -0.7016 -0.9450  1.8274
 4119SOL    HW223817   3.808   0.814   4.466  2.5897 -1.5977 -2.2770
 4120SOL     OW23818   0.858   3.711  11.783  0.2428  0.2491  0.0812
 4120SOL    HW123819   0.920   3.784  11.782  0.7614 -0.1733  1.2164
 4120SOL    HW223820   0.922   3.642  11.800 -0.7265 -0.1869  1.9618
 4121SOL     OW23821   3.654   1.164   7.933 -0.4666 -0.6282 -0.4770
 4121SOL    HW123822   3.659   1.138   7.841 -2.0703 -0.9722 -0.4603
 4121SOL    HW223823   3.715   1.238   7.925 -1.7526  0.3867 -0.9074
 4122SOL     OW23824   0.539   2.297   8.639  0.6381 -0.1051  0.5513
 4122SOL    HW123825   0.487   2.358   8.587  1.6668  0.0224 -0.3144
 4122SOL    HW223826   0.617   2.341   8.672  0.2748  1.4400 -0.6215
 4123SOL     OW23827   3.155   1.983   7.224 -0.4250  0.0448  0.5607
 4123SOL    HW123828   3.245   1.971   7.195 -0.1820  0.6481  1.0604
 4123SOL    HW223829   3.164   1.932   7.304  1.2704 -0.7053 -0.1077
 4124SOL     OW23830   0.714   0.299   8.009 -0.5669  0.2470  0.2363
 4124SOL    HW123831   0.622   0.318   7.991 -0.2358  0.6816 -0.9819
 4124SOL    HW223832   0.747   0.388   8.017  0.1443  0.0419 -0.4203
 4125SOL     OW23833   4.669   4.284   3.790 -0.3802  0.2097  0.4204
 4125SOL    HW123834   4.661   4.300   3.884  0.7228 -1.2228  0.7634
 4125SOL    HW223835   4.643   4.370   3.759  0.9513  0.0194 -1.2182
 4126SOL     OW23836   1.622   0.588   8.404 -0.0332 -0.4175  0.0921
 4126SOL    HW123837   1.660   0.522   8.462  1.1665  0.3639  0.2097
 4126SOL    HW223838   1.680   0.663   8.423 -2.0402  1.3392 -0.7274
 4127SOL     OW23839   4.134   4.230   3.063  0.4519 -0.7717  0.1555
 4127SOL    HW123840   4.229   4.230   3.054  0.7627  3.3385  3.8158
 4127SOL    HW223841   4.105   4.143   3.034 -1.1118  0.0206 -0.5926
 4128SOL     OW23842   0.512   1.152  11.941  0.3217 -0.3639  0.6703
 4128SOL    HW123843   0.541   1.207  11.869 -0.5230 -0.3188  0.3563
 4128SOL    HW223844   0.541   1.066  11.910 -2.0833 -0.8106 -0.3441
 4129SOL     OW23845   4.561   3.573   0.284  0.4266 -0.0624  0.1804
 4129SOL    HW123846   4.610   3.650   0.312  0.0602  0.6488 -1.1258
 4129SOL    HW223847   4.475   3.607   0.260  0.8467  1.3077  0.6466
 4130SOL     OW23848   2.109   4.226   3.505 -0.4583 -0.5271 -0.2311
 4130SOL    HW123849   2.100   4.306   3.558  0.5812 -0.3443 -0.3245
 4130SOL    HW223850   2.046   4.243   3.435  0.9932  0.4798 -1.2972
 4131SOL     OW23851   2.137   4.274   4.481 -0.3910 -0.1201 -0.1526
 4131SOL    HW123852   2.168   4.211   4.415  0.7571  0.0384  0.2436
 4131SOL    HW223853   2.056   4.312   4.448  0.5931  4.6695  2.9595
 4132SOL     OW23854   3.879   4.674   0.077  0.2209  0.4803  0.2837
 4132SOL    HW123855   3.875   4.655  17.670 -0.1990 -1.2637  0.6628
 4132SOL    HW223856   3.956   4.627   0.108 -0.7989 -1.9666 -0.9213
 4133SOL     OW23857   1.092   1.832   1.415 -0.3637  0.2134  0.4328
 4133SOL    HW123858   1.170   1.788   1.382  0.5156  1.8826  0.3411
 4133SOL    HW223859   1.109   1.917   1.374  0.5167  0.8350  2.1075
 4134SOL     OW23860   1.316   2.135   8.322  0.5937 -0.2823  0.3021
 4134SOL    HW123861   1.342   2.049   8.288 -0.6858 -1.2392  1.7307
 4134SOL    HW223862   1.255   2.117   8.393  1.7557 -2.8582  0.6722
 4135SOL     OW23863   3.869   3.460  11.184 -0.3626  0.0303 -0.1401
 4135SOL    HW123864   3.899   3.374  11.155 -0.5324  0.6359 -2.0756
 4135SOL    HW223865   3.815   3.439  11.261 -0.8717 -0.1048 -0.5373
 4136SOL     OW23866   3.590   0.951  14.153 -0.1676 -0.0390 -0.4118
 4136SOL    HW123867   3.512   0.904  14.182 -0.6300  1.5096  0.8461
 4136SOL    HW223868   3.653   0.900  14.205  1.6611  1.3877 -1.2571
 4137SOL     OW23869   3.086   4.679  11.715  0.3574  1.0278  0.0833
 4137SOL    HW123870   3.021   4.615  11.744  1.1885 -0.0253 -0.4226
 4137SOL    HW223871   3.156   4.641  11.767 -0.1563  1.1545  0.8777
 4138SOL     OW23872   2.033   3.618   1.231 -0.0549  0.0382  0.2059
 4138SOL    HW123873   1.981   3.644   1.156  4.0583  0.3771 -2.5079
 4138SOL    HW223874   1.966   3.612   1.299  1.3681  4.4185  1.9415
 4139SOL     OW23875   3.160   0.459  10.991  0.2422  0.4897 -0.3325
 4139SOL    HW123876   3.248   0.453  11.029 -0.5050 -1.9594  0.9809
 4139SOL    HW223877   3.176   0.488  10.901  0.5709 -1.1385 -0.8004
 4140SOL     OW23878   2.759   1.872   5.190 -0.2563  0.8433  0.6156
 4140SOL    HW123879   2.756   1.943   5.126  1.4951 -1.3701 -1.9086
 4140SOL    HW223880   2.787   1.816   5.118 -1.2471 -0.3510  1.1624
 4141SOL     OW23881   3.890   3.350   1.885 -0.3619  0.2770 -0.1431
 4141SOL    HW123882   3.986   3.349   1.886 -0.3753 -0.6378 -0.3453
 4141SOL    HW223883   3.878   3.362   1.791 -3.0375 -1.3955  0.0051
 4142SOL     OW23884   0.708   1.411   1.298  0.4555  0.0355 -0.0656
 4142SOL    HW123885   0.780   1.389   1.357 -0.1461 -1.1479  0.2409
 4142SOL    HW223886   0.696   1.323   1.261  0.5018 -0.4152  1.0177
 4143SOL     OW23887   1.888   3.267   2.558  0.0207  0.9935  0.1466
 4143SOL    HW123888   1.804   3.230   2.584  0.7148  0.6425  1.8691
 4143SOL    HW223889   1.932   3.188   2.526 -0.2246  1.2435 -0.8186
 4144SOL     OW23890   1.624   2.620   5.829 -0.1738  0.2505 -0.1647
 4144SOL    HW123891   1.597   2.528   5.820  1.9597 -0.1246 -2.6598
 4144SOL    HW223892   1.680   2.609   5.905 -2.2971  0.9380  1.5157
 4145SOL     OW23893   1.127   1.101   7.445  0.2424 -0.1173  0.5467
 4145SOL    HW123894   1.072   1.046   7.390  2.4565 -2.6319  0.8734
 4145SOL    HW223895   1.215   1.075   7.418 -0.4005 -2.0431  0.3370
 4146SOL     OW23896   2.589   4.049   8.457 -0.1698 -0.1354 -0.2603
 4146SOL    HW123897   2.568   3.956   8.469 -0.5606 -0.2665 -1.9740
 4146SOL    HW223898   2.656   4.046   8.389 -1.3038  1.2678 -1.4336
 4147SOL     OW23899   0.947   2.656  14.323  0.9263 -0.0531  0.1101
 4147SOL    HW123900   1.030   2.690  14.288  1.1139  0.2569  0.8502
 4147SOL    HW223901   0.905   2.740  14.337  2.6725  1.5826 -4.5878
 4148SOL     OW23902   1.234   1.399   1.045 -0.1403  0.1335 -0.2492
 4148SOL    HW123903   1.294   1.444   0.986 -1.9145  3.3338  0.3959
 4148SOL    HW223904   1.291   1.343   1.098  0.2327  1.3595  0.6419
 4149SOL     OW23905   3.793   4.278   9.045  0.6233  0.2268  0.2210
 4149SOL    HW123906   3.844   4.272   9.125 -2.3802  0.5791  2.1605
 4149SOL    HW223907   3.741   4.354   9.071 -1.3054 -0.4204 -1.7221
 4150SOL     OW23908   0.255   4.687   4.857  0.5621 -0.3674 -0.3405
 4150SOL    HW123909   0.205   4.683   4.776  0.1483  0.6194 -0.1263
 4150SOL    HW223910   0.190   4.709   4.924 -1.5943 -0.3781 -2.4570
 4151SOL     OW23911   3.640   2.391   2.670  0.2545 -0.2002 -0.2191
 4151SOL    HW123912   3.676   2.306   2.697 -0.8094 -1.0514 -1.5160
 4151SOL    HW223913   3.633   2.386   2.575 -1.8408  0.7622 -0.0985
 4152SOL     OW23914   0.939   2.005   7.727  0.1616  0.5281  0.1473
 4152SOL    HW123915   0.921   1.996   7.820  0.1726  0.9418  0.1868
 4152SOL    HW223916   0.985   1.924   7.704  0.4910  0.5010  0.9192
 4153SOL     OW23917   4.481   0.181   7.618 -0.3899  0.4456  0.2679
 4153SOL    HW123918   4.441   0.158   7.702 -1.1310 -1.1445 -0.5020
 4153SOL    HW223919   4.453   0.271   7.604 -2.0378  0.3137  2.7492
 4154SOL     OW23920   3.106   4.261   3.257  0.0462  0.5023  0.7227
 4154SOL    HW123921   3.011   4.265   3.246  0.1138  0.6961  0.2279
 4154SOL    HW223922   3.113   4.188   3.319 -2.1421 -0.2934  0.0470
 4155SOL     OW23923   2.222   0.443   8.096 -0.2002 -0.1014 -0.3868
 4155SOL    HW123924   2.288   0.378   8.117 -0.9029  0.1192  2.5383
 4155SOL    HW223925   2.145   0.397   8.063 -1.8077  2.1492  0.2239
 4156SOL     OW23926   3.114   1.338   3.808  0.4917 -0.2054 -0.1441
 4156SOL    HW123927   3.090   1.270   3.745  0.7469  0.1386 -0.6085
 4156SOL    HW223928   3.204   1.307   3.817  0.1089 -1.5479 -0.8121
 4157SOL     OW23929   0.393   3.968   6.474 -0.4322  0.1936 -0.4737
 4157SOL    HW123930   0.473   4.007   6.438 -1.7601  1.6065 -1.8465
 4157SOL    HW223931   0.331   3.995   6.407  0.0328  4.1644  0.7146
 4158SOL     OW23932   1.140   3.327  12.211  0.3664  0.2619 -0.1348
 4158SOL    HW123933   1.073   3.395  12.205 -0.8574 -1.1308 -2.5066
 4158SOL    HW223934   1.210   3.365  12.264 -0.0025 -0.0584  0.5782
 4159SOL     OW23935   4.615   0.709   4.711 -0.0982 -0.3124  0.2247
 4159SOL    HW123936   4.630   0.667   4.796  1.8888 -0.5144 -0.2261
 4159SOL    HW223937   4.620   0.631   4.654 -2.3546 -0.6977  0.5597
 4160SOL     OW23938   1.833   2.378   2.081  0.6039  0.6555 -0.1522
 4160SOL    HW123939   1.832   2.286   2.055  0.3535  0.4846  0.4495
 4160SOL    HW223940   1.772   2.421   2.021 -0.8498  0.6749  1.3344
 4161SOL     OW23941   0.295   4.270  14.337 -0.1228  0.3521 -0.0688
 4161SOL    HW123942   0.261   4.183  14.314 -0.0523  0.6005 -1.0933
 4161SOL    HW223943   0.284   4.307  14.250  1.1945 -0.5986 -0.6305
 4162SOL     OW23944   2.581   3.401   8.963  0.2070  0.1386  0.3235
 4162SOL    HW123945   2.603   3.312   8.934 -2.0643 -0.2628 -0.1303
 4162SOL    HW223946   2.641   3.464   8.923  0.1883  0.5753  0.9882
 4163SOL     OW23947   0.256   3.522   4.262  0.7871 -0.0661  0.1661
 4163SOL    HW123948   0.270   3.455   4.195  0.7913  0.0670  0.0321
 4163SOL    HW223949   0.203   3.471   4.323 -1.4597  1.2905 -0.6798
 4164SOL     OW23950   0.018   0.965  17.214 -0.0437 -0.3782  0.2359
 4164SOL    HW123951   0.058   1.022  17.149  0.0460 -0.7262 -0.0120
 4164SOL    HW223952   0.097   0.928  17.253 -1.0422 -0.2252  2.3862
 4165SOL     OW23953   3.308   1.980  11.820  0.0634  0.7073  0.3643
 4165SOL    HW123954   3.385   2.020  11.859 -0.0745  0.5221  0.8294
 4165SOL    HW223955   3.241   1.996  11.886  0.4061  0.3641  0.7954
 4166SOL     OW23956   4.012   2.803   4.437  0.2760 -0.0097 -0.0014
 4166SOL    HW123957   4.013   2.823   4.343 -1.0409 -1.3318 -0.3039
 4166SOL    HW223958   4.087   2.743   4.437  0.9651  0.8506 -0.7030
 4167SOL     OW23959   1.736   1.532  13.204  0.1164  0.2778  0.0390
 4167SOL    HW123960   1.680   1.586  13.149 -1.7880 -0.7035  1.0294
 4167SOL    HW223961   1.806   1.587  13.239  1.3700 -0.4646 -1.3084
 4168SOL     OW23962   2.856   2.335  13.529 -0.1616  0.6784 -0.0075
 4168SOL    HW123963   2.807   2.265  13.485 -1.1344  1.2002  0.2342
 4168SOL    HW223964   2.784   2.387  13.566 -0.5047 -0.9328  1.6276
 4169SOL     OW23965   1.477   2.253  13.212 -0.4934  0.3852 -0.3083
 4169SOL    HW123966   1.419   2.279  13.141  1.0849 -0.9348 -2.0979
 4169SOL    HW223967   1.532   2.332  13.211 -0.2282  0.2034  0.4477
 4170SOL     OW23968   0.798   2.524   7.126  0.1172  0.4376 -0.1780
 4170SOL    HW123969   0.854   2.576   7.184 -0.7953  1.3257 -0.0922
 4170SOL    HW223970   0.865   2.493   7.065 -1.6439 -1.4193 -1.1181
 4171SOL     OW23971   1.598   1.637   4.648  0.3511 -0.5399  0.1699
 4171SOL    HW123972   1.637   1.693   4.581 -0.0204 -1.2310 -0.6235
 4171SOL    HW223973   1.584   1.705   4.714  0.0628 -0.4922  0.0596
 4172SOL     OW23974   2.302   3.370  17.625 -0.3919  0.4377 -0.8087
 4172SOL    HW123975   2.266   3.449  17.664  0.0078  1.7078 -3.0104
 4172SOL    HW223976   2.334   3.319   0.013 -0.3034 -0.1750 -1.2572
 4173SOL     OW23977   4.501   2.349   3.463  0.0920  0.2848  0.0859
 4173SOL    HW123978   4.454   2.351   3.380 -0.3424 -0.7292  0.2982
 4173SOL    HW223979   4.550   2.430   3.451 -0.9865  1.2020  1.8985
 4174SOL     OW23980   0.654   0.013   6.918 -0.1227 -0.1584  0.6289
 4174SOL    HW123981   0.611   0.035   7.001 -1.4471  0.0473 -0.0975
 4174SOL    HW223982   0.720   0.081   6.902  0.3038 -1.1323 -1.7605
 4175SOL     OW23983   4.478   1.515   6.943 -0.0733 -0.4244  0.2212
 4175SOL    HW123984   4.450   1.445   7.002 -1.0703  1.4130  1.9170
 4175SOL    HW223985   4.486   1.583   7.009  1.7047 -2.3255  1.9788
 4176SOL     OW23986   2.460   1.652   6.106  0.4603  0.8880 -0.3658
 4176SOL    HW123987   2.464   1.747   6.099  2.3603  0.9122  0.9828
 4176SOL    HW223988   2.372   1.634   6.138  0.0607  0.3785 -1.7481
 4177SOL     OW23989   4.184   4.678   2.507  0.5632  0.4655 -0.1327
 4177SOL    HW123990   4.099   4.634   2.500  0.9390 -0.0575 -1.5505
 4177SOL    HW223991   4.164   0.036   2.556 -1.2300 -0.6025  0.8493
 4178SOL     OW23992   0.513   2.728   1.358  0.1983  0.7444 -0.0542
 4178SOL    HW123993   0.456   2.653   1.342  0.6854  0.0925  1.2018
 4178SOL    HW223994   0.471   2.805   1.320 -1.0685  0.0556 -0.0323
 4179SOL     OW23995   3.379   1.407   7.586 -0.4794  0.2700 -0.0050
 4179SOL    HW123996   3.299   1.357   7.606 -0.5739  0.4454  0.0553
 4179SOL    HW223997   3.368   1.477   7.650 -1.0930  1.2573 -1.1902
 4180SOL     OW23998   4.526   4.636  17.492  0.2728 -0.5197  0.0950
 4180SOL    HW123999   4.576   4.715  17.472 -1.2352  0.0351 -1.4788
 4180SOL    HW224000   4.492   4.658  17.578 -0.9879  1.9795 -1.0474
 4181SOL     OW24001   1.750   1.977   6.436 -0.8564 -0.5830 -0.3101
 4181SOL    HW124002   1.674   1.997   6.382 -0.0288 -0.9868 -1.6436
 4181SOL    HW224003   1.700   1.949   6.512 -0.2491  0.7600  0.5918
 4182SOL     OW24004   1.017   1.112   2.881  0.2298 -0.4457  0.4043
 4182SOL    HW124005   0.946   1.147   2.827  0.9259 -0.1782 -0.3409
 4182SOL    HW224006   1.001   1.153   2.966 -0.8375 -0.6125  0.2889
 4183SOL     OW24007   0.440   2.617   3.534  0.2274  0.3812 -0.2933
 4183SOL    HW124008   0.455   2.701   3.490 -1.4278  0.9149  0.1300
 4183SOL    HW224009   0.525   2.595   3.572 -0.7153  0.9970  2.1494
 4184SOL     OW24010   2.457   3.547   6.657  0.2019 -0.4631 -0.1498
 4184SOL    HW124011   2.431   3.459   6.628 -0.8677  0.0012 -0.5739
 4184SOL    HW224012   2.435   3.599   6.581 -0.2835  1.0228  1.0137
 4185SOL     OW24013   1.563   4.507  12.695 -0.1321 -0.2608  0.0870
 4185SOL    HW124014   1.574   4.579  12.633 -2.9802 -1.2818 -1.6185
 4185SOL    HW224015   1.589   4.430  12.645  2.0639  0.1905  0.5335
 4186SOL     OW24016   1.207   0.769   3.545  0.1194 -0.5336  0.0095
 4186SOL    HW124017   1.150   0.819   3.487  2.8895 -0.2643 -2.5071
 4186SOL    HW224018   1.244   0.704   3.486  0.8318 -1.2101  1.1889
 4187SOL     OW24019   4.126   0.069   9.578 -0.1755 -0.5313  0.2230
 4187SOL    HW124020   4.134   0.112   9.663 -0.5374 -1.3065  0.6514
 4187SOL    HW224021   4.160   0.141   9.526 -0.2649  0.0151  0.9259
 4188SOL     OW24022   2.463   2.336   3.148  0.1333  0.5069 -0.3517
 4188SOL    HW124023   2.459   2.346   3.053  1.5805  0.5199 -0.4237
 4188SOL    HW224024   2.479   2.241   3.150  2.2812  0.8883  0.7627
 4189SOL     OW24025   2.240   1.124   5.996  0.0145 -0.1170  0.1126
 4189SOL    HW124026   2.332   1.098   5.986  0.6818  3.2747 -2.3500
 4189SOL    HW224027   2.187   1.055   5.956  1.8178 -0.0004 -2.4529
 4190SOL     OW24028   3.842   2.493  14.198  0.2342 -0.1664 -0.4424
 4190SOL    HW124029   3.830   2.579  14.158  1.5355 -0.4624 -1.4544
 4190SOL    HW224030   3.805   2.512  14.285 -0.2563  0.0448 -0.7008
 4191SOL     OW24031   0.295   1.009   2.153  0.0620  0.1520  0.1805
 4191SOL    HW124032   0.384   0.976   2.167 -0.8151 -1.8758  0.9529
 4191SOL    HW224033   0.272   0.938   2.094  0.5313  0.3010 -0.1864
 4192SOL     OW24034   3.549   1.923   8.077 -0.2560  0.0409 -0.3598
 4192SOL    HW124035   3.607   1.885   8.143 -1.3972 -0.2991  0.4458
 4192SOL    HW224036   3.610   1.948   8.007 -0.4838  0.8547 -0.2769
 4193SOL     OW24037   0.908   2.165  15.463  0.0743  0.2046 -0.0131
 4193SOL    HW124038   0.979   2.187  15.402 -2.3848  1.4796 -2.4536
 4193SOL    HW224039   0.896   2.240  15.521  0.0671 -0.6409  1.0764
 4194SOL     OW24040   4.169   0.334   6.542 -0.1122  0.4786 -0.4242
 4194SOL    HW124041   4.192   0.269   6.476  0.8324 -2.0303  2.3670
 4194SOL    HW224042   4.220   0.411   6.515  0.5746 -0.2163 -1.0736
 4195SOL     OW24043   2.213   0.951   5.757 -0.0373 -0.2652  0.2037
 4195SOL    HW124044   2.237   0.860   5.773 -1.7237 -0.5587  1.0208
 4195SOL    HW224045   2.215   0.952   5.661 -1.6659 -0.8348  0.1601
 4196SOL     OW24046   0.263   0.841  14.589  0.1456 -0.0755 -0.5357
 4196SOL    HW124047   0.269   0.901  14.515 -1.0910  1.3333  0.5197
 4196SOL    HW224048   0.301   0.761  14.551 -2.1717 -0.9578 -1.0415
 4197SOL     OW24049   3.835   3.018  12.465  0.2284 -0.1292  0.4545
 4197SOL    HW124050   3.854   2.938  12.415  0.5481 -0.3077  0.8578
 4197SOL    HW224051   3.836   2.984  12.555  0.6175 -1.5731 -0.0914
 4198SOL     OW24052   4.198   4.279   5.522 -0.3292  0.3643  0.6565
 4198SOL    HW124053   4.252   4.200   5.524  0.1136  0.7128  2.0185
 4198SOL    HW224054   4.256   4.348   5.489  1.7283 -2.5504 -1.7656
 4199SOL     OW24055   4.439   1.038   2.811  0.2936 -0.4083 -0.6245
 4199SOL    HW124056   4.399   0.951   2.822 -0.0652 -0.2157 -0.4178
 4199SOL    HW224057   4.526   1.004   2.790 -0.6735 -1.4719 -2.9515
 4200SOL     OW24058   4.155   0.835   5.997 -0.4482  0.3714 -0.0071
 4200SOL    HW124059   4.225   0.818   6.060  1.6868  2.2831 -1.8474
 4200SOL    HW224060   4.200   0.811   5.916  0.9986  2.8738  0.0551
 4201SOL     OW24061   4.254   3.829   7.182 -0.0101  0.2565 -0.0299
 4201SOL    HW124062   4.253   3.733   7.181 -2.7298  0.3113 -2.8787
 4201SOL    HW224063   4.165   3.847   7.153  0.5159  0.3033 -1.5803
 4202SOL     OW24064   3.886   0.005  16.046 -0.1496 -0.3198 -0.2471
 4202SOL    HW124065   3.813   4.664  16.048  0.4342 -0.9201  1.9586
 4202SOL    HW224066   3.836   0.076  16.007  0.7667  0.6995  0.4306
 4203SOL     OW24067   4.552   3.758   4.099 -0.6646 -0.3075 -0.2691
 4203SOL    HW124068   4.525   3.697   4.031 -0.2900 -1.0570  0.2425
 4203SOL    HW224069   4.539   3.845   4.063  0.6110 -0.1964 -0.4520
 4204SOL     OW24070   1.276   2.942   1.535  0.0698  0.0754 -0.1980
 4204SOL    HW124071   1.253   2.989   1.455  1.0087 -0.2441 -0.6531
 4204SOL    HW224072   1.371   2.946   1.528 -0.0033 -0.8136 -1.6934
 4205SOL     OW24073   1.060   1.129   4.987 -0.3840 -0.0142 -0.3363
 4205SOL    HW124074   0.975   1.172   4.991  1.1500  3.0429 -0.6962
 4205SOL    HW224075   1.034   1.043   5.020 -0.7073  0.2986  0.2327
 4206SOL     OW24076   2.401   0.636   9.499 -0.1998 -0.0256  0.3211
 4206SOL    HW124077   2.461   0.704   9.468 -0.3509 -0.2600 -0.4833
 4206SOL    HW224078   2.340   0.688   9.551  0.5526  1.7891 -0.5840
 4207SOL     OW24079   4.107   3.499   2.414  1.0029  0.3472 -0.0206
 4207SOL    HW124080   4.167   3.563   2.376 -0.3994 -0.1610 -3.0610
 4207SOL    HW224081   4.066   3.560   2.475 -2.4770 -1.0684 -0.9771
 4208SOL     OW24082   1.095   3.525   5.672 -0.5226  0.2767  0.0092
 4208SOL    HW124083   1.086   3.551   5.581  1.1732  0.4960 -0.0934
 4208SOL    HW224084   1.188   3.508   5.681 -0.6696 -0.5126  0.0482
 4209SOL     OW24085   4.403   2.650   2.126  0.2026 -0.8020  0.1266
 4209SOL    HW124086   4.397   2.670   2.032  1.0867 -1.2038 -0.0080
 4209SOL    HW224087   4.415   2.737   2.164  3.8210 -0.4306 -1.9167
 4210SOL     OW24088   2.617   0.650   5.550  0.6358 -0.8115  0.1802
 4210SOL    HW124089   2.712   0.648   5.538  0.9909  0.8551  2.7932
 4210SOL    HW224090   2.603   0.744   5.561 -1.2742 -1.1714  0.6914
 4211SOL     OW24091   1.289   3.834   4.709  0.4941 -0.5381 -0.4545
 4211SOL    HW124092   1.219   3.898   4.697  0.5711 -0.0413  1.9434
 4211SOL    HW224093   1.237   3.759   4.739  1.2808 -0.5468  0.8558
 4212SOL     OW24094   2.086   3.353  14.929 -0.1767  0.1048  0.0524
 4212SOL    HW124095   1.997   3.380  14.904  0.7926  1.5752 -1.7702
 4212SOL    HW224096   2.122   3.437  14.956  3.0524 -1.2516 -0.0606
 4213SOL     OW24097   3.643   0.508   8.573  0.6225 -0.1711  0.2234
 4213SOL    HW124098   3.607   0.481   8.657 -3.0450  0.0661 -1.2541
 4213SOL    HW224099   3.723   0.556   8.593 -0.0564  0.3621  1.6618
 4214SOL     OW24100   2.573   3.600  14.617 -0.3660  0.3862 -0.0107
 4214SOL    HW124101   2.499   3.656  14.594 -0.6220  0.3575  0.7433
 4214SOL    HW224102   2.642   3.647  14.571 -0.6137  0.0737 -0.7145
 4215SOL     OW24103   1.578   3.442   5.789 -0.0086  0.0289 -0.4736
 4215SOL    HW124104   1.637   3.515   5.773  1.5685 -1.9371 -3.7335
 4215SOL    HW224105   1.631   3.377   5.742  1.0246  0.3846  0.2329
 4216SOL     OW24106   2.184   2.588   3.274  0.3297  0.1697  0.5625
 4216SOL    HW124107   2.267   2.632   3.295 -0.1027  2.0298 -1.6289
 4216SOL    HW224108   2.165   2.618   3.185 -0.8426  0.0686  0.7872
 4217SOL     OW24109   2.850   4.246   3.253 -0.5803  0.4469  0.0287
 4217SOL    HW124110   2.821   4.307   3.320  0.7649  3.6174 -2.3069
 4217SOL    HW224111   2.763   4.233   3.214 -0.5197  1.6492 -0.4962
 4218SOL     OW24112   1.159   0.509   4.455 -0.0433  0.7149  0.0745
 4218SOL    HW124113   1.196   0.474   4.536  0.7511 -0.4315 -0.7780
 4218SOL    HW224114   1.217   0.584   4.441  0.0008  0.8378  0.9300
 4219SOL     OW24115   3.466   3.150   7.816  0.0221  0.0925 -0.3618
 4219SOL    HW124116   3.503   3.216   7.757 -2.8641  1.3113 -0.8066
 4219SOL    HW224117   3.383   3.191   7.839 -1.6942 -2.6801 -1.6227
 4220SOL     OW24118   4.046   4.056   8.210  0.2697 -0.5939 -0.0350
 4220SOL    HW124119   4.136   4.031   8.191 -0.5220 -1.7081 -2.2981
 4220SOL    HW224120   3.995   3.982   8.176 -0.6661  1.0208 -2.1524
 4221SOL     OW24121   2.916   0.104   9.247 -0.8321 -0.3263 -0.2147
 4221SOL    HW124122   2.963   0.038   9.297 -0.5035 -1.2320 -1.7249
 4221SOL    HW224123   2.896   0.052   9.169 -0.4474 -1.3613  0.3900
 4222SOL     OW24124   0.809   1.497  15.549 -0.0078 -0.6100 -0.0410
 4222SOL    HW124125   0.751   1.484  15.625  0.5986 -0.1657  0.4962
 4222SOL    HW224126   0.892   1.465  15.583  0.5175  0.9962  0.1742
 4223SOL     OW24127   0.914   3.786   4.945  0.2934  0.1192 -0.4186
 4223SOL    HW124128   0.949   3.870   4.915  2.0958  0.3668  2.2997
 4223SOL    HW224129   0.981   3.746   5.002 -2.0048 -2.7035  0.3164
 4224SOL     OW24130   2.548   1.947  12.528 -0.7669  0.2703 -0.0875
 4224SOL    HW124131   2.474   1.897  12.493 -0.3904 -0.5485  0.2920
 4224SOL    HW224132   2.507   1.997  12.599 -0.6938  0.9069 -0.5007
 4225SOL     OW24133   0.788   1.125  11.742 -0.1682 -0.5217  0.2676
 4225SOL    HW124134   0.774   1.167  11.657  1.2023  0.9410  0.7724
 4225SOL    HW224135   0.783   1.210  11.784  0.5817 -0.7305  0.7713
 4226SOL     OW24136   3.614   3.958   1.336  0.1601 -0.5344  0.0455
 4226SOL    HW124137   3.556   3.907   1.278 -3.6109  0.8876  2.6203
 4226SOL    HW224138   3.603   4.045   1.297  1.1096 -0.8755 -0.9978
 4227SOL     OW24139   4.463   1.017  12.501  0.2633  0.3988  0.1450
 4227SOL    HW124140   4.529   1.012  12.569 -1.6998 -0.5710  1.9679
 4227SOL    HW224141   4.433   1.106  12.519  0.7269  0.2830  1.4926
 4228SOL     OW24142   0.950   1.586   3.976 -0.7495 -0.1806  0.5908
 4228SOL    HW124143   0.952   1.535   3.894 -3.2889 -0.2077  0.5562
 4228SOL    HW224144   0.871   1.553   4.019 -0.6837 -1.5394 -0.3103
 4229SOL     OW24145   1.810   0.482   0.035 -0.4574 -0.2334 -0.3297
 4229SOL    HW124146   1.813   0.499  17.628  0.1931 -0.7284 -0.4004
 4229SOL    HW224147   1.748   0.551   0.058 -1.7190 -1.0879 -1.1624
 4230SOL     OW24148   4.613   1.149   3.440  0.2047  0.1613  0.3021
 4230SOL    HW124149   4.530   1.103   3.454  1.7100 -1.5767  3.6899
 4230SOL    HW224150   4.629   1.184   3.528 -1.5612 -0.3886  0.8395
 4231SOL     OW24151   4.636   0.668   1.280 -0.1945 -0.3215  0.2505
 4231SOL    HW124152   4.648   0.620   1.362 -0.3078 -2.2252 -0.8517
 4231SOL    HW224153   4.704   0.734   1.296  0.6010 -1.7424  2.7555
 4232SOL     OW24154   4.467   2.296   7.777  0.5305 -0.1123  0.2700
 4232SOL    HW124155   4.418   2.214   7.781  0.5221 -0.0429  1.4378
 4232SOL    HW224156   4.400   2.356   7.746  0.3792 -1.5140 -2.0986
 4233SOL     OW24157   1.482   1.337   4.274  0.3645  0.1569 -0.0592
 4233SOL    HW124158   1.560   1.352   4.221 -0.8040 -0.2969 -1.8891
 4233SOL    HW224159   1.442   1.424   4.281 -0.3767 -0.1387 -0.6769
 4234SOL     OW24160   0.760   2.045  16.478  0.2197  0.3334  0.2824
 4234SOL    HW124161   0.760   2.139  16.461  2.2193  0.0070 -1.4068
 4234SOL    HW224162   0.781   2.008  16.393 -2.0506 -0.4673  0.0498
 4235SOL     OW24163   4.030   0.574   9.966  0.0636 -0.0629 -0.1148
 4235SOL    HW124164   3.987   0.620   9.895  0.0772  0.9292  0.5237
 4235SOL    HW224165   4.118   0.601   9.942 -0.0129  0.2286 -0.0612
 4236SOL     OW24166   4.648   0.710  10.087  0.6478 -0.0863  0.5989
 4236SOL    HW124167   4.621   0.802  10.087  0.7325 -0.0501 -0.7010
 4236SOL    HW224168   4.633   0.675  10.174 -0.1555 -1.2764 -0.0253
 4237SOL     OW24169   1.266   2.385   1.657 -0.1809  0.5511 -0.1576
 4237SOL    HW124170   1.280   2.356   1.567 -0.9704  1.6336 -0.6280
 4237SOL    HW224171   1.179   2.421   1.639 -0.3043  0.3174 -0.0238
 4238SOL     OW24172   1.654   2.251   8.941  0.3412  0.0170 -0.1927
 4238SOL    HW124173   1.650   2.286   8.852  1.0669 -2.3514 -1.1760
 4238SOL    HW224174   1.672   2.157   8.929 -0.3316 -0.0954 -0.3182
 4239SOL     OW24175   3.938   3.500   3.139 -0.2284  0.2310  0.5781
 4239SOL    HW124176   3.866   3.439   3.126 -2.2008  2.8717 -0.7293
 4239SOL    HW224177   3.995   3.450   3.197 -2.2426 -0.1908  2.1786
 4240SOL     OW24178   4.170   1.400   2.227  0.4197  0.4824  0.3553
 4240SOL    HW124179   4.256   1.436   2.249  0.3494 -0.0045  1.4467
 4240SOL    HW224180   4.124   1.415   2.310 -0.1327  0.1766  0.1008
 4241SOL     OW24181   4.448   2.007   0.490  0.4287  0.0669 -0.3991
 4241SOL    HW124182   4.499   2.088   0.499  0.7234 -0.2193  0.4728
 4241SOL    HW224183   4.357   2.036   0.484  0.2706 -0.5323 -0.8753
 4242SOL     OW24184   4.262   3.067   5.171  0.1817  0.4247  0.4750
 4242SOL    HW124185   4.215   3.009   5.231 -2.0477 -1.7729 -3.3630
 4242SOL    HW224186   4.197   3.078   5.101  0.3485 -1.4635  0.0235
 4243SOL     OW24187   3.934   1.129   6.584  0.2330  0.3110 -0.7589
 4243SOL    HW124188   3.958   1.139   6.676 -1.3387  1.8343 -0.5174
 4243SOL    HW224189   3.884   1.209   6.573 -2.5182 -1.1825  0.8885
 4244SOL     OW24190   2.708   1.856  16.226 -0.1776  0.4048  0.1465
 4244SOL    HW124191   2.623   1.812  16.228 -0.1064  0.3122  1.0160
 4244SOL    HW224192   2.752   1.809  16.156  0.9906  2.4712 -0.5190
 4245SOL     OW24193   2.270   2.825  10.036 -0.1285 -0.2482  0.3366
 4245SOL    HW124194   2.299   2.896  10.093  1.1563  0.4621 -1.2011
 4245SOL    HW224195   2.176   2.839  10.032  0.3544  3.1379  1.2181
 4246SOL     OW24196   1.938   1.884  10.989  0.2051 -0.2897 -0.0312
 4246SOL    HW124197   2.004   1.926  11.043 -0.4514  0.9486 -0.1888
 4246SOL    HW224198   1.976   1.799  10.966 -0.8231 -1.2105  1.5863
 4247SOL     OW24199   3.980   3.579   5.757  0.0206 -0.4545  0.3915
 4247SOL    HW124200   3.894   3.611   5.729  0.3160  0.7402  0.8537
 4247SOL    HW224201   4.022   3.583   5.671 -1.1558  1.0146 -0.1289
 4248SOL     OW24202   3.640   0.254   3.687  0.5669 -0.7089 -0.5155
 4248SOL    HW124203   3.686   0.300   3.617  0.1371  0.4841  0.0014
 4248SOL    HW224204   3.630   0.169   3.643  1.7744 -1.5369  0.7795
 4249SOL     OW24205   1.559   4.649   7.703  0.3598 -0.7840  0.0771
 4249SOL    HW124206   1.473   4.690   7.711  0.8146  0.0900  0.4321
 4249SOL    HW224207   1.559   4.594   7.781  0.5824  0.7838  1.1722
 4250SOL     OW24208   0.878   1.633   3.192 -0.0490  0.2153 -0.4264
 4250SOL    HW124209   0.917   1.714   3.223 -0.2583 -0.1964  0.9228
 4250SOL    HW224210   0.878   1.650   3.098  0.5075  2.1796 -0.0662
 4251SOL     OW24211   2.473   0.187   3.479  0.4890  0.2406  0.1287
 4251SOL    HW124212   2.480   0.282   3.479  3.5132  0.0101  2.1212
 4251SOL    HW224213   2.445   0.153   3.394 -2.7485  1.2786  0.7808
 4252SOL     OW24214   2.163   1.074   2.521  0.3146 -0.6135 -0.2008
 4252SOL    HW124215   2.091   1.046   2.464  0.9119  1.0616 -1.7516
 4252SOL    HW224216   2.113   1.050   2.600 -0.5682 -0.3956 -0.6888
 4253SOL     OW24217   2.239   4.620   8.644 -0.2001  0.1992  0.1997
 4253SOL    HW124218   2.179   4.555   8.608  0.4845 -0.3937  0.1405
 4253SOL    HW224219   2.168   4.676   8.677 -0.9520 -1.3413  1.2128
 4254SOL     OW24220   2.536   1.370   7.137 -0.4343 -0.1104 -0.2788
 4254SOL    HW124221   2.590   1.430   7.085  0.2499 -0.2999  0.2128
 4254SOL    HW224222   2.456   1.423   7.139  0.9558  2.0505 -1.2570
 4255SOL     OW24223   1.384   4.705   6.144  0.4562 -0.6268 -0.7793
 4255SOL    HW124224   1.300   4.678   6.106 -0.2976  2.3083 -1.1493
 4255SOL    HW224225   1.442   4.638   6.106 -1.3215 -1.4115 -2.0868
 4256SOL     OW24226   0.544   1.575   1.152  0.3818  0.1883 -0.3345
 4256SOL    HW124227   0.591   1.494   1.172 -0.1270 -0.0870 -0.2405
 4256SOL    HW224228   0.617   1.634   1.165  0.2234  0.5729 -1.1979
 4257SOL     OW24229   0.650   4.278   5.282 -0.0336  0.0886 -0.1516
 4257SOL    HW124230   0.592   4.210   5.315 -0.0212  0.0202 -0.2706
 4257SOL    HW224231   0.654   4.273   5.186 -0.0913  2.0110 -0.2633
 4258SOL     OW24232   2.350   0.931   7.067  0.8437 -0.1932  1.0565
 4258SOL    HW124233   2.376   0.967   6.982 -0.8886  0.2284  0.6947
 4258SOL    HW224234   2.294   0.998   7.107  0.5903 -0.5865  1.3571
 4259SOL     OW24235   0.161   0.985  11.795 -0.3265  0.2657  0.0782
 4259SOL    HW124236   0.135   0.904  11.840  0.8731 -0.3106 -0.2790
 4259SOL    HW224237   0.223   0.957  11.728 -1.1212  0.6600 -0.8173
 4260SOL     OW24238   0.117   2.616   7.814 -0.0931 -0.1502 -0.1572
 4260SOL    HW124239   0.049   2.580   7.871 -1.2673  2.1615 -0.1016
 4260SOL    HW224240   0.114   2.712   7.816 -1.9622 -0.2142 -0.1050
 4261SOL     OW24241   2.688   3.893   7.940 -0.3829  0.0777 -0.0949
 4261SOL    HW124242   2.629   3.958   7.901 -0.9169 -0.8283 -0.7941
 4261SOL    HW224243   2.760   3.950   7.967 -1.4929  1.8419 -0.8648
 4262SOL     OW24244   1.133   2.302  14.599 -0.2127  0.7883  0.5628
 4262SOL    HW124245   1.057   2.301  14.656 -1.3124  2.0637 -0.8839
 4262SOL    HW224246   1.083   2.351  14.534  0.1283 -0.0159 -0.3119
 4263SOL     OW24247   3.250   4.455   6.741 -0.0672  0.0280 -0.4875
 4263SOL    HW124248   3.336   4.491   6.718 -0.9399  1.6711 -1.1594
 4263SOL    HW224249   3.234   4.500   6.824  0.8819  2.5348 -1.6530
 4264SOL     OW24250   1.005   2.940  15.000  0.5907  0.8111  0.2336
 4264SOL    HW124251   1.084   2.960  14.950  0.6949  1.3836  0.6273
 4264SOL    HW224252   0.993   2.847  14.982  0.9662  0.8133 -0.0335
 4265SOL     OW24253   0.629   1.941   2.651  0.5919 -0.3479  0.4661
 4265SOL    HW124254   0.694   1.898   2.596  0.4367 -0.4097  0.3303
 4265SOL    HW224255   0.549   1.930   2.600  2.1670 -0.2080 -2.0090
 4266SOL     OW24256   1.055   3.299   7.014  0.5035  0.1828  0.4946
 4266SOL    HW124257   0.979   3.335   7.060 -0.1551 -0.4565 -0.0893
 4266SOL    HW224258   1.019   3.234   6.954  1.4455 -0.8311  1.0331
 4267SOL     OW24259   4.718   2.250   2.845 -0.4319 -0.4612  0.0934
 4267SOL    HW124260   0.035   2.256   2.757 -0.8336 -0.6948 -0.0954
 4267SOL    HW224261   4.626   2.250   2.820 -0.0974 -2.4741 -1.2191
 4268SOL     OW24262   3.801   0.601   2.929 -0.3622  0.1055  0.6264
 4268SOL    HW124263   3.812   0.686   2.971  1.4582  0.3229 -0.2892
 4268SOL    HW224264   3.726   0.573   2.982 -1.7179  0.8854 -0.8472
 4269SOL     OW24265   4.356   2.376  17.406 -0.4242  0.5444 -0.6613
 4269SOL    HW124266   4.280   2.420  17.444  0.0186  0.4363  0.3446
 4269SOL    HW224267   4.430   2.417  17.451 -1.0861 -0.6489  1.5143
 4270SOL     OW24268   3.360   1.488   1.390  0.1501  0.3198  0.4058
 4270SOL    HW124269   3.326   1.515   1.304 -1.1412 -0.3059  0.7131
 4270SOL    HW224270   3.441   1.443   1.366 -0.8349 -0.4826 -1.4779
 4271SOL     OW24271   2.749   0.866   7.487  0.0257  0.0273  0.3518
 4271SOL    HW124272   2.777   0.830   7.403  0.7734  3.1820 -0.7262
 4271SOL    HW224273   2.786   0.797   7.543 -0.2774  0.9858  1.7350
 4272SOL     OW24274   4.355   3.082   6.180  0.0205 -0.3276 -0.5069
 4272SOL    HW124275   4.379   3.034   6.259 -0.7948  1.0158  0.5525
 4272SOL    HW224276   4.392   3.170   6.192 -0.2060  0.0525 -2.6417
 4273SOL     OW24277   3.077   3.131  15.341 -0.1191 -0.1627  0.1838
 4273SOL    HW124278   3.117   3.212  15.310 -0.0531 -0.8163 -1.4666
 4273SOL    HW224279   3.033   3.160  15.420  0.7016  0.1022  0.5433
 4274SOL     OW24280   0.571   4.547  10.768 -0.2522 -0.2062  0.4467
 4274SOL    HW124281   0.555   4.641  10.760  3.2633  0.3558  0.3755
 4274SOL    HW224282   0.489   4.512  10.805  1.0241  1.3097  4.6961
 4275SOL     OW24283   0.714   2.750  17.352  0.0793  0.0513 -0.2318
 4275SOL    HW124284   0.632   2.725  17.309  0.2450 -0.2382 -0.3836
 4275SOL    HW224285   0.778   2.721  17.287  1.1529 -0.4396  1.0579
 4276SOL     OW24286   3.566   0.198   5.578 -0.6099  0.0221  0.4717
 4276SOL    HW124287   3.661   0.198   5.587 -0.4057  0.9910 -1.9337
 4276SOL    HW224288   3.561   0.197   5.483  1.1122 -0.2075  0.3765
 4277SOL     OW24289   3.387   0.145   3.527 -0.0908  0.1629  0.4653
 4277SOL    HW124290   3.387   0.064   3.476  0.1331 -0.5499  1.6076
 4277SOL    HW224291   3.337   0.111   3.601 -1.1699 -1.5051 -1.0328
 4278SOL     OW24292   4.191   2.656   3.849  0.2980  0.0119 -0.3624
 4278SOL    HW124293   4.220   2.566   3.838  0.2151 -0.1513  0.7260
 4278SOL    HW224294   4.269   2.701   3.883  1.8215 -4.2558  1.7672
 4279SOL     OW24295   2.809   1.861   2.288 -0.4081 -0.0397 -0.0605
 4279SOL    HW124296   2.789   1.790   2.227 -3.1806  0.2205  0.5793
 4279SOL    HW224297   2.885   1.831   2.339 -3.7478 -1.1956  4.1359
 4280SOL     OW24298   0.335   3.216   8.615  0.6495 -0.3535  0.6390
 4280SOL    HW124299   0.322   3.303   8.653  1.0060 -0.3553  0.7572
 4280SOL    HW224300   0.370   3.239   8.529 -3.3037  2.8835 -0.1346
 4281SOL     OW24301   3.556   3.861   4.045 -0.6027  0.4334 -0.5793
 4281SOL    HW124302   3.493   3.863   4.116  0.0539 -1.4444  0.0360
 4281SOL    HW224303   3.639   3.878   4.089  0.5888  0.9974 -3.0242
 4282SOL     OW24304   4.247   0.190   5.414  0.1738  0.7196  0.6264
 4282SOL    HW124305   4.339   0.218   5.407  0.8156 -1.0496  2.3102
 4282SOL    HW224306   4.254   0.141   5.496  0.9355 -2.2286 -1.2025
 4283SOL     OW24307   3.565   0.728   3.611 -0.8567  0.1600  0.1100
 4283SOL    HW124308   3.642   0.700   3.659 -0.1289  0.7207 -0.7231
 4283SOL    HW224309   3.504   0.655   3.625 -0.1127 -0.6719 -0.9747
 4284SOL     OW24310   0.392   0.252   4.871 -0.0781 -0.0869 -0.1749
 4284SOL    HW124311   0.402   0.214   4.958  1.1059 -0.3492 -0.4335
 4284SOL    HW224312   0.373   0.180   4.811 -0.4271  2.0147 -2.6109
 4285SOL     OW24313   1.385   4.423   8.364  0.0425 -0.0886 -0.0905
 4285SOL    HW124314   1.476   4.424   8.394 -0.2519  0.3786  0.7856
 4285SOL    HW224315   1.366   4.330   8.372 -0.7398 -0.1811 -2.8815
 4286SOL     OW24316   3.643   0.641   6.164  0.0578 -0.1412  0.2009
 4286SOL    HW124317   3.581   0.704   6.202  0.0846  0.4821 -0.7932
 4286SOL    HW224318   3.657   0.683   6.080  1.7204 -0.2535  0.4318
 4287SOL     OW24319   1.082   4.676  10.600 -0.0385  0.2349  0.0273
 4287SOL    HW124320   1.016   4.627  10.649 -1.5291  1.3654 -0.8594
 4287SOL    HW224321   1.131   4.600  10.570  1.9000  0.8607  1.6110
 4288SOL     OW24322   2.832   3.792  15.109  0.5914 -0.4261 -0.2583
 4288SOL    HW124323   2.857   3.829  15.025  1.9958  1.1302  0.8450
 4288SOL    HW224324   2.859   3.863  15.167  0.8234 -0.1182 -0.7447
 4289SOL     OW24325   3.647   4.297   9.645  0.4399 -0.2042  0.3824
 4289SOL    HW124326   3.576   4.351   9.610  0.7770 -0.4703 -0.7213
 4289SOL    HW224327   3.663   4.353   9.720  0.2994 -0.8445  0.8867
 4290SOL     OW24328   1.535   0.925  14.166  0.3795  0.0176 -0.1091
 4290SOL    HW124329   1.464   0.862  14.149 -2.4754  3.4979 -1.1272
 4290SOL    HW224330   1.485   1.004  14.187  1.1715  0.6179 -0.4899
 4291SOL     OW24331   4.684   3.161   6.612  0.0759  1.1295  0.3424
 4291SOL    HW124332   4.666   3.217   6.537 -0.0910  2.2876  1.2446
 4291SOL    HW224333   0.047   3.118   6.597  0.5685  2.0050  0.6128
 4292SOL     OW24334   0.823   1.816   9.073  0.6716 -0.3578 -0.3161
 4292SOL    HW124335   0.911   1.780   9.061  0.0109 -1.9192 -0.4011
 4292SOL    HW224336   0.762   1.744   9.056 -0.5046  0.5882 -0.1180
 4293SOL     OW24337   3.530   1.316  17.590  0.4178 -0.0335  0.0265
 4293SOL    HW124338   3.516   1.223  17.575  0.1203  0.2461 -1.4096
 4293SOL    HW224339   3.625   1.318  17.599  0.1627  2.9929  1.9047
 4294SOL     OW24340   1.121   1.224  10.523 -0.3937 -0.4583  0.1079
 4294SOL    HW124341   1.100   1.232  10.430  0.5429  2.3282  0.1313
 4294SOL    HW224342   1.033   1.238  10.558 -1.3392 -1.5985 -1.7642
 4295SOL     OW24343   2.906   2.978  15.201 -0.1512 -0.1700  0.3761
 4295SOL    HW124344   2.964   3.036  15.250  2.5377 -1.7669 -0.8638
 4295SOL    HW224345   2.968   2.936  15.140  1.5100  1.5449  0.8722
 4296SOL     OW24346   1.064   4.483   8.562 -0.0089  0.1870  0.7043
 4296SOL    HW124347   1.062   4.446   8.650  1.7756 -1.0187  0.2661
 4296SOL    HW224348   1.153   4.519   8.565 -1.2897  3.4595 -0.6147
 4297SOL     OW24349   2.851   1.931   8.328  0.1149  0.2886 -0.5729
 4297SOL    HW124350   2.839   1.910   8.421  0.6672  2.9563  0.1104
 4297SOL    HW224351   2.912   1.860   8.311 -0.9059 -0.4517 -1.1341
 4298SOL     OW24352   3.474   3.330   9.308 -0.6154  0.1438 -0.3716
 4298SOL    HW124353   3.415   3.370   9.244 -1.1874  0.3780  0.2984
 4298SOL    HW224354   3.485   3.397   9.375 -0.1351 -1.2485  0.9463
 4299SOL     OW24355   0.726   0.144   3.443 -0.1038 -0.1800  0.2111
 4299SOL    HW124356   0.710   0.063   3.490  0.4735 -0.9733 -0.9500
 4299SOL    HW224357   0.721   0.110   3.354  1.3130  0.0552  0.0367
 4300SOL     OW24358   2.607   1.402   7.510 -0.5198  0.1230 -0.2321
 4300SOL    HW124359   2.662   1.343   7.458 -0.3616 -0.2683  0.3827
 4300SOL    HW224360   2.576   1.472   7.453 -0.1344  0.3878 -0.1133
 4301SOL     OW24361   1.001   1.770   3.604 -0.4346 -0.1273  0.2093
 4301SOL    HW124362   1.076   1.828   3.615 -0.7549  1.1679 -4.3690
 4301SOL    HW224363   1.017   1.709   3.675 -1.3850 -0.5767  0.0417
 4302SOL     OW24364   0.586   4.440  13.576  0.1509 -0.0106 -0.5185
 4302SOL    HW124365   0.628   4.394  13.649 -1.9335 -0.5003  0.3651
 4302SOL    HW224366   0.590   4.535  13.591 -1.3243  0.5629 -3.7457
 4303SOL     OW24367   3.114   2.091  13.459  0.0145 -0.1480  0.3544
 4303SOL    HW124368   3.201   2.052  13.469 -0.1094 -0.1742  1.2613
 4303SOL    HW224369   3.126   2.135  13.374  0.0492 -0.5042  0.1754
 4304SOL     OW24370   3.920   2.663   3.877  0.3567  0.1430  0.3420
 4304SOL    HW124371   4.015   2.658   3.867  0.1996  1.6461 -1.9960
 4304SOL    HW224372   3.900   2.570   3.887  1.0525 -0.4131 -3.2412
 4305SOL     OW24373   3.837   2.028   6.007 -0.0934 -0.5090 -1.1876
 4305SOL    HW124374   3.746   2.000   5.994 -0.0871 -1.2170  0.2706
 4305SOL    HW224375   3.824   2.073   6.090 -2.0230  0.1917 -1.8616
 4306SOL     OW24376   0.302   2.187   1.519  0.8992  0.6597  0.7234
 4306SOL    HW124377   0.303   2.161   1.427  0.3721  2.6058  0.1699
 4306SOL    HW224378   0.394   2.187   1.546  0.3991  2.6090  2.4221
 4307SOL     OW24379   2.294   0.876   1.437 -0.2054  0.0449 -0.0062
 4307SOL    HW124380   2.240   0.868   1.516  1.6048  0.9503  1.3280
 4307SOL    HW224381   2.361   0.933   1.475 -0.1928  0.5316 -0.7644
 4308SOL     OW24382   1.651   2.491   1.885  0.0698  0.9110  0.6043
 4308SOL    HW124383   1.704   2.558   1.844  1.4905  1.0127  2.6402
 4308SOL    HW224384   1.591   2.539   1.942 -3.1454 -0.0498 -1.9430
 4309SOL     OW24385   3.111   3.393   7.360 -0.4398 -0.2856 -0.4575
 4309SOL    HW124386   3.074   3.378   7.272  0.0396  1.6920 -0.9924
 4309SOL    HW224387   3.109   3.488   7.357 -1.4782 -0.3081 -0.5334
 4310SOL     OW24388   2.595   1.978  16.728  0.7729 -0.1170  0.2894
 4310SOL    HW124389   2.637   2.010  16.648 -2.1246 -1.2724 -1.6948
 4310SOL    HW224390   2.504   1.974  16.697  1.5168  0.2898 -1.9333
 4311SOL     OW24391   1.997   3.583   6.689 -0.1293  0.0787 -0.1949
 4311SOL    HW124392   1.980   3.614   6.600 -2.4094  1.9823  0.8694
 4311SOL    HW224393   2.021   3.492   6.673 -2.2552 -0.7790  1.4797
 4312SOL     OW24394   0.146   1.935  12.894 -0.0230  0.1815  0.5699
 4312SOL    HW124395   0.234   1.966  12.874 -0.6892  1.6186 -0.1144
 4312SOL    HW224396   0.128   1.880  12.818  0.5448  1.3162 -0.3894
 4313SOL     OW24397   2.485   3.889   2.122  0.3285 -0.9092 -0.6800
 4313SOL    HW124398   2.552   3.850   2.179  0.2625  0.2085  0.1627
 4313SOL    HW224399   2.488   3.828   2.049 -0.1348  2.2870 -3.3826
 4314SOL     OW24400   0.593   1.675   8.560 -0.5564  0.6800 -0.1443
 4314SOL    HW124401   0.509   1.684   8.515 -1.3093 -0.6276  0.9866
 4314SOL    HW224402   0.569   1.598   8.613  1.4617 -0.4298 -0.8455
 4315SOL     OW24403   4.431   0.497   5.889 -0.1953  0.3458  0.9549
 4315SOL    HW124404   4.380   0.417   5.874 -1.4073  1.0351  1.3670
 4315SOL    HW224405   4.414   0.538   5.804  0.5401 -0.7986  0.2569
 4316SOL     OW24406   1.945   2.057   9.549 -0.4169  0.4903  0.3706
 4316SOL    HW124407   1.867   2.112   9.558 -1.2455 -0.6526  0.1019
 4316SOL    HW224408   2.005   2.117   9.505 -0.8314  0.5337 -0.1302
 4317SOL     OW24409   4.131   3.152   8.270  0.5877  0.5820 -0.3490
 4317SOL    HW124410   4.143   3.077   8.212 -0.1986 -0.7615  1.2351
 4317SOL    HW224411   4.067   3.115   8.330  3.2664  0.5459  2.4922
 4318SOL     OW24412   4.242   4.544   8.315  0.3750 -0.3836  0.1330
 4318SOL    HW124413   4.302   4.526   8.242 -1.1177  1.0220 -1.4494
 4318SOL    HW224414   4.204   4.457   8.328  0.7847 -0.4418  0.9243
 4319SOL     OW24415   2.615   4.204   6.817 -0.0207  0.0325 -0.4753
 4319SOL    HW124416   2.620   4.250   6.901 -1.6789  1.0361 -0.9307
 4319SOL    HW224417   2.531   4.240   6.788 -0.8069  1.1868  3.1224
 4320SOL     OW24418   1.965   4.520   0.541  0.1500 -0.8699 -0.4940
 4320SOL    HW124419   2.049   4.488   0.507 -1.1885 -1.4915 -3.1733
 4320SOL    HW224420   1.951   4.449   0.604 -2.0996  1.6711  1.8512
 4321SOL     OW24421   0.441   2.348   2.416  0.3579  0.3723  0.5393
 4321SOL    HW124422   0.515   2.369   2.359  1.6784 -0.6280  1.8704
 4321SOL    HW224423   0.481   2.271   2.458 -1.0185 -0.7192 -0.1622
 4322SOL     OW24424   3.574   0.397   8.110  0.3196  0.3672  0.3081
 4322SOL    HW124425   3.527   0.420   8.191 -2.0792 -1.5242 -0.5461
 4322SOL    HW224426   3.665   0.390   8.137  0.3315  3.1292  1.0382
 4323SOL     OW24427   2.200   0.368  10.450  0.0424  0.4453 -0.0475
 4323SOL    HW124428   2.274   0.311  10.428 -0.6064 -0.1140 -0.7995
 4323SOL    HW224429   2.188   0.407  10.363  0.7089 -0.6020 -0.6175
 4324SOL     OW24430   1.236   3.020   4.766  0.7603 -1.1741 -0.1830
 4324SOL    HW124431   1.182   2.953   4.807  0.6222 -2.0192 -1.7321
 4324SOL    HW224432   1.190   3.098   4.796  1.3896 -1.1730  0.7602
 4325SOL     OW24433   2.330   0.851  11.324 -0.7547 -0.4289  0.1424
 4325SOL    HW124434   2.307   0.818  11.237 -1.3618  1.3284 -0.3663
 4325SOL    HW224435   2.413   0.895  11.310 -0.8262 -0.1707  0.5283
 4326SOL     OW24436   3.060   4.317   8.488 -0.3205  0.5033  0.1109
 4326SOL    HW124437   3.107   4.302   8.570 -1.8911  0.9777  1.1017
 4326SOL    HW224438   3.106   4.264   8.423  1.7971  1.0396  1.1981
 4327SOL     OW24439   1.652   1.433   7.335 -0.3468 -0.6723  0.3024
 4327SOL    HW124440   1.560   1.407   7.330 -0.7961  1.3993 -2.6103
 4327SOL    HW224441   1.651   1.481   7.417 -2.8872 -0.2571  0.0332
 4328SOL     OW24442   3.941   1.591   3.428  0.3433 -0.5048  0.3758
 4328SOL    HW124443   3.948   1.682   3.456  1.0072 -0.1991 -0.7820
 4328SOL    HW224444   3.956   1.541   3.508 -0.4769  1.9596  2.0525
 4329SOL     OW24445   1.323   0.085  15.875 -0.2102  0.0441  0.0252
 4329SOL    HW124446   1.286   0.115  15.958  1.4808 -0.6684  1.0272
 4329SOL    HW224447   1.319   4.711  15.885 -0.2254 -0.1660 -2.0496
 4330SOL     OW24448   2.549   1.108   2.871 -0.8068 -0.1968  0.2563
 4330SOL    HW124449   2.480   1.061   2.825 -0.1404 -1.5081  0.6007
 4330SOL    HW224450   2.520   1.199   2.861  0.9577  0.3139 -0.3370
 4331SOL     OW24451   1.250   3.865   1.434  0.5626 -0.4199  0.2508
 4331SOL    HW124452   1.315   3.850   1.502  0.6070 -2.4220 -0.2224
 4331SOL    HW224453   1.173   3.893   1.484  0.4029 -1.2721  0.4891
 4332SOL     OW24454   3.429   0.701  16.861 -0.0564  0.5905 -1.1204
 4332SOL    HW124455   3.437   0.796  16.854  2.0699  0.4933 -0.2202
 4332SOL    HW224456   3.361   0.690  16.795 -0.7428  0.1397 -0.3312
 4333SOL     OW24457   1.143   3.369   6.054 -0.6438 -0.4555 -0.2414
 4333SOL    HW124458   1.189   3.352   5.972  0.9836 -2.0282  1.0056
 4333SOL    HW224459   1.156   3.285   6.098 -3.1438 -1.4907 -1.4951
 4334SOL     OW24460   2.228   4.048   3.648 -0.1427 -0.3344 -0.3535
 4334SOL    HW124461   2.169   4.098   3.591 -0.1430  0.2849  0.1912
 4334SOL    HW224462   2.296   4.115   3.640 -0.5940  0.1476 -0.1765
 4335SOL     OW24463   4.318   0.433   3.760  0.0859  0.4145 -0.1161
 4335SOL    HW124464   4.319   0.527   3.774 -2.7905  0.6797 -1.7222
 4335SOL    HW224465   4.254   0.389   3.817 -2.1053  1.7455 -1.5892
 4336SOL     OW24466   4.684   2.687  15.651  0.1653  0.0274 -0.0060
 4336SOL    HW124467   4.632   2.608  15.672 -0.7229 -0.1343 -2.8329
 4336SOL    HW224468   4.686   2.729  15.737 -1.8800 -0.3913  0.2550
 4337SOL     OW24469   3.773   1.650  13.135 -0.1785  0.1422  0.3337
 4337SOL    HW124470   3.809   1.724  13.184 -1.2514  0.3437  0.8166
 4337SOL    HW224471   3.716   1.615  13.203 -1.7593  1.1548 -0.4761
 4338SOL     OW24472   2.612   0.318   2.365 -0.1904 -0.1885  0.0873
 4338SOL    HW124473   2.674   0.269   2.419 -0.5546  0.4816  1.1281
 4338SOL    HW224474   2.659   0.341   2.285  0.5619 -0.8618  0.3397
 4339SOL     OW24475   1.350   1.091   4.457  0.1791  0.0479  0.0997
 4339SOL    HW124476   1.292   1.090   4.533  0.5784 -0.2406  0.4044
 4339SOL    HW224477   1.404   1.169   4.469  0.3731 -0.0449 -0.1684
 4340SOL     OW24478   3.043   3.375   4.992  0.2583  0.9883 -0.0357
 4340SOL    HW124479   3.093   3.432   4.934 -0.7915  1.3984 -0.5452
 4340SOL    HW224480   3.042   3.427   5.072 -1.4141  1.6643 -0.4802
 4341SOL     OW24481   0.944   1.331   1.473  0.1486 -0.1459  0.5432
 4341SOL    HW124482   1.015   1.285   1.428  1.1110  0.3802  1.5256
 4341SOL    HW224483   0.975   1.421   1.475  0.3212 -0.1789 -0.6771
 4342SOL     OW24484   2.139   0.044   9.802  0.3224  0.1238 -0.2604
 4342SOL    HW124485   2.057   0.086   9.828  1.2749  1.1716  1.0002
 4342SOL    HW224486   2.115   0.044   9.709 -1.3617 -0.8975  0.1689
 4343SOL     OW24487   4.189   2.161   8.334 -0.0129 -0.0865 -0.4811
 4343SOL    HW124488   4.111   2.201   8.373 -0.5049  0.0771 -1.6081
 4343SOL    HW224489   4.143   2.107   8.269 -0.3422 -0.0741 -0.2586
 4344SOL     OW24490   3.277   2.113   1.384 -0.5628  0.9694  0.0458
 4344SOL    HW124491   3.237   2.194   1.352  3.8341  2.5148 -1.4723
 4344SOL    HW224492   3.214   2.101   1.456 -0.8184 -2.0236 -0.6631
 4345SOL     OW24493   1.874   1.176   0.760  0.3671  0.0496 -0.6791
 4345SOL    HW124494   1.902   1.265   0.780 -2.2724  0.7504 -0.1180
 4345SOL    HW224495   1.829   1.200   0.679 -2.3074 -0.7088  0.5728
 4346SOL     OW24496   2.582   0.205  11.111  0.2580 -0.0893  0.8058
 4346SOL    HW124497   2.556   0.262  11.038  1.8443 -0.5313 -0.1132
 4346SOL    HW224498   2.665   0.168  11.079  0.2504 -0.2194  0.9386
 4347SOL     OW24499   2.312   3.850   3.396 -0.0992  0.0105  0.1380
 4347SOL    HW124500   2.308   3.877   3.305  0.5549 -0.6531 -0.0842
 4347SOL    HW224501   2.237   3.900   3.430  0.6551 -0.2000  2.0945
 4348SOL     OW24502   1.897   3.605   7.677 -0.9265  0.0096 -0.6764
 4348SOL    HW124503   1.838   3.658   7.732  1.2124  0.0050  1.6204
 4348SOL    HW224504   1.934   3.548   7.744 -1.0604  0.5442 -0.1463
 4349SOL     OW24505   0.635   0.043  13.818  0.9352  0.3557  0.0733
 4349SOL    HW124506   0.593   4.683  13.847 -1.2890  1.4144 -0.1295
 4349SOL    HW224507   0.707   0.049  13.880  1.3119 -0.9106 -0.2331
 4350SOL     OW24508   1.253   4.574  13.983 -0.0479  0.0314 -0.3995
 4350SOL    HW124509   1.202   4.628  13.923 -0.9259 -0.2487  0.0952
 4350SOL    HW224510   1.295   4.635  14.043 -0.9030 -1.4651  1.7162
 4351SOL     OW24511   2.348   1.180  15.314 -0.1084 -0.2962 -0.2683
 4351SOL    HW124512   2.346   1.166  15.219  0.8151  0.5408 -0.4132
 4351SOL    HW224513   2.289   1.253  15.335 -1.1667 -1.2702  0.1401
 4352SOL     OW24514   1.417   0.265   3.573 -0.1660 -0.9869 -0.2240
 4352SOL    HW124515   1.383   0.345   3.614  0.7707 -0.0599 -1.3032
 4352SOL    HW224516   1.341   0.256   3.515 -2.1403 -1.1990  2.3701
 4353SOL     OW24517   1.023   3.751   5.964  0.0499 -0.2026 -0.4610
 4353SOL    HW124518   1.086   3.680   5.976  0.3630  0.2024  0.2977
 4353SOL    HW224519   0.948   3.710   5.921  0.8492 -1.9584 -0.1529
 4354SOL     OW24520   0.621   1.483  13.397 -0.0169  0.8251  0.1105
 4354SOL    HW124521   0.662   1.466  13.482 -0.7325 -0.3114  0.2300
 4354SOL    HW224522   0.578   1.397  13.397  1.8707 -0.1153 -1.2907
 4355SOL     OW24523   4.009   2.885   3.072 -0.5904 -0.1758 -0.1716
 4355SOL    HW124524   4.023   2.960   3.130 -1.3245  0.3467 -0.6643
 4355SOL    HW224525   3.992   2.921   2.985 -0.3933 -1.7891 -0.8784
 4356SOL     OW24526   1.613   2.137   6.888  0.2596  0.6727  0.2720
 4356SOL    HW124527   1.658   2.173   6.964  1.0924  0.0499  0.0748
 4356SOL    HW224528   1.659   2.054   6.875 -0.4062  0.6582 -2.1651
 4357SOL     OW24529   0.226   2.185   3.677  0.6653 -0.4173 -0.4752
 4357SOL    HW124530   0.229   2.225   3.590  1.3915 -0.7574 -0.6075
 4357SOL    HW224531   0.312   2.221   3.701  1.2955 -3.8882  2.4501
 4358SOL     OW24532   0.807   4.129  10.710 -0.4006 -1.1766 -0.1099
 4358SOL    HW124533   0.837   4.185  10.781  0.1130  0.1879 -1.4079
 4358SOL    HW224534   0.823   4.189  10.637  0.6224 -1.6330 -0.2542
 4359SOL     OW24535   2.490   1.344  16.522  0.3369 -0.6059 -0.5245
 4359SOL    HW124536   2.541   1.274  16.481 -0.3174 -1.7317  0.5763
 4359SOL    HW224537   2.476   1.408  16.452  3.6065  1.8533  1.0531
 4360SOL     OW24538   0.412   3.717  17.645 -0.0283 -0.2106  0.1822
 4360SOL    HW124539   0.326   3.702  17.604  0.1587 -0.3925 -0.1408
 4360SOL    HW224540   0.467   3.747  17.573 -1.6635 -0.3015 -1.1034
 4361SOL     OW24541   3.276   0.515   6.314  0.2189 -0.0715  0.0585
 4361SOL    HW124542   3.273   0.479   6.403 -0.5780 -0.6379 -0.2002
 4361SOL    HW224543   3.349   0.574   6.334  0.6535 -0.2197 -1.1222
 4362SOL     OW24544   0.946   1.924   3.228 -0.0460  0.0495  0.3266
 4362SOL    HW124545   0.924   1.960   3.314 -0.6519 -1.9973  1.0383
 4362SOL    HW224546   0.866   1.945   3.179  0.5954 -0.9207 -1.1396
 4363SOL     OW24547   4.045   3.290  13.463 -0.0013 -0.1076  0.4545
 4363SOL    HW124548   3.985   3.220  13.488  1.5097 -1.9316 -1.0163
 4363SOL    HW224549   4.120   3.258  13.513 -0.3222 -2.1591 -0.4230
 4364SOL     OW24550   0.127   2.434  10.722  0.6239 -0.7677  0.0012
 4364SOL    HW124551   0.148   2.449  10.814 -1.1065  0.4890  0.1757
 4364SOL    HW224552   0.032   2.433  10.734  0.4678 -1.2868 -1.2677
 4365SOL     OW24553   2.597   3.874   3.448  0.2192  0.0800 -0.3955
 4365SOL    HW124554   2.507   3.875   3.417  0.6297 -1.4674 -1.6498
 4365SOL    HW224555   2.576   3.824   3.527  0.3836 -0.8977 -0.9672
 4366SOL     OW24556   1.478   1.055   7.088 -0.1008 -0.0001  0.1221
 4366SOL    HW124557   1.529   0.974   7.087  0.6365  0.4916 -1.2014
 4366SOL    HW224558   1.543   1.124   7.080  0.3125 -0.3342  0.5954
 4367SOL     OW24559   3.602   1.585   7.920 -0.3674  0.4660 -0.2130
 4367SOL    HW124560   3.560   1.555   8.000 -2.3298 -1.0330 -1.8125
 4367SOL    HW224561   3.529   1.575   7.859  1.6774  0.3790 -2.6715
 4368SOL     OW24562   3.435   3.661  11.764  0.0734  0.1102  0.2880
 4368SOL    HW124563   3.469   3.575  11.788 -1.6914 -1.2599 -2.1593
 4368SOL    HW224564   3.513   3.716  11.754  0.3493 -0.1939  0.7387
 4369SOL     OW24565   2.056   2.349   0.923 -0.2992 -0.2431  0.0483
 4369SOL    HW124566   1.972   2.393   0.941  0.2371  0.8443 -0.0942
 4369SOL    HW224567   2.036   2.257   0.939 -0.5662 -0.3197 -0.6892
 4370SOL     OW24568   0.016   1.202   7.340 -0.4843  0.1493 -0.3702
 4370SOL    HW124569   0.058   1.281   7.375 -0.4878  0.5826 -1.3484
 4370SOL    HW224570   0.094   1.147   7.345  0.0133  0.9833  1.0607
 4371SOL     OW24571   1.411   3.221   3.377 -0.3743 -0.2676 -0.1257
 4371SOL    HW124572   1.361   3.201   3.457  2.1924 -0.2211  1.4890
 4371SOL    HW224573   1.415   3.316   3.389  0.4743 -0.4389  0.9326
 4372SOL     OW24574   3.072   3.809   3.529  0.5669  0.6038  0.1207
 4372SOL    HW124575   3.021   3.885   3.502  1.2998  1.6537  1.7097
 4372SOL    HW224576   2.998   3.749   3.531  1.0156  0.0867  0.8320
 4373SOL     OW24577   0.820   3.252   1.539  0.0267  0.4839 -0.7889
 4373SOL    HW124578   0.818   3.244   1.635 -0.4877 -2.4933 -1.0574
 4373SOL    HW224579   0.914   3.265   1.527  0.3981 -0.8060  0.6994
 4374SOL     OW24580   3.035   4.190  16.102 -0.1414  0.3828 -0.7078
 4374SOL    HW124581   3.010   4.280  16.120 -3.2195 -0.7093  0.4769
 4374SOL    HW224582   3.108   4.176  16.162 -1.4631 -3.6767 -0.0465
 4375SOL     OW24583   0.853   1.908  15.357 -0.1161 -0.1168 -0.3965
 4375SOL    HW124584   0.852   1.942  15.267  1.5527 -1.1173 -0.7889
 4375SOL    HW224585   0.866   1.993  15.398  1.3490  0.2318 -1.5709
 4376SOL     OW24586   2.613   0.209   5.390  0.0517  0.0964 -0.1108
 4376SOL    HW124587   2.641   0.300   5.381  2.3957 -0.5555  0.4988
 4376SOL    HW224588   2.686   0.171   5.439 -1.2858 -0.5451  1.3813
 4377SOL     OW24589   0.710   3.495   2.040 -0.3232  0.1799  0.3037
 4377SOL    HW124590   0.666   3.511   2.123 -0.2131 -0.3650  0.4669
 4377SOL    HW224591   0.626   3.494   1.994 -0.0923 -0.1062 -0.1170
 4378SOL     OW24592   3.231   3.750   9.221  0.1115 -0.5023  0.6693
 4378SOL    HW124593   3.180   3.827   9.247  1.5459  0.4465  0.6914
 4378SOL    HW224594   3.307   3.761   9.278  1.2692  0.5374 -1.0617
 4379SOL     OW24595   0.085   2.536   6.070  0.5382 -0.2814  0.2913
 4379SOL    HW124596   0.149   2.530   5.999 -1.0328  2.6333 -1.3943
 4379SOL    HW224597   0.002   2.570   6.036  1.4891  2.3569  0.6357
 4380SOL     OW24598   4.406   3.417   1.170 -0.2425  0.0304 -0.5494
 4380SOL    HW124599   4.448   3.465   1.099  2.3712 -0.1421  0.9076
 4380SOL    HW224600   4.315   3.448   1.164 -0.0993  0.8449  1.3850
 4381SOL     OW24601   1.472   3.121  10.125  1.3609 -0.4323  0.5700
 4381SOL    HW124602   1.553   3.162  10.154  2.8693 -0.9904 -2.8809
 4381SOL    HW224603   1.416   3.198  10.133  0.4384 -0.8595 -1.5278
 4382SOL     OW24604   2.720   0.619  10.977  0.1195 -0.3448  0.0229
 4382SOL    HW124605   2.730   0.550  11.043  3.2917  1.1871  1.0950
 4382SOL    HW224606   2.625   0.617  10.959 -0.1179 -0.5361  1.3227
 4383SOL     OW24607   1.568   0.358   5.763 -0.3634  0.5055 -0.6139
 4383SOL    HW124608   1.641   0.323   5.814  0.0996  2.0351 -0.2085
 4383SOL    HW224609   1.511   0.388   5.834  0.3715  1.9454 -0.6285
 4384SOL     OW24610   2.351   1.301   7.386 -0.1465  0.0465 -0.3702
 4384SOL    HW124611   2.445   1.288   7.376 -0.0602  0.5719 -0.2728
 4384SOL    HW224612   2.348   1.382   7.437  1.1902 -1.3621  1.9417
 4385SOL     OW24613   3.675   3.110  14.457 -0.4903  0.2862  0.2808
 4385SOL    HW124614   3.756   3.148  14.424 -1.7355  1.9448 -0.8252
 4385SOL    HW224615   3.684   3.147  14.545  1.3795 -1.6082  0.9006
 4386SOL     OW24616   2.144   3.148   5.778  0.2732  0.2331 -0.0509
 4386SOL    HW124617   2.235   3.118   5.791  1.6900  4.2127 -0.9221
 4386SOL    HW224618   2.114   3.061   5.751 -0.4157 -0.1039  1.8355
 4387SOL     OW24619   0.229   2.560   3.358  0.6184  0.0979 -0.0465
 4387SOL    HW124620   0.296   2.574   3.425  1.3574 -0.9648 -0.5747
 4387SOL    HW224621   0.275   2.593   3.281 -0.2658  0.4784 -0.4133
 4388SOL     OW24622   3.808   1.335  13.059 -0.1982 -0.2139 -1.3329
 4388SOL    HW124623   3.770   1.271  12.999  0.4455 -0.8498 -1.0622
 4388SOL    HW224624   3.734   1.356  13.116  0.4316  0.5503 -0.7896
 4389SOL     OW24625   4.275   2.874  11.888 -0.7060 -0.0280 -0.5034
 4389SOL    HW124626   4.315   2.921  11.814  2.3957 -0.9483  0.5978
 4389SOL    HW224627   4.346   2.811  11.899 -0.2958  0.8139  1.7004
 4390SOL     OW24628   3.482   3.068   8.131 -0.0244 -0.2131 -0.5422
 4390SOL    HW124629   3.498   3.158   8.159  2.3352 -0.4217 -1.2430
 4390SOL    HW224630   3.414   3.082   8.066 -1.6429  1.6370  1.5291
 4391SOL     OW24631   2.819   4.582   8.199  0.0378  0.1542 -0.4195
 4391SOL    HW124632   2.771   4.506   8.167  2.7931 -1.2702 -1.0983
 4391SOL    HW224633   2.860   4.540   8.275 -0.6543 -0.0107 -0.1376
 4392SOL     OW24634   4.329   3.798  15.149 -0.1093  0.3067 -0.3797
 4392SOL    HW124635   4.372   3.767  15.229 -1.4199 -2.6945 -0.8472
 4392SOL    HW224636   4.237   3.772  15.160  0.1302 -0.1540  0.5531
 4393SOL     OW24637   3.098   2.825   7.695 -0.1983 -0.0252 -0.4068
 4393SOL    HW124638   3.045   2.806   7.772  0.9566  1.3217  0.7195
 4393SOL    HW224639   3.123   2.917   7.704 -0.7058  0.0359  0.3683
 4394SOL     OW24640   2.770   0.095   5.584  0.1557 -0.0476  0.8068
 4394SOL    HW124641   2.812   0.017   5.549 -1.6091 -1.8075  2.6823
 4394SOL    HW224642   2.847   0.152   5.594  0.0194  0.0963  1.0254
 4395SOL     OW24643   1.816   2.554  12.536 -0.1837 -0.0877  0.2414
 4395SOL    HW124644   1.741   2.592  12.581 -0.6607 -3.0494  1.9369
 4395SOL    HW224645   1.883   2.622  12.528 -0.1828 -0.1511 -0.3334
 4396SOL     OW24646   3.186   3.957   1.210  0.4312  0.9150  0.0368
 4396SOL    HW124647   3.236   3.942   1.290  0.4168  1.1902  0.0981
 4396SOL    HW224648   3.166   4.051   1.210  1.9494  1.2445 -0.3031
 4397SOL     OW24649   1.504   0.436   6.523 -0.4376  0.3837 -0.4875
 4397SOL    HW124650   1.577   0.453   6.463 -0.1914  0.0241 -0.2988
 4397SOL    HW224651   1.510   0.342   6.542  1.3839  0.2155 -1.8732
 4398SOL     OW24652   1.833   1.026  10.883  0.2135 -0.4632 -0.0395
 4398SOL    HW124653   1.922   1.061  10.877  0.8143 -1.9047  0.6893
 4398SOL    HW224654   1.837   0.968  10.958  1.3410 -0.6733 -0.2703
 4399SOL     OW24655   1.726   1.747   2.900 -0.1950 -0.0523 -0.3132
 4399SOL    HW124656   1.721   1.654   2.922  0.0334 -0.0801 -0.3766
 4399SOL    HW224657   1.747   1.794   2.981  0.5646 -0.5731 -0.2103
 4400SOL     OW24658   3.075   0.290   6.692  0.0547  0.4431 -0.1474
 4400SOL    HW124659   3.093   0.274   6.784  0.0238  0.6186 -0.1111
 4400SOL    HW224660   3.010   0.227   6.660 -0.0047  0.2366  0.3874
 4401SOL     OW24661   2.662   4.606   8.865  0.2150  0.4751  0.2318
 4401SOL    HW124662   2.607   4.681   8.842 -0.6666 -0.4925 -0.8302
 4401SOL    HW224663   2.623   4.544   8.804  0.4599 -0.4569  1.0163
 4402SOL     OW24664   2.924   0.713   7.978  0.3358 -0.1910 -0.2925
 4402SOL    HW124665   2.846   0.752   7.938 -0.4164 -0.1715  1.2056
 4402SOL    HW224666   2.992   0.760   7.930  0.7391 -2.9626 -2.3727
 4403SOL     OW24667   2.257   3.028   4.346 -0.2954  0.1227 -0.2655
 4403SOL    HW124668   2.209   2.999   4.268 -0.4251  0.2537 -0.2351
 4403SOL    HW224669   2.348   3.019   4.319 -1.8028 -0.7498 -5.0081
 4404SOL     OW24670   4.462   1.113   8.309  0.0332  0.0349  0.4322
 4404SOL    HW124671   4.532   1.062   8.266 -0.0148  1.0647 -0.8461
 4404SOL    HW224672   4.455   1.057   8.387 -1.0226  3.1924  2.5925
 4405SOL     OW24673   3.965   0.827  10.659  0.1431 -0.5335 -0.0046
 4405SOL    HW124674   3.956   0.770  10.735  0.1288 -1.8170 -0.9821
 4405SOL    HW224675   3.966   0.761  10.590  0.7744 -0.0279 -0.4806
 4406SOL     OW24676   4.674   0.447   9.627  0.3982  0.2815 -0.0493
 4406SOL    HW124677   4.676   0.469   9.720  0.3961  1.2421 -0.2781
 4406SOL    HW224678   4.660   0.536   9.597  0.2183  0.0708 -0.5962
 4407SOL     OW24679   0.426   2.286  15.213 -0.0622  0.1279 -0.4057
 4407SOL    HW124680   0.403   2.375  15.188 -0.4691 -0.0437 -0.6397
 4407SOL    HW224681   0.455   2.250  15.129 -0.0617  3.8762 -1.9942
 4408SOL     OW24682   2.497   1.677   8.113  0.0191 -0.4849 -0.1195
 4408SOL    HW124683   2.450   1.760   8.123 -1.8367 -1.2951 -2.2589
 4408SOL    HW224684   2.448   1.622   8.174  0.7233 -1.3709 -0.3496
 4409SOL     OW24685   4.114   0.875   2.608 -0.5166  0.0401  0.2362
 4409SOL    HW124686   4.021   0.862   2.588 -0.5799  2.8035 -1.1475
 4409SOL    HW224687   4.117   0.967   2.582 -0.6082 -0.0649 -0.1520
 4410SOL     OW24688   2.799   4.556   3.661 -0.1549  0.5627  0.3068
 4410SOL    HW124689   2.718   4.597   3.632 -0.5429  2.0498  3.5136
 4410SOL    HW224690   2.838   4.551   3.574 -3.5569 -0.9253 -1.1280
 4411SOL     OW24691   1.108   1.779   9.024  0.1783  0.1661  0.4280
 4411SOL    HW124692   1.180   1.839   9.007 -1.9595  1.2292 -4.7768
 4411SOL    HW224693   1.163   1.719   9.074  0.2558  0.7024  0.9741
 4412SOL     OW24694   1.845   3.782  12.843 -0.0614 -0.0399  0.1925
 4412SOL    HW124695   1.889   3.849  12.791  0.1201 -0.0808  0.2926
 4412SOL    HW224696   1.808   3.724  12.777 -0.1462 -0.6276  0.7608
 4413SOL     OW24697   4.588   2.445   2.140  0.1572  0.5594 -0.5798
 4413SOL    HW124698   4.538   2.391   2.079  1.6602  1.2292 -2.3874
 4413SOL    HW224699   4.531   2.522   2.139 -0.2239  0.2742 -0.6583
 4414SOL     OW24700   0.159   0.716  12.795 -0.2212 -0.6289 -0.2983
 4414SOL    HW124701   0.147   0.622  12.808 -0.4215 -0.6831 -0.8606
 4414SOL    HW224702   0.159   0.743  12.887 -0.4310  0.6716 -0.6864
 4415SOL     OW24703   1.265   4.120   0.767 -0.1025 -0.2846 -0.0280
 4415SOL    HW124704   1.213   4.139   0.690 -1.5215 -0.1940  0.9555
 4415SOL    HW224705   1.210   4.065   0.823  1.5019 -0.7717  1.0950
 4416SOL     OW24706   4.617   0.503  14.788  0.4563  0.0095  0.0803
 4416SOL    HW124707   4.550   0.549  14.737  2.1676  0.3834 -1.8398
 4416SOL    HW224708   4.697   0.545  14.757  0.1751  0.2711 -0.2878
 4417SOL     OW24709   2.722   2.648   4.867  0.2428 -0.4949 -0.4056
 4417SOL    HW124710   2.679   2.672   4.949  0.9512 -0.6819  0.0206
 4417SOL    HW224711   2.673   2.703   4.806  0.0820 -0.1566  0.0284
 4418SOL     OW24712   3.414   4.025  10.362 -0.1086 -0.3301  0.0331
 4418SOL    HW124713   3.369   4.057  10.441  0.4612 -1.7109  0.9187
 4418SOL    HW224714   3.338   3.991  10.314 -0.2753 -0.1665  0.1771
 4419SOL     OW24715   3.105   0.851   1.609 -0.1946  0.1894  0.8304
 4419SOL    HW124716   3.182   0.900   1.639 -1.3980  1.4917  1.8317
 4419SOL    HW224717   3.071   0.837   1.698  0.1384 -1.5902  0.6617
 4420SOL     OW24718   4.031   2.837   7.081 -1.1558  0.0597  0.0102
 4420SOL    HW124719   3.957   2.873   7.033 -0.9263  1.4311  0.6726
 4420SOL    HW224720   4.058   2.909   7.139  0.7995 -0.5285 -0.1545
 4421SOL     OW24721   1.187   1.841   7.698  0.2435 -0.3673 -0.1330
 4421SOL    HW124722   1.236   1.760   7.704 -0.3030 -0.7284 -0.5282
 4421SOL    HW224723   1.259   1.904   7.708 -0.0965 -0.2855  1.8703
 4422SOL     OW24724   3.231   2.064   2.443  0.2419 -0.7382  0.5159
 4422SOL    HW124725   3.289   2.138   2.424 -1.1203  0.6669  1.8604
 4422SOL    HW224726   3.215   2.017   2.361  0.5251  0.9215 -0.4742
 4423SOL     OW24727   1.273   0.127   8.686  0.1780  0.0118  0.3959
 4423SOL    HW124728   1.310   0.045   8.654 -0.2466  0.2224 -0.6367
 4423SOL    HW224729   1.183   0.119   8.652  1.0456 -1.1671 -1.6434
 4424SOL     OW24730   1.247   1.992   8.837 -0.1201  0.7158 -0.1583
 4424SOL    HW124731   1.274   2.038   8.917 -0.0691  1.3974 -0.5710
 4424SOL    HW224732   1.163   1.950   8.854  0.5246 -0.6760 -0.3850
 4425SOL     OW24733   1.280   1.006   7.818 -0.3331 -0.0741  0.0266
 4425SOL    HW124734   1.323   1.092   7.818 -0.2300 -0.1196  0.9213
 4425SOL    HW224735   1.199   1.018   7.868 -1.5083  0.8195 -2.1034
 4426SOL     OW24736   2.141   2.492   4.107  0.4130  0.0429  0.0851
 4426SOL    HW124737   2.056   2.466   4.070 -0.2022 -0.0713  1.5886
 4426SOL    HW224738   2.152   2.415   4.162 -1.3087 -0.9261 -0.9485
 4427SOL     OW24739   4.391   1.700   6.298  0.3959  0.3009 -0.7860
 4427SOL    HW124740   4.423   1.790   6.304 -0.9834  0.5514  3.1862
 4427SOL    HW224741   4.427   1.666   6.216  1.9951  0.0716  0.0251
 4428SOL     OW24742   1.526   1.726   3.128  0.4483 -0.5939 -0.6547
 4428SOL    HW124743   1.488   1.648   3.168 -0.2724  0.7036  1.2412
 4428SOL    HW224744   1.619   1.706   3.120  0.9917  0.2186  3.1706
 4429SOL     OW24745   0.791   4.055   8.055  0.2421  0.4797 -0.1634
 4429SOL    HW124746   0.792   3.966   8.021 -1.1123 -0.0484  1.1843
 4429SOL    HW224747   0.819   4.106   7.979  0.5879  0.5022 -0.0224
 4430SOL     OW24748   1.841   2.068  16.222  0.2515 -0.0623  0.1381
 4430SOL    HW124749   1.828   2.058  16.127 -0.2363  0.6793  0.1318
 4430SOL    HW224750   1.761   2.117  16.239  0.2332  0.1305 -0.4806
 4431SOL     OW24751   3.181   0.697   2.359 -0.0220  0.0351  0.3470
 4431SOL    HW124752   3.155   0.744   2.438  0.3974  2.6097 -1.0604
 4431SOL    HW224753   3.146   0.747   2.285  0.4466  1.4140  1.0727
 4432SOL     OW24754   3.947   4.673   7.178  0.1890 -0.1859 -0.5503
 4432SOL    HW124755   3.987   4.634   7.255 -1.2395 -0.6943 -0.0690
 4432SOL    HW224756   3.901   0.026   7.218  1.7601  0.7161 -0.4518
 4433SOL     OW24757   0.387   2.144   1.882 -0.1602 -0.4035  0.0436
 4433SOL    HW124758   0.470   2.145   1.930 -0.5987  1.6537  0.7478
 4433SOL    HW224759   0.383   2.222   1.827 -0.1218  0.1522  0.8352
 4434SOL     OW24760   2.816   1.127   7.854  0.3071 -0.0291  0.2909
 4434SOL    HW124761   2.879   1.099   7.920 -0.0491  0.2192  0.7356
 4434SOL    HW224762   2.868   1.198   7.816 -1.8380  0.6743 -1.3715
 4435SOL     OW24763   1.333   0.224  14.331  0.4073  0.4006  0.6748
 4435SOL    HW124764   1.407   0.284  14.340 -0.2124  1.2484  0.1221
 4435SOL    HW224765   1.257   0.281  14.341  1.2068  1.5532  0.2207
 4436SOL     OW24766   2.875   4.036  15.241 -1.0579  0.6128 -0.7068
 4436SOL    HW124767   2.837   4.077  15.319 -0.9686 -0.2792 -0.1927
 4436SOL    HW224768   2.848   4.102  15.177 -2.0521 -1.0263 -1.9725
 4437SOL     OW24769   1.761   0.535   4.989  0.3686 -0.1749  0.0988
 4437SOL    HW124770   1.716   0.453   5.007 -2.2039  1.2317  0.1223
 4437SOL    HW224771   1.827   0.514   4.923 -0.0618 -0.3775 -0.2739
 4438SOL     OW24772   0.780   3.301   5.039  0.0253 -0.7242  0.2585
 4438SOL    HW124773   0.750   3.210   5.036  1.0906 -1.0540 -0.4552
 4438SOL    HW224774   0.773   3.329   4.948  0.6312 -0.9161  0.1545
 4439SOL     OW24775   4.376   4.107  15.337 -0.1844 -0.4812  0.5611
 4439SOL    HW124776   4.465   4.138  15.355 -0.3196  1.8218 -2.5988
 4439SOL    HW224777   4.324   4.171  15.385 -0.5838  1.1294 -1.9839
 4440SOL     OW24778   0.272   1.457   1.941 -0.4068  0.4007  0.2776
 4440SOL    HW124779   0.254   1.459   1.847 -1.0019  0.1935  0.3841
 4440SOL    HW224780   0.352   1.509   1.950 -0.9613  1.0906  1.1264
 4441SOL     OW24781   1.636   0.504   7.706  0.3399 -0.3659  0.7410
 4441SOL    HW124782   1.588   0.527   7.626 -0.1816 -1.1124  0.8426
 4441SOL    HW224783   1.716   0.556   7.700 -0.3051  0.6111  0.7288
 4442SOL     OW24784   2.502   2.126   6.516 -0.6467  0.5218  0.2557
 4442SOL    HW124785   2.454   2.193   6.564 -0.2995  0.6341  0.4426
 4442SOL    HW224786   2.456   2.048   6.548 -3.1182  1.3199 -1.3111
 4443SOL     OW24787   2.945   2.265   4.836  0.2552 -0.5422  0.5170
 4443SOL    HW124788   2.953   2.192   4.774  1.7698  1.4789 -1.7118
 4443SOL    HW224789   2.895   2.326   4.782 -0.7490  0.0001  2.0676
 4444SOL     OW24790   3.818   0.835   2.555  0.1847  0.0605  0.0024
 4444SOL    HW124791   3.749   0.865   2.614 -1.1750 -3.0760  0.0439
 4444SOL    HW224792   3.760   0.821   2.480  0.7433  2.2667 -0.8202
 4445SOL     OW24793   0.069   2.443  16.606  0.3269 -0.0464  0.3597
 4445SOL    HW124794   0.036   2.364  16.563  2.4249 -0.3692 -0.6589
 4445SOL    HW224795   0.072   2.513  16.541 -0.0127  0.5672  0.9966
 4446SOL     OW24796   0.177   0.557  11.643 -0.1110  0.2028 -0.2405
 4446SOL    HW124797   0.136   0.585  11.726  0.0911 -0.6160  0.1334
 4446SOL    HW224798   0.241   0.497  11.681 -0.9082 -0.1973  0.4776
 4447SOL     OW24799   3.017   4.444  13.803  0.1967 -0.0463 -0.1843
 4447SOL    HW124800   2.957   4.409  13.738 -0.2446  2.3063 -1.0655
 4447SOL    HW224801   2.967   4.435  13.885  4.0490 -1.1390  2.0305
 4448SOL     OW24802   4.169   4.692  13.762 -0.1141 -0.2599 -0.5589
 4448SOL    HW124803   4.130   4.607  13.784  0.4134 -0.3492  0.0510
 4448SOL    HW224804   4.141   0.026  13.836  0.5249  1.4705 -1.6046
 4449SOL     OW24805   2.389   0.377  16.225 -0.4510  0.2907 -0.0931
 4449SOL    HW124806   2.474   0.410  16.255 -0.5142  1.3913 -1.1425
 4449SOL    HW224807   2.324   0.439  16.254 -1.1819 -0.4982 -0.0385
 4450SOL     OW24808   3.478   0.473   3.726 -0.2623 -0.3068  0.7564
 4450SOL    HW124809   3.533   0.395   3.736  0.6217  0.0608 -1.2285
 4450SOL    HW224810   3.388   0.441   3.736 -0.5658 -0.1256 -1.2400
 4451SOL     OW24811   1.791   0.448  14.154  0.3925 -0.5314  0.5409
 4451SOL    HW124812   1.707   0.492  14.151  0.9815  0.4448 -1.6089
 4451SOL    HW224813   1.770   0.355  14.142  1.8105 -0.4843 -2.3286
 4452SOL     OW24814   2.342   1.257  13.499  0.8754  0.5330 -0.8598
 4452SOL    HW124815   2.257   1.282  13.536  2.4399  0.3772  2.7948
 4452SOL    HW224816   2.379   1.220  13.579  1.3759  0.9615 -0.8899
 4453SOL     OW24817   0.472   2.017  14.402  0.0309 -0.2381  0.1719
 4453SOL    HW124818   0.410   2.044  14.334 -1.4612 -2.9086  0.4585
 4453SOL    HW224819   0.530   1.968  14.344  1.9562  1.6211  0.5423
 4454SOL     OW24820   4.406   2.851   4.901 -0.5639 -0.2075  0.1196
 4454SOL    HW124821   4.473   2.880   4.963 -1.1778 -1.1776  1.2372
 4454SOL    HW224822   4.460   2.787   4.855 -3.6353 -1.5303 -1.6090
 4455SOL     OW24823   1.630   3.459   7.736  0.2600 -0.2178 -0.5828
 4455SOL    HW124824   1.623   3.400   7.811  1.3688 -0.0528 -0.3417
 4455SOL    HW224825   1.586   3.537   7.770 -0.9423 -1.5755  1.0065
 4456SOL     OW24826   2.863   4.032   6.133 -0.4188  0.5713 -0.0974
 4456SOL    HW124827   2.901   4.036   6.221  1.2416  1.4948 -0.8528
 4456SOL    HW224828   2.942   4.013   6.083  0.1962 -1.0728  1.5019
 4457SOL     OW24829   2.765   1.560  12.816 -0.1696 -0.6880  0.3491
 4457SOL    HW124830   2.802   1.495  12.875  2.2160 -0.0995 -0.4620
 4457SOL    HW224831   2.797   1.521  12.734  2.0101 -2.0298  1.8293
 4458SOL     OW24832   0.305   3.321   1.027 -0.1375  0.5979 -0.1643
 4458SOL    HW124833   0.299   3.300   0.934 -0.7760  0.8735 -0.1890
 4458SOL    HW224834   0.324   3.237   1.068 -0.4425  1.1872  1.1904
 4459SOL     OW24835   4.232   3.700   2.762 -0.1835  0.0762 -0.1089
 4459SOL    HW124836   4.173   3.664   2.828 -1.6636  0.7483 -1.0879
 4459SOL    HW224837   4.171   3.716   2.690  1.2757  0.0500 -1.3708
 4460SOL     OW24838   1.595   3.005   4.622 -0.3958  0.1371  0.0144
 4460SOL    HW124839   1.667   2.952   4.586 -1.0315  0.4821 -1.7092
 4460SOL    HW224840   1.568   2.957   4.701  0.6168  3.2854  2.2563
 4461SOL     OW24841   1.245   0.337   6.681 -0.4151  0.2973 -0.5762
 4461SOL    HW124842   1.211   0.419   6.644  1.1773  0.8703 -0.7610
 4461SOL    HW224843   1.291   0.360   6.762  0.1975 -1.0006 -0.5505
 4462SOL     OW24844   3.920   1.847   5.638  0.2799  0.0580 -0.2421
 4462SOL    HW124845   3.914   1.760   5.599 -1.1231 -0.3521  0.9131
 4462SOL    HW224846   3.995   1.820   5.692  0.3039  2.2221  0.8136
 4463SOL     OW24847   0.374   2.253   0.549  0.0518 -0.1372 -0.4108
 4463SOL    HW124848   0.378   2.259   0.454 -2.4138  0.1920 -0.4951
 4463SOL    HW224849   0.326   2.333   0.571 -0.0874  0.5396 -3.1525
 4464SOL     OW24850   0.175   1.197   5.967  0.6430 -0.0633 -0.3183
 4464SOL    HW124851   0.186   1.284   5.929 -0.1830  0.0186 -0.3714
 4464SOL    HW224852   0.255   1.166   5.925  0.1173 -0.7060 -0.8420
 4465SOL     OW24853   1.088   1.402   2.637 -0.5692 -0.1424  0.1689
 4465SOL    HW124854   1.105   1.446   2.553 -1.4177  1.0868  0.6499
 4465SOL    HW224855   1.058   1.315   2.610  0.6358 -1.1731  2.1541
 4466SOL     OW24856   2.759   1.269   3.240  0.2123 -0.5769 -0.4686
 4466SOL    HW124857   2.813   1.201   3.199  3.0992  1.9581 -0.8940
 4466SOL    HW224858   2.678   1.225   3.265  0.2742 -0.2358  0.3180
 4467SOL     OW24859   0.526   2.554   7.118 -0.0245 -0.7159  0.1838
 4467SOL    HW124860   0.512   2.636   7.166  2.1689  0.0055 -0.4429
 4467SOL    HW224861   0.621   2.553   7.114  0.0154 -1.4641  1.3990
 4468SOL     OW24862   3.863   1.584   5.583 -0.2337  0.2312  0.3977
 4468SOL    HW124863   3.907   1.504   5.554  1.3525  2.3120 -3.0155
 4468SOL    HW224864   3.790   1.544   5.631 -0.9991 -2.3164 -2.8993
 4469SOL     OW24865   1.974   2.404  15.339 -0.3172 -0.6590 -0.6739
 4469SOL    HW124866   2.021   2.463  15.398  1.7061 -1.8983 -1.0778
 4469SOL    HW224867   1.945   2.338  15.402 -1.4686 -1.3196 -1.9050
 4470SOL     OW24868   0.665   1.232  17.312  0.2211  0.5637  0.0675
 4470SOL    HW124869   0.756   1.237  17.286  0.4701 -0.8867  0.6772
 4470SOL    HW224870   0.643   1.323  17.334  1.2712  1.0463 -0.8657
 4471SOL     OW24871   3.712   4.594   9.486  0.5539  0.0106 -0.6629
 4471SOL    HW124872   3.788   4.576   9.542 -0.1141  2.4941  1.0257
 4471SOL    HW224873   3.745   4.550   9.407 -2.2070  0.4835 -2.0612
 4472SOL     OW24874   4.093   0.560   7.266 -0.3532 -0.4982 -0.3105
 4472SOL    HW124875   4.082   0.594   7.177  2.5057  2.7237  0.5834
 4472SOL    HW224876   4.122   0.471   7.248  0.9825  0.0656 -0.9121
 4473SOL     OW24877   0.622   4.625   5.913  0.0613  0.0218 -0.1126
 4473SOL    HW124878   0.542   4.625   5.862 -1.0532 -0.6603  1.6574
 4473SOL    HW224879   0.689   4.616   5.844 -1.0695  1.2934 -1.3888
 4474SOL     OW24880   1.804   1.686   3.186 -0.1113  0.2048 -0.7561
 4474SOL    HW124881   1.867   1.751   3.214  1.4948 -2.8199  2.5760
 4474SOL    HW224882   1.849   1.611   3.225 -0.7557  0.7585  1.0403
 4475SOL     OW24883   1.399   2.511  11.783  0.3425 -0.4701 -0.6702
 4475SOL    HW124884   1.315   2.496  11.740 -0.4121 -0.0718  0.6924
 4475SOL    HW224885   1.434   2.585  11.733 -0.3434  0.8542  0.8201
 4476SOL     OW24886   2.350   0.179   5.325 -0.4121  0.3088  0.7833
 4476SOL    HW124887   2.334   0.101   5.378  0.2290 -0.2525  0.1491
 4476SOL    HW224888   2.444   0.180   5.342 -0.6291 -0.1820  2.0116
 4477SOL     OW24889   1.927   4.320   0.785 -0.5880 -0.0737 -0.3491
 4477SOL    HW124890   1.980   4.257   0.834 -1.6211 -1.9088 -1.5831
 4477SOL    HW224891   1.851   4.264   0.769  0.5952 -1.8071  0.0724
 4478SOL     OW24892   2.620   4.302   0.479 -0.3798 -0.0644  0.4075
 4478SOL    HW124893   2.528   4.327   0.491 -0.5369 -0.5402  0.2121
 4478SOL    HW224894   2.655   4.368   0.419  0.5357 -2.0680 -1.2775
 4479SOL     OW24895   1.620   1.255   4.476 -0.0082 -0.2242 -0.4734
 4479SOL    HW124896   1.565   1.308   4.533  2.9175  3.1234 -0.7590
 4479SOL    HW224897   1.589   1.283   4.390 -0.1980 -1.2098 -0.7326
 4480SOL     OW24898   0.955   3.156   6.796 -0.0892  0.3343  0.4971
 4480SOL    HW124899   0.949   3.212   6.719  1.0995 -2.2237 -1.4433
 4480SOL    HW224900   0.872   3.181   6.837  1.4821  0.8316  3.4324
 4481SOL     OW24901   2.390   2.074  12.731 -0.5115 -0.6065 -0.1347
 4481SOL    HW124902   2.446   2.140  12.689 -0.8427 -1.3557 -1.7074
 4481SOL    HW224903   2.309   2.125  12.732  0.0029  0.2183 -0.2491
 4482SOL     OW24904   0.122   1.634   6.547 -0.2306  0.0163 -0.0636
 4482SOL    HW124905   0.052   1.616   6.610  0.5261  1.0320  1.0622
 4482SOL    HW224906   0.143   1.545   6.518  0.6087  0.6989 -1.5811
 4483SOL     OW24907   1.648   1.504   9.836 -0.6744 -0.1447 -0.1165
 4483SOL    HW124908   1.739   1.474   9.829 -0.0519  1.4549  1.2811
 4483SOL    HW224909   1.641   1.559   9.758  2.2334 -0.4095 -0.5766
 4484SOL     OW24910   1.592   0.325   7.461 -0.0402  0.0685 -0.3857
 4484SOL    HW124911   1.616   0.309   7.370  1.6248 -2.2032  0.4472
 4484SOL    HW224912   1.497   0.322   7.455 -0.0400 -0.9834  0.0565
 4485SOL     OW24913   0.212   1.346  12.212 -0.5466 -0.2077 -0.2402
 4485SOL    HW124914   0.306   1.357  12.228 -0.2806 -0.0343 -1.8652
 4485SOL    HW224915   0.203   1.268  12.266  2.5799 -0.3083  0.1612
 4486SOL     OW24916   0.984   0.440  16.873 -0.5354  0.1210  0.0479
 4486SOL    HW124917   0.892   0.419  16.859 -0.0412 -1.9527 -0.0931
 4486SOL    HW224918   1.000   0.401  16.959  0.1686 -0.5670 -0.3990
 4487SOL     OW24919   0.144   0.212   1.759 -0.1583 -1.4542 -0.4243
 4487SOL    HW124920   0.074   0.198   1.694 -0.1269 -0.5960 -0.6417
 4487SOL    HW224921   0.210   0.145   1.739  2.8263  1.4547 -0.2755
 4488SOL     OW24922   3.693   1.177  12.512 -0.0075  0.4284 -0.7487
 4488SOL    HW124923   3.693   1.248  12.576  1.1277 -0.0563 -0.2134
 4488SOL    HW224924   3.633   1.225  12.455  0.4042  1.6473 -0.1501
 4489SOL     OW24925   0.393   2.017  12.824 -0.1815  0.3352 -0.0346
 4489SOL    HW124926   0.415   2.109  12.810  0.2368  0.3345  0.6452
 4489SOL    HW224927   0.475   1.971  12.805  0.8693  2.9094 -1.7850
 4490SOL     OW24928   0.437   2.511  15.872 -0.0542  0.3726 -0.3615
 4490SOL    HW124929   0.437   2.606  15.882  0.1956  0.0774  2.3934
 4490SOL    HW224930   0.349   2.483  15.848 -1.1713  2.2319  1.6405
 4491SOL     OW24931   1.179   0.467   8.132  0.0215  0.0972 -0.0683
 4491SOL    HW124932   1.130   0.486   8.212  0.7218 -0.6937  0.5473
 4491SOL    HW224933   1.270   0.467   8.160 -0.2114 -0.3043  0.6989
 4492SOL     OW24934   0.473   0.328  10.119 -0.2318 -0.0984  0.4309
 4492SOL    HW124935   0.499   0.312  10.210 -3.2973  0.3116  1.3895
 4492SOL    HW224936   0.450   0.241  10.086  0.3920 -0.2886  0.4967
 4493SOL     OW24937   0.402   3.569   6.760  0.1928 -0.6187 -0.2444
 4493SOL    HW124938   0.453   3.564   6.679 -1.2147  1.0848 -1.2465
 4493SOL    HW224939   0.479   3.579   6.817 -0.7921  2.1362  0.6210
 4494SOL     OW24940   3.679   3.740   6.298 -0.3212  0.0195  0.3658
 4494SOL    HW124941   3.745   3.701   6.241 -0.7459  0.5830 -0.5134
 4494SOL    HW224942   3.675   3.830   6.266 -1.9237 -0.7695 -1.6673
 4495SOL     OW24943   0.351   0.373   6.051 -0.6199  0.1453 -0.0797
 4495SOL    HW124944   0.369   0.311   6.121 -0.1968 -0.6040 -0.8554
 4495SOL    HW224945   0.316   0.312   5.987 -1.8575  1.4889 -0.6769
 4496SOL     OW24946   3.837   0.234   6.112 -0.2079 -0.5300  0.1708
 4496SOL    HW124947   3.839   0.281   6.195 -0.6358 -0.9451  0.4145
 4496SOL    HW224948   3.924   0.241   6.073 -0.2081  1.6233  0.5522
 4497SOL     OW24949   0.962   0.157   9.641  0.1194 -0.1689  0.1672
 4497SOL    HW124950   0.931   0.246   9.625 -2.2121 -0.6805  1.8613
 4497SOL    HW224951   0.978   0.165   9.735 -0.4174 -0.9663  0.3254
 4498SOL     OW24952   3.590   1.518   9.598  0.2094  0.1404 -0.1555
 4498SOL    HW124953   3.635   1.534   9.516 -0.3616 -0.3788 -0.5724
 4498SOL    HW224954   3.505   1.558   9.580 -0.2602 -0.8218 -0.1057
 4499SOL     OW24955   0.136   4.171   2.068 -0.1465 -0.1878 -0.7602
 4499SOL    HW124956   0.041   4.161   2.059 -0.1759 -0.3069 -0.3031
 4499SOL    HW224957   0.152   4.233   2.139  0.1242 -1.2280  0.0895
 4500SOL     OW24958   0.752   3.906   6.728  0.0228 -0.2053 -0.6199
 4500SOL    HW124959   0.680   3.925   6.667  0.1984  2.6722  0.0647
 4500SOL    HW224960   0.706   3.847   6.788 -0.9624  0.0796 -1.0889
 4501SOL     OW24961   3.517   0.823   0.285 -0.2659  0.4479  0.0428
 4501SOL    HW124962   3.458   0.863   0.221 -0.0605  0.4050 -0.1758
 4501SOL    HW224963   3.585   0.889   0.275  1.8077 -1.2743  2.6445
 4502SOL     OW24964   4.143   0.584  11.340 -0.4366 -0.0854  0.1465
 4502SOL    HW124965   4.058   0.542  11.325  0.2231 -0.1864 -3.3842
 4502SOL    HW224966   4.207   0.516  11.318  0.3043 -0.0649  2.2452
 4503SOL     OW24967   4.497   0.145   1.686  0.3485  0.3372  0.3336
 4503SOL    HW124968   4.417   0.174   1.642 -0.3740 -2.2561 -0.1159
 4503SOL    HW224969   4.469   0.121   1.775  2.2326  0.2804  0.9048
 4504SOL     OW24970   1.408   2.469  16.209  0.1219 -0.1114  0.6013
 4504SOL    HW124971   1.373   2.380  16.213 -0.9417  0.2123 -1.1949
 4504SOL    HW224972   1.337   2.515  16.163 -1.6750 -2.2506  1.2409
 4505SOL     OW24973   2.022   0.586   6.178  0.1487  0.0180  0.0727
 4505SOL    HW124974   1.983   0.513   6.131 -0.4199 -0.4874  1.3232
 4505SOL    HW224975   2.008   0.659   6.118 -2.4279 -1.2078 -0.7983
 4506SOL     OW24976   4.182   0.859  11.985  0.0240 -0.0939 -0.5855
 4506SOL    HW124977   4.086   0.851  11.989 -0.0422  0.8722 -0.2775
 4506SOL    HW224978   4.203   0.776  12.028 -1.2543  1.1391  2.4251
 4507SOL     OW24979   1.560   0.584  14.202 -0.4164  0.7641  0.5162
 4507SOL    HW124980   1.528   0.618  14.285 -0.3475  0.2111  0.7717
 4507SOL    HW224981   1.483   0.540  14.165 -0.5231  0.5581  0.9905
 4508SOL     OW24982   0.475   2.873  11.961 -0.3657  0.1134  0.2523
 4508SOL    HW124983   0.475   2.869  11.865 -0.8018  2.1161  0.1670
 4508SOL    HW224984   0.391   2.913  11.984  0.0349  1.0550  0.0841
 4509SOL     OW24985   4.452   2.027   1.899 -0.0778 -0.1063  0.0760
 4509SOL    HW124986   4.474   1.963   1.967  3.3306  1.8616  0.8532
 4509SOL    HW224987   4.504   1.995   1.825  0.3519 -1.2779  0.8708
 4510SOL     OW24988   2.133   4.275   2.222  0.1258 -0.0452  0.3199
 4510SOL    HW124989   2.143   4.368   2.241  0.1631  0.5047 -2.4958
 4510SOL    HW224990   2.201   4.245   2.283 -0.9560 -0.9065  1.1076
 4511SOL     OW24991   3.238   4.449   3.577 -0.1013 -0.2154  0.6234
 4511SOL    HW124992   3.197   4.509   3.515  0.5939  0.9673  1.3137
 4511SOL    HW224993   3.165   4.424   3.633 -0.3452 -0.0668  0.3713
 4512SOL     OW24994   2.137   4.434   3.745 -0.1929 -0.3721 -0.0703
 4512SOL    HW124995   2.199   4.401   3.810 -1.3550 -0.7062  0.8674
 4512SOL    HW224996   2.099   4.503   3.800  1.2708  1.6062 -1.5187
 4513SOL     OW24997   3.724   2.804  14.455 -0.5047 -0.0963 -0.0859
 4513SOL    HW124998   3.738   2.712  14.433 -2.3062 -0.3734 -0.0179
 4513SOL    HW224999   3.631   2.796  14.475 -0.1191 -1.6199  1.1116
 4514SOL     OW25000   1.034   2.197   0.579 -0.3678  0.9476 -0.3397
 4514SOL    HW125001   1.062   2.282   0.612  0.0351  0.0800  1.5706
 4514SOL    HW225002   0.987   2.173   0.659 -1.7254  1.7678 -0.8767
 4515SOL     OW25003   3.383   2.848  15.896 -0.4568  0.0645  0.0521
 4515SOL    HW125004   3.410   2.895  15.816  0.5708  0.2753  0.5248
 4515SOL    HW225005   3.449   2.881  15.957 -0.3197 -0.5204  0.2110
 4516SOL     OW25006   0.848   1.128  14.479  0.6195 -0.0133  0.2490
 4516SOL    HW125007   0.899   1.204  14.450 -0.6491  0.1817 -1.4587
 4516SOL    HW225008   0.924   1.074  14.499  1.0184  0.5787  0.3476
 4517SOL     OW25009   0.920   3.388   3.997 -0.4315  0.4265  0.0916
 4517SOL    HW125010   0.964   3.307   3.970  0.2877  0.0508  2.3226
 4517SOL    HW225011   0.906   3.420   3.908  0.2465  0.3416 -0.0477
 4518SOL     OW25012   3.734   0.180  15.921 -0.0721 -0.2739  0.1459
 4518SOL    HW125013   3.692   0.154  15.838  1.6501  0.5855 -0.9951
 4518SOL    HW225014   3.793   0.249  15.892 -2.7972  2.1896  0.4351
 4519SOL     OW25015   1.239   1.026  11.607  0.0985  0.0183 -0.3902
 4519SOL    HW125016   1.292   1.092  11.562  2.4143 -2.1137 -0.7444
 4519SOL    HW225017   1.222   1.074  11.688 -1.1154  1.2842 -1.3882
 4520SOL     OW25018   2.093   4.122   0.866  0.1440 -0.9690 -0.6652
 4520SOL    HW125019   2.034   4.070   0.919 -0.4178 -1.0228 -1.3397
 4520SOL    HW225020   2.166   4.061   0.854  1.7015  1.0199 -1.3011
 4521SOL     OW25021   2.383   3.489   6.099  0.1448  0.0906 -0.5255
 4521SOL    HW125022   2.452   3.432   6.132  1.8916  1.2560 -2.1031
 4521SOL    HW225023   2.436   3.569   6.094 -0.4709  0.4332 -1.3780
 4522SOL     OW25024   3.476   2.883   4.936  0.1014 -0.3497 -0.3024
 4522SOL    HW125025   3.437   2.805   4.973  3.0717 -1.2964  0.8669
 4522SOL    HW225026   3.540   2.850   4.872 -0.3508  0.3907 -1.1416
 4523SOL     OW25027   1.812   1.970   9.159 -0.0632  0.2270 -0.1905
 4523SOL    HW125028   1.770   1.981   9.074  0.3752  1.0014 -0.3108
 4523SOL    HW225029   1.737   1.988   9.216 -0.9239 -0.9161 -0.9576
 4524SOL     OW25030   0.850   3.584   5.850 -0.2149  0.1705  0.2031
 4524SOL    HW125031   0.819   3.494   5.857  0.9546 -0.2580 -0.1978
 4524SOL    HW225032   0.898   3.576   5.768  0.7679 -0.0384  0.7938
 4525SOL     OW25033   1.915   4.190  16.312  0.2522  0.2368  0.1278
 4525SOL    HW125034   1.951   4.101  16.322  1.6826  0.5206 -2.5586
 4525SOL    HW225035   1.885   4.190  16.221 -0.6320  1.4197  0.4214
 4526SOL     OW25036   3.097   2.844   5.372  0.9436  0.2267  0.1371
 4526SOL    HW125037   3.163   2.914   5.367 -0.3282  1.5302  1.5498
 4526SOL    HW225038   3.016   2.884   5.404  0.6939 -1.5135  1.6917
 4527SOL     OW25039   4.471   3.508   4.533 -0.3806 -0.8457 -0.0006
 4527SOL    HW125040   4.450   3.597   4.564 -1.0488 -0.1910 -2.3702
 4527SOL    HW225041   4.551   3.480   4.578 -0.3096 -0.2027  0.2807
 4528SOL     OW25042   1.425   4.321  11.565  0.2862 -0.0009 -0.1991
 4528SOL    HW125043   1.345   4.269  11.574  1.5397 -1.7280  0.7995
 4528SOL    HW225044   1.457   4.339  11.653 -0.8351 -1.5060  0.5223
 4529SOL     OW25045   2.932   3.048   0.771  0.4045  0.0933 -0.4680
 4529SOL    HW125046   2.994   3.016   0.705  1.1426 -1.5587  1.0236
 4529SOL    HW225047   2.877   2.973   0.795  1.4806 -0.5032  0.1210
 4530SOL     OW25048   4.633   3.006   1.821 -0.1531  0.3381 -0.1605
 4530SOL    HW125049   4.645   3.066   1.748 -3.1631  1.4418  0.2398
 4530SOL    HW225050   4.712   3.029   1.871  1.1095 -1.7503 -1.2094
 4531SOL     OW25051   2.168   2.366   8.224 -0.3111  0.2770  0.0801
 4531SOL    HW125052   2.194   2.458   8.218  1.9836 -0.3466  0.6552
 4531SOL    HW225053   2.186   2.343   8.133 -0.0399  1.2327 -0.1108
 4532SOL     OW25054   0.505   0.237   5.516 -0.1678  0.5718  0.8914
 4532SOL    HW125055   0.589   0.276   5.541  0.3366 -0.9825  1.5789
 4532SOL    HW225056   0.482   0.274   5.431  0.6706  1.5357  1.0741
 4533SOL     OW25057   3.482   0.317   6.701 -0.0594 -0.1881 -0.1727
 4533SOL    HW125058   3.565   0.283   6.735 -0.5739 -1.8454 -0.5718
 4533SOL    HW225059   3.452   0.376   6.770  0.9332 -0.9089  0.8767
 4534SOL     OW25060   0.193   1.214   1.642  0.3447  0.3124  0.3312
 4534SOL    HW125061   0.260   1.150   1.666 -1.2108 -1.5457 -0.2696
 4534SOL    HW225062   0.124   1.186   1.702  0.8697 -1.8308 -0.0568
 4535SOL     OW25063   0.338   1.419   7.747 -0.1756 -0.3770 -0.3299
 4535SOL    HW125064   0.422   1.398   7.789  0.0524  1.4556  0.1385
 4535SOL    HW225065   0.336   1.514   7.746  2.2550 -0.4122 -4.9886
 4536SOL     OW25066   4.411   1.564  11.131 -0.2133 -0.5113  0.2669
 4536SOL    HW125067   4.343   1.598  11.073  0.5693  0.8697  0.1757
 4536SOL    HW225068   4.407   1.471  11.107  1.4303 -0.3579 -0.5785
 4537SOL     OW25069   1.753   1.645  17.069 -0.2733 -0.0274  0.4382
 4537SOL    HW125070   1.704   1.598  17.136 -1.5155  0.5628 -0.0691
 4537SOL    HW225071   1.740   1.595  16.989 -0.1474 -0.7703  0.8783
 4538SOL     OW25072   2.602   2.282   0.766 -0.4365  0.0658  0.3216
 4538SOL    HW125073   2.675   2.273   0.704 -1.0208  1.0858 -0.5107
 4538SOL    HW225074   2.563   2.196   0.757 -0.7758  0.5349 -2.6561
 4539SOL     OW25075   4.388   4.588   9.468 -0.0622  0.3467 -0.1488
 4539SOL    HW125076   4.297   4.564   9.453 -0.1140 -0.3585  1.3189
 4539SOL    HW225077   4.398   4.554   9.557  0.6245  1.1907  0.0949
 4540SOL     OW25078   0.076   0.304  12.418  0.1088 -0.0942 -0.1065
 4540SOL    HW125079   4.714   0.330  12.457 -0.8664  1.0534 -2.9341
 4540SOL    HW225080   0.115   0.388  12.392  1.6637 -0.5014  0.9144
 4541SOL     OW25081   1.182   2.862   2.294  0.0364 -0.4413  0.0653
 4541SOL    HW125082   1.093   2.855   2.260 -1.2972  3.2904  2.7478
 4541SOL    HW225083   1.179   2.822   2.381  2.7294 -0.3736  0.1832
 4542SOL     OW25084   1.460   0.922   5.785 -0.3396  0.2557  0.5028
 4542SOL    HW125085   1.425   0.912   5.696 -0.0725  0.3199  0.3906
 4542SOL    HW225086   1.456   1.017   5.783  0.5988  0.2888  0.0376
 4543SOL     OW25087   0.773   1.716   1.218  0.3577  0.3468  0.2241
 4543SOL    HW125088   0.765   1.636   1.270 -0.0594  0.1850 -0.0829
 4543SOL    HW225089   0.862   1.709   1.183 -0.1294  1.4686 -1.2661
 4544SOL     OW25090   3.776   2.621   4.532 -0.0774 -0.3041  0.5835
 4544SOL    HW125091   3.700   2.575   4.497 -0.1386 -0.1941  0.5727
 4544SOL    HW225092   3.792   2.691   4.469  1.3085 -0.5539  0.6621
 4545SOL     OW25093   3.829   3.077   5.958  0.2883  0.6222  0.1978
 4545SOL    HW125094   3.834   3.146   5.891 -2.1999  0.9948  0.3992
 4545SOL    HW225095   3.875   3.119   6.031 -1.4562 -0.3515  1.8498
 4546SOL     OW25096   0.712   0.865   5.287  0.0410  0.3052 -0.2404
 4546SOL    HW125097   0.714   0.769   5.295 -0.3734  0.0936 -2.6337
 4546SOL    HW225098   0.665   0.893   5.366 -1.4089 -3.7684  0.3462
 4547SOL     OW25099   2.334   2.550   8.510  0.4371  0.4497  0.0698
 4547SOL    HW125100   2.252   2.585   8.544  0.3456  0.6885 -0.3903
 4547SOL    HW225101   2.375   2.506   8.584  0.1704 -1.4535 -0.9135
 4548SOL     OW25102   3.929   1.337  12.613 -0.0449 -0.2692  0.5088
 4548SOL    HW125103   3.901   1.251  12.644 -1.1434  0.0361  0.3772
 4548SOL    HW225104   4.009   1.320  12.564  0.6821 -1.2756  2.0337
 4549SOL     OW25105   1.614   3.832   6.676 -0.5237  0.1503  0.4342
 4549SOL    HW125106   1.705   3.821   6.705 -0.1620  1.6674 -0.0798
 4549SOL    HW225107   1.563   3.822   6.756  1.3645 -0.0485  1.6178
 4550SOL     OW25108   2.838   0.643   7.289 -0.0631  0.1148 -0.3845
 4550SOL    HW125109   2.929   0.619   7.306 -0.0741 -1.0976 -2.0039
 4550SOL    HW225110   2.841   0.719   7.232 -0.6031  1.7439  1.7426
 4551SOL     OW25111   3.798   4.329  13.186 -0.5802 -0.8848 -0.2757
 4551SOL    HW125112   3.722   4.382  13.163  0.0899  0.8070  1.3994
 4551SOL    HW225113   3.865   4.382  13.142 -2.7864  0.8463 -1.5138
 4552SOL     OW25114   2.712   3.020  10.749 -0.7289  0.1803  0.7368
 4552SOL    HW125115   2.711   2.925  10.762  0.6070  0.0336 -0.2008
 4552SOL    HW225116   2.681   3.027  10.658  0.6566 -0.7973  0.1914
 4553SOL     OW25117   0.379   3.404   5.673 -0.3631  0.2660  0.0831
 4553SOL    HW125118   0.400   3.452   5.594 -1.0378  1.2319  0.4880
 4553SOL    HW225119   0.462   3.370   5.706  0.3198  2.1141  0.2314
 4554SOL     OW25120   0.321   0.414   7.663 -0.2902  0.8244 -0.5126
 4554SOL    HW125121   0.357   0.482   7.605 -2.3259 -0.1404 -2.8994
 4554SOL    HW225122   0.250   0.377   7.611  0.0259  2.7524 -2.3366
 4555SOL     OW25123   2.376   0.221   8.111  0.0271 -0.5266 -0.0459
 4555SOL    HW125124   2.342   0.148   8.163  1.4822 -0.5138  0.9258
 4555SOL    HW225125   2.400   0.168   8.034 -0.2344 -0.2885 -0.2888
 4556SOL     OW25126   0.366   3.245   0.311  0.2954  0.2410  0.3043
 4556SOL    HW125127   0.345   3.223   0.220  1.6625  1.0272 -0.2011
 4556SOL    HW225128   0.454   3.209   0.314  0.5274  0.6427 -1.8515
 4557SOL     OW25129   2.689   4.366   2.364 -0.0071 -0.1331  0.0060
 4557SOL    HW125130   2.760   4.371   2.428  1.6476 -1.1714 -1.7194
 4557SOL    HW225131   2.725   4.382   2.277  1.9726  1.8555  1.1897
 4558SOL     OW25132   1.173   2.236   7.202 -0.1201 -0.6683 -0.3212
 4558SOL    HW125133   1.241   2.234   7.135 -0.1668 -1.0945 -0.3505
 4558SOL    HW225134   1.104   2.178   7.168 -0.1870 -0.3581 -0.7225
 4559SOL     OW25135   4.224   4.509  12.179  0.5571 -0.1138 -0.2074
 4559SOL    HW125136   4.252   4.418  12.181  3.9673  0.9252  0.0246
 4559SOL    HW225137   4.264   4.535  12.096 -0.8366  1.5063 -0.3765
 4560SOL     OW25138   3.108   4.354   6.149 -0.5520 -0.2664 -0.0396
 4560SOL    HW125139   3.068   4.391   6.070  0.5956  1.9573  0.3999
 4560SOL    HW225140   3.049   4.388   6.216 -0.7525 -0.4394 -0.1286
 4561SOL     OW25141   3.016   1.085  13.066 -0.0579  0.2109  0.5663
 4561SOL    HW125142   2.986   0.995  13.058 -2.5068  0.9828  1.1797
 4561SOL    HW225143   3.087   1.088  13.131 -1.2503 -1.8437  1.9626
 4562SOL     OW25144   2.632   0.514   0.574 -0.1491 -0.4663 -0.2803
 4562SOL    HW125145   2.614   0.453   0.502  1.1302 -0.6391 -0.4535
 4562SOL    HW225146   2.569   0.580   0.545 -2.1917 -2.1999  0.1186
 4563SOL     OW25147   4.516   1.323  12.254  0.3152 -0.1986 -0.1731
 4563SOL    HW125148   4.488   1.285  12.171  0.8748  0.1726 -0.5321
 4563SOL    HW225149   4.455   1.277  12.312  1.5292  0.2411  1.4466
 4564SOL     OW25150   4.323   1.066   2.310 -0.1580 -0.3716  0.0214
 4564SOL    HW125151   4.341   1.020   2.228 -1.8977 -1.6819  0.3871
 4564SOL    HW225152   4.411   1.069   2.348 -0.1722  0.0915  0.0224
 4565SOL     OW25153   4.012   2.859   6.745  0.2328  0.4434  0.0841
 4565SOL    HW125154   4.050   2.860   6.657 -0.7014 -1.6512 -0.3404
 4565SOL    HW225155   4.074   2.903   6.802  0.8322 -2.5464  1.7105
 4566SOL     OW25156   2.528   4.107  10.777 -0.7946 -0.2182 -0.3291
 4566SOL    HW125157   2.615   4.070  10.763 -0.9228 -1.0918  1.1408
 4566SOL    HW225158   2.514   4.124  10.871  1.6759  1.5842 -0.2910
 4567SOL     OW25159   2.929   0.354   3.757  0.4670 -0.2915 -0.0142
 4567SOL    HW125160   2.883   0.275   3.728  0.4869  0.0668 -1.0251
 4567SOL    HW225161   2.913   0.405   3.677 -0.1866 -0.9376 -0.3041
 4568SOL     OW25162   3.810   2.340  13.908 -0.5592  0.0115 -0.2178
 4568SOL    HW125163   3.903   2.363  13.914 -0.7984  0.9381 -0.0266
 4568SOL    HW225164   3.804   2.287  13.829  1.1044 -1.6448  0.7563
 4569SOL     OW25165   2.181   3.160  10.514  0.2072  1.2988 -0.2358
 4569SOL    HW125166   2.168   3.255  10.518 -0.9645  1.1712 -0.9054
 4569SOL    HW225167   2.115   3.129  10.576 -0.0624  1.0218 -0.6611
 4570SOL     OW25168   0.468   1.032   6.784  0.5547  0.3120  0.3377
 4570SOL    HW125169   0.501   0.985   6.707 -0.0977 -0.3896  0.4914
 4570SOL    HW225170   0.421   0.957   6.819 -2.3105  2.5373  1.1876
 4571SOL     OW25171   4.344   1.022   9.782  0.0028 -0.2891 -0.0799
 4571SOL    HW125172   4.305   1.084   9.843 -0.5647 -0.6053 -0.1161
 4571SOL    HW225173   4.287   1.036   9.706  0.3099 -0.6998 -0.3886
 4572SOL     OW25174   0.469   3.970   6.747  0.0251  0.7556  0.4369
 4572SOL    HW125175   0.394   3.939   6.797 -0.6878 -0.1575 -1.2002
 4572SOL    HW225176   0.423   3.975   6.663  0.6889  0.4866  0.0636
 4573SOL     OW25177   1.635   0.496   7.138  0.3423  0.2018  1.0086
 4573SOL    HW125178   1.694   0.495   7.213 -1.4681 -0.9034  2.3929
 4573SOL    HW225179   1.702   0.494   7.069  1.5700  1.4541  2.1415
 4574SOL     OW25180   2.706   3.604   5.665  0.0953 -0.8704 -0.3566
 4574SOL    HW125181   2.684   3.567   5.750  3.4167 -0.3454  0.7272
 4574SOL    HW225182   2.708   3.697   5.688  0.4253 -0.6854 -1.1226
 4575SOL     OW25183   4.177   4.350   1.480  0.6976  0.3149 -0.1765
 4575SOL    HW125184   4.271   4.367   1.474  0.9429 -0.9297  0.1023
 4575SOL    HW225185   4.177   4.321   1.389  1.3539 -0.1127 -0.0463
 4576SOL     OW25186   0.960   1.202   9.006  0.3567 -0.2407  0.1578
 4576SOL    HW125187   0.927   1.145   9.076 -0.7402  1.7432  1.2532
 4576SOL    HW225188   0.986   1.277   9.060  1.1296  0.3697 -1.0769
 4577SOL     OW25189   1.687   0.146   5.431 -0.1492 -0.4287  0.2668
 4577SOL    HW125190   1.744   0.069   5.423 -0.7954 -0.8021 -0.6831
 4577SOL    HW225191   1.721   0.195   5.506  3.7593 -0.6316 -1.3648
 4578SOL     OW25192   3.221   0.060   0.755  0.1299 -0.1930  0.0070
 4578SOL    HW125193   3.246   0.066   0.847 -0.8914 -0.3205  0.2993
 4578SOL    HW225194   3.213   0.153   0.736  0.3527 -0.3662 -0.9200
 4579SOL     OW25195   1.320   1.344   3.066  0.3447  0.0436  0.0339
 4579SOL    HW125196   1.304   1.393   2.985  1.6197  2.4803  1.2402
 4579SOL    HW225197   1.243   1.288   3.060 -0.6545  1.6813 -2.8961
 4580SOL     OW25198   0.732   0.336   3.838 -0.2408  0.1143 -0.7376
 4580SOL    HW125199   0.749   0.376   3.923 -0.7716 -0.7875 -0.2197
 4580SOL    HW225200   0.808   0.369   3.788  0.4454  1.9777  1.5626
 4581SOL     OW25201   0.706   0.823   7.920  0.7038 -0.2919  0.2057
 4581SOL    HW125202   0.748   0.820   8.006  2.1769  1.0179 -0.4660
 4581SOL    HW225203   0.705   0.733   7.887 -1.3763 -0.1797 -0.0119
 4582SOL     OW25204   4.710   4.602  10.483 -0.2526 -0.0717  1.0608
 4582SOL    HW125205   4.700   4.529  10.545  0.0427 -1.5277 -0.6237
 4582SOL    HW225206   4.644   4.664  10.517  0.2605  1.2620 -0.4004
 4583SOL     OW25207   4.252   1.340   9.538  0.4466 -0.1558  0.6121
 4583SOL    HW125208   4.235   1.251   9.567  0.4067 -0.1526  0.5992
 4583SOL    HW225209   4.182   1.382   9.589 -0.0835 -0.5810  0.2375
 4584SOL     OW25210   0.004   2.098   6.161 -0.6164 -0.0462 -0.3092
 4584SOL    HW125211   4.643   2.110   6.209 -0.8812 -3.1499  0.0281
 4584SOL    HW225212   0.040   2.185   6.173 -1.0534  0.4053 -2.3363
 4585SOL     OW25213   3.119   1.185  15.873 -0.1960  0.1798  0.0582
 4585SOL    HW125214   3.057   1.112  15.868  0.8306 -0.7145  0.5422
 4585SOL    HW225215   3.084   1.218  15.790  1.7942 -1.4564 -1.4147
 4586SOL     OW25216   2.350   0.742   2.354  0.2094  0.7331  0.4491
 4586SOL    HW125217   2.342   0.648   2.369 -1.7973  0.1824 -4.3314
 4586SOL    HW225218   2.369   0.775   2.442  1.1020  1.1871  0.0812
 4587SOL     OW25219   2.581   2.621  10.294 -0.6600  0.1392  0.3078
 4587SOL    HW125220   2.506   2.565  10.276  1.5036 -1.8564 -2.4154
 4587SOL    HW225221   2.584   2.596  10.387  0.3763  1.6824  0.6890
 4588SOL     OW25222   3.110   0.497  15.566 -0.3583  0.1196  0.2521
 4588SOL    HW125223   3.073   0.546  15.639 -1.0524  1.2877 -0.8723
 4588SOL    HW225224   3.038   0.443  15.532 -1.4472 -0.3348  3.2706
 4589SOL     OW25225   3.756   4.126  12.057 -0.0966  0.5757  0.1145
 4589SOL    HW125226   3.702   4.136  12.134 -0.5386 -1.2547  0.0468
 4589SOL    HW225227   3.844   4.116  12.094  0.2727  1.0384 -0.6303
 4590SOL     OW25228   3.525   3.218  16.756 -0.1454  0.4956  0.0997
 4590SOL    HW125229   3.560   3.185  16.674 -0.8986  1.3448 -0.5555
 4590SOL    HW225230   3.430   3.214  16.748  0.0198 -2.0531 -0.4163
 4591SOL     OW25231   1.333   0.377   7.518 -0.0231 -0.3434  0.1113
 4591SOL    HW125232   1.291   0.435   7.455  1.4384 -0.3783 -0.9044
 4591SOL    HW225233   1.343   0.428   7.598 -2.0730  0.0585  0.1063
 4592SOL     OW25234   4.107   3.529  13.268  0.7860 -0.6482 -0.0587
 4592SOL    HW125235   4.199   3.536  13.242  1.0315  0.7223  1.2150
 4592SOL    HW225236   4.100   3.452  13.325 -0.8035 -0.4940 -0.0375
 4593SOL     OW25237   2.372   0.809   2.831 -0.0319 -0.4799 -0.6651
 4593SOL    HW125238   2.294   0.776   2.785 -0.5287 -0.9067  0.4768
 4593SOL    HW225239   2.329   0.859   2.901  0.1146 -1.1919 -0.0676
 4594SOL     OW25240   3.081   4.093   4.660 -0.2723 -0.2379  0.0250
 4594SOL    HW125241   3.097   4.132   4.746  0.7747 -1.6972  0.4953
 4594SOL    HW225242   3.012   4.154   4.634 -1.2107 -1.8781 -1.3073
 4595SOL     OW25243   1.902   4.522  15.038  0.2534 -0.1743  0.0228
 4595SOL    HW125244   1.884   4.564  15.122  0.1314  2.0307 -1.0909
 4595SOL    HW225245   1.921   4.435  15.071  0.5467  0.1963  0.8107
 4596SOL     OW25246   3.493   3.072   5.743 -0.0321 -0.0073  0.2424
 4596SOL    HW125247   3.523   3.123   5.668 -0.9891 -2.9773 -2.1983
 4596SOL    HW225248   3.474   2.986   5.706 -0.8975  0.0716  0.4883
 4597SOL     OW25249   1.757   2.048   4.264 -0.7345 -0.7702 -0.0277
 4597SOL    HW125250   1.746   1.964   4.308  0.7497  0.3372  2.4608
 4597SOL    HW225251   1.673   2.091   4.283  1.3967  4.0379 -1.4380
 4598SOL     OW25252   3.307   2.337  14.954 -0.7673  0.1075 -0.2382
 4598SOL    HW125253   3.324   2.376  14.868  0.5948  1.1084  0.4875
 4598SOL    HW225254   3.381   2.371  15.004 -0.9833 -0.1186  0.2386
 4599SOL     OW25255   2.990   2.006   5.259 -0.1312  0.6316  0.9281
 4599SOL    HW125256   2.993   2.072   5.189  0.0194 -0.1873  0.1643
 4599SOL    HW225257   2.936   1.934   5.228  2.1157 -1.5572  2.1082
 4600SOL     OW25258   3.967   2.209   7.790 -0.3975 -0.0991  0.4260
 4600SOL    HW125259   3.952   2.293   7.833 -2.3682 -0.6040  0.7460
 4600SOL    HW225260   4.020   2.165   7.857  0.6559  0.3493 -0.1138
 4601SOL     OW25261   2.346   1.300   5.824  0.6481  0.1491  0.5163
 4601SOL    HW125262   2.318   1.308   5.733  3.4235  1.5882 -0.2104
 4601SOL    HW225263   2.313   1.214   5.851 -0.8865  0.4540 -0.4106
 4602SOL     OW25264   0.519   2.871  12.571  0.3962  0.5883 -0.6479
 4602SOL    HW125265   0.542   2.802  12.509  1.0047  1.6580 -1.6079
 4602SOL    HW225266   0.604   2.895  12.608 -0.9780  0.6781  2.4827
 4603SOL     OW25267   0.646   0.898  11.700 -0.6499  0.2260  0.1461
 4603SOL    HW125268   0.628   0.885  11.793  0.2453 -2.3662 -0.0475
 4603SOL    HW225269   0.696   0.979  11.706  0.9079 -0.6781 -0.8142
 4604SOL     OW25270   3.380   0.125   7.942  0.2967  0.4190 -0.2041
 4604SOL    HW125271   3.322   0.143   8.016  0.2805  0.5425 -0.2464
 4604SOL    HW225272   3.328   0.057   7.898  0.0276  0.3229  0.2632
 4605SOL     OW25273   2.024   1.684   4.780 -0.5153  0.5659 -1.1620
 4605SOL    HW125274   1.965   1.758   4.765 -1.1313  0.3248  0.0286
 4605SOL    HW225275   2.104   1.729   4.809  0.4579 -0.5771 -2.0879
 4606SOL     OW25276   0.697   0.650   8.655 -0.3192 -0.2159  0.4362
 4606SOL    HW125277   0.738   0.595   8.587 -2.0605  0.6432 -1.2947
 4606SOL    HW225278   0.774   0.693   8.693 -0.3998 -0.6406  1.0745
 4607SOL     OW25279   4.391   4.456   5.379 -0.2761 -0.4120 -0.0777
 4607SOL    HW125280   4.414   4.534   5.429 -0.2730 -0.0671 -0.6155
 4607SOL    HW225281   4.349   4.501   5.305 -0.2294  2.2315  1.4923
 4608SOL     OW25282   2.081   0.200   5.957  0.1471  0.4410 -0.1433
 4608SOL    HW125283   2.022   0.149   5.901  2.2691 -0.9269 -1.1349
 4608SOL    HW225284   2.163   0.153   5.940  0.4073  0.9650 -0.3360
 4609SOL     OW25285   0.407   3.258  17.085 -0.0421  0.1159  0.1856
 4609SOL    HW125286   0.475   3.242  17.151 -0.3959 -2.5070 -0.0660
 4609SOL    HW225287   0.358   3.325  17.132  1.0671  0.7376  0.4543
 4610SOL     OW25288   0.642   1.252   3.580  0.1138  0.1512 -0.2566
 4610SOL    HW125289   0.551   1.249   3.552 -0.1891 -2.6561  0.9763
 4610SOL    HW225290   0.659   1.162   3.609 -1.6166  0.1197  0.6370
 4611SOL     OW25291   3.031   0.253  14.758 -0.0536  0.2961 -0.4866
 4611SOL    HW125292   2.952   0.281  14.805  1.2240 -0.4401  2.0864
 4611SOL    HW225293   3.073   0.197  14.823 -1.5238  0.2698  0.4624
 4612SOL     OW25294   2.122   2.483   4.482  0.1646  0.4242 -0.1208
 4612SOL    HW125295   2.126   2.421   4.555  0.4160  0.8885  0.2607
 4612SOL    HW225296   2.035   2.521   4.495  0.1739  0.7795 -1.1283
 4613SOL     OW25297   2.514   0.628   1.522  0.2056 -0.6804 -0.4372
 4613SOL    HW125298   2.446   0.670   1.574  0.7150 -1.6742  1.0056
 4613SOL    HW225299   2.466   0.575   1.458 -1.7302 -0.5360  0.8985
 4614SOL     OW25300   3.125   1.032   0.651  0.9657 -0.0906  0.0127
 4614SOL    HW125301   3.062   1.054   0.720  0.6016  0.3115 -0.4451
 4614SOL    HW225302   3.100   1.091   0.580 -2.8446  0.5370  1.8784
 4615SOL     OW25303   2.751   2.232   5.194 -0.1360 -0.3222 -0.0744
 4615SOL    HW125304   2.796   2.305   5.237 -0.3539 -0.3210  0.1512
 4615SOL    HW225305   2.819   2.185   5.144 -0.1323 -1.3138  0.8574
 4616SOL     OW25306   3.262   0.154   7.627  0.5264 -0.2100 -0.1210
 4616SOL    HW125307   3.242   0.245   7.649 -0.7778 -0.4314 -0.4121
 4616SOL    HW225308   3.226   0.110   7.704 -0.8159  0.9949 -0.0573
 4617SOL     OW25309   2.745   2.609   3.997  0.3402  0.2903 -0.2293
 4617SOL    HW125310   2.830   2.648   4.020  1.8840 -1.8552 -2.2863
 4617SOL    HW225311   2.741   2.527   4.047 -1.7017 -0.0835 -1.0050
 4618SOL     OW25312   2.047   0.960   3.173  0.5966  0.2601 -0.2774
 4618SOL    HW125313   2.033   0.999   3.259  0.3964 -1.9254  0.6765
 4618SOL    HW225314   2.027   0.867   3.185  0.9641  0.3914  1.2937
 4619SOL     OW25315   1.507   0.384  17.478 -0.4727 -0.2405 -0.3162
 4619SOL    HW125316   1.526   0.435  17.556  0.8983 -1.1491 -0.0602
 4619SOL    HW225317   1.584   0.327  17.471  0.9102  1.7922 -1.6078
 4620SOL     OW25318   3.161   2.548   4.231  0.3856 -0.8456  0.1964
 4620SOL    HW125319   3.152   2.588   4.318 -2.5100 -2.3033  0.5727
 4620SOL    HW225320   3.134   2.462   4.265  1.3171 -1.0353  0.4616
 4621SOL     OW25321   4.130   1.129   2.525  0.0743 -0.0595  0.2915
 4621SOL    HW125322   4.131   1.222   2.547 -1.6550 -0.3209  1.3935
 4621SOL    HW225323   4.192   1.130   2.451  1.1821 -0.4652  1.2165
 4622SOL     OW25324   3.927   0.687   6.234 -0.2488 -0.5236  0.4471
 4622SOL    HW125325   3.831   0.690   6.240 -0.3332 -1.2198 -0.5651
 4622SOL    HW225326   3.937   0.679   6.140 -2.6012  1.7209  0.0187
 4623SOL     OW25327   1.013   3.752  16.661 -0.3853  0.0968 -0.7578
 4623SOL    HW125328   0.924   3.781  16.680  0.3137  0.7652  1.5312
 4623SOL    HW225329   0.998   3.692  16.588  1.3719  0.0375 -1.0564
 4624SOL     OW25330   3.684   3.638  12.070 -0.4263 -0.2327 -0.3883
 4624SOL    HW125331   3.722   3.582  12.137 -1.4450  1.0169  1.2216
 4624SOL    HW225332   3.758   3.655  12.011 -0.2849 -0.1389 -0.1823
 4625SOL     OW25333   4.270   4.225   2.753  0.4404 -0.9449 -0.4097
 4625SOL    HW125334   4.224   4.289   2.807 -0.3425 -1.7953 -0.0652
 4625SOL    HW225335   4.210   4.152   2.740 -0.0124 -0.7486  0.5834
 4626SOL     OW25336   3.654   3.534  10.517  0.8607 -0.0701  0.2350
 4626SOL    HW125337   3.680   3.625  10.513 -1.2054  0.4473 -1.5143
 4626SOL    HW225338   3.674   3.503  10.605  2.6107 -2.6290 -1.0432
 4627SOL     OW25339   1.247   3.620   0.748 -0.0477  0.2133  0.1203
 4627SOL    HW125340   1.231   3.525   0.748 -1.8176  0.5155 -0.6696
 4627SOL    HW225341   1.163   3.653   0.780 -1.4576 -2.5513 -0.7218
 4628SOL     OW25342   2.866   3.529  15.006 -0.0845 -0.3321  0.1467
 4628SOL    HW125343   2.884   3.594  15.074 -0.2513 -0.8247  0.6620
 4628SOL    HW225344   2.895   3.584  14.933  2.3717 -2.1504 -0.2848
 4629SOL     OW25345   1.411   0.309   6.941  0.8491  0.4141  0.2484
 4629SOL    HW125346   1.331   0.274   6.979  1.1202 -0.6650 -0.1922
 4629SOL    HW225347   1.417   0.392   6.988 -1.9102  0.8119 -0.1295
 4630SOL     OW25348   0.649   4.710  17.519 -0.1128  0.6616 -0.1283
 4630SOL    HW125349   0.622   4.685  17.608  1.1158  1.6618  0.5295
 4630SOL    HW225350   0.626   4.629  17.474  0.6703  0.1221  0.4440
 4631SOL     OW25351   2.140   0.080   4.918  0.1500  0.1978 -0.0339
 4631SOL    HW125352   2.151   0.173   4.936  2.9246  0.3280 -2.4729
 4631SOL    HW225353   2.087   0.051   4.993  1.5897 -0.2700  0.7978
 4632SOL     OW25354   1.670   4.056   6.500 -0.3144 -0.1250 -0.1935
 4632SOL    HW125355   1.617   4.129   6.533  1.0956  1.4014 -1.2784
 4632SOL    HW225356   1.659   3.993   6.571  0.9133 -0.3488 -0.2047
 4633SOL     OW25357   3.898   3.084   3.357  0.0696  0.6295  0.4224
 4633SOL    HW125358   3.863   2.995   3.353  0.6791  0.3248  2.0354
 4633SOL    HW225359   3.841   3.132   3.418 -1.0116  1.5478 -1.3135
 4634SOL     OW25360   2.453   0.675   6.029 -0.5571 -0.1330  0.0073
 4634SOL    HW125361   2.433   0.581   6.032  1.0144 -0.4663  0.1956
 4634SOL    HW225362   2.426   0.704   6.115  2.1968  1.1802  0.4394
 4635SOL     OW25363   0.361   3.707   6.450  0.4319 -0.2763 -0.0561
 4635SOL    HW125364   0.360   3.800   6.473  3.2070 -0.3657  0.3895
 4635SOL    HW225365   0.453   3.698   6.423  1.0410 -0.3454  2.0452
 4636SOL     OW25366   1.367   4.660   3.797  0.2420  0.2531 -0.3389
 4636SOL    HW125367   1.315   0.003   3.846  3.2221  0.1745  2.8483
 4636SOL    HW225368   1.320   4.577   3.799  1.9132 -0.5920  3.8432
 4637SOL     OW25369   2.144   1.158   8.338  0.0217  0.5399 -0.2021
 4637SOL    HW125370   2.123   1.146   8.431 -1.0623  1.4271 -0.3367
 4637SOL    HW225371   2.084   1.230   8.317 -1.3279 -0.6406 -0.3420
 4638SOL     OW25372   3.605   2.878   8.611 -0.5432  0.1884  0.4338
 4638SOL    HW125373   3.543   2.949   8.596 -0.7293  0.4352  2.4335
 4638SOL    HW225374   3.654   2.902   8.532 -0.6763 -0.1699  0.2415
 4639SOL     OW25375   4.003   3.526   3.673  0.2851 -0.0903 -0.0238
 4639SOL    HW125376   3.964   3.441   3.694  2.1097 -0.9361 -0.0680
 4639SOL    HW225377   3.969   3.584   3.740 -0.8027  2.0178 -2.3962
 4640SOL     OW25378   0.244   3.767   8.183  0.4793  0.7360  0.3040
 4640SOL    HW125379   0.270   3.795   8.270  2.0360  1.1658 -0.3100
 4640SOL    HW225380   0.261   3.849   8.137 -0.8955  1.3919  0.9574
 4641SOL     OW25381   0.219   0.020  17.374 -0.3480  0.0668  0.2094
 4641SOL    HW125382   0.180   4.707  17.293  3.4248 -0.9149 -1.1709
 4641SOL    HW225383   0.309   0.036  17.346 -0.8898  1.1730 -0.9177
 4642SOL     OW25384   4.038   3.429   4.288 -0.0384  1.1871  0.3112
 4642SOL    HW125385   3.950   3.446   4.323 -1.6213 -1.7877 -2.2939
 4642SOL    HW225386   4.074   3.516   4.304 -1.0717  1.4045  1.5115
 4643SOL     OW25387   2.419   1.673   5.280  0.4057 -0.0554  0.6248
 4643SOL    HW125388   2.448   1.760   5.309 -1.1978  1.2925 -1.8050
 4643SOL    HW225389   2.420   1.636   5.368 -1.4358 -4.1796 -1.0890
 4644SOL     OW25390   3.327   2.466  10.733 -0.5983  0.2768 -0.2461
 4644SOL    HW125391   3.289   2.378  10.734  2.9609 -1.2797 -0.5548
 4644SOL    HW225392   3.374   2.467  10.817 -1.9882 -0.4465  0.5333
 4645SOL     OW25393   1.758   0.963   7.402 -0.0651 -0.4078  0.0724
 4645SOL    HW125394   1.794   1.020   7.334 -1.6750  1.9134  1.1528
 4645SOL    HW225395   1.684   1.021   7.422 -0.6915 -1.2881  0.3364
 4646SOL     OW25396   3.965   2.655   8.570  0.0711 -0.3912 -0.3459
 4646SOL    HW125397   3.936   2.618   8.486  0.7620 -2.7001  0.4137
 4646SOL    HW225398   4.003   2.575   8.606  1.2856  0.0461 -0.6412
 4647SOL     OW25399   2.671   2.075  10.576 -0.0188  0.3031 -0.4122
 4647SOL    HW125400   2.645   2.037  10.659  0.9814 -2.8631 -1.5576
 4647SOL    HW225401   2.739   2.013  10.549 -1.4879 -1.0051 -1.0477
 4648SOL     OW25402   3.051   2.808   9.306 -0.1163  0.0879 -0.2447
 4648SOL    HW125403   3.092   2.806   9.220  1.0953 -0.4027  0.3503
 4648SOL    HW225404   3.007   2.893   9.301  0.8850  0.4816 -2.2658
 4649SOL     OW25405   1.418   0.879  15.327  0.0462  0.0637  0.4521
 4649SOL    HW125406   1.392   0.795  15.289  1.1483  0.2787 -0.7828
 4649SOL    HW225407   1.420   0.853  15.419 -0.9540 -2.7681 -0.3423
 4650SOL     OW25408   1.970   3.407  15.380  0.5838  0.0696  0.9839
 4650SOL    HW125409   1.960   3.375  15.470 -0.6321 -0.3309  0.7035
 4650SOL    HW225410   2.060   3.439  15.371  0.1768  1.0093  0.3223
 4651SOL     OW25411   3.539   1.401   3.422  0.2056  0.2609 -0.0977
 4651SOL    HW125412   3.584   1.357   3.349 -0.9827  0.4336 -0.9436
 4651SOL    HW225413   3.452   1.416   3.385  0.2398 -0.9891 -0.7009
 4652SOL     OW25414   3.744   3.469   4.758  0.2339 -0.1553 -0.0895
 4652SOL    HW125415   3.690   3.508   4.689 -0.8459  1.4339  1.6339
 4652SOL    HW225416   3.755   3.548   4.812  1.3320 -0.5559  0.2860
 4653SOL     OW25417   0.286   0.053  15.204 -0.2780 -0.0761 -0.2347
 4653SOL    HW125418   0.380   0.044  15.223 -0.5416 -1.8404  0.2996
 4653SOL    HW225419   0.264   0.144  15.225 -0.1589  0.4473 -2.4269
 4654SOL     OW25420   0.913   0.428   5.975  0.3650  0.2278 -0.4150
 4654SOL    HW125421   0.953   0.489   5.912  2.4002 -0.2704  0.3852
 4654SOL    HW225422   0.969   0.433   6.053  1.6161 -1.5715 -1.1912
 4655SOL     OW25423   1.786   3.612  10.489  0.1260  0.2732  0.3212
 4655SOL    HW125424   1.823   3.529  10.520  1.3527  1.5407  2.1705
 4655SOL    HW225425   1.739   3.593  10.407  2.2458 -0.2264 -0.7895
 4656SOL     OW25426   2.844   0.914   7.202 -0.8552  0.1673  0.5071
 4656SOL    HW125427   2.762   0.961   7.186 -1.2551 -0.7491 -0.1148
 4656SOL    HW225428   2.895   0.961   7.136  1.0482 -0.3299  1.6044
 4657SOL     OW25429   1.619   3.535  14.320 -0.2778  0.8757 -0.3561
 4657SOL    HW125430   1.650   3.586  14.245  1.5432 -1.1673 -0.9777
 4657SOL    HW225431   1.575   3.463  14.274  1.4193 -0.2621 -0.2008
 4658SOL     OW25432   0.594   4.550  11.095 -0.7164  0.6677 -0.5946
 4658SOL    HW125433   0.596   4.455  11.102  0.7663  0.7765  0.4019
 4658SOL    HW225434   0.650   4.568  11.019  2.2778 -1.5265  1.1401
 4659SOL     OW25435   3.493   4.601  15.811 -0.2801  0.4630 -0.2668
 4659SOL    HW125436   3.440   4.671  15.772 -1.0333 -0.4149 -0.8248
 4659SOL    HW225437   3.512   4.547  15.734 -0.4714  0.6125 -0.4223
 4660SOL     OW25438   1.035   3.641  14.931  0.2846  0.0816  0.7080
 4660SOL    HW125439   0.974   3.687  14.989 -1.8060 -1.1321 -0.5365
 4660SOL    HW225440   0.996   3.676  14.851 -1.3233  0.7747  1.7882
 4661SOL     OW25441   4.324   3.634   1.629 -0.0243 -0.7074  0.1087
 4661SOL    HW125442   4.236   3.671   1.620 -0.1016 -0.4113  2.2401
 4661SOL    HW225443   4.333   3.622   1.723  0.1572  0.6491  0.2662
 4662SOL     OW25444   4.476   0.577   2.986  0.4123 -0.6446  0.0589
 4662SOL    HW125445   4.425   0.647   2.947  1.6983 -0.6748 -1.7100
 4662SOL    HW225446   4.540   0.561   2.916  0.2181 -0.6555 -0.1140
 4663SOL     OW25447   2.383   0.968   7.817  0.5912 -0.1556  1.0272
 4663SOL    HW125448   2.430   1.051   7.819 -0.0448  0.2318 -0.2381
 4663SOL    HW225449   2.329   0.974   7.896 -0.7333  2.0768 -0.0506
 4664SOL     OW25450   4.129   4.158   8.623  0.1991  0.0593  0.3278
 4664SOL    HW125451   4.185   4.127   8.694 -1.0142 -0.3745  1.0862
 4664SOL    HW225452   4.195   4.206   8.573 -0.3245  0.4402 -0.0079
 4665SOL     OW25453   0.762   2.068   5.550  0.2259 -0.1618  0.2248
 4665SOL    HW125454   0.712   2.015   5.611 -1.0345  1.0440  0.2359
 4665SOL    HW225455   0.779   1.999   5.487  2.8481 -1.3017  2.1677
 4666SOL     OW25456   1.750   3.206   8.483  0.1564 -0.0648  0.0180
 4666SOL    HW125457   1.830   3.228   8.436  0.1133 -0.3855 -0.2060
 4666SOL    HW225458   1.687   3.183   8.416 -0.2575 -0.7177  0.6282
 4667SOL     OW25459   4.433   2.954   1.062 -0.5574 -0.0230 -0.6893
 4667SOL    HW125460   4.368   3.017   1.030 -0.8325  0.3500  0.5990
 4667SOL    HW225461   4.447   2.993   1.148 -2.9431 -0.9120  0.0995
 4668SOL     OW25462   0.459   4.521   9.741  0.2708  0.6646  0.6296
 4668SOL    HW125463   0.482   4.491   9.829 -0.6512 -1.1877  0.2445
 4668SOL    HW225464   0.475   4.442   9.690  1.1876  1.7336 -0.7347
 4669SOL     OW25465   1.390   2.837   7.203 -0.2323 -0.0213  0.0196
 4669SOL    HW125466   1.451   2.845   7.275 -0.0995  1.5361 -0.2487
 4669SOL    HW225467   1.441   2.790   7.137  0.4614  0.1327  0.4489
 4670SOL     OW25468   2.603   2.300   8.127 -0.4100 -0.0051 -0.1341
 4670SOL    HW125469   2.579   2.209   8.144 -1.9770  0.4707  0.1946
 4670SOL    HW225470   2.673   2.293   8.062 -1.0712  0.7606 -0.9361
 4671SOL     OW25471   4.148   2.637   3.543 -0.0692  0.3550 -0.2521
 4671SOL    HW125472   4.188   2.581   3.610 -1.4738 -0.5188 -0.1585
 4671SOL    HW225473   4.204   2.712   3.564  2.2412 -1.2297 -0.7325
 4672SOL     OW25474   0.656   0.643  12.091  0.2115  0.4735  0.1637
 4672SOL    HW125475   0.718   0.629  12.163 -0.2544 -0.1222  0.4486
 4672SOL    HW225476   0.665   0.562  12.040  2.3733  1.6934 -1.3536
 4673SOL     OW25477   1.102   2.707   4.251  0.1718 -0.6176  0.2630
 4673SOL    HW125478   1.121   2.800   4.249 -0.4835 -0.4495  2.3363
 4673SOL    HW225479   1.052   2.694   4.170 -1.0530 -1.5457  1.1589
 4674SOL     OW25480   4.302   3.003  17.625  0.1238 -0.2704  0.5704
 4674SOL    HW125481   4.267   3.082  17.583 -0.7656 -0.3089  1.2486
 4674SOL    HW225482   4.284   2.946  17.550  0.6244  1.4395 -0.8513
 4675SOL     OW25483   1.472   2.479   7.337  0.1854  0.2184 -0.2076
 4675SOL    HW125484   1.469   2.517   7.425  0.5281 -1.3197  0.4621
 4675SOL    HW225485   1.411   2.534   7.289 -3.2054 -2.3650  1.1434
 4676SOL     OW25486   0.129   3.947   7.182  0.6107 -0.3739  0.1955
 4676SOL    HW125487   0.180   3.902   7.250  1.6496  0.2368 -0.1856
 4676SOL    HW225488   0.039   3.924   7.203  0.2980  0.6906  0.0221
 4677SOL     OW25489   3.585   2.178   8.173  0.6107 -0.0457  0.6504
 4677SOL    HW125490   3.672   2.148   8.197 -0.3296 -1.5561  2.1682
 4677SOL    HW225491   3.539   2.095   8.160  0.0260  0.2038  1.0658
 4678SOL     OW25492   0.448   2.876   8.369  0.9298 -0.2194  0.1562
 4678SOL    HW125493   0.353   2.886   8.374  0.6409 -3.5701  1.7975
 4678SOL    HW225494   0.472   2.885   8.461 -1.1146 -2.8153  0.9460
 4679SOL     OW25495   1.877   4.185   4.941  0.0553 -0.4162  1.0399
 4679SOL    HW125496   1.970   4.207   4.946  0.8649 -2.9383 -3.0032
 4679SOL    HW225497   1.843   4.256   4.887  0.2420 -1.1364 -0.0184
 4680SOL     OW25498   0.727   1.045  13.235  0.0095 -0.2435 -0.0111
 4680SOL    HW125499   0.769   0.981  13.177 -0.0923 -1.0322  0.7889
 4680SOL    HW225500   0.705   1.114  13.173 -0.1376 -0.6086 -0.3636
 4681SOL     OW25501   1.579   1.215   2.979  0.0065 -0.3622  0.5418
 4681SOL    HW125502   1.559   1.169   2.898 -1.7779 -1.1608  1.4427
 4681SOL    HW225503   1.491   1.229   3.014  0.8653  1.7956  1.8704
 4682SOL     OW25504   2.541   4.316   9.776 -0.1642  0.5703 -0.1052
 4682SOL    HW125505   2.620   4.350   9.734 -0.3982  0.2859 -0.7781
 4682SOL    HW225506   2.523   4.400   9.819  1.3503  0.0910  1.4387
 4683SOL     OW25507   0.171   3.426   9.723  0.4300  0.6022  0.1261
 4683SOL    HW125508   0.115   3.372   9.667 -0.6856  0.1406  1.6984
 4683SOL    HW225509   0.108   3.475   9.776  0.4160  2.0867 -1.2409
 4684SOL     OW25510   2.035   2.747   7.050  0.0551  0.1016 -0.0372
 4684SOL    HW125511   2.108   2.799   7.083 -0.2217 -0.7487  1.8893
 4684SOL    HW225512   1.973   2.817   7.032 -0.1875  0.1217  0.8921
 4685SOL     OW25513   3.091   1.509   5.316  0.8495  0.3193 -0.3301
 4685SOL    HW125514   3.072   1.465   5.233  0.3739 -0.2682  0.0940
 4685SOL    HW225515   3.040   1.460   5.380 -0.1510  0.4305 -1.0268
 4686SOL     OW25516   2.097   2.662   1.020  0.4495  0.0869  0.1500
 4686SOL    HW125517   2.098   2.679   0.925  0.0396 -0.7965 -0.0124
 4686SOL    HW225518   2.182   2.625   1.045  0.5065 -0.1308 -0.3597
 4687SOL     OW25519   4.480   3.227   8.467  0.4787 -0.3778 -0.1028
 4687SOL    HW125520   4.442   3.222   8.379  2.3091 -0.3678 -0.9090
 4687SOL    HW225521   4.507   3.319   8.475  0.6764 -0.4691  0.2842
 4688SOL     OW25522   3.129   3.360  15.170 -0.1723  0.0674 -0.4063
 4688SOL    HW125523   3.223   3.378  15.174 -0.2587  0.6101 -0.9829
 4688SOL    HW225524   3.095   3.422  15.234  1.7174 -1.0616  1.7222
 4689SOL     OW25525   1.991   4.093   6.673 -0.3178 -0.1362  0.2924
 4689SOL    HW125526   1.966   4.126   6.586 -1.0308  0.0474  0.5675
 4689SOL    HW225527   1.940   4.013   6.667  0.1162 -0.3842 -0.1150
 4690SOL     OW25528   1.301   0.706  15.118  0.1515 -0.3783 -0.3157
 4690SOL    HW125529   1.274   0.624  15.077 -1.9933  1.1335 -1.8986
 4690SOL    HW225530   1.329   0.766  15.049 -1.3374 -2.7575 -3.0039
 4691SOL     OW25531   3.144   1.137   2.915  0.1434 -0.2340  0.3070
 4691SOL    HW125532   3.157   1.154   2.821 -1.6228  0.4054  0.1805
 4691SOL    HW225533   3.159   1.223   2.953  0.3849 -0.1748  0.0835
 4692SOL     OW25534   4.296   3.675   6.784 -0.3199 -0.1958  0.1334
 4692SOL    HW125535   4.370   3.706   6.836  0.3763 -0.2142 -0.8609
 4692SOL    HW225536   4.224   3.721   6.829  0.9959  1.2949  0.7228
 4693SOL     OW25537   2.469   0.357  10.898 -0.0608 -0.8765  0.3357
 4693SOL    HW125538   2.503   0.385  10.814 -0.1691 -0.4204  0.4401
 4693SOL    HW225539   2.444   0.440  10.940 -1.6262 -0.5005 -1.3413
 4694SOL     OW25540   1.633   4.367   8.478 -0.3988 -0.3618 -0.0589
 4694SOL    HW125541   1.709   4.310   8.464  0.6701  1.1917 -0.5811
 4694SOL    HW225542   1.674   4.445   8.514  0.3687  1.1603 -4.1945
 4695SOL     OW25543   4.441   4.068  17.012 -0.0979 -0.0743 -0.2973
 4695SOL    HW125544   4.411   4.084  17.101  0.9552 -0.0448  0.0550
 4695SOL    HW225545   4.462   4.157  16.984  2.1609 -0.0019  1.5891
 4696SOL     OW25546   3.681   4.032  14.678 -0.1656  0.3482  0.3256
 4696SOL    HW125547   3.622   4.084  14.623 -0.4511  0.2947  0.5799
 4696SOL    HW225548   3.656   4.066  14.764  0.8000  1.3260  0.2163
 4697SOL     OW25549   0.144   2.512   8.309 -0.1861 -0.0405 -0.2108
 4697SOL    HW125550   0.206   2.582   8.328 -0.3845  0.4789 -1.5248
 4697SOL    HW225551   0.114   2.550   8.226  1.7226  0.5771 -0.6208
 4698SOL     OW25552   1.321   0.446   6.291 -0.3789 -0.4101  0.4036
 4698SOL    HW125553   1.377   0.445   6.369 -0.1378  0.4904  0.2323
 4698SOL    HW225554   1.346   0.369   6.239  0.6795  1.2638 -1.5437
 4699SOL     OW25555   2.945   4.157   3.710 -0.0638  0.3124  0.4005
 4699SOL    HW125556   2.886   4.134   3.638  2.5562 -1.9525 -1.0508
 4699SOL    HW225557   2.917   4.095   3.777  0.3952  1.7187  1.8750
 4700SOL     OW25558   3.226   2.689  14.106 -0.6326  0.0828  0.6831
 4700SOL    HW125559   3.154   2.626  14.113  1.3688 -2.1015  1.4232
 4700SOL    HW225560   3.225   2.737  14.023  2.3709 -2.2527 -0.6972
 4701SOL     OW25561   3.457   1.908   2.280 -0.2774  0.1125  0.4385
 4701SOL    HW125562   3.371   1.880   2.250 -0.3108  0.3032  0.3584
 4701SOL    HW225563   3.458   1.866   2.366 -0.5356  0.0742  0.4221
 4702SOL     OW25564   3.974   3.546   5.428 -0.0786 -0.3648  0.1194
 4702SOL    HW125565   3.950   3.460   5.394 -2.0093  1.3484 -2.8156
 4702SOL    HW225566   3.906   3.606   5.399 -0.0183  1.1526  3.1241
 4703SOL     OW25567   2.670   0.832  12.414 -0.3884 -0.5369 -0.0916
 4703SOL    HW125568   2.649   0.833  12.320 -0.8722  0.5518  0.0358
 4703SOL    HW225569   2.582   0.835  12.452 -0.4280  0.8541 -0.2831
 4704SOL     OW25570   0.209   0.397   4.586  0.2194 -0.0364 -0.6539
 4704SOL    HW125571   0.128   0.367   4.626 -0.7463  0.9404 -1.9042
 4704SOL    HW225572   0.231   0.467   4.648 -0.0569 -0.2575 -0.3045
 4705SOL     OW25573   1.350   2.221   5.164 -0.0703  0.3680 -0.0575
 4705SOL    HW125574   1.288   2.270   5.217 -1.1513 -0.7079 -0.3120
 4705SOL    HW225575   1.305   2.219   5.079 -0.2315  0.8396  0.0179
 4706SOL     OW25576   1.405   4.694   6.421 -0.9825  0.1897  0.0341
 4706SOL    HW125577   1.327   4.638   6.413  0.1992 -1.3430 -0.6681
 4706SOL    HW225578   1.438   4.691   6.331 -0.3354 -0.4291  0.2974
 4707SOL     OW25579   0.372   0.955   3.572 -0.2828 -0.4754  0.0425
 4707SOL    HW125580   0.428   0.975   3.498 -1.1161 -0.1292 -0.4940
 4707SOL    HW225581   0.334   1.041   3.588 -2.0882 -1.2588 -0.0325
 4708SOL     OW25582   3.640   1.177   5.230 -0.5112  0.3564 -0.1334
 4708SOL    HW125583   3.561   1.169   5.177 -0.1697 -0.7816 -0.4775
 4708SOL    HW225584   3.629   1.106   5.294 -1.0845 -0.7694 -1.4720
 4709SOL     OW25585   3.873   4.619   3.283  1.2240 -0.7568  0.2068
 4709SOL    HW125586   3.956   4.576   3.264  1.9226  0.5593  0.2857
 4709SOL    HW225587   3.902   4.670   3.359 -2.1023  1.2242  0.1302
 4710SOL     OW25588   2.396   3.190   4.702 -0.0430 -0.7436 -0.0735
 4710SOL    HW125589   2.343   3.238   4.638  2.2205  1.3290 -0.4208
 4710SOL    HW225590   2.388   3.240   4.783 -0.3411  0.0603 -0.5936
 4711SOL     OW25591   3.632   3.401   7.119  0.6015  0.0943  0.6252
 4711SOL    HW125592   3.676   3.339   7.177  0.2084  1.2248  2.1659
 4711SOL    HW225593   3.644   3.355   7.037  0.0751 -0.9109  1.1105
 4712SOL     OW25594   0.186   0.267  14.209  0.1970  0.0536 -0.4122
 4712SOL    HW125595   0.106   0.253  14.260  0.1199  1.1331 -0.2230
 4712SOL    HW225596   0.158   0.219  14.132 -1.4198  0.7313 -0.2600
 4713SOL     OW25597   2.694   0.927  16.461 -0.1473  0.0250  0.8394
 4713SOL    HW125598   2.712   0.854  16.520  1.6097 -0.1907  0.0497
 4713SOL    HW225599   2.614   0.899  16.416  1.3440 -0.4988 -1.4852
 4714SOL     OW25600   3.100   1.141   3.637  0.0967  0.2247 -0.0186
 4714SOL    HW125601   3.118   1.094   3.556  2.8483  0.8316  0.2351
 4714SOL    HW225602   3.036   1.084   3.679  1.8025 -2.1755 -0.6311
 4715SOL     OW25603   2.159   2.354   3.544 -0.2753 -0.3309 -0.2290
 4715SOL    HW125604   2.201   2.428   3.588 -3.3078  0.6702  0.9804
 4715SOL    HW225605   2.211   2.277   3.568 -0.3456 -0.8006 -1.5580
 4716SOL     OW25606   2.309   0.618   1.326 -0.1524 -0.0161 -0.3435
 4716SOL    HW125607   2.322   0.707   1.360 -0.1004 -0.5621  1.0463
 4716SOL    HW225608   2.225   0.602   1.368  0.7448  0.5077  1.6421
 4717SOL     OW25609   1.359   2.119   4.086 -0.0929  0.7696  0.9414
 4717SOL    HW125610   1.292   2.114   4.154  0.4414  3.1572  1.6563
 4717SOL    HW225611   1.431   2.121   4.148  0.4027 -0.1194  0.3932
 4718SOL     OW25612   4.696   1.330   5.705  0.4400 -0.5345 -0.2796
 4718SOL    HW125613   0.070   1.335   5.699  0.4980  0.7546  1.8503
 4718SOL    HW225614   4.676   1.387   5.779  3.4338  0.1418 -0.0117
 4719SOL     OW25615   3.381   0.827   6.672 -0.2903 -0.2800 -0.1927
 4719SOL    HW125616   3.457   0.871   6.710 -0.7137  0.0416  0.2752
 4719SOL    HW225617   3.347   0.889   6.608 -1.2666  1.3772  1.9172
 4720SOL     OW25618   0.693   1.757   4.854  0.3822 -0.0864 -0.0800
 4720SOL    HW125619   0.632   1.684   4.848  0.7158 -0.4873  1.4324
 4720SOL    HW225620   0.740   1.759   4.770 -0.5791 -1.0652 -0.6319
 4721SOL     OW25621   4.259   2.340  11.557 -0.2410 -0.2642  0.3538
 4721SOL    HW125622   4.338   2.312  11.510  0.3872  3.6189 -0.9376
 4721SOL    HW225623   4.193   2.345  11.488 -0.2169 -0.5861  0.3085
 4722SOL     OW25624   3.335   2.425   6.570 -0.4458 -0.3578 -0.1842
 4722SOL    HW125625   3.383   2.344   6.554 -1.7610 -1.2538  0.4392
 4722SOL    HW225626   3.271   2.399   6.636  1.3682 -1.1204  1.2820
 4723SOL     OW25627   1.469   2.590   7.583  0.0313 -0.1958 -0.0311
 4723SOL    HW125628   1.470   2.649   7.658  1.6930 -2.0860  1.4360
 4723SOL    HW225629   1.475   2.510   7.636  0.9595 -1.1080 -1.5077
 4724SOL     OW25630   0.373   3.431  12.353 -0.1993  0.1041 -0.3830
 4724SOL    HW125631   0.425   3.490  12.299 -1.1936  1.3334  0.0175
 4724SOL    HW225632   0.432   3.356  12.359  1.0080  1.0090 -1.0555
 4725SOL     OW25633   0.577   0.966   7.378  0.1415 -0.1085 -0.1980
 4725SOL    HW125634   0.591   0.911   7.456  0.6504 -1.3415 -1.1588
 4725SOL    HW225635   0.615   0.910   7.310 -1.2189 -0.8237 -0.3612
 4726SOL     OW25636   0.620   0.529   6.915  0.4927 -0.2841 -0.4265
 4726SOL    HW125637   0.703   0.496   6.950  0.8161 -1.5023 -2.3321
 4726SOL    HW225638   0.560   0.528   6.991  1.5763 -0.7368  0.4233
 4727SOL     OW25639   0.529   3.623   4.417  0.2634 -0.3446  0.3195
 4727SOL    HW125640   0.444   3.582   4.397  0.0794 -0.8080  2.0330
 4727SOL    HW225641   0.537   3.622   4.512  1.3624  2.3072  0.2446
 4728SOL     OW25642   1.767   4.161   7.217  0.4358  0.1827  0.3426
 4728SOL    HW125643   1.710   4.236   7.202 -0.1569 -0.1132  1.1015
 4728SOL    HW225644   1.738   4.107   7.144 -0.7895 -0.9678  1.6796
 4729SOL     OW25645   3.209   2.244   4.149  0.1573  0.7724 -0.3434
 4729SOL    HW125646   3.139   2.286   4.199 -0.8894  0.8746 -1.8915
 4729SOL    HW225647   3.185   2.151   4.151  1.5066  0.3980 -1.4644
 4730SOL     OW25648   4.235   1.471   9.896  0.0260  0.1560  0.2697
 4730SOL    HW125649   4.273   1.515   9.972  2.1614 -1.1795 -0.0432
 4730SOL    HW225650   4.290   1.393   9.900 -0.3249 -0.1153 -0.1212
 4731SOL     OW25651   2.642   4.536   2.016  0.3656 -0.1234 -0.2625
 4731SOL    HW125652   2.724   4.577   1.991 -1.3078  2.3489 -1.6155
 4731SOL    HW225653   2.660   4.447   1.983  1.9731  0.6215 -1.3953
 4732SOL     OW25654   3.199   2.479  12.309  0.4299  0.5823 -0.0539
 4732SOL    HW125655   3.150   2.560  12.327 -0.9447 -0.4314  0.8301
 4732SOL    HW225656   3.274   2.521  12.267  1.6442 -0.1012  1.4651
 4733SOL     OW25657   0.872   0.343   7.484  0.2612  0.0281  0.0634
 4733SOL    HW125658   0.896   0.250   7.482  0.8952  0.1854  0.3165
 4733SOL    HW225659   0.776   0.341   7.493  0.1438  0.4348 -1.0813
 4734SOL     OW25660   0.772   1.072   8.470 -0.1322 -0.3028  0.2586
 4734SOL    HW125661   0.834   1.137   8.502 -1.4597 -0.3622  2.9199
 4734SOL    HW225662   0.718   1.071   8.549 -0.5515 -1.6835 -0.0420
 4735SOL     OW25663   1.549   4.313   3.953  0.9119 -0.0370  0.0869
 4735SOL    HW125664   1.622   4.271   3.997 -0.2454 -2.3201 -0.2128
 4735SOL    HW225665   1.512   4.242   3.901 -0.5522 -0.6124  1.9517
 4736SOL     OW25666   2.879   4.451   8.756  0.0908 -0.4134  0.2269
 4736SOL    HW125667   2.803   4.504   8.778  1.3281  1.6842 -0.5103
 4736SOL    HW225668   2.879   4.388   8.828  2.6637 -0.5256  0.1311
 4737SOL     OW25669   2.293   3.852   6.657 -0.1420  0.2009 -0.1083
 4737SOL    HW125670   2.205   3.832   6.624  0.0648 -0.5060 -0.2242
 4737SOL    HW225671   2.336   3.892   6.581 -1.5853  1.5945 -0.2124
 4738SOL     OW25672   4.388   1.912   5.641  0.0724 -0.3995  0.2050
 4738SOL    HW125673   4.471   1.959   5.653 -0.3406 -0.1252  2.0684
 4738SOL    HW225674   4.324   1.978   5.616 -0.8664 -1.5660 -0.4623
 4739SOL     OW25675   3.691   3.228   2.003 -0.0046 -0.0863  0.8431
 4739SOL    HW125676   3.621   3.238   1.938 -0.2299  0.0916  1.1161
 4739SOL    HW225677   3.759   3.291   1.979 -0.9580  1.3576  2.0106
 4740SOL     OW25678   4.211   3.585   6.434 -0.7971  0.0238 -0.6889
 4740SOL    HW125679   4.204   3.678   6.456 -0.8091 -0.2181  0.3128
 4740SOL    HW225680   4.281   3.554   6.491 -0.9749  0.6080 -0.1594
 4741SOL     OW25681   1.053   3.887  17.677  0.0936 -0.0550  0.6145
 4741SOL    HW125682   1.049   3.812  17.618 -3.0186 -0.9078  1.9152
 4741SOL    HW225683   0.972   3.936  17.659  0.5756  0.2822 -0.6253
 4742SOL     OW25684   1.570   3.760   6.419 -0.6696 -0.3050  0.2683
 4742SOL    HW125685   1.528   3.673   6.418 -1.4990  0.0624  2.6599
 4742SOL    HW225686   1.583   3.790   6.509  1.7162 -3.0736  0.8674
 4743SOL     OW25687   3.441   1.500   3.677  0.2450  0.1905  0.3861
 4743SOL    HW125688   3.478   1.470   3.595  2.4861  0.6314  1.2207
 4743SOL    HW225689   3.443   1.419   3.728  1.8140 -0.6218 -0.9731
 4744SOL     OW25690   0.643   4.023   5.053  0.0310  0.1009 -0.2622
 4744SOL    HW125691   0.717   4.078   5.075  1.2152 -1.8166  0.5889
 4744SOL    HW225692   0.596   4.027   5.137  0.3723 -0.2876 -0.0537
 4745SOL     OW25693   3.471   2.592   5.436  0.0972 -0.5713 -0.0760
 4745SOL    HW125694   3.522   2.650   5.378  0.9154 -2.0615 -0.8562
 4745SOL    HW225695   3.536   2.555   5.496  1.6882 -0.0671 -1.4730
 4746SOL     OW25696   0.328   1.538   0.977  0.3771  0.0963  0.0431
 4746SOL    HW125697   0.412   1.571   1.009  0.4805  0.8841 -1.0126
 4746SOL    HW225698   0.338   1.553   0.882  0.9308  0.2638  0.1288
 4747SOL     OW25699   1.446   4.654   3.541 -0.1239  0.4409 -0.0306
 4747SOL    HW125700   1.415   4.649   3.631  1.6794  0.3980  0.5760
 4747SOL    HW225701   1.469   0.025   3.525 -1.4593  0.9334  0.9340
 4748SOL     OW25702   4.057   2.505  10.046 -0.2346 -0.1416 -0.6022
 4748SOL    HW125703   4.119   2.468   9.983  0.0273  1.2517 -1.1555
 4748SOL    HW225704   3.983   2.445  10.038 -0.4599  0.2852 -1.7375
 4749SOL     OW25705   0.960   2.488   5.737  0.4972  0.4042 -0.1030
 4749SOL    HW125706   0.940   2.562   5.680  2.1648  1.2461  0.4217
 4749SOL    HW225707   0.886   2.429   5.720  0.7375 -0.0833  0.5573
 4750SOL     OW25708   3.198   3.231  10.009 -0.2409 -0.0679  0.2602
 4750SOL    HW125709   3.270   3.211   9.950  0.3211  1.6286  0.3736
 4750SOL    HW225710   3.143   3.152  10.010  0.4825 -0.5911 -0.7584
 4751SOL     OW25711   2.193   0.476   3.637  0.2702  0.1617 -0.0267
 4751SOL    HW125712   2.118   0.421   3.614 -0.0731 -0.2800  2.1501
 4751SOL    HW225713   2.151   0.559   3.617 -0.4288  0.4875  2.7765
 4752SOL     OW25714   0.063   0.927   1.913  0.6611  0.3192 -0.3351
 4752SOL    HW125715   0.091   1.001   1.968  1.7835  0.6742 -1.3883
 4752SOL    HW225716   0.151   0.889   1.905  0.9418  0.6216  1.1635
 4753SOL     OW25717   2.264   3.975  10.667  0.3756 -0.3034 -0.0153
 4753SOL    HW125718   2.295   3.897  10.713  1.1534  0.1051  0.1538
 4753SOL    HW225719   2.323   4.046  10.692 -0.0513  0.1469 -0.2839
 4754SOL     OW25720   1.570   4.501   8.868 -0.0173 -0.5048 -0.1215
 4754SOL    HW125721   1.525   4.436   8.813 -0.8375  3.9314 -4.7100
 4754SOL    HW225722   1.588   4.444   8.942  1.0557 -0.1642 -0.1219
 4755SOL     OW25723   1.769   3.585   9.158 -0.7959  0.1099 -0.0066
 4755SOL    HW125724   1.703   3.526   9.196  1.2776 -1.5574  1.0665
 4755SOL    HW225725   1.839   3.577   9.223 -0.0304  2.1166 -0.6114
 4756SOL     OW25726   3.366   4.254   7.174  0.0658  0.8199 -0.2232
 4756SOL    HW125727   3.458   4.228   7.177 -0.3085 -0.7628 -2.7005
 4756SOL    HW225728   3.368   4.349   7.189 -1.1291  0.9022 -0.6063
 4757SOL     OW25729   2.876   1.723  15.498  0.6118 -0.3051 -0.0427
 4757SOL    HW125730   2.908   1.639  15.531  1.1907  0.2914  0.9249
 4757SOL    HW225731   2.880   1.713  15.403 -1.0498  0.2400 -0.1695
 4758SOL     OW25732   1.038   1.245   8.728 -0.1247 -0.0014 -0.1398
 4758SOL    HW125733   1.001   1.219   8.812 -2.1730 -1.2025 -1.3937
 4758SOL    HW225734   0.954   1.278   8.696  0.3928  0.5220 -0.9505
 4759SOL     OW25735   1.264   1.478  11.342  0.2870  0.2390 -0.1662
 4759SOL    HW125736   1.357   1.502  11.344  0.4568 -0.2350 -2.2179
 4759SOL    HW225737   1.222   1.538  11.403  0.5857 -1.4415  1.6613
 4760SOL     OW25738   0.585   1.352   2.090 -0.5268  0.0868  0.3157
 4760SOL    HW125739   0.540   1.292   2.031  0.8647 -1.2247  0.5752
 4760SOL    HW225740   0.540   1.434   2.071 -0.3954  0.4075  1.3974
 4761SOL     OW25741   4.435   1.345  15.844  0.4721  0.2766  0.0006
 4761SOL    HW125742   4.464   1.343  15.936 -0.6022  2.4802  0.3951
 4761SOL    HW225743   4.488   1.414  15.805 -0.2026 -0.1775 -1.7092
 4762SOL     OW25744   3.800   3.167   2.622  0.2176 -0.5350 -0.3078
 4762SOL    HW125745   3.771   3.175   2.713  1.9455 -1.9963  0.3813
 4762SOL    HW225746   3.720   3.147   2.574 -0.1689 -0.6670  0.3935
 4763SOL     OW25747   3.532   4.274   4.804  0.1053 -0.7107 -0.5940
 4763SOL    HW125748   3.516   4.264   4.710 -1.3035  0.4800 -0.4767
 4763SOL    HW225749   3.451   4.321   4.824  2.4092  2.4899  1.0477
 4764SOL     OW25750   0.169   3.708   2.516  0.4120  0.1435  0.9943
 4764SOL    HW125751   0.256   3.696   2.477  0.2897 -0.5316  0.9356
 4764SOL    HW225752   0.189   3.726   2.608  0.9938 -1.1899  1.1375
 4765SOL     OW25753   0.602   4.588  14.162 -0.0993 -0.0709 -0.1733
 4765SOL    HW125754   0.643   4.503  14.179 -0.2962  0.5159  3.1963
 4765SOL    HW225755   0.673   4.625  14.109  0.3518  0.0363  0.5113
 4766SOL     OW25756   4.144   2.457   8.681 -0.2299  0.5197  0.0078
 4766SOL    HW125757   4.191   2.381   8.714 -0.9586  0.6154  1.2872
 4766SOL    HW225758   4.211   2.518   8.651  0.6048 -0.8527 -0.9008
 4767SOL     OW25759   2.802   0.200  17.312 -0.0611 -0.1527  0.5727
 4767SOL    HW125760   2.803   0.107  17.289  0.3785 -0.1607  0.6312
 4767SOL    HW225761   2.865   0.242  17.254 -0.2401  0.5150  0.8685
 4768SOL     OW25762   2.107   3.040  12.753 -0.1353 -0.4166 -0.4570
 4768SOL    HW125763   2.178   3.023  12.691 -2.1996 -0.2102 -2.8546
 4768SOL    HW225764   2.100   2.968  12.816 -2.0836  0.7958  0.7000
 4769SOL     OW25765   0.561   1.026  17.166 -0.4295  0.3894 -0.3718
 4769SOL    HW125766   0.578   0.964  17.237  0.6580  1.1210  0.0085
 4769SOL    HW225767   0.595   1.105  17.208  1.3592 -1.8832  2.4619
 4770SOL     OW25768   4.191   2.548   7.844  0.2470  0.8340 -0.6782
 4770SOL    HW125769   4.141   2.467   7.839 -0.6305  1.2808  0.8788
 4770SOL    HW225770   4.247   2.537   7.768 -1.1946 -0.8433 -1.4798
 4771SOL     OW25771   0.698   2.440   5.461  0.2196 -0.1213  0.4019
 4771SOL    HW125772   0.748   2.517   5.487  1.6447 -0.6640 -0.7106
 4771SOL    HW225773   0.706   2.386   5.540  1.2487  1.1295  1.1607
 4772SOL     OW25774   3.008   3.884   0.331 -0.1009  0.2901  0.3330
 4772SOL    HW125775   2.949   3.958   0.346 -0.2187  0.5273 -1.3042
 4772SOL    HW225776   3.084   3.889   0.388 -0.0995  1.7629  0.2050
 4773SOL     OW25777   3.993   2.330   2.839 -0.2429 -0.3502 -0.0622
 4773SOL    HW125778   3.905   2.323   2.875 -0.5607  0.6579 -0.6407
 4773SOL    HW225779   3.983   2.283   2.756  1.0960 -0.3268 -0.2452
 4774SOL     OW25780   3.446   3.249  14.681  0.3534  0.5188  0.6439
 4774SOL    HW125781   3.511   3.202  14.733 -0.7940 -1.1430  0.5583
 4774SOL    HW225782   3.471   3.339  14.702  0.2200  0.1610  2.2769
 4775SOL     OW25783   2.646   0.767   6.587  1.0034 -0.9349 -0.4956
 4775SOL    HW125784   2.737   0.784   6.564  1.4544  0.2966  2.3123
 4775SOL    HW225785   2.607   0.850   6.613  0.7357 -1.3126  0.3176
 4776SOL     OW25786   0.041   3.341   6.421 -0.1923 -0.1665  0.1300
 4776SOL    HW125787   0.082   3.307   6.341  1.6386  0.0650  0.9624
 4776SOL    HW225788   0.097   3.413   6.450  0.1382 -0.2892 -0.1979
 4777SOL     OW25789   4.275   0.050   5.660 -0.7565 -0.3852  0.2070
 4777SOL    HW125790   4.202   4.710   5.651 -1.5339  0.3209  1.7237
 4777SOL    HW225791   4.348   4.711   5.675 -2.9092 -2.8757  0.7059
 4778SOL     OW25792   2.554   2.937   9.018 -0.1663 -0.1589 -0.0017
 4778SOL    HW125793   2.599   2.856   9.044 -3.6053 -2.0239  0.1345
 4778SOL    HW225794   2.628   2.990   8.988  0.0090  0.5027  1.5889
 4779SOL     OW25795   0.328   2.365   4.669 -0.1844  0.0902 -0.2551
 4779SOL    HW125796   0.249   2.417   4.681 -0.2193  0.1979 -0.9626
 4779SOL    HW225797   0.335   2.318   4.752  0.8819  0.3554 -0.1851
 4780SOL     OW25798   3.830   0.253   4.159  0.0430 -0.0724 -0.1805
 4780SOL    HW125799   3.830   0.348   4.168 -1.1884 -0.2787  2.1814
 4780SOL    HW225800   3.765   0.233   4.227  0.4797 -0.4642  0.1225
 4781SOL     OW25801   2.291   0.120   3.016  0.2343  0.7377  0.2229
 4781SOL    HW125802   2.336   0.117   2.931  0.7828  0.9519  0.5019
 4781SOL    HW225803   2.290   0.026   3.033 -0.4503  1.1697  2.4956
 4782SOL     OW25804   1.241   4.272   9.989 -0.5507 -0.6041 -0.4006
 4782SOL    HW125805   1.280   4.185   9.996  1.6131  0.4921  1.2701
 4782SOL    HW225806   1.317   4.329   9.977 -3.0074  2.5153 -1.2621
 4783SOL     OW25807   4.231   0.985   5.256  0.2959  0.0427  0.4991
 4783SOL    HW125808   4.304   0.961   5.199  0.7844 -0.0080  1.1529
 4783SOL    HW225809   4.158   1.006   5.198 -0.5559  0.0827  1.5939
 4784SOL     OW25810   1.096   4.649  13.276 -0.2720  0.2003  0.9208
 4784SOL    HW125811   1.130   4.599  13.203  0.1732  0.7484  0.7522
 4784SOL    HW225812   1.012   4.680  13.242  1.1759  1.0582 -1.8750
 4785SOL     OW25813   1.230   1.260  11.129  0.2154 -0.3804  0.0497
 4785SOL    HW125814   1.253   1.327  11.193  0.3508 -0.0258 -0.3697
 4785SOL    HW225815   1.266   1.302  11.050 -1.6442  0.7159 -0.2114
 4786SOL     OW25816   2.667   3.600  16.250 -0.5557  0.3434 -0.2892
 4786SOL    HW125817   2.659   3.696  16.251 -1.1673  0.2831  0.1843
 4786SOL    HW225818   2.602   3.556  16.304  0.9737 -0.0311  1.2348
 4787SOL     OW25819   0.807   0.919   8.247 -0.2587  0.4451 -0.1412
 4787SOL    HW125820   0.891   0.891   8.282  0.1707  1.2888 -0.5055
 4787SOL    HW225821   0.776   0.964   8.325  1.6917  0.8263  0.4111
 4788SOL     OW25822   4.088   2.872   8.810 -0.5681  0.0091 -0.3837
 4788SOL    HW125823   4.066   2.793   8.761 -1.5776  0.6309 -0.9226
 4788SOL    HW225824   4.049   2.844   8.892  1.8228 -1.5732  0.2239
 4789SOL     OW25825   2.533   1.248   1.048 -0.6862 -0.2041 -0.0025
 4789SOL    HW125826   2.460   1.310   1.043 -2.6290 -2.4857 -0.0702
 4789SOL    HW225827   2.499   1.188   1.115 -0.0899  0.6555  1.0709
 4790SOL     OW25828   0.254   2.318  14.207 -0.1919  0.0410 -0.7915
 4790SOL    HW125829   0.280   2.226  14.213 -2.3191 -0.5868 -1.1977
 4790SOL    HW225830   0.161   2.311  14.226 -0.3804  0.2079 -1.6619
 4791SOL     OW25831   0.893   3.866   3.977  0.1966  0.1929  0.3716
 4791SOL    HW125832   0.912   3.896   3.888 -0.9893 -1.7790 -0.5402
 4791SOL    HW225833   0.811   3.911   3.995  1.1688  2.2334 -0.2790
 4792SOL     OW25834   1.664   2.367   3.652  0.2071 -0.1305  0.3910
 4792SOL    HW125835   1.669   2.291   3.593  0.6190 -0.2471  0.5751
 4792SOL    HW225836   1.747   2.406   3.626  0.2321  0.5137  1.4672
 4793SOL     OW25837   3.991   4.707   8.665 -0.2907 -0.6057 -0.2764
 4793SOL    HW125838   4.075   4.691   8.623  0.3814  3.6062 -0.5183
 4793SOL    HW225839   3.940   4.628   8.647 -0.9851 -0.2048 -0.1141
 4794SOL     OW25840   1.822   1.572   6.172  0.4633 -0.7906  0.3092
 4794SOL    HW125841   1.889   1.543   6.234  0.2862  0.9223  1.3024
 4794SOL    HW225842   1.856   1.531   6.093 -4.9463 -0.8244 -1.9750
 4795SOL     OW25843   0.862   3.019   1.402  0.4575 -0.2747 -0.0971
 4795SOL    HW125844   0.838   3.077   1.474  2.5125 -1.0642  1.2365
 4795SOL    HW225845   0.917   3.074   1.346 -1.4550 -0.8441 -2.5068
 4796SOL     OW25846   4.603   1.626   4.270  0.5355  0.2716  0.5835
 4796SOL    HW125847   4.511   1.624   4.245  0.1832 -2.9186  2.0367
 4796SOL    HW225848   4.628   1.710   4.308  1.5210  0.6801 -0.9840
 4797SOL     OW25849   3.509   1.544   8.181 -0.2441 -0.1116  0.0195
 4797SOL    HW125850   3.428   1.585   8.213 -0.7062 -0.1609 -1.0949
 4797SOL    HW225851   3.568   1.617   8.198  1.0253 -1.2610  0.5466
 4798SOL     OW25852   0.795   4.336   2.728 -0.3831 -0.4674 -0.0626
 4798SOL    HW125853   0.811   4.244   2.708  0.9203 -0.2701  0.0895
 4798SOL    HW225854   0.872   4.365   2.776  0.1826 -2.5547  0.2713
 4799SOL     OW25855   2.018   4.294   2.960 -0.6327  0.4107  0.1076
 4799SOL    HW125856   2.082   4.303   2.890 -1.9839  2.5857 -0.8729
 4799SOL    HW225857   2.025   4.203   2.988 -0.3540 -0.7271 -3.6438
 4800SOL     OW25858   0.427   1.990  11.936  0.2341 -0.2328 -0.3035
 4800SOL    HW125859   0.425   2.081  11.967  0.4350 -1.1938  2.5569
 4800SOL    HW225860   0.439   2.005  11.842  0.1210 -1.3335 -0.4908
 4801SOL     OW25861   4.385   3.925  12.886  0.1974 -0.0949  0.0107
 4801SOL    HW125862   4.307   3.874  12.867 -0.5515  1.2601 -0.6023
 4801SOL    HW225863   4.419   3.932  12.797  3.2438  2.0706  1.3651
 4802SOL     OW25864   4.573   3.035   3.786 -0.2491 -0.3225  0.1319
 4802SOL    HW125865   4.561   3.003   3.696 -0.0893  0.2148 -0.0794
 4802SOL    HW225866   4.564   3.129   3.769  0.8281 -0.2515 -0.0382
 4803SOL     OW25867   2.064   1.574   2.073  0.5848 -0.0602 -0.1010
 4803SOL    HW125868   2.029   1.517   2.143  0.4998 -0.3087 -0.3446
 4803SOL    HW225869   2.122   1.623   2.131 -0.1067  0.7102 -0.0598
 4804SOL     OW25870   2.168   4.220   4.925 -0.0594  0.2243  0.0999
 4804SOL    HW125871   2.237   4.286   4.919 -1.4825  1.7459  0.3302
 4804SOL    HW225872   2.206   4.145   4.879 -0.7705 -0.6043  0.8802
 4805SOL     OW25873   3.213   3.892   3.961 -0.2617  0.9459 -0.3643
 4805SOL    HW125874   3.199   3.980   3.928  0.7031  0.3887 -2.2415
 4805SOL    HW225875   3.136   3.843   3.934  0.1383  1.0182 -1.6238
 4806SOL     OW25876   0.804   2.622  14.527 -0.2894 -0.2959  0.4231
 4806SOL    HW125877   0.765   2.706  14.503 -0.1743 -0.5871 -0.7669
 4806SOL    HW225878   0.868   2.620  14.456 -0.1557  2.3497  0.4792
 4807SOL     OW25879   0.072   3.339  15.091 -0.5041 -0.3892 -0.2390
 4807SOL    HW125880   0.119   3.288  15.024 -3.6759  2.1895 -4.3872
 4807SOL    HW225881   0.000   3.375  15.039 -0.8905 -0.6576  0.1151
 4808SOL     OW25882   0.720   0.242  15.933  0.4755  0.2467  0.2636
 4808SOL    HW125883   0.731   0.333  15.906  0.9911  0.2328  0.4222
 4808SOL    HW225884   0.805   0.203  15.911  0.1956 -1.1728  1.7295
 4809SOL     OW25885   1.834   2.348   6.642  0.2433 -0.2671  0.7120
 4809SOL    HW125886   1.765   2.391   6.694  0.0045  1.0145 -0.6787
 4809SOL    HW225887   1.844   2.262   6.682 -0.8460 -0.4029  0.7035
 4810SOL     OW25888   0.865   0.386   8.727 -0.5219  0.3607 -0.6913
 4810SOL    HW125889   0.770   0.375   8.733 -0.0767 -2.3249  1.1720
 4810SOL    HW225890   0.898   0.297   8.740  0.9757  0.9143 -0.6873
 4811SOL     OW25891   3.019   1.290   2.460  0.1595  0.2228 -0.0687
 4811SOL    HW125892   3.087   1.349   2.427 -0.6707  2.1831  1.7406
 4811SOL    HW225893   2.995   1.234   2.386 -0.9291  0.0993  0.3784
 4812SOL     OW25894   3.959   2.952   8.442 -0.1221 -0.4576  0.0921
 4812SOL    HW125895   4.015   3.009   8.494 -1.4524  0.2051  0.8073
 4812SOL    HW225896   3.965   2.873   8.496  1.1524 -1.2139 -1.1605
 4813SOL     OW25897   0.186   1.362   6.453  0.0188 -0.1832 -0.3464
 4813SOL    HW125898   0.261   1.366   6.393 -0.4445 -0.6111 -0.9684
 4813SOL    HW225899   0.216   1.298   6.517 -0.0668  0.8430  0.7048
 4814SOL     OW25900   2.660   2.869  10.287 -0.4401 -0.1196 -0.6045
 4814SOL    HW125901   2.634   2.777  10.281 -0.4834 -0.0630 -1.3539
 4814SOL    HW225902   2.755   2.867  10.277 -0.3410  0.5609  0.2159
 4815SOL     OW25903   4.307   4.037   8.107  0.2851  0.4564  0.3451
 4815SOL    HW125904   4.292   4.089   8.028 -0.5762 -0.7146 -0.2715
 4815SOL    HW225905   4.379   4.079   8.154 -0.7557  0.9318  1.5208
 4816SOL     OW25906   4.013   3.059   7.902 -0.1297  0.0430 -0.3905
 4816SOL    HW125907   3.954   2.998   7.946  0.9124 -1.0296 -0.4667
 4816SOL    HW225908   4.076   2.999   7.862 -0.6389  0.0239 -1.1534
 4817SOL     OW25909   0.890   3.524   8.976  0.2569  0.0395  0.2009
 4817SOL    HW125910   0.806   3.492   9.009 -1.3374  3.5911 -0.5248
 4817SOL    HW225911   0.893   3.610   9.016  2.4161  0.1398 -0.1618
 4818SOL     OW25912   3.987   2.362   5.354  0.1003 -0.0374  0.4859
 4818SOL    HW125913   3.941   2.280   5.370  1.7924 -1.1824 -0.5606
 4818SOL    HW225914   4.018   2.371   5.444  3.6349 -0.7498 -0.6557
 4819SOL     OW25915   4.643   3.956   5.021  0.0262  0.0860  0.0844
 4819SOL    HW125916   4.593   3.942   5.101  1.0404 -1.1007  0.5152
 4819SOL    HW225917   4.614   3.878   4.973  1.2615 -0.8501  0.8472
 4820SOL     OW25918   1.030   0.841  10.579 -0.0029  0.6437 -0.1414
 4820SOL    HW125919   0.965   0.908  10.559 -1.6685 -0.6769  0.7635
 4820SOL    HW225920   1.109   0.884  10.549  0.5891 -1.2192 -1.2711
 4821SOL     OW25921   2.180   1.602   7.282 -0.0435 -0.4400  0.0670
 4821SOL    HW125922   2.124   1.657   7.335  0.9643  1.5605 -0.9492
 4821SOL    HW225923   2.260   1.595   7.333  0.9016  1.7849 -1.1039
 4822SOL     OW25924   1.452   2.355  11.990  0.2928 -0.0438  0.7397
 4822SOL    HW125925   1.524   2.410  12.021 -0.6769  2.4769 -1.6004
 4822SOL    HW225926   1.416   2.415  11.925 -1.1197 -2.3327 -0.5858
 4823SOL     OW25927   2.118   2.884  15.538  0.3630  1.1043  0.1075
 4823SOL    HW125928   2.167   2.849  15.612  0.3282  0.3893 -0.2016
 4823SOL    HW225929   2.164   2.967  15.527  0.6480  0.7666 -1.3354
 4824SOL     OW25930   3.736   2.226   3.536 -0.5380  0.2779 -0.5071
 4824SOL    HW125931   3.732   2.319   3.557 -1.9721 -0.1136  0.9572
 4824SOL    HW225932   3.808   2.225   3.473  1.3408  2.5354  1.6021
 4825SOL     OW25933   3.378   3.116   2.933 -0.1423  0.3132 -0.1768
 4825SOL    HW125934   3.354   3.201   2.895  1.4916  0.8355 -0.0405
 4825SOL    HW225935   3.384   3.138   3.026  2.2848 -1.3112  0.0460
 4826SOL     OW25936   0.227   4.049  15.256  0.7717  0.0499 -0.5776
 4826SOL    HW125937   0.217   4.034  15.162  0.2551  0.6679 -0.6194
 4826SOL    HW225938   0.155   3.993  15.286  1.0406 -0.2963 -0.5800
 4827SOL     OW25939   3.264   2.440   3.102 -0.3782 -0.0783 -0.1836
 4827SOL    HW125940   3.179   2.480   3.086 -1.0025 -1.0565  0.7257
 4827SOL    HW225941   3.249   2.422   3.194 -1.7742 -1.0202 -0.5960
 4828SOL     OW25942   1.953   0.074  14.583 -0.2168  0.0138 -0.2713
 4828SOL    HW125943   1.913   0.027  14.656  0.7598 -1.4845 -0.7159
 4828SOL    HW225944   2.028   0.018  14.563  0.1776  0.8899 -1.2370
 4829SOL     OW25945   1.973   1.443   5.960 -0.3733 -0.0606  0.4418
 4829SOL    HW125946   2.060   1.483   5.958 -0.1065 -0.5548  2.0325
 4829SOL    HW225947   1.943   1.462   5.872  0.4527 -2.4858 -0.3631
 4830SOL     OW25948   3.956   3.344  11.523  0.1856  0.3691  0.5345
 4830SOL    HW125949   4.011   3.272  11.554  0.5757  1.1572  1.6631
 4830SOL    HW225950   4.029   3.404  11.505  0.6860 -0.5919 -0.6701
 4831SOL     OW25951   1.262   4.151   8.304  0.4592 -0.0862  0.4125
 4831SOL    HW125952   1.237   4.072   8.257  2.3625  0.7216 -1.9236
 4831SOL    HW225953   1.186   4.204   8.284 -1.2195 -2.8674 -0.6009
 4832SOL     OW25954   4.304   3.434  17.009 -0.0784  0.0062  0.3807
 4832SOL    HW125955   4.221   3.479  17.001  1.6338  3.8299  4.1788
 4832SOL    HW225956   4.304   3.382  16.928  0.4841 -1.7108  1.4763
 4833SOL     OW25957   3.936   0.885   0.382  0.1616  0.9658  0.2579
 4833SOL    HW125958   3.984   0.845   0.309  1.1226  0.3804  1.2119
 4833SOL    HW225959   3.998   0.946   0.424  1.8593 -1.2045  0.8857
 4834SOL     OW25960   0.900   3.546   8.674  0.3939 -0.9041 -0.1869
 4834SOL    HW125961   0.987   3.520   8.645  1.7098  0.8295  2.1596
 4834SOL    HW225962   0.918   3.545   8.768  1.1141 -0.2992 -0.3154
 4835SOL     OW25963   0.503   1.646   0.753  0.3009  0.0052  0.4740
 4835SOL    HW125964   0.416   1.654   0.714 -0.1715 -0.8436  1.3750
 4835SOL    HW225965   0.555   1.578   0.710 -2.0699  0.2198 -2.7430
 4836SOL     OW25966   3.974   1.028   7.691  0.6890  0.7565 -1.0352
 4836SOL    HW125967   4.007   0.938   7.691 -3.0264 -0.5786 -0.9231
 4836SOL    HW225968   4.039   1.060   7.754  0.9278  0.3853 -1.0877
 4837SOL     OW25969   0.763   1.855  16.679  0.1103 -0.0185  0.8007
 4837SOL    HW125970   0.693   1.891  16.733 -0.0541 -0.3055  0.7824
 4837SOL    HW225971   0.765   1.918  16.607 -2.2927 -2.7151 -1.6280
 4838SOL     OW25972   2.323   0.077   6.931  0.4574 -0.4303  0.4168
 4838SOL    HW125973   2.327   0.057   6.838  0.5796 -0.9823  0.5392
 4838SOL    HW225974   2.251   0.137   6.952 -0.3572 -1.1622 -0.3170
 4839SOL     OW25975   1.174   2.951   8.187 -0.0991 -0.1603 -0.3173
 4839SOL    HW125976   1.099   2.942   8.246 -1.2435  0.6093 -1.6235
 4839SOL    HW225977   1.143   3.013   8.120 -1.6822 -0.6960 -0.0767
 4840SOL     OW25978   4.045   0.967  15.212 -0.2564  0.5467  0.5533
 4840SOL    HW125979   4.044   0.901  15.143  0.5686  0.3507  0.7245
 4840SOL    HW225980   4.134   1.000  15.206  0.2433 -1.1663 -1.3719
 4841SOL     OW25981   3.175   1.614   0.566 -0.1202 -0.5163 -0.3595
 4841SOL    HW125982   3.247   1.660   0.522 -0.5443 -0.4387 -0.9664
 4841SOL    HW225983   3.103   1.677   0.560 -0.5538 -0.6582  3.1954
 4842SOL     OW25984   1.393   4.120   3.406  0.6203 -0.0112  0.1066
 4842SOL    HW125985   1.440   4.185   3.353  0.4064  1.7000  2.0483
 4842SOL    HW225986   1.395   4.036   3.359  0.3892 -0.7365  1.3989
 4843SOL     OW25987   2.396   2.404  15.925  0.1085 -0.3050 -0.2475
 4843SOL    HW125988   2.486   2.372  15.923  0.7950  1.5276  1.2228
 4843SOL    HW225989   2.402   2.463  15.850 -3.2784  2.4830  1.6870
 4844SOL     OW25990   2.902   0.815   6.500  0.2197 -0.5779  0.3205
 4844SOL    HW125991   2.969   0.751   6.521  2.2932  1.2799 -0.6402
 4844SOL    HW225992   2.923   0.832   6.408  3.2957  2.3220  1.5689
 4845SOL     OW25993   0.594   4.223   4.527 -0.4814  0.2893  0.0719
 4845SOL    HW125994   0.676   4.174   4.523 -0.5508  0.1310  0.6892
 4845SOL    HW225995   0.626   4.312   4.541  1.8044 -0.8768  2.2526
 4846SOL     OW25996   0.918   4.586   6.244  0.4301 -0.1065  0.0479
 4846SOL    HW125997   0.916   4.670   6.291 -1.2663 -1.2836  2.0900
 4846SOL    HW225998   0.998   4.591   6.191 -1.4583  0.9525 -2.7161
 4847SOL     OW25999   4.499   3.124   7.407  0.0200  0.5393  0.6979
 4847SOL    HW126000   4.478   3.196   7.466 -0.7354 -0.3054  1.4652
 4847SOL    HW226001   4.489   3.045   7.460  0.8065  0.7015  1.0794
 4848SOL     OW26002   1.104   0.068   2.583 -0.1852  0.1314  0.6167
 4848SOL    HW126003   1.159   0.030   2.514 -0.1971  0.4131  0.4522
 4848SOL    HW226004   1.089   0.155   2.546 -0.5576 -0.5515 -0.8435
 4849SOL     OW26005   2.922   0.959   8.349 -0.5402 -0.2161  0.1771
 4849SOL    HW126006   2.994   0.906   8.382 -2.1470 -2.3116  0.3216
 4849SOL    HW226007   2.863   0.957   8.424 -0.3266  1.1255  0.3827
 4850SOL     OW26008   0.882   1.585   0.918  0.5056 -0.3662  0.1374
 4850SOL    HW126009   0.851   1.602   0.829 -2.3215  1.6972  1.5047
 4850SOL    HW226010   0.848   1.659   0.967 -2.3632 -2.2446  1.0062
 4851SOL     OW26011   3.347   3.519  17.060 -0.2132  0.0144 -0.0852
 4851SOL    HW126012   3.321   3.586  17.124 -0.4194  0.8743 -1.0717
 4851SOL    HW226013   3.347   3.560  16.974  2.4260  1.9338  0.8224
 4852SOL     OW26014   3.436   1.917   6.715  0.5145  0.0549 -0.7190
 4852SOL    HW126015   3.513   1.870   6.683 -1.0672 -1.5109 -2.2361
 4852SOL    HW226016   3.373   1.847   6.695  0.0473  0.4998 -0.7955
 4853SOL     OW26017   0.430   0.819   4.413  0.0938 -0.0593 -0.4760
 4853SOL    HW126018   0.408   0.903   4.373  1.5002 -0.5187 -2.2247
 4853SOL    HW226019   0.390   0.759   4.350  1.6815 -0.2070 -1.3407
 4854SOL     OW26020   2.904   4.390   6.361 -0.1489  0.0277 -0.1406
 4854SOL    HW126021   2.948   4.375   6.445  1.0716  0.4777 -0.7020
 4854SOL    HW226022   2.812   4.367   6.378 -0.6760 -1.6850 -5.1163
 4855SOL     OW26023   4.548   3.645  15.337  0.3470 -0.1505  0.6284
 4855SOL    HW126024   4.481   3.675  15.398 -0.3527 -0.2604 -0.0844
 4855SOL    HW226025   4.547   3.550  15.352 -1.5022 -0.2651 -0.2067
 4856SOL     OW26026   2.365   2.439   5.284  0.6583  0.2791 -0.0559
 4856SOL    HW126027   2.412   2.366   5.325 -0.2702  0.4645  1.3355
 4856SOL    HW226028   2.420   2.515   5.302 -0.0393  0.5722  0.8320
 4857SOL     OW26029   4.686   0.548   6.491  0.6054  1.0810  0.3455
 4857SOL    HW126030   0.045   0.504   6.463  0.0786  0.8474 -0.7942
 4857SOL    HW226031   4.690   0.632   6.446  0.1934 -0.2867 -2.2364
 4858SOL     OW26032   1.615   1.859  13.627 -0.2298 -0.1616 -0.1035
 4858SOL    HW126033   1.571   1.930  13.580 -2.2919 -0.6369  1.1210
 4858SOL    HW226034   1.542   1.799  13.644  0.5350 -0.8343  0.8181
 4859SOL     OW26035   2.958   1.602   5.740  0.2281 -0.0888 -0.4425
 4859SOL    HW126036   2.980   1.524   5.791  0.1363  0.1961  0.0405
 4859SOL    HW226037   3.009   1.670   5.783  1.0658 -1.5434  0.8486
 4860SOL     OW26038   1.159   2.137  17.534 -0.3988 -0.4389 -0.1604
 4860SOL    HW126039   1.120   2.180  17.610  0.7457 -0.0309  0.2026
 4860SOL    HW226040   1.245   2.179  17.533  0.3691 -2.0060 -0.5211
 4861SOL     OW26041   3.840   1.677   9.846 -0.2824  0.0292  0.0559
 4861SOL    HW126042   3.761   1.731   9.856 -0.2164  0.8290 -3.8771
 4861SOL    HW226043   3.874   1.683   9.935  2.8552  0.5361 -1.1836
 4862SOL     OW26044   0.701   2.457  12.377 -0.1406  0.8111 -0.2825
 4862SOL    HW126045   0.687   2.450  12.283 -0.2078 -2.4511 -0.0132
 4862SOL    HW226046   0.743   2.375  12.404  0.6079  1.1115 -0.5265
 4863SOL     OW26047   1.546   0.744  13.244  0.5494 -0.2543 -0.1410
 4863SOL    HW126048   1.537   0.820  13.302  1.0409  0.5268 -1.0972
 4863SOL    HW226049   1.640   0.753  13.228  0.7702 -0.3211  1.0630
 4864SOL     OW26050   2.546   3.872   8.779  0.2818 -0.3491  0.2213
 4864SOL    HW126051   2.640   3.894   8.776 -0.1210  1.1205 -1.3711
 4864SOL    HW226052   2.538   3.831   8.693  3.3971  1.5761 -1.0023
 4865SOL     OW26053   0.062   3.050   2.711 -0.4792  0.0157  0.3955
 4865SOL    HW126054   4.703   3.068   2.662  0.3931  0.4050 -0.8702
 4865SOL    HW226055   0.098   3.136   2.731 -1.0547  0.0762  1.2043
 4866SOL     OW26056   1.964   2.606  10.036 -0.2364  0.0965 -0.4752
 4866SOL    HW126057   1.930   2.567  10.116 -0.9854 -0.9599 -1.3106
 4866SOL    HW226058   2.046   2.556  10.040 -0.7674 -0.6051  1.4011
 4867SOL     OW26059   1.778   3.629   5.785 -0.4946  0.2437 -0.4914
 4867SOL    HW126060   1.829   3.578   5.722  0.5796 -1.4993  1.7734
 4867SOL    HW226061   1.811   3.718   5.773  1.2868 -0.5791 -1.6326
 4868SOL     OW26062   2.289   3.531   5.093  0.3082 -0.4239 -0.5784
 4868SOL    HW126063   2.336   3.456   5.056  1.4463 -0.3496  0.6863
 4868SOL    HW226064   2.251   3.493   5.172 -1.4647 -1.7806 -2.0960
 4869SOL     OW26065   4.150   3.031   7.499  0.5422 -0.3724  0.1465
 4869SOL    HW126066   4.220   2.966   7.504  1.4768  0.5256 -1.4345
 4869SOL    HW226067   4.177   3.102   7.558 -1.1667  0.0022  0.4751
 4870SOL     OW26068   2.826   4.337   9.731 -0.0269  0.2844  0.5386
 4870SOL    HW126069   2.874   4.418   9.712  0.9018 -0.7712 -1.6767
 4870SOL    HW226070   2.805   4.344   9.824 -1.6468 -0.6722  0.2502
 4871SOL     OW26071   3.306   3.199  14.992 -0.2788 -0.0476  0.5626
 4871SOL    HW126072   3.218   3.233  14.975 -0.5427 -1.2796 -0.5860
 4871SOL    HW226073   3.345   3.251  15.062  1.9214 -0.5596 -0.2949
 4872SOL     OW26074   4.164   3.833   5.626 -0.8509  0.2791 -0.9556
 4872SOL    HW126075   4.173   3.877   5.710 -0.1352 -1.0067 -0.3522
 4872SOL    HW226076   4.235   3.768   5.630 -1.0941 -0.0451 -1.8540
 4873SOL     OW26077   0.643   0.874  17.395 -0.4684  0.3811 -0.0632
 4873SOL    HW126078   0.738   0.876  17.389 -0.4786 -0.8536 -0.5013
 4873SOL    HW226079   0.625   0.797  17.448  0.2868  0.0701 -0.2632
 4874SOL     OW26080   1.291   1.596   1.672 -0.4518  0.3554 -0.0450
 4874SOL    HW126081   1.248   1.570   1.754  1.6120 -0.5247  0.7508
 4874SOL    HW226082   1.365   1.536   1.678 -0.1192  0.8262  0.5782
 4875SOL     OW26083   1.462   3.710  12.785  0.2671  0.2676  0.2501
 4875SOL    HW126084   1.390   3.773  12.785 -0.0488 -0.0932 -0.1656
 4875SOL    HW226085   1.512   3.727  12.865 -1.3537 -0.8360  1.4869
 4876SOL     OW26086   3.884   4.417   3.810  0.3246 -0.1021  0.2685
 4876SOL    HW126087   3.941   4.478   3.763 -1.4762 -0.8905 -2.9636
 4876SOL    HW226088   3.868   4.460   3.894 -2.0385  1.7271 -1.0940
 4877SOL     OW26089   1.658   0.207  12.370  0.0734 -0.1415 -0.1283
 4877SOL    HW126090   1.574   0.249  12.349 -0.2309 -0.5404  0.2941
 4877SOL    HW226091   1.715   0.250  12.306 -1.2219  1.1694 -0.4087
 4878SOL     OW26092   1.257   0.848   8.766  0.2406 -0.1065 -0.2704
 4878SOL    HW126093   1.284   0.870   8.855 -1.2006 -1.0782  0.4022
 4878SOL    HW226094   1.256   0.752   8.763 -3.0813 -0.0447 -1.6123
 4879SOL     OW26095   1.947   0.212   3.692 -0.4341  0.0205  0.2831
 4879SOL    HW126096   1.912   0.268   3.624 -0.7342 -1.4516 -0.7810
 4879SOL    HW226097   1.916   0.261   3.768  2.2362  1.6034  0.3439
 4880SOL     OW26098   3.935   1.359   9.530 -0.4657 -0.5194 -0.3535
 4880SOL    HW126099   3.948   1.449   9.500 -1.2149 -0.0248  0.8219
 4880SOL    HW226100   3.896   1.370   9.616  0.4429  0.1528 -0.0218
 4881SOL     OW26101   2.472   4.320   5.883  0.2151 -0.4267  0.3889
 4881SOL    HW126102   2.565   4.312   5.905  0.4606  0.4131 -0.3504
 4881SOL    HW226103   2.438   4.259   5.948  0.9667 -0.6012  0.6120
 4882SOL     OW26104   3.028   1.710   9.422  0.2379  0.0928  0.4142
 4882SOL    HW126105   3.001   1.626   9.386 -0.4128  0.6017 -0.2888
 4882SOL    HW226106   2.963   1.715   9.492  0.4350  2.2472  0.4418
 4883SOL     OW26107   3.632   4.673   8.669 -0.7987  0.5480 -0.1785
 4883SOL    HW126108   3.536   4.669   8.678 -0.8242  0.1115 -0.6656
 4883SOL    HW226109   3.646   4.598   8.611 -0.3995 -0.3198  1.0326
 4884SOL     OW26110   4.518   1.841   4.651 -0.1214  0.6758  0.4374
 4884SOL    HW126111   4.457   1.794   4.707 -0.8886  2.4235  1.0851
 4884SOL    HW226112   4.593   1.875   4.699 -0.2465 -0.5645  1.4936
 4885SOL     OW26113   0.007   3.806   3.128  0.5102  0.1995 -0.2484
 4885SOL    HW126114   0.020   3.746   3.201  1.4811  1.4682  0.6313
 4885SOL    HW226115   4.638   3.829   3.149  0.6627  0.7879 -0.2368
 4886SOL     OW26116   2.843   2.731  11.476  0.1636  0.1108  0.0274
 4886SOL    HW126117   2.871   2.796  11.541 -0.0744  2.2605 -2.0454
 4886SOL    HW226118   2.794   2.785  11.415  1.3361  0.1091 -0.9023
 4887SOL     OW26119   1.099   4.187   7.898  0.6324 -0.4851  0.6898
 4887SOL    HW126120   1.009   4.154   7.898  0.8576 -1.0931 -0.7941
 4887SOL    HW226121   1.081   4.272   7.939  2.5145 -1.0410  2.6563
 4888SOL     OW26122   4.641   4.285  12.541 -0.0936 -0.0121  0.4927
 4888SOL    HW126123   4.566   4.283  12.601  0.0622 -0.2601  0.6782
 4888SOL    HW226124   4.647   4.369  12.495  0.6585 -0.2610  0.1488
 4889SOL     OW26125   4.661   2.019  10.951  0.2953  0.1914 -0.3539
 4889SOL    HW126126   4.649   1.940  10.898  0.8994 -0.0792 -0.0763
 4889SOL    HW226127   4.612   1.984  11.025  0.3988  0.4707 -0.1551
 4890SOL     OW26128   2.395   3.904   1.493 -0.1954  0.0461  0.0090
 4890SOL    HW126129   2.349   3.839   1.546 -0.9754  1.3710  0.9657
 4890SOL    HW226130   2.472   3.915   1.549 -0.1658  1.3631 -0.2985
 4891SOL     OW26131   2.413   0.210   8.475  0.5534 -0.1345 -0.7048
 4891SOL    HW126132   2.492   0.188   8.425  1.4808  1.9627 -0.1326
 4891SOL    HW226133   2.369   0.132   8.440 -0.8970  0.6711 -0.6637
 4892SOL     OW26134   1.663   2.470  12.111 -0.2311 -0.1901  0.6244
 4892SOL    HW126135   1.749   2.512  12.123 -0.6753  0.8266  0.2565
 4892SOL    HW226136   1.617   2.488  12.193 -0.9976 -1.6792  0.5115
 4893SOL     OW26137   3.400   3.821   8.084  0.1399  0.1363  0.0875
 4893SOL    HW126138   3.432   3.797   8.171 -0.2034 -0.7086 -0.0203
 4893SOL    HW226139   3.378   3.734   8.052  1.1342 -0.1238  0.1064
 4894SOL     OW26140   0.766   1.567   8.885  0.4756  0.0209 -0.3126
 4894SOL    HW126141   0.740   1.479   8.859  1.2703 -0.3085  0.0389
 4894SOL    HW226142   0.855   1.568   8.852  0.6958 -0.3383  0.2838
 4895SOL     OW26143   1.983   0.040   4.341  0.1713  0.2115 -0.3314
 4895SOL    HW126144   2.059   4.707   4.320  1.2645  0.5207  2.8018
 4895SOL    HW226145   2.001   0.112   4.281 -1.0944  0.3481 -0.5397
 4896SOL     OW26146   0.982   1.062  17.044 -0.1714  0.3261  0.1956
 4896SOL    HW126147   0.894   1.054  17.007  0.9587 -2.1627 -1.8979
 4896SOL    HW226148   0.945   1.123  17.109 -1.6539  0.4031 -0.7157
 4897SOL     OW26149   3.443   1.594  17.101 -0.0573  0.0684  0.2175
 4897SOL    HW126150   3.441   1.561  17.191  2.7306 -0.3666  0.1110
 4897SOL    HW226151   3.402   1.519  17.057 -0.8692 -1.1301  3.0299
 4898SOL     OW26152   2.483   4.340   8.057  0.1323 -0.4504  0.1897
 4898SOL    HW126153   2.422   4.267   8.055 -0.5332  0.1341 -0.6373
 4898SOL    HW226154   2.535   4.319   8.135 -1.4714  0.3244  1.4795
 4899SOL     OW26155   4.211   2.566  17.151 -0.3404  0.1409 -0.2153
 4899SOL    HW126156   4.286   2.619  17.176 -0.5271  0.4807 -0.3799
 4899SOL    HW226157   4.265   2.489  17.136 -0.3618  0.2586 -0.8842
 4900SOL     OW26158   0.616   0.056  14.586  0.0107  0.2979 -0.1535
 4900SOL    HW126159   0.564   0.104  14.650 -3.0118 -2.4064 -0.5823
 4900SOL    HW226160   0.680   0.021  14.647 -0.0369 -0.0673 -0.3149
 4901SOL     OW26161   0.038   0.819  14.267 -0.0903 -0.1595  0.0992
 4901SOL    HW126162   0.107   0.770  14.313  0.0826 -1.1294 -1.1988
 4901SOL    HW226163   4.710   0.744  14.234 -0.1336  0.5124 -1.3353
 4902SOL     OW26164   3.658   2.765   7.840  0.2125 -0.1870  0.0932
 4902SOL    HW126165   3.597   2.811   7.782  0.3168  0.5444  0.5618
 4902SOL    HW226166   3.610   2.776   7.922  1.8767  0.8148  0.9454
 4903SOL     OW26167   3.509   0.385   3.400 -0.9201  0.6856  0.2062
 4903SOL    HW126168   3.600   0.376   3.431 -1.0054  1.2723  0.6284
 4903SOL    HW226169   3.468   0.319   3.455  0.5667 -1.4985 -1.2939
 4904SOL     OW26170   3.409   3.467   3.987 -0.0924  0.1125  0.4827
 4904SOL    HW126171   3.362   3.446   3.906 -0.0700 -0.5354  0.6370
 4904SOL    HW226172   3.354   3.524   4.040 -0.9090  0.0244 -0.2625
 4905SOL     OW26173   2.281   0.139   7.735  0.3687  0.1426  0.4009
 4905SOL    HW126174   2.212   0.187   7.781  1.9179  0.6662  2.2095
 4905SOL    HW226175   2.286   0.052   7.776 -0.0446  0.5196  1.2429
 4906SOL     OW26176   3.743   0.951   9.882 -0.1078 -0.0029 -0.4032
 4906SOL    HW126177   3.758   0.979   9.972  1.3653 -1.4026 -0.2103
 4906SOL    HW226178   3.648   0.939   9.878  0.1065 -1.5498 -0.9132
 4907SOL     OW26179   1.604   1.483  10.604  0.4319 -0.0760 -0.1991
 4907SOL    HW126180   1.552   1.419  10.652 -0.1477  0.2054 -0.4491
 4907SOL    HW226181   1.541   1.527  10.545 -0.6817 -0.5758  0.6281
 4908SOL     OW26182   2.056   3.818   3.673  0.0901  0.5882 -0.1194
 4908SOL    HW126183   2.050   3.794   3.580  1.2890 -1.6988  0.3879
 4908SOL    HW226184   2.120   3.889   3.678  1.5347 -0.6020 -1.4810
 4909SOL     OW26185   1.872   4.523   2.733 -0.5187 -0.7235 -0.8530
 4909SOL    HW126186   1.919   4.520   2.817 -1.3313 -1.7184 -0.4296
 4909SOL    HW226187   1.784   4.489   2.751 -1.2627  1.4178 -0.4496
 4910SOL     OW26188   3.178   2.201   6.684  0.4258  0.1212  0.5223
 4910SOL    HW126189   3.189   2.201   6.589 -1.6494 -3.2645  0.2825
 4910SOL    HW226190   3.216   2.115   6.704  0.1312 -0.7662 -2.7647
 4911SOL     OW26191   0.765   0.034  13.223  1.0094  0.1718  0.5101
 4911SOL    HW126192   0.774   0.122  13.186 -0.7017 -0.7859 -2.2217
 4911SOL    HW226193   0.757   4.709  13.140  1.5792  1.6225 -0.3520
 4912SOL     OW26194   2.106   1.903   2.042  0.0144  0.0046  0.1429
 4912SOL    HW126195   2.133   1.992   2.063  0.5175 -0.3520  1.0034
 4912SOL    HW226196   2.033   1.890   2.103 -0.1136 -2.8368 -0.6094
 4913SOL     OW26197   1.847   0.437   7.331  1.0129  0.4791 -0.3894
 4913SOL    HW126198   1.875   0.400   7.415 -3.2411 -2.2989 -0.2225
 4913SOL    HW226199   1.837   0.529   7.355 -1.1291 -0.0094  0.5983
 4914SOL     OW26200   2.535   2.806   0.825  0.2448  0.0831 -0.3004
 4914SOL    HW126201   2.627   2.801   0.849  0.2596 -0.7076 -0.5143
 4914SOL    HW226202   2.518   2.713   0.810 -0.3608  0.3972 -1.5556
 4915SOL     OW26203   0.524   0.491   4.831 -0.2573  0.3165 -0.0854
 4915SOL    HW126204   0.482   0.406   4.843 -1.4546  0.8628 -0.5047
 4915SOL    HW226205   0.592   0.468   4.768  0.9134  4.4809 -0.3882
 4916SOL     OW26206   0.619   0.738   8.270 -0.0471  0.3719  0.3425
 4916SOL    HW126207   0.670   0.684   8.330  0.6023 -0.2794 -0.7962
 4916SOL    HW226208   0.688   0.794   8.236  1.7182 -2.1084 -0.1819
 4917SOL     OW26209   3.117   2.222   1.912  0.3458 -0.2550 -0.1169
 4917SOL    HW126210   3.052   2.287   1.941 -0.6756 -0.8998 -0.9803
 4917SOL    HW226211   3.198   2.273   1.917 -0.9621  1.8629 -0.3879
 4918SOL     OW26212   0.884   2.163   4.546  0.3494 -0.1784  0.5297
 4918SOL    HW126213   0.812   2.103   4.565 -2.6001  3.2162  0.1614
 4918SOL    HW226214   0.846   2.209   4.472  3.2967 -0.3636 -1.0890
 4919SOL     OW26215   1.200   3.201   6.422  0.2702 -0.0268  0.3236
 4919SOL    HW126216   1.288   3.237   6.407 -0.7625  1.3998 -2.1964
 4919SOL    HW226217   1.180   3.167   6.336  0.9086 -0.0163  0.1702
 4920SOL     OW26218   2.714   0.379   7.396  0.1598  0.0119  0.6715
 4920SOL    HW126219   2.756   0.465   7.385 -0.1705  0.0825 -0.0550
 4920SOL    HW226220   2.621   0.392   7.417  0.1663 -0.3865  0.9428
 4921SOL     OW26221   0.493   4.050  15.333  0.7082 -0.5426  0.1792
 4921SOL    HW126222   0.479   4.091  15.418  1.7108  2.0228 -0.8799
 4921SOL    HW226223   0.406   4.047  15.293  1.7620 -2.0350 -2.0318
 4922SOL     OW26224   3.877   0.821   8.030 -0.2577 -0.1844  0.9142
 4922SOL    HW126225   3.893   0.916   8.031  2.3497 -0.6166 -1.5012
 4922SOL    HW226226   3.807   0.822   7.966  0.7121 -2.4852 -0.1899
 4923SOL     OW26227   2.853   2.700   2.403 -0.3613 -0.1021 -0.5089
 4923SOL    HW126228   2.921   2.639   2.376 -0.2739 -0.4044  0.3942
 4923SOL    HW226229   2.902   2.782   2.403 -0.9252  0.2405 -0.1998
 4924SOL     OW26230   0.084   3.691  11.013  0.0170 -0.3037  0.2590
 4924SOL    HW126231   4.717   3.663  10.987 -0.3733 -1.5476  2.9712
 4924SOL    HW226232   0.132   3.638  10.950  0.7010  3.0944 -2.0786
 4925SOL     OW26233   3.113   1.683   7.672  0.4571 -0.1057  0.8888
 4925SOL    HW126234   3.059   1.762   7.677  0.2402 -0.2520  0.8439
 4925SOL    HW226235   3.118   1.675   7.767  0.3528 -2.3501  0.6874
 4926SOL     OW26236   3.481   2.616   8.598  0.3601 -0.6905  0.4281
 4926SOL    HW126237   3.491   2.707   8.623  0.0404  0.0908 -2.2553
 4926SOL    HW226238   3.436   2.625   8.514  0.5704  1.9994  0.6014
 4927SOL     OW26239   0.922   3.347   3.690 -0.6518 -0.1461  0.2579
 4927SOL    HW126240   0.943   3.350   3.596  3.9438 -2.4944  1.2068
 4927SOL    HW226241   0.965   3.265   3.715  1.1383  1.1992  1.6197
 4928SOL     OW26242   3.124   1.616  10.071  0.1762 -0.2340  0.2930
 4928SOL    HW126243   3.111   1.706  10.042  0.9907 -0.5086 -0.8964
 4928SOL    HW226244   3.113   1.636  10.164 -0.5358  0.7056  0.0053
 4929SOL     OW26245   2.417   3.161   9.821  0.3022  0.4042  0.8353
 4929SOL    HW126246   2.329   3.127   9.838  1.3780 -2.4455  0.5756
 4929SOL    HW226247   2.411   3.253   9.850 -1.4665  0.6341 -0.2760
 4930SOL     OW26248   0.697   3.324  13.363  1.0361  0.1679  0.3252
 4930SOL    HW126249   0.780   3.352  13.324  1.9682 -3.4547 -0.2799
 4930SOL    HW226250   0.670   3.261  13.296  1.3072  0.4375 -0.0367
 4931SOL     OW26251   0.438   0.075   1.495 -0.0265 -0.0006  0.3559
 4931SOL    HW126252   0.439   0.001   1.555  1.3266 -1.5981 -1.6271
 4931SOL    HW226253   0.469   0.143   1.555 -0.0609 -1.1833  1.7076
 4932SOL     OW26254   4.720   3.531   3.608 -0.2477  0.5833  0.0946
 4932SOL    HW126255   0.083   3.489   3.589  0.3491  0.4926  2.9342
 4932SOL    HW226256   0.017   3.584   3.685 -0.6276  1.0130 -0.1137
 4933SOL     OW26257   0.594   3.502   6.559  0.3061 -0.0155 -0.1009
 4933SOL    HW126258   0.676   3.545   6.536  0.4360 -0.9891 -1.4719
 4933SOL    HW226259   0.613   3.421   6.511 -0.1729  0.2718 -0.7859
 4934SOL     OW26260   1.273   2.004   6.528  0.3070 -0.5068 -0.1691
 4934SOL    HW126261   1.279   2.074   6.464  3.0274 -0.4193  0.1999
 4934SOL    HW226262   1.202   2.042   6.580  0.9644 -0.7702  0.9355
 4935SOL     OW26263   3.017   3.086   4.933  0.0733 -0.5816  0.3053
 4935SOL    HW126264   3.039   3.177   4.954 -3.1721 -0.3156  2.4693
 4935SOL    HW226265   3.100   3.067   4.889  0.0220  0.0013 -0.0547
 4936SOL     OW26266   0.717   0.689  10.187 -0.0716  0.4209  0.3976
 4936SOL    HW126267   0.653   0.715  10.252 -0.0663 -1.8116  1.3157
 4936SOL    HW226268   0.793   0.682  10.246  0.7640  0.6781 -0.6415
 4937SOL     OW26269   1.487   0.132  15.085  0.0304  0.2640 -0.3232
 4937SOL    HW126270   1.420   0.082  15.132 -1.4697  0.0470 -2.7096
 4937SOL    HW226271   1.564   0.113  15.139 -0.5642  1.4374  0.9026
 4938SOL     OW26272   3.943   0.759   5.402  0.7153  0.1607 -0.7093
 4938SOL    HW126273   4.029   0.722   5.419  0.6100 -0.0007 -0.5351
 4938SOL    HW226274   3.910   0.764   5.491  2.4009 -2.3466  0.0605
 4939SOL     OW26275   0.235   2.077   7.256  0.2656 -0.3732  0.2470
 4939SOL    HW126276   0.219   2.154   7.310  1.1210  0.3164 -0.4554
 4939SOL    HW226277   0.318   2.100   7.214 -1.8192  0.5106 -3.3868
 4940SOL     OW26278   4.100   2.468   0.725  0.1116 -0.3229  0.3876
 4940SOL    HW126279   4.051   2.486   0.644 -0.8057  1.3356  1.3071
 4940SOL    HW226280   4.096   2.555   0.766  2.2027  1.5857 -3.3862
 4941SOL     OW26281   1.529   4.588   9.282  0.1075  0.6226  0.2205
 4941SOL    HW126282   1.567   4.610   9.367 -0.3205  0.7047  0.3879
 4941SOL    HW226283   1.608   4.547   9.246 -0.7483 -0.9145  0.0976
 4942SOL     OW26284   2.895   2.364   6.644 -0.1321 -0.1204 -0.5749
 4942SOL    HW126285   2.845   2.313   6.707  0.6637  0.4411  0.5153
 4942SOL    HW226286   2.980   2.326   6.667  1.0268  2.7571 -0.0252
 4943SOL     OW26287   0.187   2.443  10.973  0.3003  0.0836 -0.9857
 4943SOL    HW126288   0.169   2.353  11.002 -1.1871  0.1916 -1.5622
 4943SOL    HW226289   0.276   2.462  11.002  0.2315  0.6058 -1.1281
 4944SOL     OW26290   2.705   2.776   9.201  0.0757 -0.2180 -0.2699
 4944SOL    HW126291   2.690   2.830   9.278  1.1479  0.4525 -0.5403
 4944SOL    HW226292   2.730   2.688   9.230 -1.7470 -0.3725  0.8524
 4945SOL     OW26293   3.603   4.149  13.325 -0.1668  0.2409 -0.0394
 4945SOL    HW126294   3.684   4.177  13.282  0.0943 -0.1157  0.2212
 4945SOL    HW226295   3.545   4.125  13.253  0.4971 -0.5034 -0.3192
 4946SOL     OW26296   0.404   2.635  11.546 -0.4716  0.7791  0.0216
 4946SOL    HW126297   0.409   2.549  11.588  0.6823  1.6719  1.6758
 4946SOL    HW226298   0.455   2.609  11.469 -2.2977 -0.0067 -0.9371
 4947SOL     OW26299   4.273   3.581   1.940  0.5998 -0.6434 -0.2634
 4947SOL    HW126300   4.232   3.509   1.987 -0.8782  0.1627 -0.3002
 4947SOL    HW226301   4.287   3.643   2.012 -1.3879 -1.5954  0.9327
 4948SOL     OW26302   2.332   1.462   7.884 -0.4898 -0.2191 -0.1509
 4948SOL    HW126303   2.321   1.397   7.814  1.2506  0.2758 -0.8919
 4948SOL    HW226304   2.426   1.479   7.873 -0.6711  1.0276  0.1554
 4949SOL     OW26305   2.093   2.682   5.276 -0.0759 -0.2957 -0.1796
 4949SOL    HW126306   2.027   2.737   5.319  1.3199 -0.2110  1.8589
 4949SOL    HW226307   2.113   2.625   5.350  1.4462 -1.9892 -1.9115
 4950SOL     OW26308   4.045   0.118   1.460  0.1459 -0.3972  0.5072
 4950SOL    HW126309   4.079   0.104   1.372  2.4217 -1.8635  1.6008
 4950SOL    HW226310   4.046   0.026   1.488 -0.3873  0.0114  1.8765
 4951SOL     OW26311   0.669   4.246   7.610 -0.1146  0.5969  0.1284
 4951SOL    HW126312   0.602   4.295   7.658 -0.3712 -0.3854  0.7743
 4951SOL    HW226313   0.744   4.304   7.594  0.3254 -0.2627 -0.8811
 4952SOL     OW26314   2.078   2.260   5.690 -0.1975  0.1500 -0.5802
 4952SOL    HW126315   2.158   2.294   5.731  0.1805  0.0467 -1.2347
 4952SOL    HW226316   2.117   2.214   5.616 -0.2669 -2.9411  1.2931
 4953SOL     OW26317   3.256   1.008   6.488 -0.5783 -0.1029 -0.4756
 4953SOL    HW126318   3.245   1.103   6.482  0.2208 -0.0049 -0.4438
 4953SOL    HW226319   3.252   0.974   6.399  0.4264  1.9718 -1.3280
 4954SOL     OW26320   2.418   1.128   8.741  0.3875  0.4683 -0.4507
 4954SOL    HW126321   2.435   1.102   8.831  0.5140 -0.2210 -0.6753
 4954SOL    HW226322   2.422   1.223   8.744 -0.1976  0.5235 -1.3029
 4955SOL     OW26323   0.057   1.102   3.174  0.1968  0.1839 -0.7059
 4955SOL    HW126324   0.025   1.136   3.258  1.4768 -0.3499 -0.0096
 4955SOL    HW226325   4.695   1.092   3.126 -0.3842 -0.8165  0.5273
 4956SOL     OW26326   4.288   4.297   4.582 -0.1167 -0.2789  0.9888
 4956SOL    HW126327   4.294   4.343   4.666 -1.1843  2.0071 -0.1872
 4956SOL    HW226328   4.270   4.207   4.608 -0.2008 -0.0705  1.6691
 4957SOL     OW26329   2.074   3.472   4.870 -0.1011 -0.6949  0.1032
 4957SOL    HW126330   2.112   3.553   4.904  0.7937 -0.3106 -1.8042
 4957SOL    HW226331   2.127   3.404   4.911  0.9751 -0.8861 -1.5840
 4958SOL     OW26332   4.145   3.061   8.613  0.5790 -0.1320  0.5621
 4958SOL    HW126333   4.136   2.997   8.683 -2.1843  1.0275  1.2609
 4958SOL    HW226334   4.084   3.126   8.646 -0.5371 -0.9045  0.0359
 4959SOL     OW26335   1.997   2.163   4.507  0.0611 -0.2123 -0.1034
 4959SOL    HW126336   2.061   2.206   4.562 -1.0797  0.9081  0.3558
 4959SOL    HW226337   1.983   2.077   4.548  2.2294 -0.3087  0.4139
 4960SOL     OW26338   2.194   0.189  17.101 -0.1100  0.3055 -0.2724
 4960SOL    HW126339   2.267   0.247  17.080 -0.0040  0.5218  0.6650
 4960SOL    HW226340   2.210   0.132  17.027 -2.8032 -2.2616  1.1355
 4961SOL     OW26341   2.594   3.346   5.035 -0.3936 -0.0197 -0.1208
 4961SOL    HW126342   2.628   3.382   4.953 -0.5096 -3.7181 -1.7786
 4961SOL    HW226343   2.579   3.428   5.083 -0.0444 -0.6296  1.0396
 4962SOL     OW26344   2.491   1.204   6.904  0.5117 -0.6091 -0.3114
 4962SOL    HW126345   2.426   1.204   6.834  1.7868  1.9689 -1.5002
 4962SOL    HW226346   2.459   1.272   6.964 -1.4628  0.5522 -2.6904
 4963SOL     OW26347   1.729   0.192   4.715 -0.4883  0.5908  0.1174
 4963SOL    HW126348   1.783   0.219   4.641 -0.8073  0.8015 -0.0401
 4963SOL    HW226349   1.652   0.239   4.683 -1.8117 -1.2576  0.5346
 4964SOL     OW26350   4.546   3.397   5.431  0.0006 -0.3969  0.2620
 4964SOL    HW126351   4.493   3.347   5.370  2.0834 -1.7882 -0.3958
 4964SOL    HW226352   4.627   3.397   5.381  0.4795  1.0598  1.0335
 4965SOL     OW26353   0.501   2.510   3.212 -0.3202 -0.3723 -0.2710
 4965SOL    HW126354   0.458   2.434   3.173  0.7494 -1.7139  1.1926
 4965SOL    HW226355   0.522   2.474   3.298  0.6514  1.1895  0.1401
 4966SOL     OW26356   0.951   0.331  11.664 -0.4504 -0.3951  0.3282
 4966SOL    HW126357   0.994   0.412  11.636  0.5133 -1.0037  0.0310
 4966SOL    HW226358   0.950   0.340  11.759  1.4667  1.4139  0.1804
 4967SOL     OW26359   1.755   0.038   9.067 -0.0305  0.0249 -0.0093
 4967SOL    HW126360   1.802   0.069   9.144 -0.8413 -1.3534  1.0467
 4967SOL    HW226361   1.686   4.719   9.120  0.3373 -0.3493  0.1893
 4968SOL     OW26362   0.526   3.948  14.013 -0.0790  0.3298  0.0372
 4968SOL    HW126363   0.621   3.961  14.005 -0.0220  0.9646  1.5997
 4968SOL    HW226364   0.521   3.857  14.042 -1.5699  0.2846 -0.4035
 4969SOL     OW26365   1.799   3.216   4.419 -0.4794  0.5463  0.6730
 4969SOL    HW126366   1.855   3.261   4.482 -1.8019  2.0058  0.7956
 4969SOL    HW226367   1.830   3.125   4.423 -0.0059  0.6140 -1.2272
 4970SOL     OW26368   4.022   0.127  13.953 -0.0938  0.2065 -0.2006
 4970SOL    HW126369   4.079   0.142  14.028 -0.7922  3.7080 -0.3841
 4970SOL    HW226370   4.053   0.201  13.901 -0.2694  0.3162 -0.1478
 4971SOL     OW26371   1.492   4.487   7.915  0.4256 -0.0689  0.7676
 4971SOL    HW126372   1.406   4.500   7.956 -0.6768 -1.1651 -1.1703
 4971SOL    HW226373   1.532   4.435   7.985  0.4618  0.9729  1.5236
 4972SOL     OW26374   3.498   0.313   6.425  0.5632 -0.0168 -0.1947
 4972SOL    HW126375   3.409   0.350   6.423 -0.8046 -3.1830  2.6745
 4972SOL    HW226376   3.511   0.280   6.513  0.7958  0.4554 -0.0515
 4973SOL     OW26377   1.577   4.251   9.784 -0.1518 -0.0289 -0.7467
 4973SOL    HW126378   1.558   4.158   9.797  0.2932 -0.3140 -2.1149
 4973SOL    HW226379   1.534   4.281   9.864  0.4848 -0.3651 -0.2761
 4974SOL     OW26380   3.773   2.474   6.302  0.8822 -0.0131  0.5539
 4974SOL    HW126381   3.825   2.510   6.373  1.7950  0.6887 -0.4671
 4974SOL    HW226382   3.685   2.483   6.338  0.5153  1.2757 -0.6727
 4975SOL     OW26383   2.337   2.169   7.528  0.9179 -0.0443  0.2882
 4975SOL    HW126384   2.281   2.213   7.464 -1.6725 -0.5205  2.2112
 4975SOL    HW226385   2.266   2.129   7.578 -2.0389  0.1366 -3.7557
 4976SOL     OW26386   3.885   3.882   1.290 -0.0901 -0.1684  0.0050
 4976SOL    HW126387   3.892   3.830   1.371 -1.8172  0.2867  0.4366
 4976SOL    HW226388   3.802   3.915   1.324  0.3409 -0.9327  1.7917
 4977SOL     OW26389   3.856   4.121   1.929 -0.0852 -0.4382  0.3626
 4977SOL    HW126390   3.812   4.121   1.844 -0.3405  0.1258  0.5012
 4977SOL    HW226391   3.873   4.029   1.953 -1.2789 -0.7497 -0.0089
 4978SOL     OW26392   2.520   2.914   8.612 -0.3804 -0.5043  0.2346
 4978SOL    HW126393   2.478   2.840   8.657  0.0074 -0.2679  0.9796
 4978SOL    HW226394   2.506   2.881   8.523  1.2587  1.5544 -0.7639
 4979SOL     OW26395   1.590   0.278  13.064 -0.2593  0.3882 -0.5468
 4979SOL    HW126396   1.679   0.247  13.083 -1.6534 -4.1159 -1.2012
 4979SOL    HW226397   1.571   0.357  13.113 -1.7578  0.6148 -1.5121
 4980SOL     OW26398   3.315   1.394   4.751 -0.1914  0.0802 -0.3371
 4980SOL    HW126399   3.377   1.401   4.824  0.7336 -1.5770 -0.9626
 4980SOL    HW226400   3.235   1.411   4.802 -0.8110 -0.8249 -1.0315
 4981SOL     OW26401   2.857   2.934   4.740  0.3527  0.7013 -0.2650
 4981SOL    HW126402   2.791   2.989   4.699 -0.2320 -0.2461 -0.5831
 4981SOL    HW226403   2.904   2.988   4.804  0.1979 -1.8241  2.0135
 4982SOL     OW26404   1.600   0.568   6.795  0.3090  0.3231 -0.3601
 4982SOL    HW126405   1.694   0.553   6.786  0.6768  1.2881  1.7396
 4982SOL    HW226406   1.570   0.517   6.720 -0.8915  0.2302  0.1858
 4983SOL     OW26407   2.640   0.644   2.470  0.1050 -0.6135  0.1520
 4983SOL    HW126408   2.567   0.592   2.437  0.9406 -2.1192  0.7175
 4983SOL    HW226409   2.591   0.716   2.512  1.7211  0.7264 -0.2661
 4984SOL     OW26410   0.471   3.937   7.964  0.6505 -0.3653 -0.1439
 4984SOL    HW126411   0.473   3.954   8.058  2.7649 -1.8315  0.0701
 4984SOL    HW226412   0.379   3.948   7.940  0.6199  0.4339  0.3746
 4985SOL     OW26413   0.916   2.455   1.909 -0.4079 -0.0692  0.1903
 4985SOL    HW126414   0.993   2.511   1.913 -0.9107  0.5740  0.9306
 4985SOL    HW226415   0.953   2.368   1.894  1.4423  1.1497 -2.2948
 4986SOL     OW26416   0.704   0.504  10.007 -0.3118 -0.3873 -0.2875
 4986SOL    HW126417   0.628   0.453  10.035 -1.4178  0.9079 -0.9172
 4986SOL    HW226418   0.725   0.561  10.080 -1.6154 -1.9561  1.3184
 4987SOL     OW26419   3.507   4.630  15.407  0.4790  0.1765 -0.8188
 4987SOL    HW126420   3.530   4.544  15.442 -0.3164 -0.2322 -1.3032
 4987SOL    HW226421   3.412   4.621  15.400  1.0079 -3.6514 -3.2587
 4988SOL     OW26422   1.204   3.552   4.376  0.5008 -0.4372 -0.3628
 4988SOL    HW126423   1.121   3.521   4.340  0.0331  1.1604 -0.6491
 4988SOL    HW226424   1.185   3.550   4.470  0.9649  0.1983 -0.2554
 4989SOL     OW26425   4.707   1.424  13.621 -0.1339 -0.0721  0.4183
 4989SOL    HW126426   4.705   1.353  13.686  2.9297  0.7896  1.4778
 4989SOL    HW226427   0.054   1.394  13.561 -0.9343  0.3565 -0.6877
 4990SOL     OW26428   3.048   1.297  15.627  0.2066 -0.2680  0.4138
 4990SOL    HW126429   2.980   1.285  15.561  2.1021  1.4256 -1.8678
 4990SOL    HW226430   3.121   1.253  15.583 -0.3394  0.2350 -0.9922
 4991SOL     OW26431   1.986   1.277  10.245 -0.2161 -0.2560 -0.5149
 4991SOL    HW126432   1.950   1.232  10.321  0.8130  1.7151  1.1334
 4991SOL    HW226433   1.903   1.286  10.197  0.1675 -1.8307 -1.4966
 4992SOL     OW26434   0.994   1.459   5.909 -0.2919 -0.0050  0.1990
 4992SOL    HW126435   0.911   1.428   5.872 -0.3471  0.8852 -0.4205
 4992SOL    HW226436   1.007   1.396   5.979  1.9454 -1.1460 -1.2660
 4993SOL     OW26437   0.802   1.388  14.653 -0.1633  0.3869  0.1358
 4993SOL    HW126438   0.858   1.346  14.588  1.6176  2.7021  0.2033
 4993SOL    HW226439   0.757   1.316  14.699 -2.5717  0.7592 -1.6614
 4994SOL     OW26440   4.150   3.706   4.347 -0.0999  0.1782  0.1358
 4994SOL    HW126441   4.126   3.741   4.261  2.0151  2.1246  0.3564
 4994SOL    HW226442   4.236   3.747   4.352  0.5607 -1.2178  0.3225
 4995SOL     OW26443   0.497   1.457   1.550 -0.0665 -0.1003 -0.0913
 4995SOL    HW126444   0.571   1.508   1.582  2.5980 -2.2944 -2.7666
 4995SOL    HW226445   0.526   1.368   1.571 -1.3559 -0.7204 -0.9310
 4996SOL     OW26446   1.616   4.259   9.011  0.5368 -0.7227 -0.2701
 4996SOL    HW126447   1.581   4.257   9.100 -0.7590  0.7625 -0.7624
 4996SOL    HW226448   1.695   4.204   9.010 -0.0291 -1.5008 -1.8557
 4997SOL     OW26449   4.648   3.286  14.263  0.0458 -0.2835 -0.0581
 4997SOL    HW126450   4.681   3.374  14.279  1.2384 -0.0350 -3.9809
 4997SOL    HW226451   4.634   3.280  14.169  0.4714  2.2799 -0.2685
 4998SOL     OW26452   2.900   4.578   6.110 -0.0016  0.2544 -0.0423
 4998SOL    HW126453   2.809   4.556   6.092  0.9020 -2.4596 -1.3267
 4998SOL    HW226454   2.913   4.540   6.197 -0.1660  1.7861  0.6381
 4999SOL     OW26455   0.099   3.559   0.552  0.0921  0.0759 -0.4745
 4999SOL    HW126456   0.128   3.503   0.624  2.7166 -0.4232 -1.9341
 4999SOL    HW226457   0.005   3.546   0.552 -0.3487  3.0998 -0.2518
 5000SOL     OW26458   0.163   3.557  17.574  0.2408  0.1255 -0.2371
 5000SOL    HW126459   0.172   3.488  17.639 -0.2949  2.8798  2.7376
 5000SOL    HW226460   0.075   3.541  17.541  0.3537  0.7379 -0.8374
 5001SOL     OW26461   2.143   0.840   9.328 -0.1782 -0.4493 -0.7057
 5001SOL    HW126462   2.124   0.815   9.238  0.4860 -2.9421 -0.1505
 5001SOL    HW226463   2.071   0.804   9.380 -0.2586  0.9120  0.1495
 5002SOL     OW26464   4.498   3.900   7.099 -0.7113  0.5215 -0.4635
 5002SOL    HW126465   4.407   3.897   7.127 -1.3673 -0.3317 -2.6691
 5002SOL    HW226466   4.538   3.877   7.182 -0.9176  0.1636 -0.4653
 5003SOL     OW26467   2.811   2.794   0.856  0.4971  0.8629 -0.3868
 5003SOL    HW126468   2.799   2.765   0.766  1.6105  1.0964 -0.6091
 5003SOL    HW226469   2.815   2.711   0.904 -0.9132  0.4004 -1.0812
 5004SOL     OW26470   0.738   2.653   0.732 -0.2596  0.0328  0.0008
 5004SOL    HW126471   0.789   2.658   0.651 -2.0304  0.9743 -1.0602
 5004SOL    HW226472   0.802   2.665   0.802  0.9973 -0.6064 -1.0465
 5005SOL     OW26473   3.263   2.601  13.408  0.4340  0.6829  0.0964
 5005SOL    HW126474   3.207   2.523  13.418  1.9790 -0.3910  0.3765
 5005SOL    HW226475   3.333   2.587  13.472  1.9417  0.3128 -1.6631
 5006SOL     OW26476   3.235   4.006   7.952  0.3859  0.7574  0.3081
 5006SOL    HW126477   3.289   3.948   8.006  0.2970  1.2784  0.9490
 5006SOL    HW226478   3.200   3.943   7.888  0.6588  0.4917  0.4229
 5007SOL     OW26479   1.724   3.176   9.340 -0.4362  0.2424 -0.3419
 5007SOL    HW126480   1.669   3.248   9.308  0.4063  1.0195 -0.0408
 5007SOL    HW226481   1.693   3.102   9.289 -0.9250 -0.5570  1.0916
 5008SOL     OW26482   0.514   2.004   5.298  0.3223 -0.1643  0.0258
 5008SOL    HW126483   0.535   1.980   5.208 -2.5533 -0.3754 -0.5781
 5008SOL    HW226484   0.553   2.089   5.318 -0.3049  0.3255 -0.8554
 5009SOL     OW26485   4.421   0.763  10.778  0.0492 -0.1563  0.9364
 5009SOL    HW126486   4.352   0.705  10.807 -1.9900  2.0959  0.5596
 5009SOL    HW226487   4.493   0.741  10.838  2.1481 -0.0447 -1.5480
 5010SOL     OW26488   1.895   1.895   7.788 -0.3788 -0.2136  0.1541
 5010SOL    HW126489   1.810   1.870   7.825 -1.0381  0.4182 -0.9232
 5010SOL    HW226490   1.887   1.830   7.718  1.4590 -1.2248  0.8742
 5011SOL     OW26491   0.866   1.546  10.073 -0.1410  0.3109  0.4090
 5011SOL    HW126492   0.866   1.453  10.055 -0.2300  0.7383 -1.7727
 5011SOL    HW226493   0.958   1.569  10.064  0.0763 -0.7901 -0.0943
 5012SOL     OW26494   0.036   3.724   1.504  0.3320 -0.0281 -0.2430
 5012SOL    HW126495   0.044   3.639   1.460  0.6288 -0.3660  0.4681
 5012SOL    HW226496   4.668   3.742   1.474  0.0875  0.1435  0.5984
 5013SOL     OW26497   3.161   4.470   7.535  0.0926 -0.3762  0.3600
 5013SOL    HW126498   3.139   4.431   7.620 -1.0504 -0.7876 -0.1353
 5013SOL    HW226499   3.071   4.478   7.504  1.3000  0.4876 -2.8449
 5014SOL     OW26500   1.252   3.019   8.725  0.0536  0.0643 -0.3091
 5014SOL    HW126501   1.206   3.033   8.808 -1.2111  1.7862 -1.3061
 5014SOL    HW226502   1.192   2.961   8.677  0.5808 -2.7983  2.4450
 5015SOL     OW26503   1.071   3.256   4.900  0.6456 -0.1687 -0.8579
 5015SOL    HW126504   0.989   3.305   4.899 -0.5358 -2.1943 -1.0137
 5015SOL    HW226505   1.045   3.193   4.967 -0.6374 -0.8370 -2.0022
 5016SOL     OW26506   2.643   0.387  17.432  0.0245  0.4531  0.3366
 5016SOL    HW126507   2.593   0.334  17.494 -2.1590  0.8594 -1.1223
 5016SOL    HW226508   2.705   0.323  17.397 -1.9903 -0.1253 -2.1025
 5017SOL     OW26509   3.837   3.650   2.100 -0.1909  0.1134 -0.3512
 5017SOL    HW126510   3.757   3.640   2.150 -0.4363  0.6852 -0.6270
 5017SOL    HW226511   3.892   3.575   2.124 -0.7232  0.7962  3.0411
 5018SOL     OW26512   4.400   1.856   7.422 -0.3358 -0.5704  0.3392
 5018SOL    HW126513   4.447   1.881   7.502 -1.5117  1.0789  0.4959
 5018SOL    HW226514   4.358   1.773   7.446  0.7947 -1.4559 -0.6797
 5019SOL     OW26515   4.580   0.884  16.987 -0.4028  0.4440  0.3621
 5019SOL    HW126516   4.531   0.817  17.035  0.4368  0.1970  0.8768
 5019SOL    HW226517   4.652   0.903  17.047  1.0642 -1.7200 -0.7074
 5020SOL     OW26518   4.565   4.323   6.038  0.7171  0.1752  0.0880
 5020SOL    HW126519   4.584   4.348   6.128  0.2208  0.2582  0.1657
 5020SOL    HW226520   4.542   4.407   5.999  0.7577 -0.3541 -1.0628
 5021SOL     OW26521   1.256   1.613   9.151  0.1531 -0.0995  0.5485
 5021SOL    HW126522   1.302   1.530   9.137 -0.6628 -0.1299 -1.8991
 5021SOL    HW226523   1.238   1.606   9.244 -1.6232 -3.1393 -0.0066
 5022SOL     OW26524   4.700   3.822   6.422  0.0143  0.3408  0.0855
 5022SOL    HW126525   4.630   3.806   6.486 -0.0655 -1.1782 -0.3807
 5022SOL    HW226526   4.658   3.872   6.352 -1.1308  0.5982  0.9479
 5023SOL     OW26527   1.316   3.802  10.146  0.1283  0.1819 -0.4524
 5023SOL    HW126528   1.304   3.846  10.061  0.4876  0.2964 -0.4470
 5023SOL    HW226529   1.241   3.836  10.195  1.0224  1.5572 -0.0441
 5024SOL     OW26530   0.215   3.289   8.183  0.3919 -0.3423  0.3845
 5024SOL    HW126531   0.201   3.332   8.099 -1.3985 -0.4175  0.6485
 5024SOL    HW226532   0.186   3.357   8.244  0.0870 -1.3864  1.4097
 5025SOL     OW26533   2.333   1.902   6.614  0.3829  0.0895  0.0510
 5025SOL    HW126534   2.238   1.902   6.600  0.6561 -1.2099 -1.8307
 5025SOL    HW226535   2.347   1.808   6.623  0.3964  0.2157  1.3597
 5026SOL     OW26536   2.255   1.823   4.819  0.6399  0.2048 -0.2041
 5026SOL    HW126537   2.224   1.914   4.816  2.5694  0.8803  0.5513
 5026SOL    HW226538   2.343   1.823   4.854  0.7786  1.1329 -0.5556
 5027SOL     OW26539   2.930   2.360   1.127  0.4664 -0.7562  0.4890
 5027SOL    HW126540   3.016   2.369   1.166  0.5952 -2.6111  0.6513
 5027SOL    HW226541   2.950   2.304   1.051  0.1033  0.3301 -0.4115
 5028SOL     OW26542   2.081   0.202   5.351 -0.3460 -0.5229  0.3634
 5028SOL    HW126543   2.176   0.208   5.345 -0.6126  1.1013 -2.1160
 5028SOL    HW226544   2.071   0.253   5.431 -4.2785 -0.6446 -0.0341
 5029SOL     OW26545   1.376   2.634   1.697  0.5420  0.0609  0.0571
 5029SOL    HW126546   1.325   2.553   1.703  2.4139 -1.0215  1.4421
 5029SOL    HW226547   1.427   2.609   1.620 -0.7875 -2.7133  0.0609
 5030SOL     OW26548   4.196   3.571  14.055 -0.1035  0.1853 -0.6728
 5030SOL    HW126549   4.167   3.620  14.131  1.4725  0.0128  0.0520
 5030SOL    HW226550   4.186   3.639  13.988  1.4518 -0.4440 -1.5587
 5031SOL     OW26551   3.491   1.470  17.343  0.4901 -0.6232 -0.2670
 5031SOL    HW126552   3.499   1.451  17.437 -0.0574 -0.9676 -0.2921
 5031SOL    HW226553   3.576   1.438  17.313  0.4621 -0.5494 -0.4220
 5032SOL     OW26554   3.673   1.941   3.130  0.4399  0.1779  0.4212
 5032SOL    HW126555   3.582   1.969   3.131  0.2257 -0.5114 -0.4336
 5032SOL    HW226556   3.676   1.869   3.193 -1.6921  0.1612  0.5094
 5033SOL     OW26557   0.693   2.734   3.248 -0.6923  0.1213  0.6995
 5033SOL    HW126558   0.620   2.767   3.196  0.3123  0.3677 -0.5534
 5033SOL    HW226559   0.664   2.646   3.274 -2.4558  0.3579 -0.4856
 5034SOL     OW26560   0.784   2.938   0.426 -0.2357 -0.1415 -0.3784
 5034SOL    HW126561   0.840   2.873   0.468 -0.1955  0.1640  0.0489
 5034SOL    HW226562   0.698   2.897   0.440  0.0822 -1.2458 -1.7730
 5035SOL     OW26563   2.897   4.646  16.925 -0.0699  0.2479  0.1034
 5035SOL    HW126564   2.847   4.605  16.995  0.1697  2.8277  1.7797
 5035SOL    HW226565   2.823   4.649  16.864 -1.3338 -2.2020  1.5165
 5036SOL     OW26566   1.659   2.571   3.319 -0.1652  0.5738  0.0345
 5036SOL    HW126567   1.614   2.625   3.254  2.1046 -0.0367 -2.0567
 5036SOL    HW226568   1.745   2.555   3.279  0.9624  4.0741  1.0214
 5037SOL     OW26569   1.928   3.868   0.265 -0.4921  0.0397  0.5040
 5037SOL    HW126570   1.977   3.885   0.185  0.7627 -1.0971  1.0345
 5037SOL    HW226571   1.998   3.828   0.316 -0.6336  0.0815  0.7303
 5038SOL     OW26572   2.784   2.426   4.688  0.2788  0.1134  0.3174
 5038SOL    HW126573   2.786   2.496   4.754  4.4611 -0.8037  1.1730
 5038SOL    HW226574   2.821   2.469   4.611 -0.0885  0.4773  0.3428
 5039SOL     OW26575   4.446   3.302  16.058 -0.2475  0.3090  0.3543
 5039SOL    HW126576   4.449   3.396  16.041 -0.2429  0.6571  2.2182
 5039SOL    HW226577   4.365   3.297  16.109  0.3576 -1.4753  1.1760
 5040SOL     OW26578   1.977   1.652  13.362  0.0552 -0.2631  0.6019
 5040SOL    HW126579   2.041   1.680  13.428 -0.2579 -0.0483  0.8154
 5040SOL    HW226580   1.896   1.684  13.401 -0.2747 -0.3384 -0.0190
 5041SOL     OW26581   4.278   2.815  11.592  0.4034 -0.0249  0.0502
 5041SOL    HW126582   4.334   2.782  11.663 -0.4335  0.4344  0.9333
 5041SOL    HW226583   4.304   2.907  11.595 -0.5142  0.2258  0.1220
 5042SOL     OW26584   4.114   0.467  14.804  0.0423  0.1109  0.2612
 5042SOL    HW126585   4.165   0.451  14.725 -1.6835  0.1938 -0.8639
 5042SOL    HW226586   4.048   0.398  14.807 -0.3129  0.4589  0.3956
 5043SOL     OW26587   0.612   2.198   2.558  0.1804 -0.0808 -0.0691
 5043SOL    HW126588   0.642   2.118   2.602 -1.5581 -0.9025 -0.4039
 5043SOL    HW226589   0.627   2.262   2.627  1.0524  1.3604 -1.6201
 5044SOL     OW26590   0.730   1.461   7.571  0.1546 -0.1184  0.7828
 5044SOL    HW126591   0.733   1.379   7.521  2.4134  0.4363 -0.0070
 5044SOL    HW226592   0.686   1.516   7.505  1.5603  1.3371  1.0339
 5045SOL     OW26593   1.553   2.723   4.010  0.1757  0.1244 -0.2451
 5045SOL    HW126594   1.586   2.668   3.939 -1.1978  0.6496 -1.2931
 5045SOL    HW226595   1.620   2.791   3.996  0.8099 -0.5970 -0.6716
 5046SOL     OW26596   2.788   0.872   1.833  0.5131  0.6154 -0.5783
 5046SOL    HW126597   2.833   0.800   1.876 -1.1478 -0.2878 -0.3437
 5046SOL    HW226598   2.856   0.937   1.819 -1.0995  1.9402 -2.2221
 5047SOL     OW26599   0.983   4.626  14.955 -0.6853 -0.0318 -0.2081
 5047SOL    HW126600   0.914   4.560  14.947  0.7632 -1.7964  1.7717
 5047SOL    HW226601   1.043   4.584  15.017 -1.8198 -1.4317 -0.0707
 5048SOL     OW26602   4.148   4.464  16.826  0.0873  0.2287 -0.5945
 5048SOL    HW126603   4.089   4.443  16.753  0.1508  1.4990 -1.0227
 5048SOL    HW226604   4.175   4.374  16.845 -2.3018 -0.7882 -1.9487
 5049SOL     OW26605   1.908   1.695   5.332 -0.0614 -0.2017 -0.1474
 5049SOL    HW126606   1.891   1.715   5.240 -0.5441  1.6746  0.3631
 5049SOL    HW226607   1.918   1.784   5.364 -0.2803 -0.3550  0.3503
 5050SOL     OW26608   0.742   2.328   5.709  0.1513  0.1336  0.4486
 5050SOL    HW126609   0.765   2.239   5.685 -0.0768  0.2880 -0.3630
 5050SOL    HW226610   0.664   2.307   5.761  0.1775 -2.9149 -0.7637
 5051SOL     OW26611   0.820   4.076   4.601 -0.0671  0.1096  0.0651
 5051SOL    HW126612   0.785   4.051   4.686  1.5636  2.5701  1.4454
 5051SOL    HW226613   0.890   4.128   4.640 -0.6962 -0.1678  1.5401
 5052SOL     OW26614   0.624   4.235   6.764 -0.1613  0.2250  0.4424
 5052SOL    HW126615   0.702   4.207   6.812 -0.0401  0.1384  0.1940
 5052SOL    HW226616   0.584   4.148   6.757  2.8468 -1.2561  1.5761
 5053SOL     OW26617   3.045   4.219   9.521 -1.1996 -0.4432 -0.2068
 5053SOL    HW126618   3.093   4.184   9.596 -0.8339  3.2870  1.2814
 5053SOL    HW226619   2.972   4.264   9.563 -0.2724  0.3059  0.5839
 5054SOL     OW26620   4.441   2.691   5.816  0.1961  0.1798  0.1465
 5054SOL    HW126621   4.448   2.784   5.798  2.7286 -0.3392 -1.5785
 5054SOL    HW226622   4.530   2.663   5.839  0.0909 -0.1620  0.1413
 5055SOL     OW26623   3.903   0.172   9.440 -0.8926  0.4530 -0.2158
 5055SOL    HW126624   3.961   0.111   9.485 -3.6644 -1.4567  0.7584
 5055SOL    HW226625   3.896   0.132   9.354  2.2984 -0.8575  0.1469
 5056SOL     OW26626   0.946   1.240   4.120  0.4405  0.3591 -1.1813
 5056SOL    HW126627   0.961   1.164   4.064  1.3543 -0.8385  0.6866
 5056SOL    HW226628   0.867   1.281   4.086  0.3989  0.2546 -1.2110
 5057SOL     OW26629   3.047   1.698   8.780  0.0454 -0.3554 -0.0021
 5057SOL    HW126630   3.124   1.748   8.754 -0.0905 -0.5925 -0.8689
 5057SOL    HW226631   3.081   1.679   8.867 -3.4547  1.7155  1.8090
 5058SOL     OW26632   1.649   2.464  15.174  0.0409 -0.3789 -0.3915
 5058SOL    HW126633   1.663   2.458  15.080  1.8728 -1.9240 -0.0049
 5058SOL    HW226634   1.737   2.477  15.208  0.2329  1.4388 -1.5691
 5059SOL     OW26635   1.219   4.146   8.694  0.8257 -0.6025 -0.1693
 5059SOL    HW126636   1.164   4.090   8.747  1.7633 -1.3244  0.0390
 5059SOL    HW226637   1.213   4.099   8.611 -0.7827 -1.5152  0.4749
 5060SOL     OW26638   1.413   3.706   2.923  0.0611 -0.6027  0.3462
 5060SOL    HW126639   1.433   3.799   2.932  0.8119 -0.9084  1.8239
 5060SOL    HW226640   1.477   3.683   2.856  1.7529  0.7735  1.4957
 5061SOL     OW26641   2.914   1.051   3.127  0.1087  0.9313 -0.0677
 5061SOL    HW126642   2.990   1.045   3.186 -0.0792  0.9044  0.1704
 5061SOL    HW226643   2.907   0.963   3.091 -1.9841  0.9110  0.4281
 5062SOL     OW26644   4.612   3.875  13.161  0.1143  0.5400 -0.5100
 5062SOL    HW126645   4.519   3.895  13.172  0.9598  2.6121  2.8512
 5062SOL    HW226646   4.642   3.881  13.070 -0.5834 -0.2388 -0.7929
 5063SOL     OW26647   3.321   3.278  11.411  0.0003 -0.0622 -0.0128
 5063SOL    HW126648   3.404   3.281  11.364 -0.4559  0.9528 -0.7763
 5063SOL    HW226649   3.335   3.206  11.472 -2.1943 -0.5786 -0.0987
 5064SOL     OW26650   2.332   3.918   9.989 -0.1067 -0.7177  0.1063
 5064SOL    HW126651   2.338   3.942   9.896  3.2288  0.7563  0.6690
 5064SOL    HW226652   2.329   4.001  10.036 -2.9528  1.3599 -3.7069
 5065SOL     OW26653   1.730   0.230   5.002  0.0534  0.0820  0.5378
 5065SOL    HW126654   1.776   0.216   4.919  1.4384  0.5723  1.2212
 5065SOL    HW226655   1.739   0.140   5.034  2.2466  0.1654  0.1607
 5066SOL     OW26656   2.650   1.807   5.812  0.4038  0.0892 -0.2604
 5066SOL    HW126657   2.724   1.755   5.779  0.9560  2.2692 -2.4229
 5066SOL    HW226658   2.702   1.851   5.879  2.2711 -1.4749 -0.6890
 5067SOL     OW26659   3.839   1.547   0.405  0.2631 -0.1120 -0.1032
 5067SOL    HW126660   3.926   1.584   0.386  1.2462 -2.4410 -0.1781
 5067SOL    HW226661   3.867   1.457   0.422  0.2807  0.1379  1.1808
 5068SOL     OW26662   3.117   2.748   5.645  0.3826 -0.4800  0.3628
 5068SOL    HW126663   3.139   2.811   5.576  0.1440 -0.4182  0.3439
 5068SOL    HW226664   3.071   2.807   5.705 -1.0326 -0.3765 -0.8024
 5069SOL     OW26665   2.007   0.127  13.569 -0.0358 -0.5441  0.5953
 5069SOL    HW126666   2.102   0.119  13.557 -0.1236 -1.6216  0.6087
 5069SOL    HW226667   1.990   0.044  13.614  0.6916 -0.0492  1.7554
 5070SOL     OW26668   0.691   4.628   8.372 -0.4508  0.4974  0.3021
 5070SOL    HW126669   0.773   4.611   8.326 -0.3699 -2.3540  1.5065
 5070SOL    HW226670   0.651   4.542   8.361  0.5252  0.1082 -0.2195
 5071SOL     OW26671   1.647   1.992   8.662 -0.3011  0.0050  0.2157
 5071SOL    HW126672   1.607   1.933   8.598  0.6896 -1.3877  0.8643
 5071SOL    HW226673   1.699   2.053   8.611 -0.1083  0.2643  0.7244
 5072SOL     OW26674   1.041   1.569  16.634  0.5792 -0.0574 -0.0587
 5072SOL    HW126675   1.128   1.608  16.626 -0.0943  1.5161  0.4390
 5072SOL    HW226676   1.007   1.593  16.548  1.6195 -0.5786 -0.6156
 5073SOL     OW26677   3.391   3.129   5.004 -0.3948 -0.1507 -0.8144
 5073SOL    HW126678   3.455   3.065   4.974  1.8071  0.5484  2.4330
 5073SOL    HW226679   3.347   3.139   4.919 -1.5000 -0.2020 -0.2444
 5074SOL     OW26680   4.533   3.121   2.601  0.1980 -0.6655  0.1295
 5074SOL    HW126681   4.444   3.151   2.617  0.8710  1.7983 -0.6789
 5074SOL    HW226682   4.552   3.147   2.511  1.1115  3.2002  1.4297
 5075SOL     OW26683   2.605   0.683   2.845  0.2376  0.0130  0.4874
 5075SOL    HW126684   2.520   0.727   2.838  0.2180  0.1504  1.6583
 5075SOL    HW226685   2.577   0.592   2.859 -1.7935  0.5510 -0.0762
 5076SOL     OW26686   1.838   0.041   0.570 -0.0900 -0.2434 -0.8486
 5076SOL    HW126687   1.873   4.675   0.550 -0.9756 -1.0778  1.2349
 5076SOL    HW226688   1.767   0.016   0.629  1.0688  0.1994  0.7221
 5077SOL     OW26689   3.667   4.666  10.851 -0.3102  0.1383 -0.1582
 5077SOL    HW126690   3.745   4.611  10.850 -1.0323 -0.9027  2.9619
 5077SOL    HW226691   3.603   4.600  10.879  0.9206 -0.3015  1.5709
 5078SOL     OW26692   3.823   0.619   7.631  0.1825 -0.1773  0.3401
 5078SOL    HW126693   3.861   0.572   7.557 -0.3882  1.2743 -0.8690
 5078SOL    HW226694   3.821   0.706   7.593  0.6487 -0.8444 -1.2056
 5079SOL     OW26695   4.073   4.719   7.414  0.7183 -0.3395 -0.1610
 5079SOL    HW126696   4.092   0.002   7.508  1.4793  1.4940 -0.3885
 5079SOL    HW226697   4.164   0.017   7.389  0.7120 -2.0702 -1.4862
 5080SOL     OW26698   1.110   0.363  12.359  0.2095 -0.4647  0.0922
 5080SOL    HW126699   1.095   0.327  12.446 -1.3732  1.7067  0.7354
 5080SOL    HW226700   1.104   0.458  12.369  2.7396 -0.1306 -1.6537
 5081SOL     OW26701   4.483   0.978   0.472 -0.0151  0.1134 -0.2798
 5081SOL    HW126702   4.452   1.024   0.550 -0.2568  1.4259 -1.1550
 5081SOL    HW226703   4.474   0.886   0.499  1.1536  0.5177  1.5148
 5082SOL     OW26704   4.517   4.048   2.365  0.0876 -0.0855 -0.5875
 5082SOL    HW126705   4.548   4.056   2.275  0.3215  0.5184 -0.4542
 5082SOL    HW226706   4.591   4.084   2.414 -0.0187 -1.5664  0.6399
 5083SOL     OW26707   0.174   0.852   9.107  0.5008 -0.2766 -0.7021
 5083SOL    HW126708   0.220   0.936   9.111  0.2746 -0.2727  1.6785
 5083SOL    HW226709   0.202   0.806   9.186 -1.4174 -1.4604 -0.7123
 5084SOL     OW26710   3.264   1.846   8.697  0.1271  0.3951 -0.0248
 5084SOL    HW126711   3.254   1.923   8.753 -3.6279 -1.3621  1.6654
 5084SOL    HW226712   3.353   1.813   8.710 -1.4057 -2.6072  2.8242
 5085SOL     OW26713   3.958   4.395   2.854  0.0610 -0.2889 -0.0915
 5085SOL    HW126714   3.902   4.471   2.840  1.7071  0.8455 -0.5076
 5085SOL    HW226715   4.043   4.439   2.866 -0.4353 -0.1951  3.0002
 5086SOL     OW26716   1.298   0.776   6.769  0.0051  0.1561 -0.3343
 5086SOL    HW126717   1.272   0.691   6.803 -0.2627  0.5825  0.5107
 5086SOL    HW226718   1.376   0.793   6.822 -1.2027  1.5993  0.9650
 5087SOL     OW26719   1.630   1.016  13.501  0.2163  0.5317  0.5818
 5087SOL    HW126720   1.573   0.955  13.453 -0.1475 -0.5431  2.4123
 5087SOL    HW226721   1.567   1.083  13.526 -1.4682 -0.8926  0.1676
 5088SOL     OW26722   4.073   0.704  12.306 -0.1567  0.1831  0.3959
 5088SOL    HW126723   4.123   0.736  12.381  1.2898 -0.5028 -0.2837
 5088SOL    HW226724   4.138   0.675  12.241  0.3071  1.7560  0.1561
 5089SOL     OW26725   0.401   4.137  12.566 -0.2243  1.1346 -0.1171
 5089SOL    HW126726   0.364   4.127  12.478  1.2224  0.0559 -0.6132
 5089SOL    HW226727   0.326   4.186  12.601 -0.2688  1.1470 -0.2314
 5090SOL     OW26728   2.959   2.656   1.885  0.0896 -0.2867  0.5020
 5090SOL    HW126729   2.869   2.628   1.900 -0.3055  0.0694 -1.1960
 5090SOL    HW226730   2.975   2.710   1.963 -1.4980  2.8317 -1.3277
 5091SOL     OW26731   1.683   1.734   8.180 -0.2763  0.0680 -0.1556
 5091SOL    HW126732   1.637   1.656   8.211  0.3334 -0.7317 -1.2793
 5091SOL    HW226733   1.662   1.741   8.086  0.2137  0.9399 -0.2076
 5092SOL     OW26734   4.421   1.983   6.266 -0.2022 -0.0903  0.6394
 5092SOL    HW126735   4.427   2.068   6.310  3.9364  0.4456 -0.9794
 5092SOL    HW226736   4.326   1.970   6.269 -0.1271 -1.0004 -1.0593
 5093SOL     OW26737   3.725   4.420   0.836  0.0636 -0.0249 -0.3500
 5093SOL    HW126738   3.743   4.487   0.902 -0.2913  0.1561 -0.4358
 5093SOL    HW226739   3.798   4.437   0.775 -0.3452 -0.7901 -1.0479
 5094SOL     OW26740   4.516   3.443  13.803 -0.6881  0.1647  0.3894
 5094SOL    HW126741   4.530   3.526  13.758 -0.0616 -0.1642 -0.0302
 5094SOL    HW226742   4.422   3.443  13.822 -0.9760 -0.7937 -0.9919
 5095SOL     OW26743   3.471   0.596   7.801 -0.1082  0.5740  0.3603
 5095SOL    HW126744   3.380   0.610   7.829 -0.8829  0.8939 -2.2285
 5095SOL    HW226745   3.478   0.501   7.813  0.2060  0.2120 -2.5132
 5096SOL     OW26746   4.075   2.391  13.898 -0.1827 -0.1376  0.1762
 5096SOL    HW126747   4.107   2.323  13.839 -1.5225 -1.4600  0.9519
 5096SOL    HW226748   4.105   2.471  13.856 -1.1256  0.6382  0.9874
 5097SOL     OW26749   0.364   1.604   3.990 -0.4208 -0.1396 -0.1803
 5097SOL    HW126750   0.372   1.512   3.966  1.9974 -0.0541  0.3022
 5097SOL    HW226751   0.437   1.637   3.938  1.1750 -2.7568  0.4160
 5098SOL     OW26752   0.292   2.607   7.004 -0.2686 -0.4029  0.0896
 5098SOL    HW126753   0.376   2.570   7.033  0.1890 -1.0315 -2.0697
 5098SOL    HW226754   0.258   2.518   6.993  0.0498 -0.7178  1.6039
 5099SOL     OW26755   0.134   2.074  14.488 -0.0245  0.0506 -0.2087
 5099SOL    HW126756   0.113   2.146  14.546 -2.1594 -1.6186  1.0640
 5099SOL    HW226757   0.166   2.001  14.542  0.3244  0.5815  0.2964
 5100SOL     OW26758   0.566   0.893   4.703  0.8035 -0.5470 -0.8158
 5100SOL    HW126759   0.510   0.917   4.777  2.5841 -1.5718  0.8788
 5100SOL    HW226760   0.495   0.860   4.647  1.6518 -1.5796 -1.2877
 5101SOL     OW26761   2.205   2.867   1.527 -0.5315 -0.0663 -1.0879
 5101SOL    HW126762   2.192   2.938   1.464  1.4757  0.6251 -0.7114
 5101SOL    HW226763   2.300   2.874   1.534 -0.7301  1.5270  0.2036
 5102SOL     OW26764   0.125   3.448   7.301 -0.1815 -0.5301 -0.0848
 5102SOL    HW126765   0.114   3.497   7.219 -0.2022 -1.0128 -0.3717
 5102SOL    HW226766   0.188   3.501   7.350 -2.6204  1.5910  0.7562
 5103SOL     OW26767   3.984   0.413   8.435  0.2959 -0.7700  0.6248
 5103SOL    HW126768   3.925   0.486   8.418  0.2682 -0.6805  1.1178
 5103SOL    HW226769   4.072   0.447   8.417  0.1436 -0.2441  0.8802
 5104SOL     OW26770   1.060   2.244   3.574  0.1696 -0.1453  0.1132
 5104SOL    HW126771   1.114   2.244   3.653 -0.6487 -3.1598  0.6658
 5104SOL    HW226772   1.127   2.266   3.509 -0.5249 -1.8280 -1.1599
 5105SOL     OW26773   0.947   1.597   5.235 -0.3480 -0.1796 -0.2774
 5105SOL    HW126774   0.927   1.584   5.142 -2.8511 -2.3438  0.5809
 5105SOL    HW226775   0.992   1.518   5.265 -0.0835  0.2204  0.3815
 5106SOL     OW26776   1.570   1.205   1.871 -0.2390  0.2255 -0.1492
 5106SOL    HW126777   1.665   1.191   1.878 -0.1797  0.8642  0.3694
 5106SOL    HW226778   1.545   1.164   1.788  1.2485 -0.6011 -0.1885
 5107SOL     OW26779   0.951   3.574  15.911  0.1367  0.1638  0.4543
 5107SOL    HW126780   0.856   3.562  15.905  0.1353  1.7229 -2.6502
 5107SOL    HW226781   0.960   3.666  15.888  1.1097  0.2090  1.0134
 5108SOL     OW26782   3.499   1.131   0.457 -0.2344 -0.1865 -0.5340
 5108SOL    HW126783   3.478   1.040   0.479  1.3270 -0.6677 -1.0397
 5108SOL    HW226784   3.571   1.105   0.400  0.8132 -1.1203  1.2019
 5109SOL     OW26785   3.868   3.460   6.361 -0.4343  0.1700 -0.1562
 5109SOL    HW126786   3.863   3.511   6.442 -0.4679 -2.0228  1.2275
 5109SOL    HW226787   3.788   3.408   6.365 -0.7706  0.7960  1.2515
 5110SOL     OW26788   2.484   0.404   4.830 -0.0744 -0.1149 -0.6572
 5110SOL    HW126789   2.523   0.320   4.854 -2.3980 -0.9592  0.2188
 5110SOL    HW226790   2.525   0.456   4.899 -1.7131 -1.7526  1.5585
 5111SOL     OW26791   2.915   2.028   8.843 -0.5182 -0.3338 -0.1038
 5111SOL    HW126792   2.857   2.087   8.891  1.9336  2.4556 -0.5497
 5111SOL    HW226793   2.908   2.049   8.750  2.0117  1.6866  0.1347
 5112SOL     OW26794   2.672   1.211   6.696 -0.3549 -0.3292 -0.0808
 5112SOL    HW126795   2.604   1.202   6.763 -1.9359 -0.8314 -1.7342
 5112SOL    HW226796   2.703   1.121   6.686 -3.2707 -1.3356  0.0556
 5113SOL     OW26797   2.192   2.206   6.385 -0.9228 -0.5869  0.4131
 5113SOL    HW126798   2.182   2.158   6.303 -0.6996 -1.1615  0.7282
 5113SOL    HW226799   2.104   2.243   6.393 -0.2045  1.8612 -2.9119
 5114SOL     OW26800   1.033   4.699   4.619  0.1276 -0.4606 -0.6300
 5114SOL    HW126801   0.960   4.644   4.592 -0.3393  0.8653 -2.0725
 5114SOL    HW226802   1.083   4.705   4.538 -0.8332  1.8144 -1.0536
 5115SOL     OW26803   2.900   2.250  15.768  0.2811  0.3044  0.0353
 5115SOL    HW126804   2.816   2.261  15.722  2.3958 -0.9552 -4.0870
 5115SOL    HW226805   2.907   2.334  15.813  0.5601 -1.2254  2.8162
 5116SOL     OW26806   1.036   1.836   6.344  0.4912  0.5258  0.1599
 5116SOL    HW126807   1.000   1.841   6.432  0.6640  1.2806  0.1887
 5116SOL    HW226808   1.073   1.747   6.342  0.2200  0.4297 -0.6492
 5117SOL     OW26809   4.619   1.941   1.694  0.0464 -0.0145 -0.1579
 5117SOL    HW126810   4.703   1.985   1.685 -0.6043  0.8489 -1.9478
 5117SOL    HW226811   4.647   1.854   1.724  0.1208  0.6086  1.5904
 5118SOL     OW26812   4.552   3.198   4.330  0.1090 -0.2640  0.1405
 5118SOL    HW126813   4.546   3.200   4.426  1.2935 -1.4563  0.2341
 5118SOL    HW226814   4.458   3.186   4.316 -0.5130  3.6176  0.9655
 5119SOL     OW26815   0.335   0.886   1.392 -0.1289  0.0284 -0.4661
 5119SOL    HW126816   0.249   0.845   1.380  0.5095 -1.1402 -1.1106
 5119SOL    HW226817   0.326   0.980   1.377 -0.9916  0.5251  3.1509
 5120SOL     OW26818   3.210   0.643   2.733  0.3835  0.0684  0.4826
 5120SOL    HW126819   3.165   0.675   2.811 -0.0497 -1.0962  0.7094
 5120SOL    HW226820   3.180   0.709   2.671 -2.0573  0.3808  1.9962
 5121SOL     OW26821   4.437   1.910   1.260 -0.4155  0.0066 -0.4179
 5121SOL    HW126822   4.516   1.923   1.207  0.9926  0.8442  1.8482
 5121SOL    HW226823   4.476   1.882   1.343  2.3195 -0.5462 -1.8617
 5122SOL     OW26824   2.381   4.225  12.295 -0.0120 -0.0318 -0.0360
 5122SOL    HW126825   2.414   4.306  12.255 -0.3866  0.0702 -0.1378
 5122SOL    HW226826   2.342   4.182  12.218  1.0956 -0.8813 -0.1210
 5123SOL     OW26827   0.565   1.302  11.697  0.6280  0.0651 -0.6176
 5123SOL    HW126828   0.579   1.397  11.705  0.1257  0.2014 -1.3870
 5123SOL    HW226829   0.535   1.287  11.607 -2.1711  2.4465 -0.1038
 5124SOL     OW26830   1.746   0.058   4.214 -0.7060  0.0157 -0.1224
 5124SOL    HW126831   1.739   0.153   4.205  1.4822 -0.1052 -2.8874
 5124SOL    HW226832   1.832   0.051   4.256  0.0091 -0.2722 -1.6298
 5125SOL     OW26833   0.831   0.889   7.624  0.0509 -0.2606 -0.0148
 5125SOL    HW126834   0.814   0.866   7.533 -0.5437 -1.6232  0.4424
 5125SOL    HW226835   0.749   0.857   7.662 -0.2204 -0.5664 -0.8644
 5126SOL     OW26836   4.040   3.601   4.583 -0.0663  0.2755  0.2930
 5126SOL    HW126837   4.045   3.510   4.553  1.5248 -0.0163  1.4737
 5126SOL    HW226838   4.091   3.649   4.517 -1.4579  0.7085 -0.4600
 5127SOL     OW26839   0.854   1.615   8.540  0.2097 -0.1370  0.0877
 5127SOL    HW126840   0.874   1.595   8.631 -1.7647 -0.8358  0.3556
 5127SOL    HW226841   0.763   1.643   8.549  0.0893  0.6254 -3.3110
 5128SOL     OW26842   0.929   1.043   5.843  0.7017  0.1191  0.4528
 5128SOL    HW126843   0.974   1.105   5.786 -1.2173  2.0783  1.0488
 5128SOL    HW226844   0.974   1.054   5.927  0.6805  3.5025  0.0290
 5129SOL     OW26845   1.377   1.516  13.284  0.0869  0.0757 -0.0578
 5129SOL    HW126846   1.322   1.568  13.226 -0.9080  0.1314  0.9503
 5129SOL    HW226847   1.411   1.447  13.226 -0.7588 -0.8431  0.5379
 5130SOL     OW26848   1.105   0.196   8.281  0.5405 -0.4777 -0.4015
 5130SOL    HW126849   1.034   0.193   8.217  0.2490 -0.6962 -0.0658
 5130SOL    HW226850   1.178   0.157   8.234  0.8007  0.3160 -0.6522
 5131SOL     OW26851   4.457   0.340  13.863 -0.1071 -0.3474  0.4481
 5131SOL    HW126852   4.540   0.342  13.815 -0.6705  1.7479 -0.4182
 5131SOL    HW226853   4.471   0.262  13.916  1.2936 -0.1121  0.4330
 5132SOL     OW26854   4.273   1.689  11.818 -0.3172 -0.4243 -0.9308
 5132SOL    HW126855   4.222   1.637  11.755 -0.9344 -1.6254  0.5587
 5132SOL    HW226856   4.210   1.678  11.889 -0.8061  0.0714 -1.2856
 5133SOL     OW26857   4.160   2.942  15.391 -0.3498 -0.2873 -0.6782
 5133SOL    HW126858   4.169   2.932  15.297  0.4689 -1.0066 -0.5187
 5133SOL    HW226859   4.153   3.037  15.398  1.0355 -0.2043 -0.4933
 5134SOL     OW26860   2.827   1.597   4.770  0.1340 -0.2584 -0.4219
 5134SOL    HW126861   2.797   1.674   4.722  2.1657 -0.6087 -2.2339
 5134SOL    HW226862   2.743   1.552   4.770  0.2064 -0.3907 -1.1084
 5135SOL     OW26863   1.294   1.191   6.232 -0.3411 -0.5829 -0.3017
 5135SOL    HW126864   1.343   1.112   6.210 -0.0119  0.5152 -3.4570
 5135SOL    HW226865   1.295   1.178   6.327 -1.7850  0.1212 -0.1882
 5136SOL     OW26866   3.813   0.510   4.246  0.0996  0.3725  0.2334
 5136SOL    HW126867   3.720   0.518   4.265 -0.1556  1.6134 -1.5499
 5136SOL    HW226868   3.839   0.474   4.331 -1.7753  0.2767  0.7445
 5137SOL     OW26869   2.532   1.122   4.130  0.0640  0.4643  0.2016
 5137SOL    HW126870   2.482   1.040   4.134  1.6934 -0.5925 -0.7969
 5137SOL    HW226871   2.580   1.121   4.213 -0.1761 -1.3681  0.3265
 5138SOL     OW26872   4.006   0.050  10.715 -0.0358 -0.2164  0.0677
 5138SOL    HW126873   3.944   0.064  10.786 -0.0316 -1.9307  0.4193
 5138SOL    HW226874   4.089   0.064  10.762 -0.5195 -1.6829  1.3468
 5139SOL     OW26875   0.354   1.906  14.848 -0.4413  0.5629 -0.1642
 5139SOL    HW126876   0.278   1.898  14.790 -0.2550 -1.0664 -0.1798
 5139SOL    HW226877   0.342   2.000  14.861 -0.7415  0.4772  0.1657
 5140SOL     OW26878   4.229   1.571  16.296 -0.5064  0.1630  0.0512
 5140SOL    HW126879   4.225   1.476  16.284 -1.0518  0.2383 -0.3879
 5140SOL    HW226880   4.140   1.604  16.285 -1.9463 -3.5090  0.6275
 5141SOL     OW26881   3.330   0.128   2.770  0.1675 -0.2891 -0.4182
 5141SOL    HW126882   3.359   0.105   2.859 -0.1593  1.6424  0.1913
 5141SOL    HW226883   3.309   0.221   2.778  0.5106 -0.2706  0.2869
 5142SOL     OW26884   2.328   2.188   3.890  0.0722  0.1034  0.0140
 5142SOL    HW126885   2.402   2.183   3.950  0.3002 -3.1449 -0.5219
 5142SOL    HW226886   2.374   2.216   3.811  1.1520  0.5266  0.8067
 5143SOL     OW26887   3.424   2.551  12.173 -0.8450 -0.0041  0.4255
 5143SOL    HW126888   3.483   2.499  12.118 -0.6291 -2.1563  2.6886
 5143SOL    HW226889   3.470   2.550  12.257 -0.6203 -2.5043  0.2916
 5144SOL     OW26890   2.366   1.523   3.883 -0.8455  0.3782  0.4074
 5144SOL    HW126891   2.392   1.431   3.889  2.4642  1.1707 -1.4581
 5144SOL    HW226892   2.394   1.554   3.969  1.6076  0.0064 -0.2523
 5145SOL     OW26893   0.928   0.780  10.851 -0.2843 -0.0284 -0.6000
 5145SOL    HW126894   0.941   0.689  10.879  0.0266  0.0678 -0.4282
 5145SOL    HW226895   0.972   0.782  10.766 -1.2647  0.9530 -1.0800
 5146SOL     OW26896   2.744   2.790  13.249 -0.2080 -0.5999 -0.6975
 5146SOL    HW126897   2.704   2.756  13.329  1.4920 -0.6136  0.1492
 5146SOL    HW226898   2.678   2.788  13.180  1.3235 -0.7947 -2.1480
 5147SOL     OW26899   1.631   2.881  16.806  0.9418  0.1558  0.3605
 5147SOL    HW126900   1.640   2.827  16.728  0.6630  0.9210 -0.2051
 5147SOL    HW226901   1.673   2.822  16.870  1.1444  0.0733  0.1495
 5148SOL     OW26902   0.307   0.689  13.995  0.2485 -0.3332  0.1811
 5148SOL    HW126903   0.227   0.742  13.996  0.5976  0.1891 -1.2305
 5148SOL    HW226904   0.281   0.611  14.045  1.1929 -0.9378 -0.2776
 5149SOL     OW26905   1.898   1.739  17.408 -0.0145 -0.5324 -0.3184
 5149SOL    HW126906   1.930   1.664  17.359  1.0449  0.2428 -0.7983
 5149SOL    HW226907   1.803   1.732  17.397  0.1480 -0.5766 -1.6934
 5150SOL     OW26908   0.653   3.375  16.268  0.0148  0.3488  0.3308
 5150SOL    HW126909   0.578   3.417  16.311 -1.2801 -2.7153  1.0833
 5150SOL    HW226910   0.644   3.285  16.299 -1.3371  0.4335  0.1970
 5151SOL     OW26911   1.185   0.787   8.212 -0.1453  0.1081  0.4693
 5151SOL    HW126912   1.136   0.806   8.293 -0.4117  0.1661  0.2965
 5151SOL    HW226913   1.273   0.802   8.247  0.9130 -2.3388 -1.1787
 5152SOL     OW26914   0.765   3.235   2.898  0.4435  0.6495 -0.9092
 5152SOL    HW126915   0.782   3.299   2.828 -0.3840  0.7651 -0.9970
 5152SOL    HW226916   0.721   3.291   2.961  0.1528  1.4504 -1.8205
 5153SOL     OW26917   3.168   3.741   6.171 -0.7665  0.4205 -0.3869
 5153SOL    HW126918   3.181   3.835   6.184  0.9279  0.3626 -1.7457
 5153SOL    HW226919   3.259   3.712   6.169 -1.3114 -1.2164 -1.2408
 5154SOL     OW26920   0.917   4.127   3.817 -0.1087  0.6166  0.1829
 5154SOL    HW126921   0.986   4.130   3.883 -0.9940  1.2438  1.0668
 5154SOL    HW226922   0.867   4.207   3.830 -2.0746 -0.1901 -2.4423
 5155SOL     OW26923   1.101   1.358   7.530 -0.5160 -0.8073 -0.7706
 5155SOL    HW126924   1.109   1.266   7.504  1.9250 -1.0484  0.8892
 5155SOL    HW226925   1.040   1.338   7.601 -0.4618 -1.9392 -1.0432
 5156SOL     OW26926   0.336   0.600   3.038  0.1844 -0.5959  0.6371
 5156SOL    HW126927   0.306   0.678   2.991  0.0491 -1.5354 -0.8502
 5156SOL    HW226928   0.386   0.554   2.970  1.1942 -1.0746  1.7012
 5157SOL     OW26929   2.876   4.687   1.947  0.4885  0.3092  0.3471
 5157SOL    HW126930   2.920   0.050   1.932  0.2445  0.3666 -0.0468
 5157SOL    HW226931   2.943   4.625   1.915  0.4393  0.9532 -1.0016
 5158SOL     OW26932   0.196   4.531   5.382  0.7103 -0.2749  0.7444
 5158SOL    HW126933   0.182   4.572   5.468  1.6897  0.4326  0.5761
 5158SOL    HW226934   0.263   4.469   5.409 -0.3524 -2.1259 -0.8818
 5159SOL     OW26935   0.397   1.976  15.541  0.4002 -0.2182  0.3470
 5159SOL    HW126936   0.408   1.887  15.507  0.4294 -1.1887  2.9239
 5159SOL    HW226937   0.481   2.019  15.525  0.8667 -1.4737 -0.6154
 5160SOL     OW26938   4.375   1.012   3.396 -0.0479 -0.1739  0.3759
 5160SOL    HW126939   4.362   0.962   3.316 -0.3029  1.0153 -0.3204
 5160SOL    HW226940   4.333   1.093   3.370 -0.4064 -0.8560 -1.1645
 5161SOL     OW26941   2.727   3.769   6.481  0.1147 -0.2110 -0.1859
 5161SOL    HW126942   2.796   3.738   6.423  0.5848 -1.3852  1.0157
 5161SOL    HW226943   2.746   3.741   6.570  1.0791  0.3143 -0.2316
 5162SOL     OW26944   4.132   3.319   7.194 -1.0024  0.4936  0.7136
 5162SOL    HW126945   4.096   3.389   7.140 -1.0802 -0.0435  0.0621
 5162SOL    HW226946   4.083   3.329   7.275 -2.6164  0.0686 -0.2112
 5163SOL     OW26947   4.609   1.340   8.465  0.3425 -0.5070 -0.0365
 5163SOL    HW126948   4.665   1.280   8.416 -0.6784 -1.4554 -0.0545
 5163SOL    HW226949   4.642   1.422   8.427  1.2430 -0.9571 -0.2272
 5164SOL     OW26950   2.750   1.703  16.649  0.0361 -0.5129 -0.4344
 5164SOL    HW126951   2.832   1.752  16.648 -0.3963  0.2055 -0.5175
 5164SOL    HW226952   2.784   1.615  16.633  1.5169  0.1216 -0.7912
 5165SOL     OW26953   3.883   3.078   2.273  0.1671 -0.2925  0.5643
 5165SOL    HW126954   3.867   2.989   2.242 -0.3198  0.1473 -0.4548
 5165SOL    HW226955   3.934   3.058   2.352  0.3914 -0.1354  0.4604
 5166SOL     OW26956   0.996   3.110  15.220 -0.1834  0.0760 -0.3855
 5166SOL    HW126957   0.980   3.050  15.148  1.8755 -0.1083 -0.6872
 5166SOL    HW226958   1.035   3.053  15.286  0.4308  1.0374  0.0918
 5167SOL     OW26959   0.640   4.251   9.692  0.2849 -0.3523  0.0565
 5167SOL    HW126960   0.693   4.277   9.767  1.3144  3.1590 -1.8754
 5167SOL    HW226961   0.709   4.232   9.629  0.3143 -1.2832  0.3708
 5168SOL     OW26962   1.675   4.053   6.999 -0.7508  0.0070  0.1587
 5168SOL    HW126963   1.649   4.107   6.925 -1.0677 -2.4610 -1.5159
 5168SOL    HW226964   1.590   4.029   7.036 -1.0981 -0.4203 -0.9364
 5169SOL     OW26965   2.662   4.287   5.185  0.1444  0.5639  0.0770
 5169SOL    HW126966   2.622   4.200   5.182  0.1310  0.4655  2.4831
 5169SOL    HW226967   2.740   4.269   5.237  0.1811  0.1684 -0.1161
 5170SOL     OW26968   3.485   4.640   6.691 -0.2229  0.4162  0.0004
 5170SOL    HW126969   3.534   4.697   6.632 -2.5340  0.1256 -2.2048
 5170SOL    HW226970   3.507   4.667   6.780 -0.9910 -1.2253  0.6950
 5171SOL     OW26971   3.582   4.233   5.649  0.5605  0.0026  0.3704
 5171SOL    HW126972   3.666   4.229   5.695  1.0180 -1.8064 -0.6154
 5171SOL    HW226973   3.568   4.327   5.639  0.4258 -0.1156 -0.6483
 5172SOL     OW26974   0.377   0.355   8.015  0.0510  0.0563  0.5207
 5172SOL    HW126975   0.368   0.411   8.092  1.4059  0.7676  0.1675
 5172SOL    HW226976   0.348   0.422   7.953  2.4071 -1.6767 -2.4477
 5173SOL     OW26977   0.578   2.405  14.684  0.2278 -0.0701  0.4244
 5173SOL    HW126978   0.506   2.347  14.660  0.5992  0.0692 -1.0574
 5173SOL    HW226979   0.549   2.439  14.769  0.4661  0.0237  0.4695
 5174SOL     OW26980   4.335   3.040   8.959  0.3737 -0.6067  0.7515
 5174SOL    HW126981   4.430   3.035   8.945  0.2854 -2.6116  0.8223
 5174SOL    HW226982   4.303   2.960   8.916 -2.2306  2.1167 -2.3841
 5175SOL     OW26983   3.880   2.536  11.042 -0.2578 -0.2054 -0.0881
 5175SOL    HW126984   3.937   2.461  11.029  0.4209  0.2123  0.4169
 5175SOL    HW226985   3.887   2.554  11.136  0.8136 -0.2513 -0.1629
 5176SOL     OW26986   2.158   2.878   6.742  0.4847 -0.3839 -0.8478
 5176SOL    HW126987   2.082   2.907   6.792  0.6052 -1.4660 -0.0439
 5176SOL    HW226988   2.180   2.801   6.795  0.8034 -0.7362 -1.4934
 5177SOL     OW26989   3.925   4.597   2.566  0.1412 -0.6395 -0.0293
 5177SOL    HW126990   3.870   4.652   2.509  0.1716 -0.7033 -0.1208
 5177SOL    HW226991   3.917   4.634   2.653  1.6958  1.7839 -0.9369
 5178SOL     OW26992   3.680   1.532  10.121  0.4738 -0.1887 -0.1743
 5178SOL    HW126993   3.729   1.451  10.109  1.7520  0.2414  1.9575
 5178SOL    HW226994   3.590   1.504  10.136  0.2900  1.2810  1.5023
 5179SOL     OW26995   2.503   0.094  15.013  0.0807 -0.1410  0.1702
 5179SOL    HW126996   2.550   0.176  15.025  1.0816 -0.4609 -1.5945
 5179SOL    HW226997   2.494   0.109  14.919  0.1848 -1.1359 -0.0026
 5180SOL     OW26998   3.051   2.033   0.005 -0.3234 -0.0331 -0.0806
 5180SOL    HW126999   3.135   1.995  17.666 -0.3371 -0.6392  0.7521
 5180SOL    HW227000   3.022   2.090  17.621 -1.5900 -1.2672 -0.5561
 5181SOL     OW27001   3.983   4.035   3.244 -0.7031 -0.0015 -0.3416
 5181SOL    HW127002   4.028   3.998   3.169 -0.0118 -1.0845  0.6037
 5181SOL    HW227003   4.053   4.026   3.309 -1.5805 -2.6206  0.2343
 5182SOL     OW27004   3.785   3.836  12.533 -0.2758 -0.4555 -0.3482
 5182SOL    HW127005   3.810   3.745  12.544  0.5910 -0.1791 -0.0486
 5182SOL    HW227006   3.774   3.851  12.439  1.6281 -0.4824 -0.5782
 5183SOL     OW27007   0.772   4.622   8.063 -1.2571 -0.3040  0.2128
 5183SOL    HW127008   0.717   4.641   7.987 -3.5867 -0.8633  1.7671
 5183SOL    HW227009   0.722   4.546   8.093 -1.0950  0.0439  1.3522
 5184SOL     OW27010   1.180   3.375   0.838 -0.5788 -0.2414  0.3723
 5184SOL    HW127011   1.120   3.305   0.812  0.6608 -0.7389 -1.1433
 5184SOL    HW227012   1.239   3.336   0.901  0.1416 -1.2257 -0.9212
 5185SOL     OW27013   3.506   1.276   5.728 -0.4680 -0.5682 -0.4934
 5185SOL    HW127014   3.568   1.347   5.746 -0.8498  0.0643 -1.6216
 5185SOL    HW227015   3.429   1.328   5.705 -0.2942 -1.2979 -2.7592
 5186SOL     OW27016   3.050   1.150  10.097  0.3257 -0.1512 -0.4914
 5186SOL    HW127017   3.064   1.228  10.044 -1.5392  1.0916  0.8708
 5186SOL    HW227018   2.972   1.112  10.055  1.1070 -0.7523 -1.4044
 5187SOL     OW27019   1.197   3.829   8.682  0.0594  0.6144 -0.5623
 5187SOL    HW127020   1.130   3.890   8.711  0.0963  0.8752 -1.0339
 5187SOL    HW227021   1.161   3.799   8.598 -1.4604  1.2004 -0.1147
 5188SOL     OW27022   1.425   2.507   3.825 -0.0746  0.2332  0.8348
 5188SOL    HW127023   1.471   2.579   3.783 -2.4664  0.6207 -1.0997
 5188SOL    HW227024   1.488   2.435   3.834 -2.4929 -2.0996 -0.9469
 5189SOL     OW27025   0.622   3.073   1.225 -0.5421 -0.4247 -0.7347
 5189SOL    HW127026   0.544   3.026   1.253  0.4658 -2.4388 -1.3460
 5189SOL    HW227027   0.647   3.092   1.316  1.0257  0.1920 -1.2896
 5190SOL     OW27028   4.709   3.867  17.639 -0.2574 -0.3090  0.1310
 5190SOL    HW127029   0.051   3.935  17.615 -0.8022  0.1003 -0.1414
 5190SOL    HW227030   4.656   3.851  17.561 -1.1890 -1.0753  0.9278
 5191SOL     OW27031   3.094   0.839   9.289  0.4952 -0.4224  0.0535
 5191SOL    HW127032   3.071   0.930   9.307  1.7294 -0.0351 -0.2825
 5191SOL    HW227033   3.055   0.840   9.202 -0.6504  1.7360  0.5822
 5192SOL     OW27034   0.676   0.690   6.664 -0.2575 -0.0501  0.4154
 5192SOL    HW127035   0.630   0.622   6.714  2.8620 -1.5197  1.3106
 5192SOL    HW227036   0.745   0.720   6.723  0.0784 -2.0299  1.0336
 5193SOL     OW27037   3.738   2.217   6.523  0.1620  0.4502 -0.8696
 5193SOL    HW127038   3.648   2.221   6.491 -0.6098 -2.5038  0.8844
 5193SOL    HW227039   3.778   2.304   6.523 -0.3546  0.6826 -1.2476
 5194SOL     OW27040   0.300   3.565   4.916  0.0182  0.1712 -0.3915
 5194SOL    HW127041   0.387   3.579   4.877  0.2163 -0.9849 -0.3488
 5194SOL    HW227042   0.257   3.650   4.905  0.7901  0.6441  0.2985
 5195SOL     OW27043   2.142   2.046  11.896  0.1042  0.4659  0.1705
 5195SOL    HW127044   2.186   2.131  11.888 -0.3930  0.8512  1.5127
 5195SOL    HW227045   2.066   2.060  11.840  0.6188  2.1963 -0.1138
 5196SOL     OW27046   2.737   3.607   8.873 -0.3304 -0.3995  0.3106
 5196SOL    HW127047   2.792   3.591   8.796 -0.6199  0.6981 -0.1219
 5196SOL    HW227048   2.803   3.598   8.942  1.5518  0.5737 -1.3359
 5197SOL     OW27049   4.423   0.681   3.890 -0.2647  0.0957  0.1588
 5197SOL    HW127050   4.472   0.758   3.915  0.3692 -0.8302  1.7740
 5197SOL    HW227051   4.452   0.618   3.957  1.6094 -0.8426 -1.5496
 5198SOL     OW27052   2.810   0.457   7.085  0.0756  0.4633 -0.5393
 5198SOL    HW127053   2.793   0.500   7.169 -1.2576  2.3110 -1.7718
 5198SOL    HW227054   2.742   0.390   7.074  0.9134 -0.8621  2.3267
 5199SOL     OW27055   0.418   3.720   3.022  0.7067  0.4502 -0.2557
 5199SOL    HW127056   0.346   3.677   3.068  1.1656 -3.5919 -3.3301
 5199SOL    HW227057   0.453   3.767   3.098  0.4315  0.3911 -0.0906
 5200SOL     OW27058   3.746   3.075   1.030  0.0404 -0.4560  0.1595
 5200SOL    HW127059   3.728   3.163   1.065  0.7813 -0.3662  0.3199
 5200SOL    HW227060   3.777   3.109   0.946 -1.7126 -3.4750 -1.7008
 5201SOL     OW27061   1.387   1.905   8.186  0.2137  0.4607  0.1847
 5201SOL    HW127062   1.311   1.917   8.130  1.2143 -1.1350 -1.5367
 5201SOL    HW227063   1.376   1.814   8.213 -0.0680  1.2156  2.5928
 5202SOL     OW27064   3.439   2.479  14.093 -0.4317  0.0579  0.1468
 5202SOL    HW127065   3.377   2.552  14.091  1.8920  1.9210 -1.7967
 5202SOL    HW227066   3.482   2.499  14.176  1.3604 -1.6852 -0.3734
 5203SOL     OW27067   3.508   1.584   5.499  0.5303  0.7383 -0.0577
 5203SOL    HW127068   3.556   1.510   5.462  0.7983  1.4118 -1.0815
 5203SOL    HW227069   3.467   1.545   5.575  2.7566  1.5504  1.5665
 5204SOL     OW27070   2.717   2.112   1.169  0.2033  0.3694  0.7074
 5204SOL    HW127071   2.694   2.199   1.135  0.7102  0.1216 -0.2470
 5204SOL    HW227072   2.671   2.062   1.102  0.0543  0.5868  0.6442
 5205SOL     OW27073   4.266   3.404   3.751  0.1622  0.3336  0.2225
 5205SOL    HW127074   4.196   3.397   3.687  0.3143 -0.8948  0.1792
 5205SOL    HW227075   4.217   3.452   3.818  1.9182  1.9218  0.3524
 5206SOL     OW27076   3.219   3.386   3.483 -0.3681 -0.6029 -0.0214
 5206SOL    HW127077   3.198   3.450   3.414 -1.7689 -0.0378  0.9154
 5206SOL    HW227078   3.198   3.310   3.428 -0.2588 -0.1158 -0.7391
 5207SOL     OW27079   3.916   1.670   6.470 -0.4061 -0.8192 -0.0027
 5207SOL    HW127080   3.933   1.758   6.437 -2.2768 -0.4880 -0.0427
 5207SOL    HW227081   3.999   1.632   6.440 -0.6120 -1.2771  0.0051
 5208SOL     OW27082   3.320   2.946   0.695 -0.1178 -0.5018 -0.9833
 5208SOL    HW127083   3.254   2.967   0.760  1.6278 -0.4442  0.7631
 5208SOL    HW227084   3.286   2.994   0.620 -0.7246 -2.3517 -1.9144
 5209SOL     OW27085   2.332   3.720   4.252  0.2283 -0.1516 -0.1962
 5209SOL    HW127086   2.365   3.658   4.188 -1.5965  0.7348 -1.9659
 5209SOL    HW227087   2.364   3.679   4.332 -2.8611 -0.8778  0.6574
 5210SOL     OW27088   4.140   2.457   8.135  0.0305 -0.4886 -0.3000
 5210SOL    HW127089   4.110   2.466   8.044 -0.7721 -1.5763 -0.1470
 5210SOL    HW227090   4.056   2.475   8.177  0.5935  2.1350 -0.2854
 5211SOL     OW27091   0.106   1.413  14.788 -0.4553  0.7364  0.1588
 5211SOL    HW127092   0.040   1.422  14.857  0.0333 -3.7236  1.2122
 5211SOL    HW227093   0.086   1.323  14.763  1.1607  0.8270 -1.4745
 5212SOL     OW27094   2.234   3.686  10.074  0.0687 -0.3028  0.0894
 5212SOL    HW127095   2.211   3.646   9.990  1.1862  1.3179 -0.9747
 5212SOL    HW227096   2.260   3.771  10.039  0.9135 -1.2365 -1.5219
 5213SOL     OW27097   2.952   1.185   7.125  0.1932 -0.1785 -0.0721
 5213SOL    HW127098   2.970   1.223   7.039  1.0195  0.3591  0.3415
 5213SOL    HW227099   3.039   1.163   7.157  0.6306 -1.3067 -1.9763
 5214SOL     OW27100   3.119   1.326  11.983  0.2115 -0.0911  0.3191
 5214SOL    HW127101   3.116   1.294  11.893 -0.6399  2.1740 -0.4709
 5214SOL    HW227102   3.056   1.399  11.978  1.3084  0.8710  0.6526
 5215SOL     OW27103   0.046   4.006  12.009 -0.3626  0.0858 -0.4601
 5215SOL    HW127104   0.132   4.002  11.969 -0.4279 -0.7470 -0.5155
 5215SOL    HW227105   0.079   4.003  12.098 -0.9765 -1.2881 -0.2849
 5216SOL     OW27106   3.637   1.809   6.564 -0.7560  0.4101  0.5103
 5216SOL    HW127107   3.602   1.738   6.510  1.6624 -0.6434  0.3377
 5216SOL    HW227108   3.707   1.841   6.507  0.5486 -0.6430  1.5216
 5217SOL     OW27109   4.433   1.269   6.697 -0.0467  0.2206 -0.6231
 5217SOL    HW127110   4.504   1.320   6.735  1.3220 -1.9977 -0.2405
 5217SOL    HW227111   4.365   1.268   6.764 -1.9094  0.8440 -2.4995
 5218SOL     OW27112   3.610   3.679   6.574 -0.3553  0.0494 -0.3162
 5218SOL    HW127113   3.653   3.702   6.492 -1.7283 -0.6053 -1.2217
 5218SOL    HW227114   3.536   3.739   6.567 -0.7372 -0.6484 -2.2707
 5219SOL     OW27115   4.073   0.364  10.185 -0.1077 -0.1138 -0.0955
 5219SOL    HW127116   4.030   0.440  10.224 -1.5896 -0.3820 -1.2116
 5219SOL    HW227117   4.077   0.390  10.093  0.9313  0.0142 -0.0072
 5220SOL     OW27118   4.591   3.531   8.204 -0.1805 -0.2349 -0.4082
 5220SOL    HW127119   4.583   3.620   8.170 -0.1627 -0.0133  0.1768
 5220SOL    HW227120   4.672   3.491   8.171  0.6468 -0.2058  1.6167
 5221SOL     OW27121   1.258   0.304  15.477  0.0930  0.6485 -0.3867
 5221SOL    HW127122   1.336   0.284  15.529 -1.5618 -1.7681  1.2028
 5221SOL    HW227123   1.201   0.231  15.502  0.7972  0.0658 -0.4941
 5222SOL     OW27124   0.108   1.474   4.187 -0.5071 -0.0467 -0.7433
 5222SOL    HW127125   0.059   1.403   4.145 -0.5596  0.0703 -0.8790
 5222SOL    HW227126   0.038   1.529   4.222 -0.1450 -0.7082  1.0677
 5223SOL     OW27127   1.072   4.219   6.351  0.6387  0.0612 -0.7076
 5223SOL    HW127128   1.058   4.126   6.331  0.0176 -0.0526  0.2972
 5223SOL    HW227129   1.156   4.232   6.307  1.2303 -0.7143  0.2032
 5224SOL     OW27130   0.915   2.843   2.248  0.0772  0.6345  0.1074
 5224SOL    HW127131   0.876   2.903   2.311  0.7307 -0.2320  1.3257
 5224SOL    HW227132   0.883   2.858   2.159 -0.9420 -0.4230  0.2906
 5225SOL     OW27133   1.331   3.379   4.867  0.3037 -0.0222  0.5910
 5225SOL    HW127134   1.374   3.381   4.953 -0.7310 -2.7857  1.1828
 5225SOL    HW227135   1.250   3.331   4.886  0.5112 -0.2165  0.9981
 5226SOL     OW27136   1.448   1.223   7.868 -0.0769  0.8017  0.2899
 5226SOL    HW127137   1.404   1.256   7.947  2.2666  1.9287  1.1164
 5226SOL    HW227138   1.534   1.204   7.907  0.1196  0.0351 -0.4962
 5227SOL     OW27139   2.953   0.683   1.962  0.3599 -0.4268  0.4354
 5227SOL    HW127140   2.930   0.651   2.049 -1.3831 -3.5534 -1.2027
 5227SOL    HW227141   3.005   0.612   1.925  1.4324  0.0951  0.9319
 5228SOL     OW27142   1.562   3.597   3.141 -0.3004 -0.2201  0.2036
 5228SOL    HW127143   1.468   3.615   3.137 -0.2287 -0.0037 -0.5889
 5228SOL    HW227144   1.601   3.682   3.160 -0.3472 -0.5292  1.6860
 5229SOL     OW27145   3.944   1.120   5.828  0.3353  0.5011  0.1975
 5229SOL    HW127146   3.909   1.206   5.849 -1.8420  0.1962 -2.1736
 5229SOL    HW227147   4.017   1.132   5.767  0.5314 -0.0773  0.3187
 5230SOL     OW27148   2.614   2.511   7.366  0.2569  0.3736  0.0100
 5230SOL    HW127149   2.529   2.553   7.374  1.3147  2.7193 -0.9037
 5230SOL    HW227150   2.606   2.460   7.447  0.4744 -0.3918 -0.4561
 5231SOL     OW27151   1.226   3.230   7.386 -0.4981 -0.8118  0.3141
 5231SOL    HW127152   1.229   3.236   7.481  1.3304 -0.1916  0.2221
 5231SOL    HW227153   1.135   3.205   7.369  0.1008 -1.7473 -1.5206
 5232SOL     OW27154   0.120   3.454   8.369  0.3096  0.2795  0.3667
 5232SOL    HW127155   0.136   3.518   8.438  0.0242 -0.8707  1.4807
 5232SOL    HW227156   0.032   3.483   8.344 -1.1748 -1.4178  3.6537
 5233SOL     OW27157   2.680   0.843   1.471  0.5635  0.0877 -0.1525
 5233SOL    HW127158   2.627   0.888   1.536  0.6164  0.8350 -0.6268
 5233SOL    HW227159   2.616   0.772   1.464  0.1154  0.5709 -0.9035
 5234SOL     OW27160   3.314   4.553   2.883  0.1276 -0.3032 -0.1972
 5234SOL    HW127161   3.246   4.560   2.816 -0.3946 -2.9085  0.0365
 5234SOL    HW227162   3.323   4.640   2.922 -1.5557 -0.0111 -0.4589
 5235SOL     OW27163   2.051   3.868   9.401  0.0215 -0.4301  0.4173
 5235SOL    HW127164   2.042   3.954   9.442 -0.6751 -0.1080 -0.4142
 5235SOL    HW227165   1.995   3.808   9.450 -0.3166  0.3402  0.9753
 5236SOL     OW27166   4.083   2.886   3.747 -0.1353 -0.3635  0.2522
 5236SOL    HW127167   4.086   2.795   3.778  0.0874  0.1452  1.7174
 5236SOL    HW227168   3.989   2.885   3.729 -0.1054 -1.3348  0.1435
 5237SOL     OW27169   3.927   1.247   1.242  0.0963 -0.1209  0.1429
 5237SOL    HW127170   3.959   1.208   1.161  0.3258 -1.7911  1.0577
 5237SOL    HW227171   3.945   1.341   1.234  2.1044 -0.4372  0.8853
 5238SOL     OW27172   1.693   0.966   4.254  0.1611  0.3439  0.7024
 5238SOL    HW127173   1.727   0.985   4.342  0.6250  1.1870  0.3386
 5238SOL    HW227174   1.632   0.893   4.267 -2.2381  1.6182 -3.3426
 5239SOL     OW27175   4.692   3.220   2.395 -0.2295 -0.3123 -0.0962
 5239SOL    HW127176   0.025   3.267   2.331  2.3537 -0.1108  2.2378
 5239SOL    HW227177   4.682   3.279   2.470  0.6219 -1.1363  0.6674
 5240SOL     OW27178   3.583   4.174  13.055  0.0707  0.0917 -0.2574
 5240SOL    HW127179   3.556   4.266  13.050 -1.3394 -0.2786  0.4436
 5240SOL    HW227180   3.561   4.153  12.964  0.6674  1.3313 -0.6852
 5241SOL     OW27181   4.207   1.228   7.653 -0.5654  0.4937 -0.5127
 5241SOL    HW127182   4.284   1.284   7.644  0.2353 -0.5335 -0.1167
 5241SOL    HW227183   4.136   1.279   7.691 -1.0093 -1.1296  0.8583
 5242SOL     OW27184   3.757   2.741   6.248 -0.4453 -0.3730 -0.1651
 5242SOL    HW127185   3.686   2.772   6.192 -0.2175 -1.8244 -1.2800
 5242SOL    HW227186   3.767   2.650   6.219  1.5482 -0.3928  0.5917
 5243SOL     OW27187   0.689   2.102   8.241  0.1905 -0.4537 -0.4837
 5243SOL    HW127188   0.616   2.130   8.295  0.6447  0.4766 -0.3450
 5243SOL    HW227189   0.755   2.108   8.310 -0.4220  2.0993 -0.1288
 5244SOL     OW27190   3.152   1.975   4.166 -0.2431  0.1249 -0.3730
 5244SOL    HW127191   3.130   1.974   4.073 -1.2424  1.7729 -0.1590
 5244SOL    HW227192   3.142   1.883   4.188  2.1814 -0.3765 -1.2989
 5245SOL     OW27193   3.795   1.654  17.258  0.6443  0.1453 -0.4136
 5245SOL    HW127194   3.859   1.602  17.210  1.9603  1.7538 -0.3988
 5245SOL    HW227195   3.813   1.635  17.351 -0.1864 -0.5609 -0.3990
 5246SOL     OW27196   2.437   0.130   6.629  0.4322  0.1360 -0.3476
 5246SOL    HW127197   2.494   0.164   6.697 -0.8562  1.7650 -0.0878
 5246SOL    HW227198   2.482   0.153   6.548  2.1147 -1.0177  0.2516
 5247SOL     OW27199   2.951   3.311   1.186 -0.3203  0.0681 -0.1983
 5247SOL    HW127200   2.947   3.224   1.146 -0.2213  0.5490 -1.2539
 5247SOL    HW227201   3.006   3.289   1.261 -0.4721 -0.3287 -0.2019
 5248SOL     OW27202   4.071   4.362  11.515 -0.4031 -0.8670 -0.3708
 5248SOL    HW127203   4.015   4.385  11.441 -0.5274  0.7236  0.2201
 5248SOL    HW227204   4.140   4.322  11.462  0.2271 -1.5582  0.9756
 5249SOL     OW27205   0.235   2.215  13.333 -0.1216  0.4509  0.6725
 5249SOL    HW127206   0.176   2.166  13.391 -1.8077  2.5520  0.7533
 5249SOL    HW227207   0.249   2.155  13.260  0.2084  0.6639  0.5586
 5250SOL     OW27208   2.537   0.842   4.546 -0.3807  0.0028  0.3286
 5250SOL    HW127209   2.500   0.853   4.634  1.8122 -0.3538  1.3012
 5250SOL    HW227210   2.631   0.840   4.564 -0.6203 -0.0295  1.5611
 5251SOL     OW27211   2.104   3.071   7.902  0.2143 -0.0179  0.5934
 5251SOL    HW127212   2.028   3.098   7.850  0.2439 -0.1947  0.4593
 5251SOL    HW227213   2.068   2.987   7.933  2.5901 -1.3829 -0.3348
 5252SOL     OW27214   1.169   3.102   1.315 -0.2482  0.2485 -0.4196
 5252SOL    HW127215   1.127   3.122   1.230  0.1630 -0.3568 -0.7620
 5252SOL    HW227216   1.141   3.183   1.357 -1.3481 -1.5758  2.3309
 5253SOL     OW27217   1.163   2.039   1.233  0.5606  0.1343  0.1307
 5253SOL    HW127218   1.256   2.055   1.222  0.6039 -0.9254 -1.0208
 5253SOL    HW227219   1.126   2.127   1.220  0.7500  0.2443  0.3390
 5254SOL     OW27220   3.859   4.614   6.667  0.0860  0.1132 -0.4692
 5254SOL    HW127221   3.859   4.560   6.746  0.1927  0.7641 -0.0264
 5254SOL    HW227222   3.935   4.666   6.690  0.9175 -1.6583  0.8212
 5255SOL     OW27223   2.325   3.774   8.306  0.0055  0.3896  0.3749
 5255SOL    HW127224   2.366   3.706   8.251  0.7371  0.6033  0.6640
 5255SOL    HW227225   2.325   3.846   8.243 -1.3439 -0.5349 -0.6896
 5256SOL     OW27226   1.333   0.555  15.414  0.2023 -0.0439 -0.3222
 5256SOL    HW127227   1.308   0.464  15.429  0.7288 -0.1293  0.0294
 5256SOL    HW227228   1.404   0.555  15.351 -1.5564 -1.3321 -2.2953
 5257SOL     OW27229   2.524   4.627   9.732 -0.4220 -0.3201  0.2798
 5257SOL    HW127230   2.457   4.613   9.798 -2.1052  0.4391 -1.2836
 5257SOL    HW227231   2.522   0.002   9.725  1.2670 -0.4816 -2.4282
 5258SOL     OW27232   4.117   1.257   4.650  0.0890  0.5976 -0.2492
 5258SOL    HW127233   4.196   1.308   4.636  1.7489 -1.5311  1.2982
 5258SOL    HW227234   4.073   1.315   4.713  2.8193  0.4666  1.7596
 5259SOL     OW27235   0.108   2.815   2.280 -0.4909 -0.2965  0.6081
 5259SOL    HW127236   0.149   2.860   2.354  1.1522  0.3972 -0.7249
 5259SOL    HW227237   0.140   2.729   2.305 -1.4843 -0.5817  0.8931
 5260SOL     OW27238   0.300   4.436   7.235 -0.1933 -0.2730  0.2279
 5260SOL    HW127239   0.355   4.460   7.309 -1.8006 -2.1858  2.0391
 5260SOL    HW227240   0.366   4.395   7.178  0.3230  1.2298 -0.2564
 5261SOL     OW27241   2.131   1.212   4.365  0.4418  0.5043 -0.2606
 5261SOL    HW127242   2.040   1.219   4.393  0.9316 -0.6353  1.5753
 5261SOL    HW227243   2.131   1.119   4.342  0.7586  0.3104  0.5515
 5262SOL     OW27244   3.083   2.335  11.371  0.3323  0.7036  0.2431
 5262SOL    HW127245   3.017   2.403  11.361  0.6988  1.1164  0.6523
 5262SOL    HW227246   3.157   2.393  11.357 -0.1175  1.1947 -0.0817
 5263SOL     OW27247   1.039   0.117  10.364 -0.6929 -0.2977  0.0248
 5263SOL    HW127248   1.075   0.193  10.411 -1.2623  0.4399 -0.7364
 5263SOL    HW227249   1.007   0.078  10.445 -2.1558 -0.5649 -0.6973
 5264SOL     OW27250   4.567   3.445   0.534  0.5710 -0.1491  0.7780
 5264SOL    HW127251   4.585   3.353   0.513 -0.5937 -0.1995 -0.0155
 5264SOL    HW227252   4.545   3.477   0.447  0.1353 -2.0526  0.1808
 5265SOL     OW27253   0.100   3.443   2.675 -0.0643 -0.2989 -0.5751
 5265SOL    HW127254   0.066   3.503   2.610 -0.7422 -1.7249 -1.5377
 5265SOL    HW227255   0.186   3.425   2.637 -0.2888 -1.4132 -0.5500
 5266SOL     OW27256   3.092   2.904   3.297 -0.5438 -0.0568 -0.0209
 5266SOL    HW127257   3.183   2.878   3.283 -0.6103 -0.1300 -0.3212
 5266SOL    HW227258   3.093   2.906   3.393 -0.1001  3.2087 -0.1084
 5267SOL     OW27259   2.273   3.433   7.662 -0.3916  0.0255 -0.3535
 5267SOL    HW127260   2.335   3.359   7.662 -1.5616 -0.9487  0.0045
 5267SOL    HW227261   2.286   3.450   7.569  0.7611  0.4546 -0.1117
 5268SOL     OW27262   1.397   3.868   3.971 -0.1877  0.1849 -0.1992
 5268SOL    HW127263   1.309   3.831   3.972  1.8238 -4.6685 -1.0027
 5268SOL    HW227264   1.432   3.813   3.902  0.5980  1.5462 -0.8897
 5269SOL     OW27265   4.646   1.296  11.910  0.6532 -0.3210 -0.5356
 5269SOL    HW127266   4.644   1.261  11.999  1.2360  0.2137 -0.3107
 5269SOL    HW227267   4.580   1.365  11.912  1.2960  0.3189 -1.9315
 5270SOL     OW27268   2.556   1.161   7.922 -0.4115 -0.6563  0.4526
 5270SOL    HW127269   2.645   1.163   7.887 -0.5319 -2.6382  0.0083
 5270SOL    HW227270   2.549   1.241   7.974 -0.5354  1.0250 -2.1591
 5271SOL     OW27271   0.490   3.880   9.196 -0.2127 -0.1042 -0.5233
 5271SOL    HW127272   0.462   3.857   9.285 -0.7813  1.1030 -0.4027
 5271SOL    HW227273   0.479   3.798   9.148 -0.4395  0.4707 -1.4460
 5272SOL     OW27274   2.014   1.613  10.932  0.8560  0.2726 -0.5362
 5272SOL    HW127275   1.936   1.574  10.894 -0.0218  0.8035  0.7287
 5272SOL    HW227276   2.066   1.533  10.936 -0.4969 -0.6439 -1.2576
 5273SOL     OW27277   0.919   0.647  12.826  0.5018 -0.0797  0.1777
 5273SOL    HW127278   0.998   0.663  12.879  0.8633  0.0949 -0.4135
 5273SOL    HW227279   0.953   0.629  12.738 -1.6821 -0.2792 -0.6118
 5274SOL     OW27280   2.236   3.414   5.366  0.1646 -0.2973 -0.1673
 5274SOL    HW127281   2.169   3.348   5.379 -0.6315  0.9034  1.7800
 5274SOL    HW227282   2.300   3.399   5.435  0.9203  0.4925 -0.6876
 5275SOL     OW27283   3.282   3.347  10.237  0.4247 -0.4495 -0.0182
 5275SOL    HW127284   3.273   3.308  10.150 -0.6767  0.2725 -0.2315
 5275SOL    HW227285   3.370   3.323  10.266  0.7213  0.2404 -0.3328
 5276SOL     OW27286   1.009   0.028   7.680  0.1602  0.3403  0.2120
 5276SOL    HW127287   0.941   0.089   7.710 -0.6641  0.4570 -1.9116
 5276SOL    HW227288   1.007   0.053   7.588 -0.3966 -2.9102 -0.6306
 5277SOL     OW27289   1.108   4.011   4.918  0.4796 -0.0098 -0.2580
 5277SOL    HW127290   1.116   4.088   4.975  2.9721  0.2567 -0.9410
 5277SOL    HW227291   1.176   3.954   4.956 -0.2948 -1.9147 -1.7064
 5278SOL     OW27292   3.943   0.403  15.896  0.6201 -0.6245 -0.0403
 5278SOL    HW127293   3.971   0.432  15.809 -2.1075  0.5576 -0.5239
 5278SOL    HW227294   3.999   0.467  15.941 -2.2754 -0.1692  2.8904
 5279SOL     OW27295   3.474   3.026  10.932 -0.0176  0.2730  0.2250
 5279SOL    HW127296   3.460   2.957  10.867  2.6785 -0.3806  0.3347
 5279SOL    HW227297   3.499   2.986  11.016 -0.7417 -0.4422  0.1068
 5280SOL     OW27298   3.635   1.744   1.620 -0.1363 -0.1544 -0.4613
 5280SOL    HW127299   3.614   1.655   1.650 -0.3174  0.3804  1.0067
 5280SOL    HW227300   3.545   1.776   1.616 -0.3430 -0.5501  0.8294
 5281SOL     OW27301   0.616   2.436   8.000 -0.5484  0.6204  0.5640
 5281SOL    HW127302   0.688   2.489   8.037  0.5139 -0.5235  0.1304
 5281SOL    HW227303   0.587   2.496   7.932  0.0373  0.8114  0.4774
 5282SOL     OW27304   0.115   3.543  12.325 -0.5808 -0.0515  0.1456
 5282SOL    HW127305   0.196   3.498  12.302 -0.6471 -0.5989  0.9962
 5282SOL    HW227306   0.118   3.551  12.420  1.8102 -1.9015  0.2063
 5283SOL     OW27307   0.676   1.589   8.245 -0.6364  0.0544  0.3023
 5283SOL    HW127308   0.584   1.562   8.239 -0.1265 -1.2698 -1.2489
 5283SOL    HW227309   0.680   1.576   8.340 -1.6797  1.4277  0.5371
 5284SOL     OW27310   4.377   1.515   5.120 -0.2908  0.2715 -0.1313
 5284SOL    HW127311   4.442   1.528   5.189 -0.2591 -1.2387  0.1184
 5284SOL    HW227312   4.316   1.583   5.146 -0.8418 -0.9583  1.7240
 5285SOL     OW27313   2.930   2.588   5.558 -0.3440  0.1948  0.1826
 5285SOL    HW127314   2.999   2.654   5.566 -1.7030  1.5111  1.1878
 5285SOL    HW227315   2.949   2.531   5.632  2.2934 -0.5932 -1.1208
 5286SOL     OW27316   0.555   0.219   5.881 -0.5092  0.1188  0.0775
 5286SOL    HW127317   0.520   0.196   5.967  0.5825 -0.7999  0.2728
 5286SOL    HW227318   0.477   0.215   5.825  1.8958  1.2006 -3.3274
 5287SOL     OW27319   3.605   1.533   0.198  0.5999 -0.3491 -1.4411
 5287SOL    HW127320   3.660   1.595   0.246 -1.2361 -0.8868  1.3859
 5287SOL    HW227321   3.665   1.464   0.171  0.7863 -1.5353  2.0611
 5288SOL     OW27322   1.519   2.570   8.249  0.3270  0.6826  0.3780
 5288SOL    HW127323   1.476   2.510   8.310 -0.5634  1.6161  0.6705
 5288SOL    HW227324   1.474   2.653   8.263 -0.0028  0.7623 -1.1845
 5289SOL     OW27325   4.138   1.579   0.392  0.4824  0.2484 -0.4435
 5289SOL    HW127326   4.139   1.601   0.299 -0.4774  1.3872 -0.1841
 5289SOL    HW227327   4.186   1.496   0.385  0.8173  0.2923  1.2337
 5290SOL     OW27328   1.966   2.990   0.122 -0.4993  0.7751 -0.2914
 5290SOL    HW127329   1.887   2.994   0.068 -0.9597  3.0710  0.5711
 5290SOL    HW227330   1.925   2.980   0.208 -0.5407  3.6722  0.0087
 5291SOL     OW27331   2.891   2.405   6.369 -0.3867 -0.1052  0.2659
 5291SOL    HW127332   2.872   2.498   6.363 -1.0044 -0.1421  1.6484
 5291SOL    HW227333   2.884   2.393   6.463  0.9464  3.1142  0.7745
 5292SOL     OW27334   0.044   3.828   9.155  0.2023  0.3231 -0.3295
 5292SOL    HW127335   0.037   3.742   9.195 -0.7463  0.2894 -0.5586
 5292SOL    HW227336   4.673   3.853   9.146  0.0642 -0.0815 -0.0128
 5293SOL     OW27337   0.266   4.636   7.601 -0.6921  0.2642 -0.0713
 5293SOL    HW127338   0.288   4.683   7.681 -0.1035  0.9337 -0.6326
 5293SOL    HW227339   0.187   4.684   7.574 -0.3876  0.9427  0.2510
 5294SOL     OW27340   4.606   3.668  12.243  0.7607  0.8483  0.8498
 5294SOL    HW127341   4.550   3.595  12.266 -0.2388  1.1976 -0.4644
 5294SOL    HW227342   4.695   3.641  12.266  0.3877 -1.1439 -0.1028
 5295SOL     OW27343   3.445   1.658  10.796 -0.1146 -0.1781 -0.1659
 5295SOL    HW127344   3.362   1.643  10.750 -0.1344 -2.6798  0.6533
 5295SOL    HW227345   3.414   1.724  10.858 -0.2192 -0.3138 -0.0730
 5296SOL     OW27346   1.890   2.359   7.705 -0.2348 -0.3941  0.0558
 5296SOL    HW127347   1.820   2.345   7.641 -3.0045  1.4597  2.6577
 5296SOL    HW227348   1.881   2.279   7.756  0.7373 -0.0016  0.8393
 5297SOL     OW27349   2.919   0.960  12.782  1.0861 -0.2456 -0.0763
 5297SOL    HW127350   2.971   0.912  12.718 -0.5359 -1.0175 -0.7870
 5297SOL    HW227351   2.870   0.884  12.811  0.8574  0.4647  1.4357
 5298SOL     OW27352   2.088   2.901  11.380 -0.6064 -0.1030  0.2950
 5298SOL    HW127353   2.171   2.853  11.373  0.0528  0.7606  2.1820
 5298SOL    HW227354   2.040   2.879  11.300 -0.7400  0.7493  0.1392
 5299SOL     OW27355   0.995   3.034   6.324  0.6078  0.2326  0.4471
 5299SOL    HW127356   0.900   3.042   6.320  0.6895  1.1066  0.1794
 5299SOL    HW227357   0.995   3.026   6.419 -0.9352 -1.4367  0.2961
 5300SOL     OW27358   0.934   3.719   0.999 -0.2139 -0.5908  0.0983
 5300SOL    HW127359   0.844   3.739   1.024 -0.2026 -0.2573 -0.1229
 5300SOL    HW227360   0.925   3.717   0.903 -0.0900  2.5434  0.0118
 5301SOL     OW27361   0.214   3.260  10.798 -0.3647  0.7784 -0.0938
 5301SOL    HW127362   0.302   3.239  10.769 -0.0683  1.1490  0.5290
 5301SOL    HW227363   0.164   3.200  10.742  0.0072 -0.5149  0.9489
 5302SOL     OW27364   0.413   1.201   4.547  0.1080 -0.2640 -0.8318
 5302SOL    HW127365   0.319   1.222   4.542  0.0842 -0.2692 -0.4457
 5302SOL    HW227366   0.434   1.169   4.459  2.3517  3.2593 -1.5743
 5303SOL     OW27367   3.087   1.507   7.128  0.5425 -0.6056  0.7461
 5303SOL    HW127368   3.020   1.545   7.184 -1.3390  0.5990 -2.3039
 5303SOL    HW227369   3.170   1.525   7.173  0.6006  0.3874  0.2365
 5304SOL     OW27370   0.494   3.544   7.413 -0.3397  0.8705 -0.2138
 5304SOL    HW127371   0.562   3.533   7.480  0.6564  3.9969 -0.6886
 5304SOL    HW227372   0.516   3.461   7.372 -2.3617 -0.3468  1.1377
 5305SOL     OW27373   0.325   4.488   6.646 -0.2089  0.3543 -0.4051
 5305SOL    HW127374   0.404   4.452   6.605 -0.5976 -0.3182 -0.5522
 5305SOL    HW227375   0.349   4.524   6.732  0.7105 -2.9303  0.7135
 5306SOL     OW27376   3.130   2.234   9.091  0.0275 -0.4947 -0.5180
 5306SOL    HW127377   3.111   2.173   9.162 -0.7788  1.6149  1.0644
 5306SOL    HW227378   3.226   2.231   9.090  0.0277 -1.0660  1.6086
 5307SOL     OW27379   3.455   3.973   3.624 -0.5550  0.0190  0.5140
 5307SOL    HW127380   3.479   4.037   3.557  1.5424 -1.9118 -0.6009
 5307SOL    HW227381   3.512   3.900   3.600  1.0399  1.4737 -0.1758
 5308SOL     OW27382   0.957   1.351   4.374  0.5513  0.0854 -0.1013
 5308SOL    HW127383   0.961   1.328   4.281  2.1669 -2.8294  0.6763
 5308SOL    HW227384   0.955   1.262   4.409 -1.2621  0.5809  1.0005
 5309SOL     OW27385   4.327   1.663   7.862 -0.0148 -0.1784  0.2375
 5309SOL    HW127386   4.355   1.590   7.918 -0.3408 -0.7192 -0.2937
 5309SOL    HW227387   4.408   1.659   7.811  1.2027  1.8400  2.0503
 5310SOL     OW27388   2.551   2.280  11.931  0.2022  0.5007  0.0394
 5310SOL    HW127389   2.624   2.308  11.987 -0.3414  1.1113  0.4362
 5310SOL    HW227390   2.607   2.260  11.856 -0.5693  0.2394 -0.4686
 5311SOL     OW27391   1.434   0.130  10.488 -0.8692 -0.1462 -0.1605
 5311SOL    HW127392   1.431   0.049  10.438 -0.3125 -0.0196 -0.4022
 5311SOL    HW227393   1.413   0.198  10.423 -1.6551 -1.0238 -0.8105
 5312SOL     OW27394   4.060   0.170   2.604 -0.2189  0.1323 -0.1750
 5312SOL    HW127395   3.981   0.193   2.654  0.7527  1.9697  0.5164
 5312SOL    HW227396   4.107   0.251   2.587 -0.2939  0.5191  1.4014
 5313SOL     OW27397   0.044   2.567   1.853  0.0857 -0.2176  0.3609
 5313SOL    HW127398   0.057   2.632   1.922  1.6873 -1.0930  0.8914
 5313SOL    HW227399   4.694   2.517   1.894 -0.1677  1.7702  2.3456
 5314SOL     OW27400   3.869   2.416   1.435  0.2610 -0.2804 -0.2328
 5314SOL    HW127401   3.830   2.452   1.355 -2.8751  1.2544  1.9653
 5314SOL    HW227402   3.938   2.361   1.400  0.6869 -0.7050  1.2630
 5315SOL     OW27403   2.029   1.175  11.074  0.0604 -0.2203  0.2949
 5315SOL    HW127404   2.062   1.129  11.151 -0.7244 -0.3465  0.5569
 5315SOL    HW227405   1.970   1.240  11.113  2.1632  1.3093  0.9433
 5316SOL     OW27406   4.561   2.122  10.466  0.3536  0.5596 -0.2813
 5316SOL    HW127407   4.470   2.135  10.436  0.5159  0.0957 -0.9797
 5316SOL    HW227408   4.610   2.187  10.416  2.5456 -1.4441 -0.7114
 5317SOL     OW27409   3.478   3.550   7.921 -0.2872  0.2589  0.1079
 5317SOL    HW127410   3.399   3.511   7.956 -0.3267 -0.1153 -0.4090
 5317SOL    HW227411   3.438   3.608   7.856  0.1152  0.8004  0.3363
 5318SOL     OW27412   4.550   0.242   2.720 -0.3995 -0.1373 -0.0897
 5318SOL    HW127413   4.498   0.184   2.664 -1.2259 -0.5101  1.0489
 5318SOL    HW227414   4.575   0.197   2.801  0.9224  0.1713 -0.3389
 5319SOL     OW27415   3.878   0.186   5.640 -0.8613  0.2385 -0.0707
 5319SOL    HW127416   3.847   0.164   5.728 -1.7756 -0.2269 -0.5051
 5319SOL    HW227417   3.901   0.099   5.609 -2.8560 -0.2441 -0.2157
 5320SOL     OW27418   0.521   0.968  16.793 -0.0067  0.4093 -0.1857
 5320SOL    HW127419   0.521   0.907  16.719 -2.2362 -0.1185  0.2623
 5320SOL    HW227420   0.456   1.030  16.759 -0.8168 -1.7159 -2.5527
 5321SOL     OW27421   0.818   0.029  13.477  0.4237  0.3040  0.3469
 5321SOL    HW127422   0.727   0.027  13.506  0.5144 -0.4345  0.5733
 5321SOL    HW227423   0.805   0.013  13.384  1.3330 -1.6163  0.5633
 5322SOL     OW27424   4.531   1.828  14.051  0.7272 -0.0512 -0.3323
 5322SOL    HW127425   4.507   1.736  14.057  1.4465 -0.1971  0.3415
 5322SOL    HW227426   4.622   1.829  14.021  0.8347  1.8163  0.0642
 5323SOL     OW27427   1.816   3.404   7.535 -0.8065 -0.2778 -0.1613
 5323SOL    HW127428   1.743   3.408   7.597 -1.0554 -1.2999 -0.3790
 5323SOL    HW227429   1.865   3.478   7.570  1.7618 -2.6257  1.1265
 5324SOL     OW27430   0.482   4.705   8.857 -0.1212  0.4848 -0.7189
 5324SOL    HW127431   0.399   4.666   8.884  1.9238 -1.8014  2.3226
 5324SOL    HW227432   0.543   4.669   8.921  1.1088  1.7108 -1.1945
 5325SOL     OW27433   0.959   2.026   4.274 -0.0393  0.0055  0.8187
 5325SOL    HW127434   1.033   1.999   4.220 -1.5300 -2.0721 -0.2140
 5325SOL    HW227435   0.991   2.003   4.362  1.8512 -0.3281  0.0442
 5326SOL     OW27436   3.183   2.052   1.684  0.3879  0.3821  0.4909
 5326SOL    HW127437   3.197   2.117   1.753 -1.1501  1.3106 -0.0841
 5326SOL    HW227438   3.120   2.098   1.629  0.4391 -0.5180 -0.3284
 5327SOL     OW27439   1.969   1.777   4.458 -0.2418 -0.1288 -0.5691
 5327SOL    HW127440   2.001   1.810   4.375  0.3182 -0.2606 -0.4092
 5327SOL    HW227441   2.051   1.743   4.495  0.2166  0.0889 -1.3944
 5328SOL     OW27442   2.110   3.684   4.603 -0.2614  0.1088 -0.0149
 5328SOL    HW127443   2.136   3.736   4.527 -1.2983  1.8474  0.8269
 5328SOL    HW227444   2.031   3.727   4.634 -1.3735 -0.4240 -2.0877
 5329SOL     OW27445   3.076   2.558   2.355  0.0355  0.0690  0.3440
 5329SOL    HW127446   3.127   2.564   2.274 -0.1560  0.2208  0.2350
 5329SOL    HW227447   3.146   2.578   2.417 -3.0213  2.4453  3.0717
 5330SOL     OW27448   0.225   1.560   0.075  0.5627 -0.5761 -0.2292
 5330SOL    HW127449   0.273   1.633   0.115  2.0780 -1.1597 -0.9859
 5330SOL    HW227450   0.269   1.557  17.678 -0.2531  1.1029 -0.7236
 5331SOL     OW27451   4.533   2.139  12.722 -0.8036 -0.0354  0.3374
 5331SOL    HW127452   4.451   2.091  12.723 -1.9599  1.9886  2.8680
 5331SOL    HW227453   4.527   2.165  12.630  0.4387 -0.0784  0.2343
 5332SOL     OW27454   4.226   2.029   0.891  0.1292  0.7005  0.3297
 5332SOL    HW127455   4.299   2.077   0.853  0.8013  0.3814  1.2088
 5332SOL    HW227456   4.154   2.045   0.831  2.0248  0.3659 -2.0261
 5333SOL     OW27457   4.088   0.608   3.243  0.4237  0.1592  0.2771
 5333SOL    HW127458   4.177   0.578   3.265  1.4755  0.5957 -3.4337
 5333SOL    HW227459   4.054   0.610   3.333  0.4166 -2.0674  0.3176
 5334SOL     OW27460   2.622   2.264   3.456  0.0645 -0.0537 -0.2586
 5334SOL    HW127461   2.655   2.245   3.369 -0.9953 -0.6985 -0.5261
 5334SOL    HW227462   2.583   2.350   3.439 -1.0448 -0.6824 -0.9601
 5335SOL     OW27463   4.529   3.075   8.109 -0.0945 -0.0955  0.5664
 5335SOL    HW127464   4.533   3.024   8.190  0.3225 -2.6196 -1.0706
 5335SOL    HW227465   4.449   3.121   8.134  0.0091 -0.2517  1.1990
 5336SOL     OW27466   1.828   3.867   6.005  0.6174  0.0947  0.1463
 5336SOL    HW127467   1.755   3.806   6.003 -0.5851  1.5403 -0.0706
 5336SOL    HW227468   1.822   3.904   6.093 -0.0731  0.0280  0.1198
 5337SOL     OW27469   0.193   2.064   4.665  0.3113  0.0083  0.1851
 5337SOL    HW127470   0.170   2.124   4.594 -0.0149  0.0755  0.3491
 5337SOL    HW227471   0.204   1.980   4.620 -0.0418  0.7823 -1.3442
 5338SOL     OW27472   0.092   3.147  15.760 -0.4112  0.0254 -0.3417
 5338SOL    HW127473   0.081   3.091  15.837 -1.8068  0.4464 -0.2262
 5338SOL    HW227474   0.184   3.132  15.736 -0.4520 -1.2805  0.3457
 5339SOL     OW27475   3.765   3.708   4.878 -0.5999  0.3889  0.3147
 5339SOL    HW127476   3.788   3.793   4.917 -1.5841  1.0871 -0.6161
 5339SOL    HW227477   3.689   3.742   4.831 -0.6101 -1.0561 -0.6921
 5340SOL     OW27478   3.340   1.307  12.514 -0.1036  0.3481 -0.4101
 5340SOL    HW127479   3.403   1.299  12.586  1.1891  0.5403 -1.5327
 5340SOL    HW227480   3.344   1.397  12.485 -0.1250 -0.7709 -3.8232
 5341SOL     OW27481   4.428   0.439   8.189  0.2238  0.1737 -0.6871
 5341SOL    HW127482   4.513   0.436   8.146  0.1432 -0.0885 -0.8288
 5341SOL    HW227483   4.455   0.454   8.279  0.5402 -1.2458 -0.5391
 5342SOL     OW27484   1.548   4.361  11.798 -0.1778 -0.0813  0.6541
 5342SOL    HW127485   1.586   4.284  11.841  0.1910  1.5078  3.1985
 5342SOL    HW227486   1.632   4.402  11.779  0.1189 -1.8171 -1.7124
 5343SOL     OW27487   1.385   0.564   3.011 -0.2518  0.2528 -0.8625
 5343SOL    HW127488   1.397   0.539   2.919 -0.6631  1.1868 -1.1759
 5343SOL    HW227489   1.358   0.655   2.997 -0.1598  0.1861 -1.4916
 5344SOL     OW27490   4.693   1.856   6.458 -0.4245 -0.1223  0.1418
 5344SOL    HW127491   4.692   1.841   6.363  0.4665 -0.9100  0.2542
 5344SOL    HW227492   0.031   1.787   6.487 -0.1207 -0.1452 -0.5333
 5345SOL     OW27493   3.052   1.996   5.684  0.3475 -0.0722 -0.3047
 5345SOL    HW127494   3.032   1.936   5.756  0.7533 -0.1283 -0.2384
 5345SOL    HW227495   3.039   2.083   5.721 -0.8398 -1.3831  2.3769
 5346SOL     OW27496   0.914   2.414   9.957  0.1403 -0.3584 -0.5712
 5346SOL    HW127497   0.860   2.371   9.890 -1.7996  2.5273 -0.8273
 5346SOL    HW227498   0.872   2.499   9.951 -0.5590 -0.5907  1.1320
 5347SOL     OW27499   1.682   1.855  16.877 -0.4430  0.4699  0.5167
 5347SOL    HW127500   1.601   1.805  16.875 -1.5202  2.2507 -0.9718
 5347SOL    HW227501   1.733   1.801  16.937  0.8239  0.8492 -0.2188
 5348SOL     OW27502   3.397   1.521  13.048  0.5239  0.3737  0.3293
 5348SOL    HW127503   3.342   1.574  13.107 -0.2898  0.1635 -0.2309
 5348SOL    HW227504   3.427   1.456  13.111 -1.0515  0.5564  1.3013
 5349SOL     OW27505   4.151   3.670  11.734 -0.6204  0.2914  0.5391
 5349SOL    HW127506   4.212   3.706  11.799  1.7074 -0.9206 -0.9833
 5349SOL    HW227507   4.204   3.606  11.687  0.3555  0.7065  1.0737
 5350SOL     OW27508   1.337   3.488   3.386  0.2342 -0.3542  0.0162
 5350SOL    HW127509   1.418   3.539   3.378  0.6456 -0.7200  1.8978
 5350SOL    HW227510   1.320   3.490   3.480 -1.9383  0.7630 -0.4167
 5351SOL     OW27511   1.363   2.743  12.029 -0.6617  0.1502  0.1309
 5351SOL    HW127512   1.318   2.821  11.997  0.0678 -0.6280 -2.7530
 5351SOL    HW227513   1.343   2.680  11.960  1.0821  0.3103 -0.5319
 5352SOL     OW27514   1.282   3.323   3.161 -0.0760  0.3237 -0.0922
 5352SOL    HW127515   1.356   3.279   3.203  1.9304  1.4602 -2.4213
 5352SOL    HW227516   1.286   3.402   3.216  0.1360  0.1358  0.1631
 5353SOL     OW27517   3.062   3.705   5.519  0.1050  0.1195  0.5852
 5353SOL    HW127518   3.036   3.613   5.520  0.7330 -0.0670  0.3266
 5353SOL    HW227519   3.047   3.733   5.609 -0.7626 -1.4806  0.9441
 5354SOL     OW27520   4.079   0.574  16.354  0.6385  0.1325  0.4289
 5354SOL    HW127521   4.081   0.656  16.305  0.1163  0.6058  1.2011
 5354SOL    HW227522   4.003   0.594  16.408  1.5132 -2.7835  2.7436
 5355SOL     OW27523   2.471   2.856   7.747 -0.9286 -0.0371  0.4768
 5355SOL    HW127524   2.395   2.802   7.726 -0.7362  0.6952 -2.0508
 5355SOL    HW227525   2.503   2.887   7.662 -0.5857  1.1083  1.0140
 5356SOL     OW27526   1.049   2.612  14.679  0.0809 -0.1436 -0.2986
 5356SOL    HW127527   1.113   2.617  14.608  2.8054  2.5996  2.3798
 5356SOL    HW227528   0.964   2.603  14.636  0.2171 -0.1176 -0.5720
 5357SOL     OW27529   4.022   1.696  14.542  0.1840  0.1409 -0.1174
 5357SOL    HW127530   4.012   1.669  14.451 -0.5558  0.6415 -0.1882
 5357SOL    HW227531   3.987   1.785  14.535 -2.6685 -1.1005 -1.5182
 5358SOL     OW27532   4.287   3.964  14.436  0.0780  0.2025 -0.0482
 5358SOL    HW127533   4.295   4.025  14.509 -0.7876  0.5768 -0.2650
 5358SOL    HW227534   4.318   3.891  14.490 -0.5040 -0.4616 -0.6113
 5359SOL     OW27535   1.294   3.101  16.982 -0.7701  0.4767 -0.4489
 5359SOL    HW127536   1.336   3.015  16.986 -1.2716  0.3116  1.4006
 5359SOL    HW227537   1.247   3.094  16.898 -1.1026  2.5415 -0.4392
 5360SOL     OW27538   4.274   2.088   4.611  0.0210  0.6802  0.4383
 5360SOL    HW127539   4.233   2.020   4.665  1.4932 -1.3804 -1.0368
 5360SOL    HW227540   4.225   2.086   4.529  1.4337 -0.8486 -0.3726
 5361SOL     OW27541   2.012   3.951  16.318  0.0124  0.4538 -0.0880
 5361SOL    HW127542   2.103   3.976  16.329  0.8364 -2.6076 -0.1419
 5361SOL    HW227543   2.008   3.864  16.357  2.7485  0.2691 -0.2752
 5362SOL     OW27544   2.341   1.558   7.080  0.4936 -0.1782 -0.2761
 5362SOL    HW127545   2.358   1.641   7.034  0.1350 -0.8277 -1.5878
 5362SOL    HW227546   2.289   1.580   7.157  0.6564 -0.1330 -0.1770
 5363SOL     OW27547   3.216   2.309  15.428 -0.1358 -0.1947  0.2637
 5363SOL    HW127548   3.171   2.251  15.490 -1.3792 -2.0075 -2.3373
 5363SOL    HW227549   3.277   2.256  15.377  3.4848  1.1716  3.1897
 5364SOL     OW27550   1.827   1.030   3.655 -0.0934  0.2480 -0.1263
 5364SOL    HW127551   1.751   1.038   3.712 -0.9318 -0.8996 -1.0789
 5364SOL    HW227552   1.824   1.113   3.607  1.9583  0.9701  1.0086
 5365SOL     OW27553   0.012   0.344   0.692  0.0842 -0.3271 -0.1097
 5365SOL    HW127554   0.102   0.376   0.697 -0.3656  1.1592 -1.8611
 5365SOL    HW227555   0.011   0.289   0.770 -2.0795  0.1073  0.1645
 5366SOL     OW27556   2.606   0.191   6.415  0.1939 -0.5850 -0.0307
 5366SOL    HW127557   2.549   0.242   6.358  0.3252 -0.1866  0.1962
 5366SOL    HW227558   2.673   0.257   6.434 -1.0949  0.1517  1.9830
 5367SOL     OW27559   2.600   2.706   4.433 -0.1503 -0.0500 -0.0039
 5367SOL    HW127560   2.521   2.661   4.403 -1.0063  1.7355 -0.4403
 5367SOL    HW227561   2.595   2.792   4.391  2.0533  0.1679  0.1960
 5368SOL     OW27562   0.229   1.379   7.492 -0.2139  0.2215  0.3215
 5368SOL    HW127563   0.147   1.411   7.531 -0.3412 -0.3194  0.4968
 5368SOL    HW227564   0.291   1.364   7.563  1.1951  2.5612 -0.4152
 5369SOL     OW27565   2.890   4.513  11.506  0.4449  0.0639  0.0751
 5369SOL    HW127566   2.890   4.557  11.421  1.3186  0.4782  0.2885
 5369SOL    HW227567   2.901   4.424  11.473  0.4513  0.8894 -2.1798
 5370SOL     OW27568   0.638   2.206   4.750  0.0120 -0.5636 -0.2534
 5370SOL    HW127569   0.656   2.297   4.726  0.2296 -0.2007  1.2792
 5370SOL    HW227570   0.591   2.210   4.834  2.2501 -1.6581  1.0618
 5371SOL     OW27571   0.265   4.002   3.003 -0.6097  0.0320 -0.0303
 5371SOL    HW127572   0.309   3.928   3.044 -1.5453 -0.1120  0.7011
 5371SOL    HW227573   0.221   4.031   3.083 -0.6765  2.3679 -0.9256
 5372SOL     OW27574   4.328   1.968   7.981 -0.4317 -0.0094 -0.0725
 5372SOL    HW127575   4.363   1.884   8.010 -1.3796 -0.2926  0.2648
 5372SOL    HW227576   4.386   2.029   8.026 -1.7158  2.3126 -1.5774
 5373SOL     OW27577   3.731   0.068   5.364  0.3118 -0.2129 -0.1356
 5373SOL    HW127578   3.819   0.103   5.357  0.1497  0.2689  0.1830
 5373SOL    HW227579   3.742   4.698   5.391 -3.2668 -0.5165  0.3515
 5374SOL     OW27580   1.834   4.406  12.017  0.3233  0.4329  0.2575
 5374SOL    HW127581   1.841   4.472  11.948 -1.8192 -2.0864 -2.3412
 5374SOL    HW227582   1.868   4.325  11.980  0.0519  0.3435  0.2001
 5375SOL     OW27583   4.089   3.816   8.493 -0.8822 -0.5042  1.0691
 5375SOL    HW127584   4.103   3.911   8.496  0.8125 -0.7698  1.8592
 5375SOL    HW227585   4.012   3.798   8.546 -1.2837  0.3099  0.7594
 5376SOL     OW27586   3.094   4.519   1.859  0.3287  0.4981  0.7033
 5376SOL    HW127587   3.160   4.470   1.810 -1.5629 -0.3801 -0.9854
 5376SOL    HW227588   3.112   4.476   1.943  2.8141  2.4147  1.1516
 5377SOL     OW27589   2.211   1.251   2.929 -0.3327  0.0921  0.3252
 5377SOL    HW127590   2.237   1.239   2.837  0.1333  2.1911  0.1994
 5377SOL    HW227591   2.140   1.314   2.934 -0.3418  0.1974 -1.1324
 5378SOL     OW27592   0.898   2.121  13.030 -0.7976 -0.5293  0.4150
 5378SOL    HW127593   0.960   2.191  13.008  0.5482 -1.1430  2.2308
 5378SOL    HW227594   0.808   2.141  13.005  0.0543 -0.2622 -2.4800
 5379SOL     OW27595   3.818   2.488   4.767 -0.2683 -0.2217 -0.2816
 5379SOL    HW127596   3.831   2.394   4.758 -0.2509 -0.1717 -0.7615
 5379SOL    HW227597   3.798   2.518   4.678 -0.3678  1.3377  0.2661
 5380SOL     OW27598   3.235   4.612   4.733  0.0615  0.2229 -0.4000
 5380SOL    HW127599   3.142   4.614   4.711  0.1130  2.1438 -0.4023
 5380SOL    HW227600   3.248   4.696   4.776  0.8197  1.2150 -2.5656
 5381SOL     OW27601   0.284   1.260   2.268 -0.2167 -0.4379 -0.0780
 5381SOL    HW127602   0.379   1.247   2.269 -0.3433 -1.3392 -0.0969
 5381SOL    HW227603   0.267   1.181   2.216 -0.3819  0.1201 -0.8778
 5382SOL     OW27604   1.366   2.854   1.867  0.0800  0.4089 -0.1495
 5382SOL    HW127605   1.368   2.806   1.784 -2.1892  0.2153 -0.1128
 5382SOL    HW227606   1.414   2.793   1.922  0.1866 -0.6939 -1.4664
 5383SOL     OW27607   2.390   2.422  17.367  0.2387  0.1189  0.0766
 5383SOL    HW127608   2.408   2.362  17.294  0.0493 -0.2394  0.3250
 5383SOL    HW227609   2.382   2.365  17.443  1.7117 -1.2880 -0.8093
 5384SOL     OW27610   1.810   1.729   5.649  0.4294  0.2951 -0.0407
 5384SOL    HW127611   1.779   1.819   5.645  2.9259  1.0943 -1.2658
 5384SOL    HW227612   1.723   1.696   5.670 -0.2723  1.1509 -1.6058
 5385SOL     OW27613   3.523   4.120  14.924  0.4737  0.4124  0.1153
 5385SOL    HW127614   3.449   4.075  14.883  0.1253  0.8313  0.2874
 5385SOL    HW227615   3.479   4.189  14.974  0.2197  0.2946  0.0576
 5386SOL     OW27616   0.820   4.113   8.891 -0.1019  0.1414 -0.6267
 5386SOL    HW127617   0.728   4.093   8.874 -0.4964  1.9525 -0.6218
 5386SOL    HW227618   0.823   4.158   8.975 -1.5173 -0.6863 -0.1423
 5387SOL     OW27619   3.356   1.618   9.531 -0.4900 -0.2705 -0.4885
 5387SOL    HW127620   3.352   1.556   9.459  1.5711  1.0648 -1.7637
 5387SOL    HW227621   3.353   1.703   9.488 -0.7589 -1.4196 -2.7052
 5388SOL     OW27622   4.503   2.496   7.429 -0.3013 -0.4683  0.2005
 5388SOL    HW127623   4.473   2.492   7.338 -2.0152 -0.7044  0.7783
 5388SOL    HW227624   4.541   2.410   7.448 -1.7633 -1.5334 -1.7534
 5389SOL     OW27625   1.191   4.321   6.601  0.3379 -0.0773  0.6879
 5389SOL    HW127626   1.126   4.280   6.544  0.2435 -0.0495  0.7746
 5389SOL    HW227627   1.263   4.263   6.578  0.1339 -0.1420  0.2093
 5390SOL     OW27628   4.691   3.892  15.242  0.0216  0.2468 -0.4616
 5390SOL    HW127629   4.625   3.953  15.209  0.4186  1.0002  0.1275
 5390SOL    HW227630   4.643   3.813  15.268 -1.3997  0.6466 -1.8493
 5391SOL     OW27631   1.371   4.664   7.263  0.7155 -0.1606  0.3444
 5391SOL    HW127632   1.412   4.715   7.333 -1.2135  0.2320  1.2101
 5391SOL    HW227633   1.434   4.675   7.193 -0.4568  0.1257 -0.6708
 5392SOL     OW27634   2.790   2.689   7.538 -0.2119 -0.1634  0.6448
 5392SOL    HW127635   2.723   2.658   7.477 -0.8792  0.7009  0.9534
 5392SOL    HW227636   2.767   2.629   7.609 -2.3234  2.2613  1.9870
 5393SOL     OW27637   3.043   2.509   0.663 -0.6527 -0.1114  0.0432
 5393SOL    HW127638   3.126   2.539   0.627 -0.2264  0.5888  1.6130
 5393SOL    HW227639   3.050   2.543   0.752  1.8080 -4.0982  1.3664
 5394SOL     OW27640   2.782   3.050   8.621  0.8367 -0.2256 -0.4900
 5394SOL    HW127641   2.700   3.011   8.591  1.0709 -0.0865 -1.3198
 5394SOL    HW227642   2.829   2.968   8.636 -1.6572 -1.2840  1.4845
 5395SOL     OW27643   0.532   1.117   2.391 -0.2157  0.5126  0.8116
 5395SOL    HW127644   0.521   1.034   2.345  2.4433 -0.0146  1.1508
 5395SOL    HW227645   0.534   1.087   2.482 -0.4197 -0.3327  0.5348
 5396SOL     OW27646   3.774   3.146  17.177 -0.2108 -0.1301 -0.3593
 5396SOL    HW127647   3.791   3.056  17.150 -1.3601 -0.8794  1.4146
 5396SOL    HW227648   3.752   3.190  17.095 -1.5838  1.2739  0.7618
 5397SOL     OW27649   1.878   3.743  17.622  0.4809 -0.1562 -0.0227
 5397SOL    HW127650   1.950   3.781  17.673  0.3174  3.0970 -2.2508
 5397SOL    HW227651   1.916   3.758  17.536 -1.2021  0.6352 -0.6259
 5398SOL     OW27652   4.483   0.579   3.558  0.3277  0.1442  0.6151
 5398SOL    HW127653   4.570   0.541   3.557  0.8118  1.2872 -0.5768
 5398SOL    HW227654   4.438   0.521   3.619 -1.7620  2.6172  1.4393
 5399SOL     OW27655   2.534   1.749   1.138 -0.7142  0.1477 -0.2299
 5399SOL    HW127656   2.616   1.735   1.090 -0.7042  1.6053 -0.6253
 5399SOL    HW227657   2.501   1.821   1.084 -1.3359  0.3064  0.3580
 5400SOL     OW27658   0.171   3.237  17.484 -0.5270  0.1142 -0.0437
 5400SOL    HW127659   0.134   3.185  17.556 -0.6190 -0.2714 -0.3696
 5400SOL    HW227660   0.093   3.290  17.464 -0.9291 -0.1161  0.8925
 5401SOL     OW27661   1.450   0.276   4.950  0.2699  0.6378  0.8721
 5401SOL    HW127662   1.542   0.255   4.931  0.2180  0.1297  1.1759
 5401SOL    HW227663   1.407   0.202   4.907  0.8159 -0.2133  1.7796
 5402SOL     OW27664   1.120   1.632   4.170 -0.1855 -0.2010  0.2833
 5402SOL    HW127665   1.209   1.600   4.157 -0.1116  0.5770 -1.1321
 5402SOL    HW227666   1.082   1.596   4.090  0.1176  1.2623 -0.5076
 5403SOL     OW27667   0.247   4.406   3.376 -0.3232  0.1239 -0.5910
 5403SOL    HW127668   0.183   4.475   3.360 -0.5069  0.6330  2.3723
 5403SOL    HW227669   0.193   4.330   3.396  0.5374 -0.3706 -0.1681
 5404SOL     OW27670   3.802   2.073   8.275  0.0353 -0.6959 -0.7560
 5404SOL    HW127671   3.890   2.045   8.249  0.8873 -0.4381  1.9136
 5404SOL    HW227672   3.795   2.029   8.359 -1.3167  0.0245 -0.4892
 5405SOL     OW27673   1.195   2.910   1.094  0.2979  0.3417  0.0222
 5405SOL    HW127674   1.139   2.874   1.163  0.8724 -0.9117 -0.1704
 5405SOL    HW227675   1.233   2.831   1.054  0.8170  0.7087 -0.2021
 5406SOL     OW27676   0.771   1.311   5.839  0.1377 -0.2716 -0.2678
 5406SOL    HW127677   0.691   1.312   5.891 -0.6549  0.4118 -1.4945
 5406SOL    HW227678   0.801   1.222   5.857 -1.8512 -0.7413  0.7184
 5407SOL     OW27679   1.693   3.518   3.915  0.0659 -0.1886  0.6117
 5407SOL    HW127680   1.772   3.570   3.902 -1.3279  1.7938  0.1688
 5407SOL    HW227681   1.689   3.539   4.009 -0.7183  0.7721  0.3612
 5408SOL     OW27682   4.628   0.982  12.742  0.4900  0.9522 -0.7157
 5408SOL    HW127683   4.572   0.909  12.767  3.0413 -0.2678  1.3877
 5408SOL    HW227684   4.694   0.933  12.692  2.0951  1.4673  0.9098
 5409SOL     OW27685   2.499   4.173   3.688 -0.0090  0.2998 -0.2142
 5409SOL    HW127686   2.469   4.124   3.764  0.3191 -0.4166 -0.5470
 5409SOL    HW227687   2.533   4.255   3.723 -1.8155  1.4046 -1.0394
 5410SOL     OW27688   0.939   2.793   4.030  0.3873 -0.1912  0.1397
 5410SOL    HW127689   0.884   2.717   4.010 -0.7240  1.0141 -1.3321
 5410SOL    HW227690   0.985   2.799   3.946  0.3246  0.0342  0.1215
 5411SOL     OW27691   0.704   2.534  15.799 -0.4313  0.1388  0.3593
 5411SOL    HW127692   0.617   2.537  15.839 -0.3192  0.6098  0.5650
 5411SOL    HW227693   0.739   2.621  15.819 -0.0520 -0.3206  1.7019
 5412SOL     OW27694   0.584   1.914   9.435  0.1780  0.3104 -0.1445
 5412SOL    HW127695   0.620   1.937   9.349 -0.5695  0.3174 -0.4540
 5412SOL    HW227696   0.543   1.829   9.416  1.1369  0.3071 -2.3372
 5413SOL     OW27697   2.863   1.918   0.945  0.4213  0.2124 -0.1716
 5413SOL    HW127698   2.796   1.876   0.891  0.9643 -2.2303  1.0629
 5413SOL    HW227699   2.846   1.862   1.021  0.6918  0.4949  0.0953
 5414SOL     OW27700   0.494   3.498  15.568 -0.9016  0.1305  0.4268
 5414SOL    HW127701   0.549   3.576  15.563  1.1714 -1.4599 -1.4025
 5414SOL    HW227702   0.532   3.446  15.639 -2.5289 -0.7692  0.6292
 5415SOL     OW27703   1.072   0.540  15.267 -0.2866  0.1795  0.3226
 5415SOL    HW127704   1.158   0.573  15.241 -1.9533  2.0622 -2.8028
 5415SOL    HW227705   1.092   0.509  15.356 -0.7211 -0.4017  0.2151
 5416SOL     OW27706   3.576   3.099   6.012  0.2742 -0.0345  0.1900
 5416SOL    HW127707   3.528   3.091   5.930  0.2307  1.1973  0.0962
 5416SOL    HW227708   3.664   3.074   5.984  0.6498  0.3655  1.0149
 5417SOL     OW27709   0.639   3.723   7.074 -0.2978 -0.1108  0.5248
 5417SOL    HW127710   0.631   3.781   7.150  1.0895  2.2970 -1.1743
 5417SOL    HW227711   0.557   3.674   7.086 -0.0063 -1.2653 -2.3275
 5418SOL     OW27712   0.329   0.086   7.345  0.0008  0.1531 -0.3047
 5418SOL    HW127713   0.383   0.053   7.417 -1.3073 -2.2212 -0.3810
 5418SOL    HW227714   0.246   0.036   7.346 -1.7087  3.0228  1.6556
 5419SOL     OW27715   1.911   2.215   6.416 -0.2598  0.4210  0.8056
 5419SOL    HW127716   1.881   2.128   6.444  1.5574 -1.1097 -2.0513
 5419SOL    HW227717   1.873   2.262   6.491  1.0004 -0.8545  2.2466
 5420SOL     OW27718   1.746   1.253  11.621 -0.3381 -0.5609  0.3423
 5420SOL    HW127719   1.764   1.187  11.688  0.8271 -1.5159 -0.9281
 5420SOL    HW227720   1.665   1.294  11.653  1.0782  1.2161  1.6246
 5421SOL     OW27721   3.795   3.242   6.766 -0.5906 -0.3191 -0.4873
 5421SOL    HW127722   3.865   3.226   6.702  0.7623 -1.1456  1.1882
 5421SOL    HW227723   3.851   3.268   6.839  0.8346 -0.4400 -1.5297
 5422SOL     OW27724   0.273   1.082   9.352 -0.0165  0.0535  0.5727
 5422SOL    HW127725   0.290   0.997   9.392  0.5855 -0.1846 -0.1783
 5422SOL    HW227726   0.300   1.068   9.261  0.3398  0.5319  0.6039
 5423SOL     OW27727   0.872   2.675   5.530 -0.3866 -0.1073  0.0392
 5423SOL    HW127728   0.945   2.725   5.494  0.0304 -0.3512  0.5428
 5423SOL    HW227729   0.807   2.746   5.533  1.8026  1.8242  1.0031
 5424SOL     OW27730   0.223   4.663   2.332 -0.2302  0.5888 -0.6726
 5424SOL    HW127731   0.227   4.569   2.350 -2.6221  0.7005  0.4739
 5424SOL    HW227732   0.288   4.669   2.263  1.3109 -1.0327  0.6416
 5425SOL     OW27733   4.692   0.905   0.118 -0.2437  0.2675 -0.1945
 5425SOL    HW127734   4.687   0.837   0.186 -2.6258 -0.3793 -1.0268
 5425SOL    HW227735   0.057   0.894   0.077 -0.4683  0.6741 -0.7774
 5426SOL     OW27736   0.591   3.782   2.790 -0.2130 -0.4378 -0.2723
 5426SOL    HW127737   0.553   3.715   2.848 -2.8335  1.0597 -0.2572
 5426SOL    HW227738   0.679   3.781   2.828 -0.1950  2.8716 -0.2902
 5427SOL     OW27739   0.653   2.173  12.205  0.0405 -0.4838  1.0783
 5427SOL    HW127740   0.596   2.115  12.256  0.1095 -0.7498  0.8525
 5427SOL    HW227741   0.596   2.191  12.130  3.7770  2.0232 -1.1125
 5428SOL     OW27742   4.220   4.490   6.845 -0.1486 -0.2147  0.0908
 5428SOL    HW127743   4.301   4.439   6.840  0.6786  1.0456  0.7156
 5428SOL    HW227744   4.158   4.420   6.861  1.3367 -1.4242  0.5884
 5429SOL     OW27745   1.528   2.740  15.186  0.2432  0.2551  0.3399
 5429SOL    HW127746   1.559   2.649  15.181 -0.1885  0.1960 -1.2208
 5429SOL    HW227747   1.530   2.744  15.281  1.6900 -0.8649  0.3546
 5430SOL     OW27748   0.613   0.099   3.813  0.2903 -0.9528 -0.3363
 5430SOL    HW127749   0.641   0.049   3.889 -1.1053 -0.7299  0.3319
 5430SOL    HW227750   0.663   0.181   3.811 -0.2863 -0.6054 -0.7651
 5431SOL     OW27751   3.267   3.038   5.247 -0.1144  0.0165 -0.3781
 5431SOL    HW127752   3.358   3.009   5.250 -0.5205 -1.2035  0.0545
 5431SOL    HW227753   3.266   3.087   5.165  1.0436  1.1628  0.2901
 5432SOL     OW27754   1.960   3.294   6.360  0.1135 -0.0868  0.2429
 5432SOL    HW127755   2.024   3.265   6.295 -1.5002 -1.3146 -0.7905
 5432SOL    HW227756   1.899   3.350   6.312  0.1984  1.6885  2.2170
 5433SOL     OW27757   1.284   0.770   6.477 -0.0309 -0.4835 -0.2001
 5433SOL    HW127758   1.377   0.752   6.489  0.2886 -0.0837 -2.1737
 5433SOL    HW227759   1.255   0.764   6.568  0.0203 -0.1156 -0.1612
 5434SOL     OW27760   2.932   3.568  11.246  0.6333  0.3634  0.4331
 5434SOL    HW127761   3.007   3.509  11.257 -0.9163 -1.5630  0.7186
 5434SOL    HW227762   2.886   3.509  11.187  1.4107  1.9001 -1.6781
 5435SOL     OW27763   0.794   2.537  12.639  0.0613 -0.6311  0.0764
 5435SOL    HW127764   0.836   2.622  12.653  1.8649 -1.4361 -0.4013
 5435SOL    HW227765   0.764   2.540  12.548  0.5734  1.1632 -0.0306
 5436SOL     OW27766   4.593   2.905   0.542  0.1062 -0.2720  0.2443
 5436SOL    HW127767   4.674   2.873   0.581  1.4249  1.4391 -1.1572
 5436SOL    HW227768   4.566   2.980   0.594 -0.6742 -3.1696  4.0242
 5437SOL     OW27769   0.973   1.590  12.025 -0.0874 -0.2051  0.4305
 5437SOL    HW127770   1.045   1.585  12.088 -0.5117 -0.1148  0.9103
 5437SOL    HW227771   0.927   1.670  12.049 -3.6676 -2.3860  0.8194
 5438SOL     OW27772   2.965   1.595   2.354  0.3814 -0.3938  0.2802
 5438SOL    HW127773   3.038   1.579   2.294  0.6995 -0.2916  0.6405
 5438SOL    HW227774   2.996   1.558   2.437 -0.4910  0.0644  0.8119
 5439SOL     OW27775   2.723   1.212  12.961 -0.2527 -0.0462 -0.3046
 5439SOL    HW127776   2.631   1.233  12.944 -0.0902  1.0389  0.1648
 5439SOL    HW227777   2.747   1.293  13.007 -1.4623  1.0602 -1.5837
 5440SOL     OW27778   4.636   4.170  13.024  0.5447 -0.1467  0.2310
 5440SOL    HW127779   4.675   4.089  12.993 -0.5667 -0.5248 -0.1691
 5440SOL    HW227780   4.654   4.160  13.118  0.9382  1.0264  0.2756
 5441SOL     OW27781   3.437   0.103  15.977 -0.7301  0.4244 -0.0988
 5441SOL    HW127782   3.484   0.020  15.991 -0.9468  0.4361  0.6816
 5441SOL    HW227783   3.348   0.083  15.949 -1.1815 -1.7029  2.8190
 5442SOL     OW27784   2.343   2.766   5.216 -0.0239  0.4562  1.0829
 5442SOL    HW127785   2.250   2.750   5.228  0.0951  0.0531  1.4901
 5442SOL    HW227786   2.371   2.746   5.305 -1.6569 -1.3055  1.1952
 5443SOL     OW27787   0.926   0.684   5.076  0.6375 -0.4503 -0.6192
 5443SOL    HW127788   0.845   0.648   5.041  1.7893 -1.0324 -2.7088
 5443SOL    HW227789   0.894   0.729   5.154  0.1434 -1.3357 -0.3068
 5444SOL     OW27790   2.124   3.844   8.814  0.4845  0.1543 -0.0250
 5444SOL    HW127791   2.073   3.899   8.873 -0.6132 -0.8956  0.0218
 5444SOL    HW227792   2.172   3.792   8.878 -0.0378 -0.0905  0.1716
 5445SOL     OW27793   1.201   0.667   0.812 -0.0888  0.2489  0.1558
 5445SOL    HW127794   1.150   0.741   0.779 -0.7602 -0.1738  0.2453
 5445SOL    HW227795   1.257   0.718   0.870 -0.8031 -1.7971  2.6427
 5446SOL     OW27796   4.465   3.938  15.847  0.1979 -0.0762 -0.6021
 5446SOL    HW127797   4.457   3.977  15.934  1.3942 -3.2161  0.9241
 5446SOL    HW227798   4.379   3.896  15.840 -0.6599  1.3651  1.3333
 5447SOL     OW27799   0.707   4.673   4.063 -0.6437  0.4636  0.1328
 5447SOL    HW127800   0.723   4.579   4.056 -1.0791  0.2869  1.3723
 5447SOL    HW227801   0.778   4.688   4.125 -0.0379 -1.1209 -0.1895
 5448SOL     OW27802   1.616   2.594   4.470 -0.4463 -0.6311 -0.0910
 5448SOL    HW127803   1.624   2.553   4.384  1.1365 -2.1219  0.7660
 5448SOL    HW227804   1.533   2.637   4.447  0.2279  1.1210  0.7577
 5449SOL     OW27805   1.095   3.350   1.406 -0.0237 -0.1152  0.2327
 5449SOL    HW127806   1.163   3.390   1.459 -0.5116 -1.0805  1.5921
 5449SOL    HW227807   1.053   3.423   1.359 -1.3020  0.5970  2.5078
 5450SOL     OW27808   3.305   2.556   9.223  0.2376 -0.1583 -0.0627
 5450SOL    HW127809   3.369   2.517   9.282  0.7759 -2.3528 -2.0998
 5450SOL    HW227810   3.228   2.550   9.278  1.0680  0.7734  1.1978
 5451SOL     OW27811   4.449   0.826   4.389 -0.2164 -0.0015  0.1476
 5451SOL    HW127812   4.537   0.823   4.350 -0.0826 -1.0184  0.5355
 5451SOL    HW227813   4.419   0.913   4.363 -0.1820  0.5094  1.8366
 5452SOL     OW27814   2.602   1.011   7.166  0.1488  0.1062 -0.3860
 5452SOL    HW127815   2.580   1.098   7.133 -2.1838  1.1125  3.8507
 5452SOL    HW227816   2.531   0.978   7.111 -0.1988  0.4699 -0.1556
 5453SOL     OW27817   1.888   4.546   1.735 -0.3034 -0.5625 -0.5098
 5453SOL    HW127818   1.957   4.592   1.687  1.2776 -0.9570  1.3937
 5453SOL    HW227819   1.839   4.495   1.670  1.9085 -0.7357 -2.0352
 5454SOL     OW27820   2.672   4.289   1.906 -0.0108  0.3039 -1.0808
 5454SOL    HW127821   2.603   4.224   1.921  0.5152  0.2136  0.9424
 5454SOL    HW227822   2.728   4.228   1.858 -0.9656 -0.1278 -1.6537
 5455SOL     OW27823   1.163   1.263   1.955 -0.3273 -0.3518  0.0887
 5455SOL    HW127824   1.096   1.205   1.992 -0.9104 -0.3345 -0.9370
 5455SOL    HW227825   1.210   1.286   2.036  1.9535 -0.1015 -1.3104
 5456SOL     OW27826   2.044   0.164   4.093 -0.0718 -0.1954  0.5696
 5456SOL    HW127827   2.121   0.219   4.111  0.0899 -1.1301  2.7686
 5456SOL    HW227828   1.989   0.235   4.060 -0.0392  0.5607  2.1330
 5457SOL     OW27829   1.510   2.342   6.153 -0.2206  0.6022 -0.5411
 5457SOL    HW127830   1.547   2.276   6.094  0.9845  2.8990 -2.3742
 5457SOL    HW227831   1.563   2.413   6.115  1.0037 -0.0670 -0.0644
 5458SOL     OW27832   0.854   2.713   6.772 -0.3962 -0.0653  0.2412
 5458SOL    HW127833   0.771   2.757   6.792 -1.1145 -0.4220 -1.9617
 5458SOL    HW227834   0.849   2.708   6.677 -1.7888 -0.7382  0.3455
 5459SOL     OW27835   2.016   0.046   5.148  0.0702 -0.1588 -1.1826
 5459SOL    HW127836   2.037   0.111   5.215 -1.4754  0.2050 -1.0327
 5459SOL    HW227837   1.921   0.038   5.162  0.1678 -1.1167 -1.0277
 5460SOL     OW27838   2.530   0.497   1.757 -0.2178 -0.0666 -0.1867
 5460SOL    HW127839   2.435   0.502   1.743 -0.1792 -0.5276 -0.6098
 5460SOL    HW227840   2.564   0.561   1.695  0.6100  0.9260  1.3004
 5461SOL     OW27841   4.072   3.683  14.541  0.3964 -0.1457  0.3543
 5461SOL    HW127842   4.127   3.705  14.615  1.4815  1.0740 -0.8110
 5461SOL    HW227843   3.993   3.728  14.570 -0.6740 -0.7188 -1.6772
 5462SOL     OW27844   0.103   4.693   2.607 -0.0099 -0.5221  0.5581
 5462SOL    HW127845   0.178   4.678   2.550 -0.3320 -1.2315  0.3140
 5462SOL    HW227846   0.130   0.040   2.668  0.1529  0.9152 -1.1290
 5463SOL     OW27847   0.593   0.661   1.825 -0.0164 -0.4803  0.1597
 5463SOL    HW127848   0.572   0.622   1.910  1.3398  0.2760  0.8391
 5463SOL    HW227849   0.548   0.607   1.760  0.8772 -2.5140  1.2401
 5464SOL     OW27850   2.057   0.868   8.329 -0.2031 -0.2183 -0.1575
 5464SOL    HW127851   2.104   0.787   8.309  1.8771  0.9398  0.0693
 5464SOL    HW227852   2.125   0.935   8.324 -0.5852  0.1947  0.1842
 5465SOL     OW27853   1.169   0.594   5.244  0.6285 -0.1052 -0.7784
 5465SOL    HW127854   1.261   0.582   5.220  1.3777  1.2925  1.4156
 5465SOL    HW227855   1.123   0.622   5.165 -0.9555  2.0924  0.9419
 5466SOL     OW27856   3.622   1.354   7.163 -0.0066  0.2491 -0.0224
 5466SOL    HW127857   3.645   1.432   7.213  0.7316 -0.9533  1.4948
 5466SOL    HW227858   3.565   1.303   7.221 -0.9403 -0.8618 -1.9251
 5467SOL     OW27859   1.453   0.805   8.328  0.5756 -0.0699  0.1344
 5467SOL    HW127860   1.473   0.726   8.378 -0.5060 -1.0653 -1.0362
 5467SOL    HW227861   1.495   0.872   8.383  0.7160 -0.5351  0.5940
 5468SOL     OW27862   0.256   0.591   4.796  0.8640  0.0062 -0.1643
 5468SOL    HW127863   0.348   0.575   4.818  0.6368  1.0004  1.4700
 5468SOL    HW227864   0.215   0.649   4.859  1.2182  0.2353 -0.1450
 5469SOL     OW27865   2.889   2.707   5.190 -0.3010  0.6747  1.1315
 5469SOL    HW127866   2.962   2.752   5.233  0.2684  0.2171  0.6531
 5469SOL    HW227867   2.861   2.774   5.127 -0.2463 -0.0700  0.3204
 5470SOL     OW27868   2.344   3.982   5.623  0.2954 -0.2765 -0.4217
 5470SOL    HW127869   2.404   3.985   5.549  0.0200 -0.7804 -0.6652
 5470SOL    HW227870   2.270   4.035   5.594  0.8086 -0.0258 -1.2593
 5471SOL     OW27871   2.620   2.871   6.705  0.2388 -0.5650 -0.1437
 5471SOL    HW127872   2.611   2.964   6.725 -1.2025 -0.7193 -0.0755
 5471SOL    HW227873   2.694   2.853   6.763 -0.1977 -1.3200  0.1765
 5472SOL     OW27874   4.431   3.345   1.587 -0.4604 -0.3988 -0.5297
 5472SOL    HW127875   4.374   3.417   1.563 -1.0578 -0.2423  1.3710
 5472SOL    HW227876   4.471   3.377   1.668  0.9555  0.6987 -1.6700
 5473SOL     OW27877   4.567   2.047   2.570 -0.5518 -0.4002  0.0711
 5473SOL    HW127878   4.486   1.997   2.569 -1.9954  1.9152 -0.1970
 5473SOL    HW227879   4.541   2.117   2.631 -2.0279  0.6548 -1.7824
 5474SOL     OW27880   0.133   3.666   1.912  0.3507 -0.0765 -0.2362
 5474SOL    HW127881   0.120   3.694   2.003  1.0310  0.2140 -0.2350
 5474SOL    HW227882   0.166   3.749   1.880 -1.2204  0.3246 -0.8256
 5475SOL     OW27883   4.023   1.811   6.049 -0.7230  0.3155 -0.4067
 5475SOL    HW127884   3.947   1.764   6.084  1.1555 -1.5210  1.1747
 5475SOL    HW227885   3.982   1.896   6.033  0.2148  0.8294 -0.0505
 5476SOL     OW27886   1.122   4.275  12.889  0.4021 -0.0190  0.1983
 5476SOL    HW127887   1.076   4.353  12.857  0.1104  0.6787  2.2580
 5476SOL    HW227888   1.147   4.312  12.974 -1.7595  3.5479 -0.7008
 5477SOL     OW27889   3.776   4.592  16.667  0.0083 -0.1123 -0.1877
 5477SOL    HW127890   3.819   4.674  16.691 -1.7468  0.2140  1.8343
 5477SOL    HW227891   3.688   4.616  16.639 -1.2476 -3.1576  1.0494
 5478SOL     OW27892   4.617   2.822   7.233 -0.7195  0.2670 -0.4704
 5478SOL    HW127893   4.626   2.783   7.146  0.6805  0.2567 -0.3149
 5478SOL    HW227894   4.523   2.826   7.250 -1.2596 -1.1805 -3.1524
 5479SOL     OW27895   2.995   0.287   3.039  0.1996  0.2193 -0.1442
 5479SOL    HW127896   3.022   0.362   3.093  0.3522 -1.0451  1.5571
 5479SOL    HW227897   2.953   0.332   2.966  0.5539  0.8878  0.0551
 5480SOL     OW27898   0.778   0.520   8.393 -0.2663  0.2753 -0.0772
 5480SOL    HW127899   0.785   0.427   8.413  2.4796  0.6788  0.7601
 5480SOL    HW227900   0.868   0.531   8.361 -0.3092 -0.5325 -0.4691
 5481SOL     OW27901   3.192   0.401   7.700  0.2562  0.5178 -0.4085
 5481SOL    HW127902   3.188   0.467   7.631 -2.1612  1.8994  1.0756
 5481SOL    HW227903   3.241   0.436   7.774 -0.9442 -1.0047  1.1102
 5482SOL     OW27904   3.601   0.195   1.755 -0.0781  0.2764  0.3518
 5482SOL    HW127905   3.514   0.229   1.737 -0.7155 -0.5314  1.8576
 5482SOL    HW227906   3.646   0.189   1.671  0.7154 -1.2716  0.8685
 5483SOL     OW27907   0.516   0.469  10.405 -0.0072 -0.1955 -0.8091
 5483SOL    HW127908   0.492   0.377  10.394 -0.6440 -0.3174  1.7450
 5483SOL    HW227909   0.612   0.474  10.402  0.0029 -0.0258 -0.1771
 5484SOL     OW27910   3.049   0.820  12.570  0.2705  0.0625  0.1220
 5484SOL    HW127911   2.966   0.775  12.557  0.3822 -0.0645 -0.1706
 5484SOL    HW227912   3.057   0.861  12.484 -2.5386 -0.3999 -0.3652
 5485SOL     OW27913   1.047   1.115  10.986 -0.5311 -0.4882  0.4373
 5485SOL    HW127914   0.969   1.167  10.970 -0.5933 -0.9008 -0.5890
 5485SOL    HW227915   1.092   1.173  11.048 -0.8336  1.1983 -0.9367
 5486SOL     OW27916   1.279   3.755   8.935 -0.1275  0.5598 -0.1754
 5486SOL    HW127917   1.205   3.776   8.993 -1.0106  0.9646 -1.4524
 5486SOL    HW227918   1.262   3.803   8.854 -0.5051 -0.8935 -0.9721
 5487SOL     OW27919   0.979   0.116  12.714  0.0783 -0.2708  0.8618
 5487SOL    HW127920   0.902   0.172  12.718  0.5388  0.4472 -0.4013
 5487SOL    HW227921   1.035   0.185  12.678  1.1227 -0.3173  2.4069
 5488SOL     OW27922   2.758   2.253  15.535  0.9651 -0.5424 -0.1211
 5488SOL    HW127923   2.688   2.304  15.494  0.4506 -0.9544  0.2353
 5488SOL    HW227924   2.833   2.305  15.507  0.9487  0.7619  2.2481
 5489SOL     OW27925   0.381   4.587   4.415  0.1148 -0.7989 -0.0174
 5489SOL    HW127926   0.419   4.548   4.336 -1.8215 -3.6802  0.4846
 5489SOL    HW227927   0.305   4.635   4.381 -0.4126 -1.6308 -0.0114
 5490SOL     OW27928   1.930   0.656  11.343  0.2520 -0.0374 -0.0806
 5490SOL    HW127929   1.975   0.592  11.288 -1.5746 -0.7377 -0.7613
 5490SOL    HW227930   2.002   0.697  11.391  1.8358 -2.0875 -0.6926
 5491SOL     OW27931   4.550   3.450   2.277 -0.4963  0.1028  0.0788
 5491SOL    HW127932   4.528   3.366   2.237 -0.1753  0.0929 -0.0688
 5491SOL    HW227933   4.541   3.435   2.372 -1.3802  2.7979  0.4046
 5492SOL     OW27934   0.390   2.642   3.869  0.0723  0.6314  0.3834
 5492SOL    HW127935   0.309   2.661   3.822 -0.7729 -0.6519  1.3278
 5492SOL    HW227936   0.444   2.602   3.800 -0.7696 -0.5078  0.3936
 5493SOL     OW27937   4.347   1.054   8.754  0.6125 -0.2167 -0.0579
 5493SOL    HW127938   4.440   1.036   8.736  0.7080 -0.2406  0.4399
 5493SOL    HW227939   4.375   1.062   8.846 -0.7063 -0.7824  0.3857
 5494SOL     OW27940   3.559   3.361   3.701 -0.0848  0.2385 -0.0866
 5494SOL    HW127941   3.531   3.269   3.702 -1.4308  0.6407 -0.9339
 5494SOL    HW227942   3.643   3.345   3.745  0.0987  2.3452  0.3006
 5495SOL     OW27943   0.547   2.033  15.229  0.4436 -0.0801 -0.0017
 5495SOL    HW127944   0.604   2.013  15.155 -1.4985 -1.2727 -1.1918
 5495SOL    HW227945   0.467   2.011  15.180 -0.3982  1.3842  0.7078
 5496SOL     OW27946   2.782   4.556   6.769 -0.1289  0.0778  0.0186
 5496SOL    HW127947   2.687   4.570   6.765 -0.3688 -1.3652  0.7961
 5496SOL    HW227948   2.785   4.507   6.687 -0.5253 -1.6150  1.0133
 5497SOL     OW27949   2.785   0.021   2.387  0.4830  0.3641  0.0056
 5497SOL    HW127950   2.692   0.036   2.373  0.2994  1.6603  2.4714
 5497SOL    HW227951   2.784   0.006   2.482 -0.8364 -4.6981 -0.8437
 5498SOL     OW27952   4.059   3.985   7.786 -0.8769  0.8723 -0.0797
 5498SOL    HW127953   4.028   3.919   7.725  0.8852  1.6341 -1.7786
 5498SOL    HW227954   4.047   3.929   7.863  1.8813  1.4247  0.7428
 5499SOL     OW27955   3.740   3.216   3.526 -0.0968  0.5022 -0.8273
 5499SOL    HW127956   3.700   3.295   3.563  1.7672  1.0529 -0.0126
 5499SOL    HW227957   3.674   3.154   3.558 -0.2868  0.0443 -2.1226
 5500SOL     OW27958   2.321   3.207   9.041 -0.8608  0.2836 -0.2125
 5500SOL    HW127959   2.265   3.284   9.046 -1.0767  0.0177  1.5651
 5500SOL    HW227960   2.359   3.220   8.954  1.1982  0.0490  0.6485
 5501SOL     OW27961   4.241   4.390  13.683  0.1664  0.5040 -0.4593
 5501SOL    HW127962   4.204   4.431  13.605  1.8340  1.0021 -1.0031
 5501SOL    HW227963   4.172   4.397  13.749 -0.0536 -0.0538 -0.6375
 5502SOL     OW27964   0.121   2.712  14.920 -0.0527  0.2823 -0.4223
 5502SOL    HW127965   0.088   2.691  15.008 -1.0936  3.7880  0.0303
 5502SOL    HW227966   0.155   2.628  14.888  0.7042 -0.0095  1.1183
 5503SOL     OW27967   0.741   1.349  12.485  0.1488 -0.1832 -1.2374
 5503SOL    HW127968   0.821   1.315  12.444  0.9333  1.0284 -0.7164
 5503SOL    HW227969   0.734   1.428  12.431 -0.6454  1.1077  0.7652
 5504SOL     OW27970   1.612   4.154   5.460 -0.1529 -0.3605  0.4221
 5504SOL    HW127971   1.570   4.239   5.444 -1.4100 -0.5625  2.6005
 5504SOL    HW227972   1.565   4.095   5.401  0.1252 -0.8251  0.6635
 5505SOL     OW27973   0.323   2.113   1.217 -0.0114 -0.5449  0.0984
 5505SOL    HW127974   0.232   2.125   1.190 -0.0996  0.0182  0.6397
 5505SOL    HW227975   0.342   2.024   1.188  0.6516 -0.2824 -0.2681
 5506SOL     OW27976   0.104   4.021   4.467  0.9219  0.2965 -0.3029
 5506SOL    HW127977   0.063   4.022   4.381 -1.6352  1.2834  0.9436
 5506SOL    HW227978   0.196   4.029   4.440  1.0049  2.8678  0.6975
 5507SOL     OW27979   0.707   1.778   6.402 -0.1052 -0.1825  0.0387
 5507SOL    HW127980   0.754   1.711   6.452  1.2553  0.7119 -0.0416
 5507SOL    HW227981   0.776   1.836   6.370 -1.1634  0.5689 -0.8249
 5508SOL     OW27982   3.279   2.836   4.015  0.3223 -0.4038 -0.2521
 5508SOL    HW127983   3.266   2.752   4.061  0.5348 -0.5187 -0.4029
 5508SOL    HW227984   3.225   2.828   3.936 -0.2371 -0.4327  0.1297
 5509SOL     OW27985   3.596   0.812   7.451 -0.3582 -0.1184  0.1066
 5509SOL    HW127986   3.687   0.834   7.432  0.4172 -2.1914  1.4260
 5509SOL    HW227987   3.555   0.885   7.405 -1.9709 -1.8319 -1.1971
 5510SOL     OW27988   1.417   2.304  12.319 -0.6808 -0.6349 -0.4866
 5510SOL    HW127989   1.485   2.370  12.312 -0.4063 -0.6511  1.9897
 5510SOL    HW227990   1.425   2.278  12.411 -0.3335  1.9557  0.2166
 5511SOL     OW27991   0.189   0.529  14.154  0.1779  0.2934 -0.1286
 5511SOL    HW127992   0.203   0.438  14.181  0.1838  0.3969  0.2171
 5511SOL    HW227993   0.112   0.515  14.100 -2.1698 -1.7181  3.7401
 5512SOL     OW27994   2.473   0.160   3.218 -0.0774  0.2895 -0.0505
 5512SOL    HW127995   2.558   0.188   3.184  0.2508  0.6100  1.0057
 5512SOL    HW227996   2.415   0.176   3.144 -0.7296 -0.5581  0.2746
 5513SOL     OW27997   3.325   1.337   5.260  0.6994 -0.8104 -0.3481
 5513SOL    HW127998   3.298   1.283   5.334 -2.9978 -0.5307 -1.5315
 5513SOL    HW227999   3.302   1.426   5.286  1.1219 -0.3965 -1.3812
 5514SOL     OW28000   1.261   1.909   2.646 -0.3867 -0.3311 -0.2007
 5514SOL    HW128001   1.334   1.852   2.625  0.7457  0.0315  2.7219
 5514SOL    HW228002   1.228   1.866   2.725 -2.1821 -0.8636 -1.2317
 5515SOL     OW28003   4.675   0.949  15.158 -0.2621 -0.0371  0.3199
 5515SOL    HW128004   4.622   0.937  15.237 -0.4116 -2.4695 -0.1527
 5515SOL    HW228005   4.661   1.043  15.148 -1.3412 -0.1981  0.2597
 5516SOL     OW28006   2.649   4.385  14.789  0.0253  0.0618 -0.3695
 5516SOL    HW128007   2.646   4.343  14.874  1.4615 -0.1624 -0.4283
 5516SOL    HW228008   2.566   4.431  14.783 -0.1636 -0.3577 -0.9689
 5517SOL     OW28009   0.331   3.089  17.319  0.6121 -0.1997 -0.1458
 5517SOL    HW128010   0.280   3.152  17.370  0.6236  0.9493 -1.5625
 5517SOL    HW228011   0.420   3.123  17.327 -0.5582  2.1623  2.9861
 5518SOL     OW28012   2.403   1.413   6.387 -0.2535 -0.1997 -0.6406
 5518SOL    HW128013   2.447   1.328   6.397 -1.6006 -0.8391 -0.2264
 5518SOL    HW228014   2.343   1.408   6.313  0.1616 -1.1017 -0.9233
 5519SOL     OW28015   4.058   2.051   8.008 -0.7266 -0.5952  0.2167
 5519SOL    HW128016   4.035   1.984   8.073  2.1223 -0.9324  0.8820
 5519SOL    HW228017   4.147   2.022   7.985 -1.5023 -0.6203 -2.8195
 5520SOL     OW28018   1.868   4.130   1.350 -0.1497  0.3035 -0.7085
 5520SOL    HW128019   1.935   4.175   1.400  1.6731 -1.9964 -1.0833
 5520SOL    HW228020   1.831   4.207   1.307 -0.1111 -0.7105 -2.5685
 5521SOL     OW28021   2.784   3.739  10.342  0.0128  0.3224 -0.3697
 5521SOL    HW128022   2.785   3.745  10.437 -1.2789 -2.5175 -0.1772
 5521SOL    HW228023   2.728   3.817  10.341 -0.1552  0.2373  2.5656
 5522SOL     OW28024   3.193   2.466   3.961  0.4462  0.2044 -0.1329
 5522SOL    HW128025   3.207   2.512   4.043 -1.7732 -0.9837  0.9171
 5522SOL    HW228026   3.168   2.378   3.991 -1.3730  0.2163 -1.5709
 5523SOL     OW28027   0.090   3.102   8.677 -0.0144  0.0985  0.0823
 5523SOL    HW128028   0.073   3.058   8.594  0.3606  1.1034 -0.5206
 5523SOL    HW228029   0.177   3.141   8.669  0.0372 -0.7335 -3.2913
 5524SOL     OW28030   0.372   1.427   7.182 -0.2796  0.4892 -0.4242
 5524SOL    HW128031   0.426   1.413   7.104  1.2194 -0.8705  0.8626
 5524SOL    HW228032   0.409   1.365   7.245 -0.3905 -0.9855 -1.8211
 5525SOL     OW28033   3.344   2.575   4.585  0.0702  0.3789  0.0957
 5525SOL    HW128034   3.388   2.577   4.670  0.2269 -0.5564  0.0436
 5525SOL    HW228035   3.404   2.515   4.540  2.6780  0.8803  2.8939
 5526SOL     OW28036   3.208   3.979   6.569 -0.2486 -0.0192  0.3756
 5526SOL    HW128037   3.133   3.985   6.629  0.7863  0.8750  1.5857
 5526SOL    HW228038   3.239   4.070   6.574  0.4785 -0.2376 -0.3321
 5527SOL     OW28039   1.638   4.211   4.575 -0.3321 -0.6963  0.9996
 5527SOL    HW128040   1.724   4.203   4.615  0.2015 -0.2194 -0.0596
 5527SOL    HW228041   1.653   4.237   4.484 -1.4132 -1.3697  0.6336
 5528SOL     OW28042   3.074   2.832   3.007  0.1723  0.2121 -0.1413
 5528SOL    HW128043   3.043   2.834   3.098 -0.8356 -1.7664 -0.4390
 5528SOL    HW228044   3.040   2.748   2.977  0.3879  0.5088 -1.2116
 5529SOL     OW28045   2.970   0.472   2.860  0.3340  0.1116 -0.1230
 5529SOL    HW128046   3.024   0.542   2.898  1.2091 -0.3202 -0.5717
 5529SOL    HW228047   2.945   0.518   2.779 -2.4505  0.8676  1.1666
 5530SOL     OW28048   4.668   2.156   1.317 -0.2377 -0.3548 -0.4762
 5530SOL    HW128049   4.630   2.129   1.401  0.7521  1.1007  0.4383
 5530SOL    HW228050   4.684   2.069   1.281  0.2167 -1.2026  1.8103
 5531SOL     OW28051   1.809   2.240   5.092 -0.2492  0.0065 -0.4558
 5531SOL    HW128052   1.864   2.308   5.055  1.4595  0.0417  2.1225
 5531SOL    HW228053   1.868   2.165   5.082  0.8211  0.9322 -1.0342
 5532SOL     OW28054   3.190   3.034   9.012  0.1761 -0.4335 -0.3959
 5532SOL    HW128055   3.220   2.957   9.061 -0.6052  0.4604  1.4838
 5532SOL    HW228056   3.202   3.015   8.919 -0.6730 -2.1356 -0.1486
 5533SOL     OW28057   0.512   3.071   6.814  0.1994  0.1796 -0.4869
 5533SOL    HW128058   0.486   3.106   6.729 -0.1260  0.4027 -0.2974
 5533SOL    HW228059   0.598   3.114   6.819  0.0194  0.4528  0.3995
 5534SOL     OW28060   0.224   2.395  11.950 -0.1001  0.2707  0.1535
 5534SOL    HW128061   0.209   2.403  12.044  0.5643 -1.5489  0.4002
 5534SOL    HW228062   0.254   2.484  11.931 -0.1856  0.6148  1.5984
 5535SOL     OW28063   3.583   4.675  16.174 -0.0782  0.5608  0.5212
 5535SOL    HW128064   3.583   4.618  16.251  0.3622  1.2235  1.0045
 5535SOL    HW228065   3.531   0.027  16.207 -1.7279 -0.5650  0.4795
 5536SOL     OW28066   0.972   0.934   7.877  0.2269 -0.0701  0.3896
 5536SOL    HW128067   0.929   0.922   7.791 -0.3173  0.6970  0.5516
 5536SOL    HW228068   0.987   0.846   7.910  0.9347 -0.4882 -1.0242
 5537SOL     OW28069   3.807   1.958   1.367 -0.6591 -0.4343 -0.3362
 5537SOL    HW128070   3.749   1.955   1.291  1.1769 -0.2928 -1.7515
 5537SOL    HW228071   3.749   2.013   1.419 -1.2824 -0.8768 -0.5640
 5538SOL     OW28072   2.912   0.117  12.917 -0.0960  0.1845  0.3047
 5538SOL    HW128073   2.862   0.162  12.849 -0.7715  1.0999  1.3951
 5538SOL    HW228074   2.949   0.192  12.965 -0.2742 -0.9802  2.2722
 5539SOL     OW28075   2.150   2.702   4.797 -0.2049  0.2206  0.4371
 5539SOL    HW128076   2.054   2.707   4.803 -0.3362 -0.4331 -1.2545
 5539SOL    HW228077   2.166   2.763   4.725  3.4586  0.3559  1.3808
 5540SOL     OW28078   3.493   3.414   1.342  0.3352  0.2876  0.0600
 5540SOL    HW128079   3.428   3.348   1.366 -1.6865  1.7907 -1.2425
 5540SOL    HW228080   3.470   3.444   1.254 -0.8683 -0.2741  0.1889
 5541SOL     OW28081   2.269   3.377   4.480  0.0521  0.3764 -0.0144
 5541SOL    HW128082   2.264   3.356   4.387 -0.5931 -1.3427  0.4004
 5541SOL    HW228083   2.176   3.383   4.503  0.6748 -2.0526  3.1697
 5542SOL     OW28084   4.158   0.594   5.511  0.1281 -0.5684  0.2330
 5542SOL    HW128085   4.224   0.546   5.562 -0.4108 -0.9033  0.6166
 5542SOL    HW228086   4.099   0.521   5.491  1.0731 -0.9175 -1.3150
 5543SOL     OW28087   0.825   0.394  12.877 -0.1455  0.4399 -0.3817
 5543SOL    HW128088   0.803   0.363  12.789  1.9499 -1.5511 -0.1949
 5543SOL    HW228089   0.844   0.488  12.871  1.1877  0.1835 -0.1745
 5544SOL     OW28090   3.459   2.937   0.091 -0.3315 -0.1838  0.0915
 5544SOL    HW128091   3.456   2.882   0.012 -0.1622  1.2486 -0.9209
 5544SOL    HW228092   3.375   2.981   0.075  1.1659  2.7256  0.1289
 5545SOL     OW28093   3.127   1.942   3.898  0.4854 -0.5461 -0.0880
 5545SOL    HW128094   3.051   1.886   3.882 -0.8659  1.2829 -0.1399
 5545SOL    HW228095   3.197   1.905   3.844 -1.3958 -0.2796 -2.6947
 5546SOL     OW28096   1.124   4.277   5.137  0.5902  0.0332  0.1589
 5546SOL    HW128097   1.216   4.299   5.127  0.3245 -0.2821 -2.9435
 5546SOL    HW228098   1.130   4.208   5.202  2.0320 -0.7992 -0.8670
 5547SOL     OW28099   2.391   3.191   5.962  0.4352 -0.6871 -0.4262
 5547SOL    HW128100   2.340   3.137   6.022 -1.2313 -0.9393 -2.0671
 5547SOL    HW228101   2.484   3.180   5.982  0.3605 -1.8017 -0.7051
 5548SOL     OW28102   0.488   2.636  12.107 -0.5272  0.1158  0.6397
 5548SOL    HW128103   0.478   2.713  12.051  2.5529  0.9835  1.2743
 5548SOL    HW228104   0.555   2.585  12.063  0.9475  1.9887  0.7130
 5549SOL     OW28105   3.415   2.053   4.625  0.0540 -0.3497 -0.1856
 5549SOL    HW128106   3.451   2.050   4.537  1.0040  0.4059  0.1768
 5549SOL    HW228107   3.330   2.009   4.623 -1.5219  2.7752 -1.4647
 5550SOL     OW28108   2.978   2.721   4.081  0.0056  0.6298  0.3279
 5550SOL    HW128109   3.026   2.656   4.132  0.3474  0.5547 -0.0949
 5550SOL    HW228110   2.972   2.796   4.140  1.3751 -0.6674  2.1246
 5551SOL     OW28111   0.840   3.501   7.076  0.2842 -0.0707 -0.2629
 5551SOL    HW128112   0.768   3.563   7.067  0.7774  0.4992 -0.2800
 5551SOL    HW228113   0.875   3.502   6.987 -0.4856  0.9157 -0.5429
 5552SOL     OW28114   0.817   2.881   8.094 -0.1224 -0.2965 -0.4273
 5552SOL    HW128115   0.759   2.951   8.126 -1.0320 -1.0464 -0.4424
 5552SOL    HW228116   0.844   2.912   8.008  1.3060 -0.1428  0.0766
 5553SOL     OW28117   1.159   2.419   8.454 -0.0733 -0.0690  0.1189
 5553SOL    HW128118   1.100   2.348   8.428  1.5824 -0.9008 -1.3808
 5553SOL    HW228119   1.116   2.452   8.532 -2.7977  0.4236 -1.6002
 5554SOL     OW28120   2.078   1.785   5.711 -0.0021  0.6067  0.5500
 5554SOL    HW128121   2.085   1.690   5.703  0.0828  0.7942 -1.7120
 5554SOL    HW228122   1.984   1.801   5.700  0.2190  0.4348 -1.6616
 5555SOL     OW28123   0.560   1.229   3.169 -0.1646  0.2506 -0.6031
 5555SOL    HW128124   0.551   1.315   3.129  1.9312  0.7525 -0.0011
 5555SOL    HW228125   0.535   1.176   3.094 -3.4483  0.8819  0.0553
 5556SOL     OW28126   2.859   3.863   8.709  0.2637  0.4714 -0.3314
 5556SOL    HW128127   2.927   3.797   8.718  0.2399  0.4490 -0.3160
 5556SOL    HW228128   2.900   3.938   8.751  0.3628  0.3046 -0.1301
 5557SOL     OW28129   4.103   4.292   4.913 -0.0043  0.3122 -0.8138
 5557SOL    HW128130   4.186   4.322   4.877  0.4190  0.7011  0.4918
 5557SOL    HW228131   4.042   4.364   4.898 -2.1056 -1.2126  0.3329
 5558SOL     OW28132   0.137   1.152   2.664 -0.4440 -0.3542 -0.1195
 5558SOL    HW128133   0.070   1.193   2.718 -1.0188  0.3919 -1.3806
 5558SOL    HW228134   0.210   1.149   2.725  0.9113  0.1783 -1.6918
 5559SOL     OW28135   3.685   3.825   7.344  0.3053  0.5943  0.2815
 5559SOL    HW128136   3.727   3.813   7.429  0.3325 -2.4174 -0.1669
 5559SOL    HW228137   3.635   3.745   7.329  0.6105  0.7995 -1.7459
 5560SOL     OW28138   2.932   3.547  14.127 -0.1789 -0.1655  0.8042
 5560SOL    HW128139   2.896   3.635  14.126 -1.0265 -0.5438 -1.3401
 5560SOL    HW228140   3.014   3.569  14.171  1.3607 -1.4159 -1.4285
 5561SOL     OW28141   3.552   3.019   2.698 -0.0899  0.2947  0.0398
 5561SOL    HW128142   3.503   3.061   2.629 -0.4935 -0.8629 -0.3759
 5561SOL    HW228143   3.531   3.080   2.769  1.0224 -0.6265  1.1794
 5562SOL     OW28144   4.103   1.143   1.476  0.2822  0.2591 -0.1470
 5562SOL    HW128145   4.112   1.141   1.381  0.2264  0.4147 -0.1550
 5562SOL    HW228146   4.040   1.213   1.487  1.0973  0.8065  1.0858
 5563SOL     OW28147   4.222   3.728   2.317  0.4135 -0.0718  0.1738
 5563SOL    HW128148   4.130   3.751   2.312  1.3034  3.7427  1.1456
 5563SOL    HW228149   4.260   3.795   2.375  1.6125 -1.9094  1.5280
 5564SOL     OW28150   3.028   3.813  12.523 -0.3470  0.0896 -0.0041
 5564SOL    HW128151   3.006   3.821  12.431  1.1319  2.3991 -0.1583
 5564SOL    HW228152   2.966   3.743  12.544  1.2969 -1.0778  1.0192
 5565SOL     OW28153   4.137   2.826   7.895 -0.0948 -0.8958  0.0679
 5565SOL    HW128154   4.048   2.809   7.863  0.5006 -0.1619 -1.9536
 5565SOL    HW228155   4.158   2.732   7.892 -0.2014 -0.9607  1.2682
 5566SOL     OW28156   2.602   1.703   6.387 -0.1886 -0.1351 -0.5501
 5566SOL    HW128157   2.564   1.642   6.324 -1.6241  0.0727  0.1154
 5566SOL    HW228158   2.603   1.655   6.470 -1.8978 -1.3741 -1.2497
 5567SOL     OW28159   2.478   1.125   1.313  0.2628  0.6257 -0.5462
 5567SOL    HW128160   2.459   1.031   1.314 -1.3728  0.9813  1.7945
 5567SOL    HW228161   2.391   1.165   1.321  0.4475  1.0964 -0.8789
 5568SOL     OW28162   4.542   1.895   7.650  0.0463  0.0403 -0.1111
 5568SOL    HW128163   4.628   1.936   7.661  0.2182 -0.5407  0.7673
 5568SOL    HW228164   4.566   1.805   7.675 -1.9462 -0.2681  0.6757
 5569SOL     OW28165   0.031   2.351   7.221  0.5414 -0.0259  0.6175
 5569SOL    HW128166   0.087   2.339   7.144  2.7927  1.7794  1.9948
 5569SOL    HW228167   4.685   2.285   7.201  0.5025  0.2910 -0.3184
 5570SOL     OW28168   1.785   2.289   5.604 -0.6207  0.2901 -0.5552
 5570SOL    HW128169   1.865   2.250   5.639 -0.4728 -0.7426 -2.0749
 5570SOL    HW228170   1.822   2.343   5.534 -1.7223 -0.5756 -1.8104
 5571SOL     OW28171   3.475   0.628   6.473 -0.3924  0.6794  0.1901
 5571SOL    HW128172   3.538   0.601   6.541  0.8366  0.6157 -0.9797
 5571SOL    HW228173   3.426   0.699   6.514 -1.3706 -0.4786  1.0545
 5572SOL     OW28174   2.734   3.274   3.630 -0.3006  0.6039 -0.1900
 5572SOL    HW128175   2.701   3.188   3.605  1.4722  0.2080 -1.1886
 5572SOL    HW228176   2.817   3.259   3.586  0.1716  2.7005 -0.0256
 5573SOL     OW28177   0.799   4.598  10.638  0.0797 -0.1375  0.3035
 5573SOL    HW128178   0.709   4.576  10.660 -0.3699 -1.2075 -2.6072
 5573SOL    HW228179   0.805   4.687  10.673  0.4728 -0.0045 -0.0942
 5574SOL     OW28180   1.661   3.833   9.075  0.4837 -0.0714  0.5278
 5574SOL    HW128181   1.659   3.877   9.161 -0.6699 -2.3706  1.6691
 5574SOL    HW228182   1.710   3.755   9.101 -2.9634 -2.2353  0.5894
 5575SOL     OW28183   2.879   2.447   5.304 -0.3189  0.8926 -0.3248
 5575SOL    HW128184   2.891   2.514   5.237 -0.2866  0.0573 -1.1507
 5575SOL    HW228185   2.903   2.498   5.382 -0.0823 -0.3518  0.4209
 5576SOL     OW28186   3.169   1.003  14.998 -0.4761 -0.0159 -0.0601
 5576SOL    HW128187   3.260   1.024  15.018 -0.1563 -0.7632 -0.7228
 5576SOL    HW228188   3.188   0.940  14.928  1.6378  0.5982 -0.0406
 5577SOL     OW28189   4.059   4.317   8.092 -0.1450 -0.5553 -0.4025
 5577SOL    HW128190   4.042   4.243   8.151 -0.8057  1.6664  2.1940
 5577SOL    HW228191   4.119   4.275   8.031 -0.1793 -1.9717  0.5501
 5578SOL     OW28192   3.385   3.437   5.834 -0.0424 -0.4162 -0.1933
 5578SOL    HW128193   3.304   3.488   5.836  2.0099  2.8675 -0.5748
 5578SOL    HW228194   3.387   3.421   5.739  0.5561 -1.8018  0.0607
 5579SOL     OW28195   1.943   2.547   7.202  0.1080 -0.5728  0.4820
 5579SOL    HW128196   1.984   2.625   7.163  0.4852 -1.0211 -0.0155
 5579SOL    HW228197   1.875   2.587   7.256 -0.4711 -3.1707  1.6704
 5580SOL     OW28198   1.453   1.171   3.398  0.5201 -0.1912  0.3275
 5580SOL    HW128199   1.494   1.086   3.384 -1.2870 -1.0001 -0.0491
 5580SOL    HW228200   1.366   1.166   3.358 -0.3471  2.4402  1.9066
 5581SOL     OW28201   2.212   1.109   7.214  0.3379 -0.1065  0.1440
 5581SOL    HW128202   2.188   1.156   7.134  2.6766  2.1159  0.7569
 5581SOL    HW228203   2.275   1.169   7.254  0.9252 -0.7284  0.1508
 5582SOL     OW28204   4.662   3.810   8.199  0.1909 -0.4525 -0.6500
 5582SOL    HW128205   4.627   3.898   8.211  2.2527  0.3456 -0.5523
 5582SOL    HW228206   0.036   3.815   8.197  0.1851  0.8657  2.2148
 5583SOL     OW28207   3.185   3.775   8.607  0.2970 -0.1785  0.0957
 5583SOL    HW128208   3.207   3.682   8.599 -3.2562 -0.7929 -2.3830
 5583SOL    HW228209   3.269   3.816   8.587 -0.6157  0.9271 -1.4360
 5584SOL     OW28210   3.712   1.014   0.329 -0.0203  0.1752  0.2502
 5584SOL    HW128211   3.744   1.080   0.267 -0.2764  1.3771  1.4108
 5584SOL    HW228212   3.791   0.968   0.357  0.8510  0.9322 -0.9522
 5585SOL     OW28213   3.338   2.084  15.053  0.2259 -0.1858 -0.0900
 5585SOL    HW128214   3.251   2.044  15.054  0.4619 -0.6670  0.9293
 5585SOL    HW228215   3.329   2.171  15.013  0.5940  0.3359  0.9563
 5586SOL     OW28216   2.699   4.467  17.051  0.4317 -0.3485  0.8053
 5586SOL    HW128217   2.604   4.478  17.052  0.4109 -0.5312  1.0162
 5586SOL    HW228218   2.710   4.375  17.030 -0.2178  0.0744 -1.3500
 5587SOL     OW28219   2.796   0.231  12.707  0.2772  0.4511 -0.1969
 5587SOL    HW128220   2.846   0.280  12.641 -0.1740  0.0627 -0.8268
 5587SOL    HW228221   2.781   0.143  12.673  1.9902 -0.1618  0.6246
 5588SOL     OW28222   1.875   2.960   8.659 -0.4423  0.0164  0.4214
 5588SOL    HW128223   1.838   2.875   8.634  0.2647 -0.5068  1.1672
 5588SOL    HW228224   1.818   3.026   8.621  0.2641 -0.6626 -1.7902
 5589SOL     OW28225   4.472   3.800   2.889 -0.4610  0.1676  0.5155
 5589SOL    HW128226   4.549   3.743   2.885  1.5396  2.8023  1.6576
 5589SOL    HW228227   4.406   3.745   2.847 -1.2436 -0.4182  2.4936
 5590SOL     OW28228   1.116   2.786   7.932  0.0194  0.0375  0.4834
 5590SOL    HW128229   1.044   2.730   7.904  0.7117 -0.7460  0.2524
 5590SOL    HW228230   1.109   2.785   8.028 -1.0455  2.5703  0.4318
 5591SOL     OW28231   2.744   4.069   9.666  0.2615  0.0983  0.2840
 5591SOL    HW128232   2.807   4.140   9.651  2.0000 -1.2263  1.2256
 5591SOL    HW228233   2.731   4.083   9.760 -0.5582 -2.2004  0.4900
 5592SOL     OW28234   3.935   0.566   4.889  1.0295  0.3730  0.0515
 5592SOL    HW128235   3.841   0.572   4.870  1.5472  0.2445 -2.4613
 5592SOL    HW228236   3.955   0.659   4.884  3.4631 -0.1846 -0.4856
 5593SOL     OW28237   1.900   3.802   8.327 -0.1597 -0.0275  0.3219
 5593SOL    HW128238   1.985   3.773   8.293 -0.7314 -1.3137 -0.0340
 5593SOL    HW228239   1.906   3.800   8.422 -1.4178 -0.0734  0.3960
 5594SOL     OW28240   1.265   0.312  13.602 -0.4372 -0.0263 -0.6804
 5594SOL    HW128241   1.177   0.331  13.635 -0.8892 -2.4411 -0.4957
 5594SOL    HW228242   1.258   0.219  13.622 -0.4349  0.0831 -0.1881
 5595SOL     OW28243   1.530   2.277  10.365 -0.0999  0.2107 -0.2369
 5595SOL    HW128244   1.471   2.344  10.331 -0.1753  1.2987  2.0003
 5595SOL    HW228245   1.596   2.320  10.419 -0.5412  0.0210  0.4695
 5596SOL     OW28246   2.170   2.747   4.032  0.3473  0.0840  0.4508
 5596SOL    HW128247   2.204   2.704   3.954 -2.8908  0.4323 -1.1290
 5596SOL    HW228248   2.145   2.668   4.080 -0.1058 -0.6307 -0.9796
 5597SOL     OW28249   3.137   1.527  16.452 -0.1024  0.2054 -0.6182
 5597SOL    HW128250   3.144   1.591  16.381  1.9164 -0.9100 -1.4595
 5597SOL    HW228251   3.160   1.574  16.532  1.0119 -1.7284  0.2139
 5598SOL     OW28252   0.890   2.627  14.044  0.7646 -0.3685  0.3175
 5598SOL    HW128253   0.850   2.630  14.131  2.4496 -1.8674  1.1490
 5598SOL    HW228254   0.982   2.627  14.071 -0.4575  1.5504  4.4906
 5599SOL     OW28255   4.320   3.442   2.958 -0.0041 -0.4246 -0.2063
 5599SOL    HW128256   4.398   3.414   2.911  0.6135  1.0069 -0.0543
 5599SOL    HW228257   4.255   3.419   2.892  1.3611  0.0900 -1.7605
 5600SOL     OW28258   0.417   0.856   6.138 -0.4409 -0.7253  0.5447
 5600SOL    HW128259   0.335   0.829   6.179 -0.0778 -1.8317  0.5359
 5600SOL    HW228260   0.422   0.771   6.095  0.3817 -0.1454 -0.5010
 5601SOL     OW28261   3.571   0.965  12.850  0.0784  0.0050  0.6003
 5601SOL    HW128262   3.491   0.975  12.799  0.6735  1.1128 -0.1417
 5601SOL    HW228263   3.602   0.879  12.822  2.8789  0.5712  1.8853
 5602SOL     OW28264   2.575   4.097   8.945  0.2913  0.1283 -0.5681
 5602SOL    HW128265   2.628   4.024   8.978 -0.7600  0.2604  1.3958
 5602SOL    HW228266   2.620   4.121   8.864  0.9059 -1.3217 -0.6616
 5603SOL     OW28267   0.750   2.156  14.586 -0.0587 -0.4964 -0.3191
 5603SOL    HW128268   0.705   2.111  14.515  0.1506  0.6539 -1.1894
 5603SOL    HW228269   0.834   2.112  14.593  0.2744  0.5164  2.1906
 5604SOL     OW28270   0.440   2.013   0.686  0.2343 -0.2981 -0.0223
 5604SOL    HW128271   0.453   2.015   0.781  3.0671  0.8584 -0.4142
 5604SOL    HW228272   0.522   1.969   0.664 -0.9224 -0.5273 -3.8165
 5605SOL     OW28273   0.588   0.048   7.206  0.5172  0.5390 -0.3133
 5605SOL    HW128274   0.500   0.058   7.242  0.6744 -0.6873  0.3941
 5605SOL    HW228275   0.588   4.675   7.191  0.6716  0.1895  1.9395
 5606SOL     OW28276   2.321   0.519   6.438  0.3137  0.0675  0.4204
 5606SOL    HW128277   2.377   0.496   6.513  2.1671 -0.3138 -1.0591
 5606SOL    HW228278   2.365   0.469   6.369 -1.5692  2.6103 -2.6082
 5607SOL     OW28279   2.530   2.521   0.891  0.2610  0.4585  0.1899
 5607SOL    HW128280   2.457   2.502   0.951  1.7326 -2.4439  1.0633
 5607SOL    HW228281   2.541   2.445   0.835  0.8934  0.2253  0.6326
 5608SOL     OW28282   3.502   4.108   2.511  0.0581  0.0453 -0.0236
 5608SOL    HW128283   3.464   4.026   2.479 -1.3875  0.5974  0.2329
 5608SOL    HW228284   3.522   4.159   2.432 -0.6537  2.0191  1.0719
 5609SOL     OW28285   0.693   2.290   7.039  0.3492 -0.0568  0.2369
 5609SOL    HW128286   0.724   2.380   7.046 -0.4564  0.1914  0.5852
 5609SOL    HW228287   0.749   2.240   7.099 -0.6294  1.3568  2.3126
 5610SOL     OW28288   1.514   1.893   7.331  0.2104  0.1785  0.2317
 5610SOL    HW128289   1.445   1.958   7.315 -1.5666 -1.3784  1.5206
 5610SOL    HW228290   1.511   1.851   7.245 -3.6268  2.8155 -0.9314
 5611SOL     OW28291   3.042   1.322   5.110  0.4925  0.5432  0.1046
 5611SOL    HW128292   3.120   1.268   5.123  0.9510  1.2219  0.1664
 5611SOL    HW228293   3.054   1.352   5.019  0.6233  0.3753  0.0671
 5612SOL     OW28294   3.675   4.543   6.006 -0.0742 -0.4931 -0.0005
 5612SOL    HW128295   3.620   4.550   6.085  0.8224 -0.0378  0.5831
 5612SOL    HW228296   3.619   4.477   5.965 -0.1704 -0.9864  0.9032
 5613SOL     OW28297   3.682   1.649   1.301 -0.0604 -0.2916 -0.1229
 5613SOL    HW128298   3.656   1.656   1.393  1.3978  2.6212  0.0790
 5613SOL    HW228299   3.658   1.558   1.283 -0.7160 -0.1833  0.1986
 5614SOL     OW28300   1.549   0.119  16.497 -0.4784  0.7656  0.0129
 5614SOL    HW128301   1.586   0.031  16.486  0.3515  1.0014  0.8235
 5614SOL    HW228302   1.529   0.147  16.408  0.2578 -0.3402 -0.4994
 5615SOL     OW28303   0.792   1.888   8.622 -0.8925  0.2865  0.4100
 5615SOL    HW128304   0.846   1.809   8.625 -0.5636  0.5708  1.6067
 5615SOL    HW228305   0.774   1.915   8.712  1.3213  1.4268  0.5088
 5616SOL     OW28306   4.237   0.464  10.472  0.1376  0.0293  0.7385
 5616SOL    HW128307   4.239   0.545  10.421  0.6619 -0.7189 -0.4352
 5616SOL    HW228308   4.145   0.466  10.498 -0.7589 -0.7871 -2.3264
 5617SOL     OW28309   4.099   4.608   3.805  0.0748  0.1135 -0.1663
 5617SOL    HW128310   4.078   4.679   3.866  0.6410  2.3424 -2.5324
 5617SOL    HW228311   4.159   4.561   3.862 -1.2045 -0.4906  0.6562
 5618SOL     OW28312   1.427   1.225   1.141 -0.2421 -0.0297  0.1214
 5618SOL    HW128313   1.390   1.140   1.163 -1.2137  0.2194 -0.5221
 5618SOL    HW228314   1.501   1.199   1.085 -0.1029  0.5920  0.0173
 5619SOL     OW28315   4.031   0.094   1.172 -0.3743  0.7096 -0.3086
 5619SOL    HW128316   4.005   0.111   1.081  2.3056  1.5677 -0.9312
 5619SOL    HW228317   3.948   0.102   1.218 -0.2622  0.3890 -0.0549
 5620SOL     OW28318   1.744   2.901   5.004 -0.7349 -0.0444  0.2944
 5620SOL    HW128319   1.658   2.938   4.985 -0.4390  0.3436 -0.2875
 5620SOL    HW228320   1.798   2.921   4.928  0.4599  3.7914  2.1540
 5621SOL     OW28321   2.879   4.662   7.403  0.1190 -0.2757  0.1801
 5621SOL    HW128322   2.793   4.657   7.444 -0.7185  0.0788 -1.5150
 5621SOL    HW228323   2.884   4.584   7.348  1.5888  0.3808 -0.6054
 5622SOL     OW28324   4.644   0.090   3.931 -0.1034  0.1847  0.5282
 5622SOL    HW128325   4.603   0.125   3.852  1.3744 -0.9348 -0.7244
 5622SOL    HW228326   4.582   0.107   4.002 -0.7391 -1.8910  0.4662
 5623SOL     OW28327   1.339   4.405  14.273  0.2048  0.6065 -0.1786
 5623SOL    HW128328   1.379   4.489  14.297  1.5168 -0.1699  0.3193
 5623SOL    HW228329   1.282   4.428  14.199  1.7011  1.1947 -1.1593
 5624SOL     OW28330   2.135   0.254   6.976 -0.1787  0.6281 -0.4124
 5624SOL    HW128331   2.092   0.315   6.915  2.0287  3.3698  0.7957
 5624SOL    HW228332   2.171   0.314   7.040  1.4021 -1.3170  0.5175
 5625SOL     OW28333   1.485   2.434   7.804 -0.6106 -0.3417 -0.2331
 5625SOL    HW128334   1.516   2.441   7.894  1.6932  2.1015 -1.2055
 5625SOL    HW228335   1.391   2.420   7.814 -0.5315 -0.2216  0.7023
 5626SOL     OW28336   2.799   2.104   4.164  0.0358 -0.3218 -0.5576
 5626SOL    HW128337   2.822   2.114   4.257 -1.1576  0.9276 -0.4002
 5626SOL    HW228338   2.792   2.010   4.151 -0.8642  0.0525 -2.7986
 5627SOL     OW28339   4.624   0.645  10.925  0.0600  0.2107  0.0093
 5627SOL    HW128340   4.577   0.562  10.915 -0.0490  0.2933 -0.1598
 5627SOL    HW228341   4.715   0.633  10.898 -0.1132  2.5163 -1.5909
 5628SOL     OW28342   2.351   3.561   4.701 -0.3749 -0.0343 -0.0293
 5628SOL    HW128343   2.274   3.614   4.681 -1.9977 -2.0688  0.8379
 5628SOL    HW228344   2.370   3.524   4.615 -2.0812  0.6072 -0.6732
 5629SOL     OW28345   0.334   4.080  12.035 -0.0298  0.8939  0.6425
 5629SOL    HW128346   0.345   3.991  12.002 -1.6961  1.4869 -1.5154
 5629SOL    HW228347   0.419   4.091  12.077  0.9035 -2.5884 -0.3397
 5630SOL     OW28348   2.645   3.068   7.824  0.2050 -0.1204  0.0669
 5630SOL    HW128349   2.677   3.063   7.734  2.3358  1.9188  0.6986
 5630SOL    HW228350   2.550   3.056   7.820  0.1945  0.1847 -0.5762
 5631SOL     OW28351   3.878   3.879   7.566  0.3129  0.2614  0.3756
 5631SOL    HW128352   3.821   3.901   7.640 -2.4047 -2.1014 -1.0301
 5631SOL    HW228353   3.855   3.956   7.513 -1.4115 -0.9476 -0.6421
 5632SOL     OW28354   1.558   0.144   3.888 -0.0900 -0.4125 -0.0510
 5632SOL    HW128355   1.517   0.061   3.863 -1.3886 -0.1714  1.3289
 5632SOL    HW228356   1.499   0.202   3.840  1.7346 -0.0791 -1.8816
 5633SOL     OW28357   3.442   3.135   2.455 -0.1287  0.2334 -0.7509
 5633SOL    HW128358   3.365   3.118   2.400 -0.6450 -0.9921  0.3540
 5633SOL    HW228359   3.511   3.134   2.389 -0.7828  0.7595 -1.4459
 5634SOL     OW28360   3.470   2.020   8.470 -0.1607  0.1421  0.3683
 5634SOL    HW128361   3.516   2.092   8.513  0.0703 -0.5615  1.3098
 5634SOL    HW228362   3.383   2.027   8.510  0.1077 -0.2723  1.0228
 5635SOL     OW28363   1.477   3.952   6.261  0.0326 -0.3676 -0.0245
 5635SOL    HW128364   1.503   3.894   6.333  0.9359  1.3368  1.0184
 5635SOL    HW228365   1.421   4.017   6.303  0.6137  0.9011 -1.2158
 5636SOL     OW28366   0.699   1.010   2.649 -0.2367  0.4020 -0.5839
 5636SOL    HW128367   0.785   0.973   2.669  0.5518  1.6626 -1.6562
 5636SOL    HW228368   0.718   1.099   2.679  1.3091  0.1193 -0.7366
 5637SOL     OW28369   0.097   3.819   6.858 -0.0049 -0.0735  0.3852
 5637SOL    HW128370   0.181   3.860   6.876  0.9772 -1.2721 -1.4988
 5637SOL    HW228371   0.068   3.875   6.786  1.8319 -2.0723 -1.9142
 5638SOL     OW28372   4.681   2.421   1.428  0.4570 -0.3189  0.2982
 5638SOL    HW128373   4.652   2.330   1.416  1.0240 -0.2065 -1.8682
 5638SOL    HW228374   0.023   2.406   1.498 -1.6568 -1.3033  1.9937
 5639SOL     OW28375   3.169   1.173   2.644  0.1288  0.5710  0.4819
 5639SOL    HW128376   3.244   1.221   2.610  0.4187  0.1906  0.5897
 5639SOL    HW228377   3.096   1.205   2.590 -0.7707 -1.8317  0.2888
 5640SOL     OW28378   2.159   0.105   0.034  0.1275  0.3949 -0.5991
 5640SOL    HW128379   2.073   0.145   0.026  0.6063  1.3696 -0.8982
 5640SOL    HW228380   2.177   0.096  17.628  2.7125 -0.3665 -0.0354
 5641SOL     OW28381   0.705   4.015   7.307  0.1090 -0.6755 -0.4819
 5641SOL    HW128382   0.765   4.090   7.310 -0.1495 -0.4310 -1.4202
 5641SOL    HW228383   0.702   3.989   7.399 -0.1253 -1.3981 -0.6919
 5642SOL     OW28384   0.100   4.390  14.041  0.0624 -0.1233 -0.1921
 5642SOL    HW128385   0.115   4.297  14.058  0.5460  0.0615  0.3643
 5642SOL    HW228386   0.191   4.417  14.045 -0.4859  1.5585  0.8803
 5643SOL     OW28387   2.748   2.989  10.025 -0.8915 -0.7009  0.6072
 5643SOL    HW128388   2.738   2.956  10.114  0.3798 -0.3045  0.8918
 5643SOL    HW228389   2.791   3.072  10.044  1.3770 -1.7075 -0.2113
 5644SOL     OW28390   0.648   1.807   7.842  0.5047  0.5130 -0.0262
 5644SOL    HW128391   0.731   1.762   7.825  0.6247  1.0517 -0.8536
 5644SOL    HW228392   0.649   1.803   7.938 -0.1960 -2.1598 -0.1500
 5645SOL     OW28393   4.471   4.058   2.826 -0.3730  0.2709  0.1724
 5645SOL    HW128394   4.380   4.085   2.811  0.3923  1.9553 -1.4061
 5645SOL    HW228395   4.467   3.964   2.843 -2.1454 -0.2173 -2.9925
 5646SOL     OW28396   3.210   0.780   5.221 -0.2850  0.4901 -0.5645
 5646SOL    HW128397   3.295   0.737   5.216 -0.5357 -0.0880  0.2771
 5646SOL    HW228398   3.173   0.759   5.306 -1.3366  1.7603 -0.7105
 5647SOL     OW28399   0.706   4.303   3.376 -0.0496  0.0384 -0.2275
 5647SOL    HW128400   0.788   4.353   3.384 -2.2416  3.7084 -0.7581
 5647SOL    HW228401   0.639   4.364   3.347  1.4115  1.6790 -0.1466
 5648SOL     OW28402   0.328   2.050  14.169  0.2140  0.0324 -0.1971
 5648SOL    HW128403   0.261   1.989  14.138  0.6866 -0.2897 -0.5956
 5648SOL    HW228404   0.403   2.012  14.123 -0.2044  0.2846 -1.0880
 5649SOL     OW28405   0.761   4.327   4.150 -0.3007 -0.0290 -0.0238
 5649SOL    HW128406   0.747   4.262   4.219 -0.8896  0.3386  0.2093
 5649SOL    HW228407   0.669   4.355   4.147  0.3949  2.4331  1.5321
 5650SOL     OW28408   3.819   3.249   3.133  0.4599  0.3982 -0.3603
 5650SOL    HW128409   3.734   3.249   3.178 -0.9546  1.5776 -3.0238
 5650SOL    HW228410   3.864   3.185   3.188  1.0896 -0.0600 -1.4136
 5651SOL     OW28411   3.484   3.246   6.837 -0.3336 -0.2168 -0.1329
 5651SOL    HW128412   3.460   3.174   6.895 -2.0506  0.8850  0.5036
 5651SOL    HW228413   3.553   3.210   6.781  1.2844  2.3663  0.2322
 5652SOL     OW28414   3.617   3.711   3.777 -0.0982  0.3221  0.4938
 5652SOL    HW128415   3.584   3.768   3.847 -1.0692 -2.1585  2.0800
 5652SOL    HW228416   3.700   3.679   3.813  0.4949  1.1414 -0.1406
 5653SOL     OW28417   2.479   3.406   9.214  0.1876  0.0583  0.3927
 5653SOL    HW128418   2.494   3.413   9.119 -2.5101 -0.6660 -0.0808
 5653SOL    HW228419   2.424   3.328   9.215 -0.8516  0.7775 -0.4063
 5654SOL     OW28420   4.010   1.864   4.174  0.9661  0.0625  0.1038
 5654SOL    HW128421   3.994   1.956   4.198 -2.2394 -0.7874  1.2163
 5654SOL    HW228422   4.030   1.872   4.081 -0.1119 -0.8429 -0.1925
 5655SOL     OW28423   4.358   2.634   8.598  0.4490 -0.1818  0.3019
 5655SOL    HW128424   4.336   2.717   8.555 -2.3131  0.4612  2.9896
 5655SOL    HW228425   4.429   2.594   8.547 -0.5780 -1.1355 -0.3712
 5656SOL     OW28426   2.942   4.106   0.034  0.3898  0.3639  0.2883
 5656SOL    HW128427   2.882   4.135   0.103 -1.4588 -2.6474 -0.0311
 5656SOL    HW228428   2.990   4.187   0.018 -1.1381  1.0529 -0.7051
 5657SOL     OW28429   1.488   1.871   1.591 -0.4703 -0.0380  0.0319
 5657SOL    HW128430   1.469   1.835   1.504  1.8048 -3.7802  1.0765
 5657SOL    HW228431   1.465   1.790   1.637  0.2088  0.0361  0.5070
 5658SOL     OW28432   1.234   3.046  13.259  0.0249  0.0486  0.0864
 5658SOL    HW128433   1.228   3.059  13.354  0.5774 -1.3279  0.3059
 5658SOL    HW228434   1.324   3.075  13.245  0.5172 -1.6742 -0.1986
 5659SOL     OW28435   2.184   3.025   4.864  0.2061  0.5951 -0.6571
 5659SOL    HW128436   2.114   2.961   4.862 -0.6185  1.3915  2.9747
 5659SOL    HW228437   2.220   3.000   4.779 -0.3544  0.3774 -0.8246
 5660SOL     OW28438   2.661   0.198   4.954 -0.6041 -0.0456  0.2791
 5660SOL    HW128439   2.717   0.124   4.931  1.1427  2.1691 -2.6344
 5660SOL    HW228440   2.703   0.239   5.030 -0.4853  2.0899 -0.9367
 5661SOL     OW28441   1.860   1.127   7.762  0.4208  0.7165  0.1146
 5661SOL    HW128442   1.884   1.102   7.672  0.6477  2.4261 -0.2927
 5661SOL    HW228443   1.946   1.123   7.802  0.3695  0.3926  0.1935
 5662SOL     OW28444   2.764   2.133   3.664  0.3798 -0.1932 -0.1951
 5662SOL    HW128445   2.845   2.090   3.637 -1.0305 -0.9939 -3.1286
 5662SOL    HW228446   2.732   2.156   3.578 -0.9986 -0.4633  0.2524
 5663SOL     OW28447   0.463   1.152   1.928 -0.1267  0.2561  0.5430
 5663SOL    HW128448   0.480   1.144   1.834 -0.6902 -0.2270  0.4804
 5663SOL    HW228449   0.469   1.065   1.967 -0.8155  0.9105  2.1212
 5664SOL     OW28450   0.081   0.865   6.603  0.3807 -0.0810 -0.3059
 5664SOL    HW128451   0.096   0.813   6.682 -0.9050 -0.6720 -0.4589
 5664SOL    HW228452   4.720   0.906   6.630 -0.0245 -0.5981 -0.7851
 5665SOL     OW28453   0.013   4.051   7.726  0.5319 -0.0957  0.6252
 5665SOL    HW128454   4.687   3.978   7.685  0.1027  0.8894 -0.6220
 5665SOL    HW228455   0.034   4.111   7.655  0.5895 -1.0901 -0.1918
 5666SOL     OW28456   3.744   2.174   6.237 -0.3825  0.1230 -0.1965
 5666SOL    HW128457   3.724   2.267   6.223 -0.8116  0.2185  1.0256
 5666SOL    HW228458   3.802   2.194   6.311 -0.8882 -0.2380  0.3024
 5667SOL     OW28459   1.779   2.318   4.354  0.9946 -0.5237  0.0473
 5667SOL    HW128460   1.811   2.388   4.297  1.5920 -1.9247 -1.3424
 5667SOL    HW228461   1.859   2.288   4.398  0.7527 -0.3535  0.6029
 5668SOL     OW28462   2.419   1.173   8.233 -0.4585 -0.0332  0.1385
 5668SOL    HW128463   2.418   1.263   8.200  0.7134 -0.5895 -1.3725
 5668SOL    HW228464   2.342   1.165   8.290 -2.1868 -0.9032 -2.3272
 5669SOL     OW28465   3.381   0.342   2.231 -0.7063 -0.1354  0.5548
 5669SOL    HW128466   3.342   0.406   2.172 -0.5453  0.7114  1.3668
 5669SOL    HW228467   3.362   0.385   2.314  2.5317 -2.7658  2.6747
 5670SOL     OW28468   4.054   0.113   7.901 -0.1697  0.3185  0.2801
 5670SOL    HW128469   4.080   0.144   7.988 -1.8349  1.3703  0.3994
 5670SOL    HW228470   4.043   0.021   7.927  0.3300  0.0791 -0.3588
 5671SOL     OW28471   1.862   4.267   8.766 -0.1282  0.5312 -0.7929
 5671SOL    HW128472   1.783   4.212   8.771 -0.5723  1.3933  1.8719
 5671SOL    HW228473   1.901   4.254   8.852 -1.8771  1.2225  0.1093
 5672SOL     OW28474   0.321   2.569   5.857  0.6461 -0.0892 -0.0953
 5672SOL    HW128475   0.392   2.532   5.805 -0.0437 -1.6149  0.0400
 5672SOL    HW228476   0.296   2.651   5.814 -2.6660 -1.4634 -0.7831
 5673SOL     OW28477   2.336   4.371   3.337 -0.0154  0.0678 -0.4846
 5673SOL    HW128478   2.329   4.277   3.353  0.0172  0.1540  0.0367
 5673SOL    HW228479   2.252   4.387   3.293  1.1071 -0.0876 -2.6824
 5674SOL     OW28480   0.020   2.569   2.549 -0.8563  0.0086 -0.4400
 5674SOL    HW128481   0.050   2.511   2.619 -1.6411 -0.5569 -0.5657
 5674SOL    HW228482   0.087   2.563   2.480  0.8916 -0.7672  1.3229
 5675SOL     OW28483   3.458   4.348  11.716  0.3196 -0.1839  0.5518
 5675SOL    HW128484   3.460   4.378  11.807 -1.8650 -0.8289  0.8196
 5675SOL    HW228485   3.546   4.374  11.692  0.1500 -0.5121 -0.4524
 5676SOL     OW28486   4.037   3.620   2.911  0.0267 -0.4878 -0.0054
 5676SOL    HW128487   4.000   3.582   2.991 -1.1921  0.1970 -0.2456
 5676SOL    HW228488   3.975   3.693   2.907 -0.4581 -0.8823  0.1872
 5677SOL     OW28489   4.377   3.480   6.632 -0.0042 -0.4281 -0.2850
 5677SOL    HW128490   4.472   3.491   6.624  0.1231 -1.9788 -0.9369
 5677SOL    HW228491   4.367   3.552   6.695 -0.3002  0.4130 -1.3029
 5678SOL     OW28492   1.809   0.857   5.783  0.6969 -0.3948  0.0063
 5678SOL    HW128493   1.718   0.884   5.790  1.3837  1.2251  2.8247
 5678SOL    HW228494   1.792   0.771   5.745 -1.3172  0.8413 -1.8674
 5679SOL     OW28495   0.926   3.676   2.769 -0.1573 -0.0535  0.5533
 5679SOL    HW128496   0.978   3.757   2.775 -0.0062 -0.1500  0.5479
 5679SOL    HW228497   0.845   3.703   2.726 -1.4269 -2.1010  1.6985
 5680SOL     OW28498   2.763   3.984  10.667 -0.6879 -0.1953 -0.4463
 5680SOL    HW128499   2.764   3.889  10.669 -1.0446 -0.1274  2.3475
 5680SOL    HW228500   2.838   4.011  10.721  0.9754  0.9515 -3.3171
 5681SOL     OW28501   2.607   4.102   2.421 -0.4872 -0.1859 -0.2388
 5681SOL    HW128502   2.635   4.077   2.333 -0.8307 -1.7892  0.1023
 5681SOL    HW228503   2.603   4.197   2.413  1.1667 -0.1578 -0.7766
 5682SOL     OW28504   3.027   0.080   8.644 -0.1030 -0.4782  0.1218
 5682SOL    HW128505   3.080   4.721   8.645  1.4754  0.5731 -0.1439
 5682SOL    HW228506   3.022   0.101   8.551 -1.7835 -0.7033  0.1586
 5683SOL     OW28507   2.694   1.550   5.249  0.4749 -0.4963 -0.4167
 5683SOL    HW128508   2.771   1.594   5.215  1.6303 -1.1256  1.3537
 5683SOL    HW228509   2.639   1.624   5.275  0.9547 -0.0688 -0.6432
 5684SOL     OW28510   2.469   0.870   1.861 -0.2559 -0.3379 -0.1139
 5684SOL    HW128511   2.481   0.830   1.947  0.1736  1.5677  0.7068
 5684SOL    HW228512   2.552   0.866   1.815 -1.2079 -0.5145 -1.8177
 5685SOL     OW28513   3.111   0.668   2.997 -0.5392  0.2535 -0.2637
 5685SOL    HW128514   3.143   0.734   3.058  1.3353  0.1205 -1.0739
 5685SOL    HW228515   3.022   0.698   2.982 -0.7830  0.2788  1.3290
 5686SOL     OW28516   1.520   4.051   4.151 -0.4533 -0.1594 -0.0564
 5686SOL    HW128517   1.578   3.998   4.207  0.4040  1.2786  0.4172
 5686SOL    HW228518   1.493   3.988   4.084  0.1730 -2.0294  1.4314
 5687SOL     OW28519   4.498   1.634   2.179  0.4636 -0.4631  0.0621
 5687SOL    HW128520   4.565   1.571   2.151  0.8387  0.7408 -1.7758
 5687SOL    HW228521   4.445   1.635   2.100 -1.0020 -1.4490  1.0304
 5688SOL     OW28522   0.139   3.652   8.898 -0.0020 -0.5108  0.1081
 5688SOL    HW128523   0.092   3.611   8.971 -1.5651  0.3322 -0.4334
 5688SOL    HW228524   0.152   3.739   8.935  1.2468 -0.4872 -0.3721
 5689SOL     OW28525   4.469   2.611   3.659  0.1748  0.5815  0.0720
 5689SOL    HW128526   4.460   2.704   3.636 -1.9166  0.6263  1.0824
 5689SOL    HW228527   4.534   2.574   3.599  0.0103 -0.7282  0.7169
 5690SOL     OW28528   0.638   2.547   5.001 -0.2898  0.3385 -0.0821
 5690SOL    HW128529   0.629   2.452   5.013 -1.5686  0.6374  1.3354
 5690SOL    HW228530   0.579   2.563   4.927  0.6057 -1.1795 -1.1137
 5691SOL     OW28531   0.515   2.237  16.715  0.3688 -1.0443 -0.5018
 5691SOL    HW128532   0.595   2.277  16.750  0.5831 -2.2106  0.3775
 5691SOL    HW228533   0.471   2.216  16.797 -0.6399  0.7760 -0.5849
 5692SOL     OW28534   2.202   0.789  11.071  0.0376  0.0162 -0.2531
 5692SOL    HW128535   2.142   0.736  11.019 -0.3223  0.7231 -0.5539
 5692SOL    HW228536   2.189   0.873  11.028  0.3577  1.0033  1.5797
 5693SOL     OW28537   1.913   2.362  10.191 -0.1416 -0.8329 -0.0802
 5693SOL    HW128538   1.960   2.295  10.142  0.4125 -0.9148  0.5657
 5693SOL    HW228539   1.915   2.325  10.279 -0.3686 -2.7415 -0.8795
 5694SOL     OW28540   3.166   3.383   4.673  0.6050  0.1519  0.2868
 5694SOL    HW128541   3.240   3.332   4.705  1.9441  0.4090 -2.3948
 5694SOL    HW228542   3.192   3.400   4.582 -2.3695  0.7166 -0.4340
 5695SOL     OW28543   1.520   2.376   5.498 -0.1662 -0.1852  0.1803
 5695SOL    HW128544   1.546   2.383   5.406 -0.2043  1.6985  0.3055
 5695SOL    HW228545   1.610   2.362   5.530 -0.0791  0.5427  0.2531
 5696SOL     OW28546   1.184   3.361  13.285 -0.0349 -0.0501  0.0111
 5696SOL    HW128547   1.116   3.306  13.247 -1.1402  1.6143 -0.3988
 5696SOL    HW228548   1.198   3.311  13.366 -0.7090  2.5042  1.6744
 5697SOL     OW28549   4.324   3.208   1.012 -0.4824  0.1528  0.2165
 5697SOL    HW128550   4.359   3.280   1.064 -0.0831  2.6807 -3.5398
 5697SOL    HW228551   4.232   3.233   0.997 -0.4197  1.7760  2.6514
 5698SOL     OW28552   3.288   3.946   2.387 -0.5042 -0.2192  0.0607
 5698SOL    HW128553   3.215   3.885   2.378 -0.1144 -0.7522  0.5221
 5698SOL    HW228554   3.263   3.988   2.469  1.1702  0.2038  0.3525
 5699SOL     OW28555   3.528   0.690   9.806  0.4417 -0.3872  0.4594
 5699SOL    HW128556   3.462   0.655   9.746  2.2917 -0.4542 -1.5451
 5699SOL    HW228557   3.492   0.778   9.817  0.3098 -0.3065 -0.6228
 5700SOL     OW28558   4.043   1.003   7.227  0.0018  0.2949 -0.4467
 5700SOL    HW128559   4.060   1.057   7.304 -0.8566 -0.1815  0.0774
 5700SOL    HW228560   4.122   0.952   7.211  0.4828  0.4457  1.4466
 5701SOL     OW28561   3.206   4.075   4.982 -0.5527 -0.3316 -0.2530
 5701SOL    HW128562   3.182   4.167   4.971  0.1675 -0.2822 -1.3951
 5701SOL    HW228563   3.301   4.072   4.990 -0.5111  0.5721 -0.3728
 5702SOL     OW28564   0.514   4.405  15.462 -0.6463 -0.2597 -0.1210
 5702SOL    HW128565   0.498   4.313  15.481 -2.8995  0.3792  1.0760
 5702SOL    HW228566   0.431   4.423  15.419 -0.7644 -1.8082 -0.5373
 5703SOL     OW28567   2.296   0.649   1.698 -0.2085  0.5550  0.4271
 5703SOL    HW128568   2.210   0.636   1.657  1.0871 -1.2148 -1.7326
 5703SOL    HW228569   2.277   0.641   1.791 -1.6538  0.9972  0.1755
 5704SOL     OW28570   0.879   2.898  14.395  0.1019  0.0922 -0.4549
 5704SOL    HW128571   0.946   2.962  14.370  1.5332 -1.6045 -0.8962
 5704SOL    HW228572   0.801   2.954  14.399 -0.4743 -0.6728 -1.0871
 5705SOL     OW28573   2.838   0.770   2.999 -0.2424  0.1255 -0.0126
 5705SOL    HW128574   2.766   0.709   3.014  0.7908 -0.5629  2.1981
 5705SOL    HW228575   2.798   0.810   2.922  1.4051 -1.1365 -1.5442
 5706SOL     OW28576   1.599   2.102   4.615 -0.6236 -0.0524 -0.2468
 5706SOL    HW128577   1.509   2.099   4.583 -1.2364  2.4027  1.1784
 5706SOL    HW228578   1.605   2.198   4.618 -0.6541 -0.0702  0.4002
 5707SOL     OW28579   1.263   0.775  14.182 -0.1282 -0.0560 -0.0391
 5707SOL    HW128580   1.271   0.693  14.230 -1.2526 -0.7933 -1.1020
 5707SOL    HW228581   1.208   0.757  14.106  0.0776  0.0648 -0.2175
 5708SOL     OW28582   2.364   0.635   4.575 -0.8886  0.7991  0.6218
 5708SOL    HW128583   2.415   0.698   4.523 -0.6929 -0.5606 -0.8309
 5708SOL    HW228584   2.366   0.673   4.663 -1.0700 -1.1095  1.4635
 5709SOL     OW28585   2.348   4.472   2.116  0.0645 -0.0353  0.4917
 5709SOL    HW128586   2.275   4.512   2.068  0.1355 -0.0569  0.3641
 5709SOL    HW228587   2.427   4.514   2.083 -0.8620 -1.1717 -3.2197
 5710SOL     OW28588   3.322   1.169   7.193  0.7757 -0.3031 -0.2559
 5710SOL    HW128589   3.257   1.102   7.215 -1.8626  1.8551 -1.3609
 5710SOL    HW228590   3.360   1.189   7.279  2.3959 -1.0228 -0.8165
 5711SOL     OW28591   4.382   4.298  12.988  0.5598  0.6405  0.0446
 5711SOL    HW128592   4.327   4.302  13.067 -1.4218 -2.5806 -1.1740
 5711SOL    HW228593   4.467   4.273  13.024  0.7974 -1.0870 -1.7255
 5712SOL     OW28594   2.732   3.179   2.930  0.5883 -0.4787  0.0478
 5712SOL    HW128595   2.697   3.136   2.852  0.4229  0.0695 -0.1837
 5712SOL    HW228596   2.667   3.248   2.946  0.4688 -0.8373  1.0912
 5713SOL     OW28597   3.587   4.251  14.527 -0.0639  0.0442 -0.1098
 5713SOL    HW128598   3.501   4.280  14.499  0.4529  0.3975 -1.2973
 5713SOL    HW228599   3.634   4.330  14.503 -0.5646  0.2991 -0.2422
 5714SOL     OW28600   0.408   1.648  11.718  0.1281  0.1966  0.6539
 5714SOL    HW128601   0.362   1.721  11.676 -0.1357  0.5718  1.6011
 5714SOL    HW228602   0.491   1.652  11.671  0.2720  3.2850  1.1613
 5715SOL     OW28603   2.955   4.026   2.351  0.2863  1.0180  0.5129
 5715SOL    HW128604   2.991   3.982   2.428 -2.0035 -0.9353  0.4608
 5715SOL    HW228605   2.985   4.116   2.361  0.9947  0.9040 -0.5345
 5716SOL     OW28606   1.498   3.723   6.896  0.1428 -0.4048  0.5024
 5716SOL    HW128607   1.498   3.637   6.853  0.6141 -0.6808  1.0483
 5716SOL    HW228608   1.484   3.685   6.983  1.3339 -1.6079  0.1712
 5717SOL     OW28609   1.179   4.211   7.613 -0.4507 -0.6448 -0.0216
 5717SOL    HW128610   1.148   4.294   7.652  3.2736  1.7232 -2.0914
 5717SOL    HW228611   1.155   4.148   7.681 -1.6811  1.6806  1.7149
 5718SOL     OW28612   4.425   2.128   4.145  0.2928  0.2833 -0.3387
 5718SOL    HW128613   4.393   2.166   4.063  1.3919 -2.9424 -2.2588
 5718SOL    HW228614   4.518   2.144   4.137 -0.1645  2.9753 -0.2347
 5719SOL     OW28615   1.053   2.609   8.610  0.1504 -0.3655  0.0063
 5719SOL    HW128616   0.984   2.619   8.676 -0.9936 -0.1204 -1.2341
 5719SOL    HW228617   1.096   2.694   8.604  1.8440 -1.1167  1.5297
 5720SOL     OW28618   0.383   2.535   2.022 -0.0366 -0.1453  0.1834
 5720SOL    HW128619   0.347   2.623   2.021 -1.7637 -0.8802 -1.3436
 5720SOL    HW228620   0.311   2.487   2.061 -1.8324  2.0487 -0.4503
 5721SOL     OW28621   0.995   3.949   6.327 -0.4529  0.2652 -0.5685
 5721SOL    HW128622   1.037   3.950   6.413 -1.5784 -1.4044  0.0089
 5721SOL    HW228623   0.914   3.900   6.340  0.0482  0.5565  3.6407
 5722SOL     OW28624   1.282   2.881   3.276  0.3055 -0.4966  0.3989
 5722SOL    HW128625   1.215   2.948   3.262  0.0396 -0.9178 -0.3316
 5722SOL    HW228626   1.223   2.813   3.244 -0.7678  0.5610  0.1098
 5723SOL     OW28627   4.025   3.050   7.255  0.4927  0.3377  0.1002
 5723SOL    HW128628   4.076   3.131   7.254  0.2719  0.4778  0.6586
 5723SOL    HW228629   4.042   3.016   7.343  4.1723 -2.0339 -1.5207
 5724SOL     OW28630   3.603   0.848   2.372  0.1343  0.2420 -0.1858
 5724SOL    HW128631   3.531   0.860   2.434  1.4818 -0.8681  1.6242
 5724SOL    HW228632   3.565   0.826   2.287 -1.0885 -0.4248  0.5441
 5725SOL     OW28633   4.354   4.388   0.042  0.1837 -0.1071  0.7841
 5725SOL    HW128634   4.311   4.382   0.127 -2.0177  1.8821 -0.1775
 5725SOL    HW228635   4.324   4.473   0.008  0.8859 -0.1986 -0.0565
 5726SOL     OW28636   2.555   4.043   5.164  0.1868 -0.7428  0.1590
 5726SOL    HW128637   2.477   4.083   5.124  1.0266 -1.2320 -1.9841
 5726SOL    HW228638   2.565   3.975   5.096 -0.7559 -1.1820  0.4457
 5727SOL     OW28639   1.012   1.651   8.775  0.6788 -0.7459  0.1995
 5727SOL    HW128640   1.067   1.660   8.853 -1.3443 -0.6724  1.6169
 5727SOL    HW228641   1.076   1.687   8.712 -0.7441 -1.6016 -1.7229
 5728SOL     OW28642   3.805   4.682   1.294  0.2363  0.1735  0.0397
 5728SOL    HW128643   3.728   4.708   1.344  0.2236  1.0677 -0.4545
 5728SOL    HW228644   3.805   4.588   1.313 -0.9811  0.0815 -0.4073
 5729SOL     OW28645   1.292   4.187   6.829 -0.0021  0.2801 -0.0076
 5729SOL    HW128646   1.329   4.130   6.762  0.2476 -0.1080  0.4538
 5729SOL    HW228647   1.221   4.233   6.784  0.2378  0.5538 -0.1075
 5730SOL     OW28648   0.897   4.373   5.356  0.1136  0.2343 -0.3707
 5730SOL    HW128649   0.823   4.345   5.302 -0.4039  0.9011 -0.0025
 5730SOL    HW228650   0.880   4.310   5.426 -0.5056  0.1820 -0.5661
 5731SOL     OW28651   3.609   3.549   0.515  0.3093  0.9069 -0.0827
 5731SOL    HW128652   3.658   3.572   0.437  0.4989 -0.2415 -0.3053
 5731SOL    HW228653   3.562   3.632   0.529 -2.5415 -0.5937 -0.7326
 5732SOL     OW28654   3.309   3.984   9.552  0.1065 -0.6027  0.2503
 5732SOL    HW128655   3.258   4.044   9.606 -2.2800 -2.1365 -0.2789
 5732SOL    HW228656   3.239   3.932   9.512  0.9112 -1.7280  0.2937
 5733SOL     OW28657   4.634   3.830   4.539  0.2397 -0.8824  0.8346
 5733SOL    HW128658   4.689   3.908   4.524  2.0382 -2.2646  0.3023
 5733SOL    HW228659   4.698   3.763   4.517  3.4669  2.3079  0.3630
 5734SOL     OW28660   1.209   4.529   4.768  0.1115  0.0121 -0.1678
 5734SOL    HW128661   1.180   4.492   4.684  1.1252  1.5282 -1.1817
 5734SOL    HW228662   1.191   4.619   4.741  0.3752  0.0918 -0.0751
 5735SOL     OW28663   1.097   3.455  17.352  0.1746 -0.6460 -0.4555
 5735SOL    HW128664   1.172   3.397  17.361  2.0685  1.9251  0.3101
 5735SOL    HW228665   1.112   3.512  17.276 -0.6741  0.3951  0.1607
 5736SOL     OW28666   0.463   1.659   9.376 -0.0400  0.4272 -0.1940
 5736SOL    HW128667   0.449   1.638   9.284  0.6255  1.9922 -0.6621
 5736SOL    HW228668   0.373   1.638   9.401  0.4822 -0.0497  1.3204
 5737SOL     OW28669   3.180   0.105   3.713  0.2991 -0.1463 -0.1734
 5737SOL    HW128670   3.125   0.062   3.779 -1.4948  2.1113 -0.2190
 5737SOL    HW228671   3.131   0.089   3.633  0.1700 -1.2537  0.1223
 5738SOL     OW28672   2.128   2.581  14.874  0.0592  0.1098  0.1023
 5738SOL    HW128673   2.068   2.559  14.944  0.1334  1.7845  0.6978
 5738SOL    HW228674   2.198   2.515  14.874 -0.9742 -0.9751 -3.9928
 5739SOL     OW28675   0.634   1.617   3.562 -0.0641 -0.4866 -0.0866
 5739SOL    HW128676   0.642   1.563   3.484  0.8340 -0.0752 -0.2828
 5739SOL    HW228677   0.712   1.670   3.544 -0.6421  1.0169  1.8316
 5740SOL     OW28678   3.235   0.879   8.374 -0.1665  0.1402 -0.0094
 5740SOL    HW128679   3.303   0.812   8.368  1.5083  1.8886 -0.2683
 5740SOL    HW228680   3.274   0.961   8.344  1.4628 -0.5205  0.2995
 5741SOL     OW28681   2.502   4.668  13.594  0.4001  0.7030  0.2914
 5741SOL    HW128682   2.498   4.591  13.537  1.3827 -0.6080  1.9852
 5741SOL    HW228683   2.418   4.710  13.578 -0.5657 -2.2348 -2.2919
 5742SOL     OW28684   0.171   4.264  12.673  0.4059  0.3990 -0.4386
 5742SOL    HW128685   0.152   4.276  12.766  1.2937 -3.1635  0.1990
 5742SOL    HW228686   0.087   4.268  12.628 -0.8691 -0.2578  1.9184
 5743SOL     OW28687   2.199   3.850   2.018 -0.0233 -0.2611  0.6307
 5743SOL    HW128688   2.290   3.872   2.037  0.4611 -0.3422 -1.5876
 5743SOL    HW228689   2.152   3.930   2.040  1.0434  0.6349 -0.3349
 5744SOL     OW28690   1.504   1.732   5.477 -0.0452  0.0247 -0.1832
 5744SOL    HW128691   1.426   1.786   5.483  0.4269  0.6023  0.6984
 5744SOL    HW228692   1.485   1.658   5.535  1.9325  0.1189  0.5854
 5745SOL     OW28693   2.606   0.996   6.153  0.0617  0.0277 -0.3270
 5745SOL    HW128694   2.684   0.940   6.160 -0.9822 -1.1809  1.5916
 5745SOL    HW228695   2.591   1.031   6.241 -0.3281 -0.7602 -0.0772
 5746SOL     OW28696   0.718   3.934   7.569  0.5550 -0.1682 -0.9094
 5746SOL    HW128697   0.641   3.884   7.595  2.2762 -1.8307  1.0799
 5746SOL    HW228698   0.780   3.861   7.559 -0.3636 -0.9105 -1.1764
 5747SOL     OW28699   2.169   1.307   5.053  0.0876 -0.3243 -0.1118
 5747SOL    HW128700   2.135   1.364   5.121  2.3683  0.3968  0.4349
 5747SOL    HW228701   2.099   1.243   5.037 -0.3661 -0.0275  0.7393
 5748SOL     OW28702   2.664   4.411   9.275 -0.3030  0.7664 -0.0337
 5748SOL    HW128703   2.649   4.466   9.352  2.4560 -1.0259  1.8077
 5748SOL    HW228704   2.709   4.329   9.296 -0.2049  0.4889 -1.2954
 5749SOL     OW28705   3.043   0.445   5.469  0.3323 -0.0308  0.0774
 5749SOL    HW128706   3.007   0.391   5.539  0.3313  0.5726  0.5496
 5749SOL    HW228707   3.109   0.393   5.424 -0.4824 -0.0900 -1.0564
 5750SOL     OW28708   2.536   0.868   8.049 -0.6733  0.6942  0.2604
 5750SOL    HW128709   2.508   0.944   7.997  0.1309 -1.6992 -3.6312
 5750SOL    HW228710   2.607   0.836   7.994  1.1824  2.0656  1.8788
 5751SOL     OW28711   1.191   4.285  11.396  0.6655 -0.7181 -0.5582
 5751SOL    HW128712   1.174   4.343  11.470  3.4442  1.2533 -1.4679
 5751SOL    HW228713   1.142   4.330  11.328  1.3379  1.0875  0.1668
 5752SOL     OW28714   1.869   0.344   0.827  0.2127  0.0917  0.0496
 5752SOL    HW128715   1.917   0.414   0.871  1.7344 -0.4698 -0.7056
 5752SOL    HW228716   1.783   0.339   0.869 -0.4108  0.3001 -1.1899
 5753SOL     OW28717   3.817   2.338   9.040 -0.3095  0.3595 -0.1380
 5753SOL    HW128718   3.748   2.280   9.069  1.6671 -1.0178  1.8000
 5753SOL    HW228719   3.898   2.299   9.072 -0.8153 -0.8452 -0.3383
 5754SOL     OW28720   3.645   2.071   1.784  0.5130 -0.1333  0.0561
 5754SOL    HW128721   3.579   2.002   1.792  0.8138 -0.4035  0.2061
 5754SOL    HW228722   3.673   2.092   1.873  0.5993 -0.1721  0.0386
 5755SOL     OW28723   0.158   1.150   4.776  0.5104 -0.4410 -0.3008
 5755SOL    HW128724   0.251   1.165   4.762 -0.0811  1.0527 -2.4484
 5755SOL    HW228725   0.151   1.056   4.756  0.7472 -0.0022 -2.3576
 5756SOL     OW28726   1.046   1.837   4.846  0.3278  0.3413  0.3826
 5756SOL    HW128727   0.973   1.807   4.792  0.4206 -2.5689  1.8337
 5756SOL    HW228728   1.014   1.927   4.841  0.4071  0.3508  0.0282
 5757SOL     OW28729   4.230   2.789   1.660  0.3142  0.2623 -0.1786
 5757SOL    HW128730   4.143   2.758   1.632 -0.3831  2.7074 -0.7660
 5757SOL    HW228731   4.271   2.813   1.577  0.1560 -0.9189 -0.6026
 5758SOL     OW28732   0.602   2.845  14.150 -0.7265 -0.2818  0.3772
 5758SOL    HW128733   0.560   2.780  14.207  1.6612 -0.6021  1.7617
 5758SOL    HW228734   0.526   2.904  14.148 -0.4299  0.0283 -1.6773
 5759SOL     OW28735   4.692   3.276  16.176 -0.3509  0.1981 -0.0733
 5759SOL    HW128736   4.651   3.275  16.263  0.1736  1.6244  0.1976
 5759SOL    HW228737   4.613   3.274  16.122  1.1023  0.5889 -2.1819
 5760SOL     OW28738   2.998   2.491  10.305  0.6078  0.3325  0.1939
 5760SOL    HW128739   3.079   2.540  10.291 -0.5155  1.9629 -0.5672
 5760SOL    HW228740   3.016   2.450  10.389 -1.2080  0.0607  0.4669
 5761SOL     OW28741   0.814   0.472   2.756 -0.1992  0.0067  0.6764
 5761SOL    HW128742   0.772   0.557   2.751 -1.2165 -0.5700 -0.9277
 5761SOL    HW228743   0.784   0.444   2.842 -1.6740  2.5103  0.9687
 5762SOL     OW28744   0.642   1.850   0.880 -0.1362  0.2198 -0.4588
 5762SOL    HW128745   0.610   1.764   0.851  1.3729 -0.1400 -1.0882
 5762SOL    HW228746   0.681   1.880   0.798  0.8853 -1.5998 -0.6457
 5763SOL     OW28747   0.641   1.469   2.961 -0.6044 -0.3046 -0.3093
 5763SOL    HW128748   0.627   1.555   2.922  0.5767  0.0583  0.0654
 5763SOL    HW228749   0.728   1.476   3.001  0.0512 -0.4992 -1.6950
 5764SOL     OW28750   0.361   2.321   8.075 -0.1366  0.4091  0.3366
 5764SOL    HW128751   0.438   2.365   8.040  0.9532 -2.2980 -0.6639
 5764SOL    HW228752   0.379   2.329   8.169  1.4901  0.7331 -0.0128
 5765SOL     OW28753   3.727   0.325  10.113 -0.2427 -0.0387  0.3519
 5765SOL    HW128754   3.711   0.238  10.150  2.0928 -0.5244  0.2134
 5765SOL    HW228755   3.759   0.300  10.027 -0.4223 -2.5376  0.9931
 5766SOL     OW28756   0.323   2.592   2.827 -0.6913 -0.5857 -0.1113
 5766SOL    HW128757   0.341   2.646   2.749  0.2884  1.4470  1.5142
 5766SOL    HW228758   0.387   2.521   2.827 -0.3876 -0.3180 -1.3619
 5767SOL     OW28759   3.210   4.387  11.617 -0.3317 -0.2580  0.1669
 5767SOL    HW128760   3.294   4.383  11.663 -0.8632 -1.0481  1.0666
 5767SOL    HW228761   3.155   4.363  11.692  0.0098  0.4901  0.6497
 5768SOL     OW28762   2.530   0.721   2.102  0.6371 -0.4230 -0.1000
 5768SOL    HW128763   2.560   0.630   2.107 -1.4634 -0.9100  3.7544
 5768SOL    HW228764   2.454   0.724   2.160 -0.0873 -0.7040 -1.0317
 5769SOL     OW28765   3.350   2.045   9.103 -0.0918  0.4360  0.4244
 5769SOL    HW128766   3.367   1.953   9.125  0.0586  0.4781  0.4830
 5769SOL    HW228767   3.314   2.027   9.016  0.5532  2.3001 -0.2159
 5770SOL     OW28768   4.693   4.676   4.960  0.2051  0.6140 -0.0558
 5770SOL    HW128769   4.674   4.583   4.972 -0.1683  0.5836 -0.8074
 5770SOL    HW228770   0.011   4.698   5.044 -0.3505  0.1226  0.3322
 5771SOL     OW28771   3.547   4.501  16.407  0.2291 -0.1700 -0.0059
 5771SOL    HW128772   3.623   4.462  16.450  0.2891 -1.2737 -1.1208
 5771SOL    HW228773   3.523   4.567  16.471 -0.7709 -1.4021  0.8902
 5772SOL     OW28774   3.830   3.395  11.769  0.2777 -0.1391 -0.3793
 5772SOL    HW128775   3.865   3.345  11.695 -2.3246 -0.5599 -1.3003
 5772SOL    HW228776   3.910   3.412  11.820 -0.6033  1.3985  0.4716
 5773SOL     OW28777   4.712   1.049   7.675  0.3225  0.2874  0.3055
 5773SOL    HW128778   4.630   1.082   7.638 -0.5409 -0.2351  1.7059
 5773SOL    HW228779   0.054   1.090   7.617 -0.7010  2.9876  1.1221
 5774SOL     OW28780   2.916   4.701   7.975 -0.9105  0.2312  0.4560
 5774SOL    HW128781   2.973   0.044   8.017 -1.0093 -0.5594  1.7996
 5774SOL    HW228782   2.891   4.652   8.054  0.2735  0.9910  1.3038
 5775SOL     OW28783   0.317   0.014   1.800 -0.4263 -0.0756  0.3313
 5775SOL    HW128784   0.409   0.002   1.778 -0.2471  0.2793  0.8761
 5775SOL    HW228785   0.277   4.650   1.816  0.0983 -0.1710  1.1314
 5776SOL     OW28786   3.130   4.717   5.768  0.5060  0.1955 -0.1823
 5776SOL    HW128787   3.127   0.052   5.846  1.2265 -0.7342  0.5118
 5776SOL    HW228788   3.146   4.633   5.812  0.2682  0.1948 -0.0968
 5777SOL     OW28789   0.848   2.489   3.482  0.4082  0.0752 -0.2224
 5777SOL    HW128790   0.904   2.566   3.487  1.1753 -0.5019  0.2054
 5777SOL    HW228791   0.872   2.441   3.562 -1.7657 -0.1499  0.3038
 5778SOL     OW28792   1.613   2.881   5.970  0.0934  0.5473  0.0257
 5778SOL    HW128793   1.692   2.876   6.024  0.1416 -1.3696 -0.2461
 5778SOL    HW228794   1.605   2.791   5.939 -1.1509  0.5885  0.1972
 5779SOL     OW28795   2.996   0.097  17.512 -0.6803 -0.0632  0.2370
 5779SOL    HW128796   2.915   0.146  17.523 -1.4365 -1.0741 -0.8994
 5779SOL    HW228797   3.062   0.166  17.516  0.8533 -1.6309  2.2159
 5780SOL     OW28798   2.567   4.712   9.221 -0.2765 -0.3717 -0.9366
 5780SOL    HW128799   2.541   4.699   9.312  1.6816 -0.7015 -0.4198
 5780SOL    HW228800   2.510   4.651   9.174 -1.3236 -1.1202  1.2909
 5781SOL     OW28801   3.440   4.651  10.641 -0.3995  0.1968  0.8923
 5781SOL    HW128802   3.488   0.007  10.673  1.5141 -0.6907  0.1722
 5781SOL    HW228803   3.478   4.594  10.708  0.6918  0.5180  0.5544
 5782SOL     OW28804   1.406   0.358  15.719  0.0599  0.1516 -0.2605
 5782SOL    HW128805   1.429   0.316  15.802 -0.8173  0.3369  0.0685
 5782SOL    HW228806   1.453   0.441  15.725 -2.0570  1.3467 -0.4832
 5783SOL     OW28807   4.659   2.281   5.811 -0.1363  0.1484 -0.0909
 5783SOL    HW128808   4.572   2.268   5.849 -0.6503 -0.9094 -1.6618
 5783SOL    HW228809   4.680   2.373   5.825 -0.3547  0.1534  0.1981
 5784SOL     OW28810   0.019   0.126  14.046  0.0394 -0.0050 -0.0569
 5784SOL    HW128811   4.652   0.113  14.010  0.4012  0.7902 -1.2441
 5784SOL    HW228812   0.061   0.094  13.967  1.2035 -1.7317  1.2742
 5785SOL     OW28813   3.598   3.385   6.005 -0.3915 -0.3293 -0.2608
 5785SOL    HW128814   3.511   3.411   5.975  0.6866  1.3789 -1.8729
 5785SOL    HW228815   3.595   3.291   5.989  1.4597 -0.1218 -1.7954
 5786SOL     OW28816   2.609   2.170   5.755  0.0470  0.3233  0.4512
 5786SOL    HW128817   2.653   2.099   5.707 -0.0973 -0.3001  1.2529
 5786SOL    HW228818   2.653   2.239   5.705 -1.0164 -1.0797 -2.4103
 5787SOL     OW28819   1.641   1.426   4.000  0.3119  0.2466  0.3139
 5787SOL    HW128820   1.608   1.336   4.007  0.3169  0.2494  0.3688
 5787SOL    HW228821   1.715   1.420   3.939  1.2236 -0.3918  1.4890
 5788SOL     OW28822   0.648   3.511   7.631  0.3798 -0.6628 -0.4054
 5788SOL    HW128823   0.683   3.427   7.664 -0.2162 -0.8773 -0.3272
 5788SOL    HW228824   0.601   3.545   7.707  1.4040 -0.8530  0.3167
 5789SOL     OW28825   3.579   2.034  14.031  0.3956  0.0295 -0.0627
 5789SOL    HW128826   3.633   2.100  14.075  1.2508  0.8577 -2.3813
 5789SOL    HW228827   3.496   2.074  14.054 -0.1779 -1.5377  0.6256
 5790SOL     OW28828   0.239   3.599   3.217 -0.4785  0.1356  0.0643
 5790SOL    HW128829   0.200   3.512   3.231  1.0019 -0.5564 -0.1279
 5790SOL    HW228830   0.321   3.575   3.260 -0.3736  1.0053  0.3408
 5791SOL     OW28831   4.014   3.918  11.409  0.1670  0.0444 -0.1066
 5791SOL    HW128832   4.087   3.978  11.428  1.4081 -1.4798 -0.0379
 5791SOL    HW228833   3.994   3.946  11.319  0.2670  0.7314  0.0820
 5792SOL     OW28834   4.134   3.435   3.999 -0.1444 -0.6802 -0.0586
 5792SOL    HW128835   4.120   3.341   3.986 -3.3369 -0.1602 -0.3783
 5792SOL    HW228836   4.071   3.451   4.069  0.7764 -0.8455  0.8092
 5793SOL     OW28837   2.339   2.092   7.194 -0.5235 -0.5715 -0.0921
 5793SOL    HW128838   2.320   2.109   7.102 -0.5872  0.4124  0.1025
 5793SOL    HW228839   2.270   2.139   7.240 -0.8624  0.6430 -1.8189
 5794SOL     OW28840   3.212   3.091   0.018  0.2133  0.1565  0.0808
 5794SOL    HW128841   3.149   3.152   0.056 -1.3164 -0.4920 -1.4069
 5794SOL    HW228842   3.152   3.022  17.678 -0.0404  0.7711 -0.9448
 5795SOL     OW28843   0.810   4.234   5.900 -0.1172 -0.5783  0.3646
 5795SOL    HW128844   0.823   4.199   5.987  0.1734  0.4405  0.7354
 5795SOL    HW228845   0.720   4.267   5.893  0.7220  1.7413  0.5102
 5796SOL     OW28846   1.214   1.649   4.523  0.6233  0.3616  0.0609
 5796SOL    HW128847   1.180   1.567   4.560 -1.5832  0.1890 -2.2749
 5796SOL    HW228848   1.256   1.617   4.443 -0.5984 -0.8408 -0.1145
 5797SOL     OW28849   3.781   1.377   0.045  0.1986  0.2227  0.0239
 5797SOL    HW128850   3.812   1.320   0.116 -1.2643 -1.0847 -0.3934
 5797SOL    HW228851   3.863   1.404   0.004  0.3559  1.4172  1.1263
 5798SOL     OW28852   0.168   3.631   6.250 -0.4646  0.2504  0.1186
 5798SOL    HW128853   0.085   3.679   6.252 -0.8999 -0.5802  2.1379
 5798SOL    HW228854   0.207   3.660   6.332  0.4581  3.2207 -1.3758
 5799SOL     OW28855   4.484   3.576   7.790  0.4978 -0.1129 -0.1779
 5799SOL    HW128856   4.482   3.667   7.820 -0.6160  0.1404 -1.0192
 5799SOL    HW228857   4.410   3.576   7.729  1.3906 -1.7218 -1.2612
 5800SOL     OW28858   0.541   4.489   7.063 -0.1700  0.1380 -0.4092
 5800SOL    HW128859   0.566   4.554   6.998  0.7421 -2.0139 -2.1804
 5800SOL    HW228860   0.477   4.443   7.010  1.5662 -0.0468 -2.3120
 5801SOL     OW28861   1.985   3.107  13.028  0.5749  0.2444  0.5297
 5801SOL    HW128862   1.904   3.059  13.011 -0.5059  2.3719 -0.3822
 5801SOL    HW228863   1.949   3.188  13.065 -0.0560  0.4984 -0.6349
 5802SOL     OW28864   4.444   2.721  17.258 -0.0469 -0.6265 -0.0877
 5802SOL    HW128865   4.503   2.716  17.183  2.6737 -1.6957  2.1525
 5802SOL    HW228866   4.506   2.720  17.330 -1.0980  0.9653  0.8573
 5803SOL     OW28867   3.950   1.699  12.488 -0.0755  0.1737  0.5747
 5803SOL    HW128868   3.896   1.624  12.465  0.2262 -0.1142  0.7926
 5803SOL    HW228869   3.902   1.736  12.562  0.3988  1.1773  0.3920
 5804SOL     OW28870   4.671   1.110   4.445  0.2611  0.3271  0.0301
 5804SOL    HW128871   0.044   1.117   4.458 -0.0346  0.6049  2.0508
 5804SOL    HW228872   4.673   1.018   4.418  0.5549  0.4047 -0.2097
 5805SOL     OW28873   3.148   3.636   6.874  0.0386 -0.2927 -0.1715
 5805SOL    HW128874   3.139   3.696   6.948  0.6303  1.1773 -1.2841
 5805SOL    HW228875   3.244   3.630   6.872 -0.0080 -1.2857  0.2522
 5806SOL     OW28876   3.797   1.387   7.880 -0.1769 -0.0681 -0.0875
 5806SOL    HW128877   3.834   1.391   7.967 -1.1498  0.3683  0.3128
 5806SOL    HW228878   3.736   1.461   7.877 -0.0698  0.1746  3.9220
 5807SOL     OW28879   0.360   1.933   4.838  0.2937  0.6232  0.2527
 5807SOL    HW128880   0.404   1.897   4.762 -0.8034 -0.5337  0.1563
 5807SOL    HW228881   0.301   1.986   4.785 -0.6631 -0.7352 -0.0466
 5808SOL     OW28882   2.036   0.640  15.632 -0.0354  0.2393  0.2882
 5808SOL    HW128883   2.030   0.682  15.547  1.0143  0.2239  0.1966
 5808SOL    HW228884   2.131   0.651  15.644 -0.0867 -0.0997  1.0758
 5809SOL     OW28885   4.361   4.100   0.073  0.4815 -0.2214  0.3919
 5809SOL    HW128886   4.327   4.080  17.673  1.9573 -1.5959  0.1298
 5809SOL    HW228887   4.349   4.194   0.065 -0.0430 -0.2394  0.9370
 5810SOL     OW28888   4.216   3.885   2.047 -0.3404  0.6234 -0.0601
 5810SOL    HW128889   4.157   3.945   2.092 -1.2350  1.1663 -1.9390
 5810SOL    HW228890   4.305   3.920   2.054  0.1091 -0.9356  2.1581
 5811SOL     OW28891   3.977   0.838   9.233  0.1585  0.0042  0.6108
 5811SOL    HW128892   3.937   0.788   9.305  1.8327 -1.6115  0.4007
 5811SOL    HW228893   4.042   0.878   9.291  2.5325  0.5423 -2.4527
 5812SOL     OW28894   1.657   0.461  13.823  0.0571  0.4785  1.2037
 5812SOL    HW128895   1.619   0.546  13.843 -0.7858  0.5392 -0.6559
 5812SOL    HW228896   1.750   0.484  13.819 -0.7606  3.6340  0.1159
 5813SOL     OW28897   0.708   4.048   9.174  0.2864  0.2338 -0.0145
 5813SOL    HW128898   0.712   3.970   9.119  3.0665 -0.2043  0.8370
 5813SOL    HW228899   0.628   4.017   9.218 -1.3930  0.5566 -2.8644
 5814SOL     OW28900   0.891   0.907  12.990  0.1062 -0.0274  0.5301
 5814SOL    HW128901   0.967   0.936  12.941 -0.2253 -0.2589 -0.1192
 5814SOL    HW228902   0.839   0.847  12.936 -1.7877  1.3931  0.7729
 5815SOL     OW28903   3.189   2.742   9.079 -0.0308  0.8816 -0.2880
 5815SOL    HW128904   3.186   2.696   8.995 -1.2094 -0.1228  0.2992
 5815SOL    HW228905   3.248   2.686   9.130 -0.1995  0.5207 -0.4897
 5816SOL     OW28906   0.316   3.204   9.785  0.4648  0.6377 -0.1847
 5816SOL    HW128907   0.388   3.223   9.846  0.0604  1.0820  0.1616
 5816SOL    HW228908   0.256   3.273   9.812  1.2323  0.2764  2.4595
 5817SOL     OW28909   0.208   4.682   3.435  0.3245  0.2625  0.6644
 5817SOL    HW128910   0.118   4.713   3.440  0.3707  0.5552 -0.2995
 5817SOL    HW228911   0.254   0.041   3.408 -0.5914  0.8739  0.9185
 5818SOL     OW28912   2.938   3.528   4.666 -0.1411  0.3889 -0.3918
 5818SOL    HW128913   2.894   3.514   4.750 -0.2468 -1.8081 -0.7983
 5818SOL    HW228914   3.011   3.468   4.676 -0.4220  0.0906 -0.1164
 5819SOL     OW28915   1.707   0.214   5.962 -0.4620  0.4650  0.7112
 5819SOL    HW128916   1.672   0.125   5.963  1.0176 -0.0949  1.3286
 5819SOL    HW228917   1.791   0.183   5.928 -1.7291 -3.0137  0.7373
 5820SOL     OW28918   3.807   2.765  13.643  0.1575  0.1518  0.4066
 5820SOL    HW128919   3.801   2.732  13.733  0.4393  0.0115  0.3735
 5820SOL    HW228920   3.719   2.804  13.640 -0.5968 -1.4944  0.9300
 5821SOL     OW28921   0.897   0.032  14.724 -0.2088  0.1575  0.1805
 5821SOL    HW128922   0.920   0.001  14.812 -1.2603 -0.2615  0.3139
 5821SOL    HW228923   0.967   4.710  14.675 -0.3369  0.8061 -0.5715
 5822SOL     OW28924   3.382   1.269   3.847  0.2254  0.5484 -0.0026
 5822SOL    HW128925   3.437   1.317   3.910  0.1285 -0.1210  0.5988
 5822SOL    HW228926   3.357   1.193   3.900  0.5191 -0.5513 -1.4409
 5823SOL     OW28927   4.711   3.648   2.920 -0.3695  0.3005 -0.6029
 5823SOL    HW128928   0.047   3.667   2.845 -1.2323 -0.5191 -1.4604
 5823SOL    HW228929   0.017   3.712   2.986  0.3288  1.0846 -1.6332
 5824SOL     OW28930   4.050   1.969   2.195  0.1270  0.0198 -0.2465
 5824SOL    HW128931   4.014   2.058   2.191  0.9308  0.2268 -2.8357
 5824SOL    HW228932   4.137   1.988   2.159 -0.6250  0.3635 -1.9217
 5825SOL     OW28933   0.542   0.421   1.387  0.5734 -0.3438 -0.8534
 5825SOL    HW128934   0.629   0.435   1.349  2.4621 -1.9777  2.9391
 5825SOL    HW228935   0.530   0.343   1.333  0.7494 -0.3823 -0.8381
 5826SOL     OW28936   2.082   2.757   4.371 -0.5242 -0.0733 -0.2167
 5826SOL    HW128937   2.068   2.669   4.337 -1.8471  0.9796 -2.3431
 5826SOL    HW228938   2.174   2.740   4.392 -0.4124  2.9903  1.7682
 5827SOL     OW28939   2.086   3.856  12.971  0.5501  0.1134 -0.1563
 5827SOL    HW128940   2.006   3.819  12.935  0.2870  0.0595  0.4896
 5827SOL    HW228941   2.083   3.945  12.935 -4.3028  0.1581  0.4620
 5828SOL     OW28942   2.798   2.944   3.548 -0.1701  0.3466 -0.1135
 5828SOL    HW128943   2.877   2.998   3.548  0.9010 -1.2497  0.6406
 5828SOL    HW228944   2.815   2.885   3.621  0.6468  0.6871 -0.0289
 5829SOL     OW28945   2.818   0.775   2.306 -0.0222  0.0421  0.2585
 5829SOL    HW128946   2.755   0.734   2.364 -0.3660  1.9684  1.2262
 5829SOL    HW228947   2.838   0.704   2.245 -1.4119 -0.1798  0.0578
 5830SOL     OW28948   1.474   3.738   3.470  0.3477 -0.4452 -0.2050
 5830SOL    HW128949   1.419   3.784   3.534  1.6190 -0.4503  0.8965
 5830SOL    HW228950   1.563   3.747   3.504  0.5642  0.3138 -0.9832
 5831SOL     OW28951   2.340   4.390   6.482 -0.0697  0.1729  0.2956
 5831SOL    HW128952   2.245   4.403   6.490 -0.3683 -1.8105  0.0132
 5831SOL    HW228953   2.347   4.332   6.559 -0.6916  0.1585  0.3460
 5832SOL     OW28954   2.304   3.927   4.498 -0.5541 -0.2350 -0.2840
 5832SOL    HW128955   2.365   3.855   4.480 -1.7142 -1.6475  1.4265
 5832SOL    HW228956   2.256   3.936   4.416  0.8367 -1.7238 -1.2681
 5833SOL     OW28957   3.791   2.548   4.193 -0.2574  0.4179 -0.4370
 5833SOL    HW128958   3.882   2.539   4.221 -0.9386 -2.5124  0.7855
 5833SOL    HW228959   3.776   2.468   4.143 -0.6216 -0.1886  0.6313
 5834SOL     OW28960   2.659   1.060   2.581 -0.1944 -0.0107 -0.5087
 5834SOL    HW128961   2.676   1.118   2.507  0.5554 -0.1006 -0.4077
 5834SOL    HW228962   2.650   1.124   2.651 -0.8414 -0.1033 -0.5036
 5835SOL     OW28963   2.798   0.118  11.493 -0.2406 -0.1327 -0.3151
 5835SOL    HW128964   2.887   0.152  11.483  0.7964 -1.7142  3.4662
 5835SOL    HW228965   2.827   0.027  11.488 -0.9911 -0.3276 -1.0778
 5836SOL     OW28966   1.657   3.356   3.175  0.3792 -0.4620  0.4602
 5836SOL    HW128967   1.614   3.435   3.143  0.6058 -1.5474 -2.4631
 5836SOL    HW228968   1.641   3.390   3.263  0.2783 -0.6674  0.5222
 5837SOL     OW28969   2.941   1.655   3.364 -0.8127 -0.0514 -0.5659
 5837SOL    HW128970   2.908   1.580   3.414 -0.5506 -0.7277 -1.4032
 5837SOL    HW228971   3.030   1.633   3.335 -0.7342 -1.1906  0.5241
 5838SOL     OW28972   1.747   1.949  17.197  0.3148  0.3953 -0.0300
 5838SOL    HW128973   1.841   1.952  17.214  0.0201 -0.0878  1.6631
 5838SOL    HW228974   1.755   1.932  17.103  0.6510  0.3830  0.0022
 5839SOL     OW28975   4.462   2.385   6.839 -0.6555 -0.4741  0.1859
 5839SOL    HW128976   4.516   2.357   6.912 -0.1087  1.7711  0.6403
 5839SOL    HW228977   4.374   2.376   6.878 -0.1571 -0.8718  1.2225
 5840SOL     OW28978   3.277   2.969   6.794  0.2951 -0.0266 -0.0978
 5840SOL    HW128979   3.326   2.974   6.876 -1.3994  0.0673  0.8985
 5840SOL    HW228980   3.221   3.046   6.801 -1.3374 -1.1349 -0.8645
 5841SOL     OW28981   2.481   4.210   4.338 -0.0942 -0.4553 -0.2190
 5841SOL    HW128982   2.531   4.189   4.259 -0.0270  0.5055 -0.4370
 5841SOL    HW228983   2.391   4.210   4.304 -0.1836 -1.2918  0.0258
 5842SOL     OW28984   2.394   0.331   8.860 -0.0113  0.0435  0.3853
 5842SOL    HW128985   2.382   0.356   8.951 -0.8207  0.9616  0.0264
 5842SOL    HW228986   2.307   0.344   8.821  0.2675 -0.7931 -0.5170
 5843SOL     OW28987   1.035   3.575   5.396  0.0326  0.8949  0.0682
 5843SOL    HW128988   1.116   3.623   5.376  0.0095  0.4745 -1.0153
 5843SOL    HW228989   0.980   3.583   5.318  1.2136  2.5891 -0.6113
 5844SOL     OW28990   1.556   0.738   9.710  0.8827  0.5377  0.4970
 5844SOL    HW128991   1.475   0.769   9.751  0.1509  0.6240 -1.0187
 5844SOL    HW228992   1.598   0.824   9.704  1.0114  0.3965 -0.5755
 5845SOL     OW28993   3.145   1.785   4.824  0.4565  0.0110  0.2682
 5845SOL    HW128994   3.160   1.856   4.887 -1.7463 -1.1151  2.0488
 5845SOL    HW228995   3.204   1.808   4.753  0.0651  2.2875  0.6543
 5846SOL     OW28996   2.010   3.064   6.094  0.6445 -0.3834 -0.3334
 5846SOL    HW128997   2.079   3.129   6.106 -0.0352  0.3088 -0.2020
 5846SOL    HW228998   2.070   2.991   6.110  1.0700 -0.0649 -0.4819
 5847SOL     OW28999   4.110   1.498   9.198  0.2493  0.1456 -0.8000
 5847SOL    HW129000   4.117   1.546   9.280  3.3655 -0.2815 -0.8326
 5847SOL    HW229001   4.177   1.547   9.150  1.7162  0.3502  1.4730
 5848SOL     OW29002   3.914   3.308  16.598 -0.0602  0.1785 -0.1649
 5848SOL    HW129003   3.893   3.394  16.634 -1.6855  0.8523 -2.7180
 5848SOL    HW229004   3.970   3.336  16.526  0.2594  0.0982  0.0556
 5849SOL     OW29005   2.040   2.450   2.213 -0.3554  0.1226  0.1620
 5849SOL    HW129006   2.005   2.523   2.264 -0.9472 -1.0006  1.3791
 5849SOL    HW229007   1.964   2.415   2.167 -0.4619  0.6727 -0.0760
 5850SOL     OW29008   3.781   0.051   5.858 -0.0683 -0.0297  0.2815
 5850SOL    HW129009   3.730   4.699   5.893  1.3088 -0.2124  1.9169
 5850SOL    HW229010   3.773   0.116   5.928 -1.4275  0.3861 -0.2465
 5851SOL     OW29011   3.342   3.753  11.170 -0.7200 -0.7692  0.3450
 5851SOL    HW129012   3.325   3.813  11.242  1.4473 -0.2498  0.4033
 5851SOL    HW229013   3.395   3.684  11.210 -1.8995  0.0217  3.2265
 5852SOL     OW29014   1.147   0.731  15.999  0.1176  0.0419 -0.1525
 5852SOL    HW129015   1.139   0.738  15.904  0.9239  1.1517 -0.1313
 5852SOL    HW229016   1.094   0.806  16.024 -0.1148 -1.6988  4.5401
 5853SOL     OW29017   4.097   1.988   7.623 -0.3841 -0.1952  0.2242
 5853SOL    HW129018   4.062   2.077   7.631  0.1240  0.0480 -0.2874
 5853SOL    HW229019   4.187   2.000   7.654 -0.2446 -1.8456  0.4765
 5854SOL     OW29020   0.533   2.209   5.824  0.0370 -0.0150 -0.2133
 5854SOL    HW129021   0.565   2.151   5.893  0.7446 -0.0526 -0.5744
 5854SOL    HW229022   0.452   2.237   5.867  0.0295  2.1460 -1.6216
 5855SOL     OW29023   0.434   1.576   8.332 -0.2771  0.3467  0.3063
 5855SOL    HW129024   0.413   1.669   8.340  0.6463  0.6317 -0.6016
 5855SOL    HW229025   0.396   1.558   8.246 -0.1115  0.4594  0.2096
 5856SOL     OW29026   3.137   4.543   8.688 -0.9264 -0.3786 -0.0437
 5856SOL    HW129027   3.154   4.450   8.681 -0.3668 -0.4929  2.7660
 5856SOL    HW229028   3.044   4.530   8.708 -0.7261 -1.4906  0.1187
 5857SOL     OW29029   2.740   2.306  10.217  0.1084 -0.0909  0.1117
 5857SOL    HW129030   2.672   2.371  10.234 -2.8097 -2.1198 -3.8913
 5857SOL    HW229031   2.813   2.365  10.196  0.5840 -0.8364 -0.3496
 5858SOL     OW29032   2.471   1.997   9.049 -0.2730 -0.2592 -0.4902
 5858SOL    HW129033   2.507   1.927   8.995  0.5565  0.8858 -1.4356
 5858SOL    HW229034   2.460   1.950   9.131 -1.0156  0.0753 -0.3924
 5859SOL     OW29035   1.423   1.107  13.829 -0.3733 -0.2712 -0.0712
 5859SOL    HW129036   1.427   1.140  13.739 -0.3569  0.9541  0.3738
 5859SOL    HW229037   1.516   1.090  13.844 -0.3818  1.8068  2.2432
 5860SOL     OW29038   2.107   2.967   3.419  0.3344 -0.0800 -0.5831
 5860SOL    HW129039   2.098   3.056   3.383  0.0719 -0.0984 -0.5576
 5860SOL    HW229040   2.201   2.958   3.401  0.3428 -2.5806  0.9143
 5861SOL     OW29041   0.589   3.097  12.729  0.4934  0.5592 -0.3209
 5861SOL    HW129042   0.518   3.054  12.681  0.4992  1.3092 -0.9906
 5861SOL    HW229043   0.664   3.050  12.693 -0.7277 -1.7653  0.1486
 5862SOL     OW29044   3.363   3.475   5.531  0.3046 -0.0437  0.0070
 5862SOL    HW129045   3.383   3.563   5.560 -0.1165  0.0768 -0.0679
 5862SOL    HW229046   3.389   3.478   5.438  0.4911  0.9360  0.0904
 5863SOL     OW29047   3.213   0.595   4.689 -0.8938  0.4676 -0.0808
 5863SOL    HW129048   3.259   0.674   4.718  2.6956 -1.2601 -1.0577
 5863SOL    HW229049   3.241   0.524   4.747 -0.6914  1.4369  1.0131
 5864SOL     OW29050   0.161   1.768   1.346  0.3093  0.1009 -0.1110
 5864SOL    HW129051   0.108   1.788   1.423 -1.0200  0.7468 -1.2044
 5864SOL    HW229052   0.190   1.678   1.363  0.7670 -0.0315 -1.6319
 5865SOL     OW29053   2.137   0.175   6.632 -0.3184 -0.1006  0.3152
 5865SOL    HW129054   2.121   0.082   6.646  0.2663 -0.1970  0.3595
 5865SOL    HW229055   2.227   0.168   6.601  0.1068 -1.3370  1.8164
 5866SOL     OW29056   1.602   1.128  11.391  0.5128  0.2666  0.2482
 5866SOL    HW129057   1.663   1.085  11.330  1.1681 -2.2563  2.7015
 5866SOL    HW229058   1.665   1.160  11.457 -0.8612  0.4666  1.4515
 5867SOL     OW29059   0.028   3.592   9.862 -0.0500 -0.2506 -0.7838
 5867SOL    HW129060   4.653   3.596   9.854 -0.1069 -0.0977  0.0076
 5867SOL    HW229061   0.045   3.634   9.947  1.2195 -2.1249 -0.1144
 5868SOL     OW29062   0.838   1.396   2.488  0.1242 -0.7906  0.2923
 5868SOL    HW129063   0.872   1.316   2.527 -1.6286 -1.0110  1.3492
 5868SOL    HW229064   0.746   1.378   2.470 -0.2053  0.2283  0.9796
 5869SOL     OW29065   1.715   4.674   6.820  0.6720 -0.2464  0.3841
 5869SOL    HW129066   1.808   4.688   6.837  1.2942 -2.7324 -1.0164
 5869SOL    HW229067   1.683   0.042   6.803 -0.9962 -1.3721 -2.3675
 5870SOL     OW29068   2.251   3.944   3.140  0.3085  0.3777  0.2520
 5870SOL    HW129069   2.316   4.003   3.102  0.1508  1.4088  1.5708
 5870SOL    HW229070   2.245   3.877   3.073  1.0615  1.1221 -0.5646
 5871SOL     OW29071   4.414   0.056  10.351 -0.1430  0.4305  0.3190
 5871SOL    HW129072   4.337   0.113  10.343 -0.2833  0.0034 -1.2522
 5871SOL    HW229073   4.484   0.121  10.348  1.8397 -1.8139 -1.3000
 5872SOL     OW29074   4.384   2.015  14.186  0.2218  0.7300  0.3646
 5872SOL    HW129075   4.422   1.927  14.188 -3.3861 -0.7601  2.0106
 5872SOL    HW229076   4.323   2.012  14.112  0.7536 -3.3564  0.0927
 5873SOL     OW29077   0.721   2.478   7.612  0.6368  0.3251  0.7360
 5873SOL    HW129078   0.729   2.388   7.643  0.2952  0.6619  1.8139
 5873SOL    HW229079   0.720   2.467   7.517 -1.3636 -1.0543  0.9159
 5874SOL     OW29080   3.731   4.181   6.946  0.1605 -0.5481 -0.1766
 5874SOL    HW129081   3.713   4.093   6.980 -1.5181 -0.0293  0.3054
 5874SOL    HW229082   3.764   4.226   7.024  1.4244 -1.1026 -0.3893
 5875SOL     OW29083   0.173   3.539   6.546  0.2540 -0.9804  0.5020
 5875SOL    HW129084   0.219   3.508   6.624  0.4938 -1.7957  0.0292
 5875SOL    HW229085   0.242   3.598   6.517  0.3877 -2.2290 -1.7187
 5876SOL     OW29086   0.586   4.307  11.000 -0.1287 -0.4671 -0.3104
 5876SOL    HW129087   0.544   4.238  11.051  1.3292 -0.5846  0.7093
 5876SOL    HW229088   0.521   4.319  10.930 -2.1099 -0.2781  1.5710
 5877SOL     OW29089   0.846   2.289   7.272  0.3522  0.3383 -0.0534
 5877SOL    HW129090   0.928   2.337   7.280 -0.2699  1.1901  1.1783
 5877SOL    HW229091   0.868   2.209   7.320 -0.8683 -0.6250 -1.1066
 5878SOL     OW29092   2.973   3.300  11.504  0.6446 -0.2157 -0.2349
 5878SOL    HW129093   2.938   3.371  11.559 -1.3664  0.5680 -2.5064
 5878SOL    HW229094   3.006   3.357  11.435  0.0790 -0.0888 -0.4026
 5879SOL     OW29095   3.788   1.937  13.860 -0.0990 -0.0160 -0.0655
 5879SOL    HW129096   3.715   1.961  13.917 -2.1134 -1.1921 -2.1675
 5879SOL    HW229097   3.862   1.920  13.920  0.1280 -0.1515 -0.3831
 5880SOL     OW29098   0.405   4.626   4.024  0.2272  0.0270  0.3938
 5880SOL    HW129099   0.479   4.684   4.008 -0.9087  1.4591  0.3260
 5880SOL    HW229100   0.330   4.662   3.977 -0.2013 -1.7670 -0.3109
 5881SOL     OW29101   1.597   2.364   6.451  0.2585 -0.4030 -0.2121
 5881SOL    HW129102   1.603   2.364   6.547 -0.0723  1.1384 -0.2075
 5881SOL    HW229103   1.570   2.273   6.437 -0.7216 -0.1318 -0.0480
 5882SOL     OW29104   2.695   3.213   9.179  0.6710 -0.9740 -0.1958
 5882SOL    HW129105   2.650   3.146   9.230 -0.4626  0.5792  0.8648
 5882SOL    HW229106   2.682   3.182   9.089 -2.1082  1.2707 -0.5859
 5883SOL     OW29107   2.561   4.425   3.223  0.6488 -0.7927  0.2593
 5883SOL    HW129108   2.467   4.422   3.244  0.7825 -1.0614  0.8215
 5883SOL    HW229109   2.582   4.515   3.246  0.9618 -0.8322  0.1224
 5884SOL     OW29110   2.342   0.265  11.520 -0.5058  0.5647  0.2215
 5884SOL    HW129111   2.428   0.238  11.487  0.8993  2.0214  2.7413
 5884SOL    HW229112   2.290   0.221  11.452  1.4299  0.9256 -1.5017
 5885SOL     OW29113   3.599   3.303  11.592  0.9396  0.4425 -0.5230
 5885SOL    HW129114   3.662   3.259  11.650  0.0495  0.9287  0.8321
 5885SOL    HW229115   3.539   3.348  11.652 -0.7310 -0.8244 -1.2327
 5886SOL     OW29116   1.090   4.114   3.515  0.9597 -0.1497 -0.7842
 5886SOL    HW129117   1.012   4.093   3.566  1.5604  0.9141  0.5973
 5886SOL    HW229118   1.163   4.091   3.573  0.7474  2.0785  0.3798
 5887SOL     OW29119   2.867   0.252  13.631  0.4605  0.1226 -0.3140
 5887SOL    HW129120   2.895   0.164  13.655 -0.2339 -0.0551 -0.1554
 5887SOL    HW229121   2.883   0.297  13.714 -0.4482 -1.0728  0.5039
 5888SOL     OW29122   1.894   1.874   8.216 -0.1560  0.5939  0.0865
 5888SOL    HW129123   1.811   1.827   8.227 -1.3633  2.1506 -2.5060
 5888SOL    HW229124   1.942   1.825   8.150  1.9942  1.8372  0.7132
 5889SOL     OW29125   3.419   3.361   4.433 -0.3846 -0.5059  0.6161
 5889SOL    HW129126   3.450   3.304   4.362  1.3659 -1.2259  1.9434
 5889SOL    HW229127   3.466   3.330   4.510 -0.9533 -0.3884  1.0060
 5890SOL     OW29128   1.885   0.750   9.973 -0.0426  0.3415 -0.6706
 5890SOL    HW129129   1.961   0.695   9.989 -0.8390 -0.4654  0.3525
 5890SOL    HW229130   1.906   0.825  10.029 -1.9308  0.6863 -0.4092
 5891SOL     OW29131   4.670   1.726  16.458  0.0560 -0.3336 -0.8311
 5891SOL    HW129132   4.597   1.785  16.478  0.6167  0.0175  0.1531
 5891SOL    HW229133   4.707   1.719  16.546  1.8630 -1.1119 -1.6432
 5892SOL     OW29134   2.258   4.573   3.013 -0.0734 -0.6966  0.5998
 5892SOL    HW129135   2.231   4.549   3.101 -0.2222  1.9018  1.2592
 5892SOL    HW229136   2.317   4.501   2.990 -1.0974 -1.6565  0.9823
 5893SOL     OW29137   3.836   2.174   2.651 -0.0014  0.3117  0.3450
 5893SOL    HW129138   3.846   2.137   2.562  1.6852  0.6342  0.3849
 5893SOL    HW229139   3.849   2.092   2.699  0.2350 -0.2352 -0.6374
 5894SOL     OW29140   3.719   3.954   4.361  0.7433  0.4896  0.0995
 5894SOL    HW129141   3.759   3.927   4.279 -0.9074 -2.5903  0.3012
 5894SOL    HW229142   3.625   3.941   4.349  0.5566 -1.8284  4.0098
 5895SOL     OW29143   2.878   2.207   3.055  0.2104 -0.3967 -0.3922
 5895SOL    HW129144   2.894   2.243   2.967  0.8457 -0.9293 -0.4936
 5895SOL    HW229145   2.956   2.156   3.077  1.6136  1.3055 -1.4187
 5896SOL     OW29146   2.341   4.184   7.409  0.5166  0.2073  0.4987
 5896SOL    HW129147   2.351   4.266   7.361  2.1873 -0.6136 -0.5887
 5896SOL    HW229148   2.360   4.123   7.338  1.1135 -0.0043  0.8310
 5897SOL     OW29149   3.680   4.553   7.107 -0.1913  0.5676  0.3690
 5897SOL    HW129150   3.735   4.624   7.139 -1.7322  0.8531  2.4043
 5897SOL    HW229151   3.628   4.611   7.051 -1.0088 -1.2160 -0.7038
 5898SOL     OW29152   1.752   1.469   5.418 -0.0963 -0.1470 -0.0003
 5898SOL    HW129153   1.815   1.432   5.355 -0.9067  0.3890 -1.1251
 5898SOL    HW229154   1.776   1.561   5.428 -0.9387  0.1410 -0.6281
 5899SOL     OW29155   2.417   3.412   2.552 -0.8903  0.3594  0.1622
 5899SOL    HW129156   2.407   3.432   2.459  0.5706  0.8131  0.1084
 5899SOL    HW229157   2.409   3.503   2.581 -0.8946  0.3050  0.3338
 5900SOL     OW29158   2.295   0.538   7.686 -0.3746  0.4369  0.0548
 5900SOL    HW129159   2.226   0.473   7.701  1.1286 -1.6232 -1.9217
 5900SOL    HW229160   2.313   0.511   7.596  0.7280 -1.8326  0.9653
 5901SOL     OW29161   2.339   2.626   9.374 -0.1289 -0.4111 -0.0337
 5901SOL    HW129162   2.287   2.661   9.301  2.0006  0.9785 -0.8637
 5901SOL    HW229163   2.381   2.702   9.415  0.3689 -0.5758 -0.2432
 5902SOL     OW29164   2.732   4.094   3.535 -0.3413 -0.3633  0.3952
 5902SOL    HW129165   2.653   4.146   3.552  0.2221  1.5692 -2.7535
 5902SOL    HW229166   2.698   4.005   3.527  0.9447 -0.7982 -0.1912
 5903SOL     OW29167   3.384   3.792   6.461  0.2308  0.4797 -0.0978
 5903SOL    HW129168   3.305   3.843   6.477 -0.2802 -0.1580 -0.5805
 5903SOL    HW229169   3.342   3.740   6.393 -0.0658  0.0575  0.4090
 5904SOL     OW29170   2.836   2.552   9.262 -0.4168  0.1857 -0.0289
 5904SOL    HW129171   2.828   2.489   9.191  1.3294  0.7368 -0.7219
 5904SOL    HW229172   2.921   2.540   9.306 -0.2480  1.9677  0.1512
 5905SOL     OW29173   2.579   2.417   3.831  0.3685  0.2378 -0.0400
 5905SOL    HW129174   2.613   2.327   3.834 -2.7440 -0.8958  2.0005
 5905SOL    HW229175   2.655   2.471   3.812  1.8575 -1.8314 -0.0429
 5906SOL     OW29176   2.046   2.772   8.050 -0.5088 -0.5184  0.0541
 5906SOL    HW129177   2.037   2.762   8.144  0.9629  1.5892  0.4301
 5906SOL    HW229178   2.099   2.695   8.030 -0.7007 -0.8271  0.7576
 5907SOL     OW29179   0.946   4.051   8.293 -0.1809 -0.0481  0.2815
 5907SOL    HW129180   0.966   4.145   8.291  1.9944 -0.5196  0.1629
 5907SOL    HW229181   0.893   4.042   8.213 -0.6042  1.3474  0.4035
 5908SOL     OW29182   3.514   3.355   8.148  0.2566  0.0040 -0.1779
 5908SOL    HW129183   3.596   3.405   8.143 -0.6439  1.2731 -1.8520
 5908SOL    HW229184   3.445   3.420   8.141 -1.5266 -1.9126 -0.3630
 5909SOL     OW29185   0.563   2.201   8.923  0.7399 -0.5267  0.2793
 5909SOL    HW129186   0.527   2.273   8.975 -1.1070 -0.8034 -0.5881
 5909SOL    HW229187   0.549   2.229   8.832 -0.7121  1.1439  1.0121
 5910SOL     OW29188   4.257   1.895   6.573 -0.3646 -0.4599  0.0502
 5910SOL    HW129189   4.184   1.895   6.511 -0.6543  1.1527  0.4086
 5910SOL    HW229190   4.267   1.800   6.586 -0.7359 -0.5234 -0.1178
 5911SOL     OW29191   1.750   2.104  15.943 -0.0453 -0.2649 -0.5748
 5911SOL    HW129192   1.688   2.038  15.911  0.1714 -2.2071  3.1000
 5911SOL    HW229193   1.692   2.165  15.989  0.6807 -0.0249  0.0148
 5912SOL     OW29194   0.242   1.383   6.872  0.8210 -0.3084 -0.3057
 5912SOL    HW129195   0.224   1.462   6.923 -1.1394  0.2530 -1.8751
 5912SOL    HW229196   0.302   1.416   6.806  1.7568  0.4867  0.9266
 5913SOL     OW29197   4.443   1.275   5.007  0.1986  0.1102 -0.0043
 5913SOL    HW129198   4.392   1.353   5.028 -0.7280 -0.5288  0.0994
 5913SOL    HW229199   4.496   1.259   5.086 -0.5853  1.9329  0.8785
 5914SOL     OW29200   2.224   3.339   3.511  0.0651  0.5993  0.3396
 5914SOL    HW129201   2.293   3.402   3.534  2.3309 -2.2354  1.2747
 5914SOL    HW229202   2.144   3.392   3.514  0.2682  0.9605 -0.4548
 5915SOL     OW29203   1.870   0.412   3.519 -0.2841 -0.0645  0.1699
 5915SOL    HW129204   1.781   0.388   3.493 -1.0215  3.3574 -0.4280
 5915SOL    HW229205   1.887   0.493   3.471  1.1977 -0.2047  0.4527
 5916SOL     OW29206   4.250   3.527   5.461 -0.0860  0.3438 -0.1326
 5916SOL    HW129207   4.273   3.607   5.413 -1.2266  1.1458  0.6390
 5916SOL    HW229208   4.154   3.531   5.465 -0.1232 -1.0792  0.4540
 5917SOL     OW29209   1.625   1.222   8.729  0.3999 -0.1661 -0.4726
 5917SOL    HW129210   1.719   1.211   8.714  0.4132  1.5396 -1.5897
 5917SOL    HW229211   1.621   1.316   8.715 -1.1123 -0.1645  0.0260
 5918SOL     OW29212   4.707   1.296  10.966  0.5212 -0.0076 -0.2633
 5918SOL    HW129213   4.664   1.211  10.953  0.1117  0.4448 -1.7767
 5918SOL    HW229214   4.707   1.334  10.879  1.6009 -0.6325 -0.5420
 5919SOL     OW29215   3.460   2.957   8.918  0.1634 -0.9672 -0.3518
 5919SOL    HW129216   3.547   2.951   8.878 -1.0034 -2.0595 -2.7618
 5919SOL    HW229217   3.479   3.025   8.982  0.1789  1.6501 -3.1288
 5920SOL     OW29218   3.113   1.648   2.125 -0.1966  0.4345  0.0867
 5920SOL    HW129219   3.072   1.613   2.046 -0.7883 -1.7390  1.3647
 5920SOL    HW229220   3.205   1.622   2.126  0.1118  1.5122  1.3957
 5921SOL     OW29221   2.794   0.549   4.794 -0.4720 -0.2577 -0.6577
 5921SOL    HW129222   2.755   0.491   4.728 -0.3956 -0.5275 -0.4701
 5921SOL    HW229223   2.879   0.511   4.817 -1.2438 -1.5003  0.1289
 5922SOL     OW29224   2.560   2.418   8.363 -0.2756 -0.2127  0.5196
 5922SOL    HW129225   2.466   2.422   8.381 -0.6945  0.5625 -1.7947
 5922SOL    HW229226   2.566   2.384   8.274  3.2264  1.5276  0.1072
 5923SOL     OW29227   4.466   4.504   6.508  0.5288  0.5328  0.3430
 5923SOL    HW129228   4.381   4.533   6.543 -0.5154 -1.5698 -0.4430
 5923SOL    HW229229   4.517   4.583   6.526 -0.0974  0.3598  2.9725
 5924SOL     OW29230   1.133   0.278   5.511 -0.6684 -0.7232  0.2371
 5924SOL    HW129231   1.222   0.314   5.515 -1.4753  1.0708  1.7719
 5924SOL    HW229232   1.083   0.359   5.507 -0.6347 -0.6608  1.0647
 5925SOL     OW29233   2.067   4.484  14.596  0.6188  0.1425  0.2477
 5925SOL    HW129234   1.972   4.493  14.594  0.8601  1.8515 -3.8881
 5925SOL    HW229235   2.103   4.499  14.684 -0.9153  2.1209  0.5541
 5926SOL     OW29236   2.056   1.437   5.250 -0.4319 -0.1468  0.2526
 5926SOL    HW129237   2.043   1.397   5.336 -2.4945 -3.5718 -1.6619
 5926SOL    HW229238   2.064   1.531   5.269  0.3942 -0.1378 -0.1662
 5927SOL     OW29239   0.434   3.324  17.588  0.4898  0.0079  0.1825
 5927SOL    HW129240   0.345   3.317  17.554  0.4528 -0.1073  0.3038
 5927SOL    HW229241   0.472   3.375  17.517 -3.1552 -0.0649 -1.8346
 5928SOL     OW29242   1.574   1.584   6.050  0.1924 -0.2944  0.2429
 5928SOL    HW129243   1.642   1.591   6.117  1.4151 -0.8735 -0.9283
 5928SOL    HW229244   1.493   1.568   6.098 -0.9288  2.4365 -0.7377
 5929SOL     OW29245   4.483   4.553  15.305  0.4555 -0.4606  0.1638
 5929SOL    HW129246   4.532   4.472  15.292 -0.9235 -1.2649 -0.0921
 5929SOL    HW229247   4.418   4.539  15.235 -0.2416  1.3400  0.4370
 5930SOL     OW29248   0.262   0.813   2.880  0.4248  0.1002  0.5634
 5930SOL    HW129249   0.328   0.873   2.844 -3.8374  3.2822 -1.9217
 5930SOL    HW229250   0.200   0.803   2.808 -0.5596 -1.6692  1.6847
 5931SOL     OW29251   2.105   0.891   3.950  0.1388 -0.0482 -0.3332
 5931SOL    HW129252   2.114   0.977   3.991 -0.2318  0.0394 -0.4262
 5931SOL    HW229253   2.012   0.878   3.968  0.3599 -0.9843  0.1085
 5932SOL     OW29254   0.456   4.639   6.328 -0.0693 -0.1156  0.5245
 5932SOL    HW129255   0.499   4.711   6.281  0.6443  0.2151  1.6887
 5932SOL    HW229256   0.516   4.623   6.402  0.1400  0.5877  0.5037
 5933SOL     OW29257   2.310   0.525   3.017 -0.2463  0.4563  0.7578
 5933SOL    HW129258   2.219   0.550   3.001 -0.1563 -0.1164 -0.6669
 5933SOL    HW229259   2.340   0.493   2.932  1.0915 -1.1218  1.8114
 5934SOL     OW29260   1.903   0.226   8.006 -0.2669  0.0425 -0.3069
 5934SOL    HW129261   1.898   0.136   8.038 -2.2673 -0.4142 -1.9627
 5934SOL    HW229262   1.830   0.231   7.945  1.1649  0.3950 -1.9639
 5935SOL     OW29263   1.796   3.820  13.880  0.1690  0.3012 -0.1204
 5935SOL    HW129264   1.841   3.878  13.818 -0.4955  0.8481 -0.0871
 5935SOL    HW229265   1.799   3.734  13.840  1.8778 -0.0565  0.7685
 5936SOL     OW29266   0.296   3.948   6.952  0.0208  0.4335  0.1500
 5936SOL    HW129267   0.234   3.951   7.025 -0.7395  1.4877 -0.5256
 5936SOL    HW229268   0.358   4.009   6.991  1.9929 -0.8275 -1.0516
 5937SOL     OW29269   2.034   4.562  13.255 -0.5229  0.1232 -0.0944
 5937SOL    HW129270   1.971   4.633  13.243 -2.4873 -1.8085 -1.0650
 5937SOL    HW229271   1.978   4.493  13.220 -1.6388  0.4998  0.9299
 5938SOL     OW29272   0.805   0.166   7.789 -0.5476 -0.3177 -0.0946
 5938SOL    HW129273   0.710   0.159   7.776 -0.2021  0.7478 -3.3087
 5938SOL    HW229274   0.794   0.218   7.869  2.5848  0.5081 -0.2117
 5939SOL     OW29275   1.708   2.622   9.180  0.2120 -0.6357 -0.2603
 5939SOL    HW129276   1.646   2.580   9.240  0.3228  1.4341  1.3320
 5939SOL    HW229277   1.783   2.568   9.157 -0.4183 -0.7446 -2.0779
 5940SOL     OW29278   1.550   0.177   6.551  0.2669 -1.1558 -0.5149
 5940SOL    HW129279   1.490   0.113   6.512 -0.8002 -0.9886  0.8753
 5940SOL    HW229280   1.635   0.167   6.508  1.7365  3.4456  1.3431
 5941SOL     OW29281   1.395   2.567   6.844  0.0213  0.3953 -0.2477
 5941SOL    HW129282   1.389   2.568   6.940  0.0813 -0.8060 -0.2328
 5941SOL    HW229283   1.439   2.652   6.834  0.6843  0.1296  0.4024
 5942SOL     OW29284   3.960   1.185   4.438  0.0070  0.4139 -0.2451
 5942SOL    HW129285   4.008   1.233   4.506  0.2760 -0.9957  0.5404
 5942SOL    HW229286   4.005   1.101   4.441  0.2294  0.5474  0.2107
 5943SOL     OW29287   2.857   3.950   9.448 -0.0199 -0.0394  0.2885
 5943SOL    HW129288   2.813   3.870   9.419  1.2588 -0.6230 -0.0371
 5943SOL    HW229289   2.825   3.961   9.537  0.1734  1.8728  0.1179
 5944SOL     OW29290   2.568   0.109   1.822  0.1185  0.1601 -0.1790
 5944SOL    HW129291   2.530   0.153   1.746  2.7942  1.7179 -0.5982
 5944SOL    HW229292   2.637   0.059   1.779  0.8626  0.3658  0.7717
 5945SOL     OW29293   2.152   2.992  14.740 -0.2264  0.6638 -0.1835
 5945SOL    HW129294   2.124   2.903  14.718 -0.7879  0.5296  1.0577
 5945SOL    HW229295   2.102   2.992  14.822  0.1638  2.7072  0.0585
 5946SOL     OW29296   3.821   3.182   5.163  0.2705  0.4106  0.1465
 5946SOL    HW129297   3.813   3.151   5.073 -2.6644 -1.3889  1.0027
 5946SOL    HW229298   3.733   3.219   5.166 -0.2195 -0.8561  1.4730
 5947SOL     OW29299   1.270   2.040   0.512  0.3564  0.6226  0.1023
 5947SOL    HW129300   1.322   2.037   0.592 -0.7918  1.4873  0.8936
 5947SOL    HW229301   1.207   2.110   0.529 -0.0022  0.4575 -0.5402
 5948SOL     OW29302   2.931   1.527   0.831  0.1264 -0.1147 -0.7067
 5948SOL    HW129303   3.017   1.564   0.851 -0.3564 -1.4739  3.8162
 5948SOL    HW229304   2.954   1.477   0.752  4.6341  0.4247  0.2548
 5949SOL     OW29305   4.385   4.424   3.856  0.6793 -0.3295 -0.3714
 5949SOL    HW129306   4.317   4.418   3.923  0.2956  3.0156 -0.4552
 5949SOL    HW229307   4.446   4.350   3.858 -0.0124 -0.8906  0.0346
 5950SOL     OW29308   3.797   1.190   9.079  0.3676  0.2674  0.0632
 5950SOL    HW129309   3.798   1.108   9.031  1.6003 -0.1561  0.8042
 5950SOL    HW229310   3.860   1.185   9.151 -0.8894  0.0321  1.1420
 5951SOL     OW29311   4.346   2.669   1.858  0.4150  0.1140 -1.0100
 5951SOL    HW129312   4.299   2.708   1.784 -0.2996 -1.8807 -1.6213
 5951SOL    HW229313   4.302   2.588   1.833  2.4660 -1.5613  0.8519
 5952SOL     OW29314   1.446   1.904   3.675  0.7925  0.6635  0.3677
 5952SOL    HW129315   1.530   1.863   3.656  0.5408 -0.6636  2.1128
 5952SOL    HW229316   1.471   1.988   3.714  0.0605  0.3976  1.4135
 5953SOL     OW29317   2.806   3.501   7.063  0.2436 -0.2007  0.5850
 5953SOL    HW129318   2.787   3.538   7.149  1.6671 -3.0118  2.1072
 5953SOL    HW229319   2.726   3.451   7.046 -0.3435  0.4126  1.5800
 5954SOL     OW29320   2.948   2.844  13.006 -0.2637 -0.5755  0.3653
 5954SOL    HW129321   2.869   2.853  13.061 -1.8499 -2.4258 -1.5906
 5954SOL    HW229322   3.014   2.843  13.075 -0.4111  1.3057  0.5318
 5955SOL     OW29323   3.513   2.819   6.092 -0.7804 -0.4201  0.0919
 5955SOL    HW129324   3.556   2.903   6.082 -2.5108  0.1707 -2.2676
 5955SOL    HW229325   3.422   2.839   6.070 -0.0725  0.6924 -1.7639
 5956SOL     OW29326   3.009   1.453   4.237  1.0872 -0.1620  0.5866
 5956SOL    HW129327   2.919   1.466   4.267 -0.1273 -1.9767 -2.3301
 5956SOL    HW229328   3.051   1.388   4.293  1.7517 -2.5415 -2.6902
 5957SOL     OW29329   0.948   3.139   2.658  0.3054 -0.7631 -0.0349
 5957SOL    HW129330   0.862   3.098   2.654 -1.2421  2.4062  0.1256
 5957SOL    HW229331   0.928   3.228   2.689 -2.3410 -1.5345  0.4973
 5958SOL     OW29332   3.884   0.640  16.572 -0.2746  0.2802 -0.0858
 5958SOL    HW129333   3.965   0.602  16.608  0.2739  1.4113 -0.1051
 5958SOL    HW229334   3.824   0.658  16.644  1.0172  1.0901  0.8048
 5959SOL     OW29335   2.663   0.968  13.064 -1.0241  0.0339  0.0436
 5959SOL    HW129336   2.674   0.965  13.159 -0.8478  1.8277  0.0832
 5959SOL    HW229337   2.696   1.054  13.039  0.2883  0.2315  2.3985
 5960SOL     OW29338   0.112   4.635   7.308 -0.1699  0.4674 -0.5618
 5960SOL    HW129339   0.050   4.567   7.329  0.7090 -0.0956  0.2019
 5960SOL    HW229340   0.175   4.582   7.259  1.5004  1.5657  0.3604
 5961SOL     OW29341   3.928   3.537   9.508  0.0286  0.0378 -0.0978
 5961SOL    HW129342   3.858   3.494   9.557  1.5291 -1.4041  0.7669
 5961SOL    HW229343   3.996   3.561   9.571 -0.5099 -0.3473  0.6284
 5962SOL     OW29344   2.680   4.065   9.951 -0.1182 -0.2550 -0.2913
 5962SOL    HW129345   2.600   4.087   9.999  0.7642  0.4675  0.8510
 5962SOL    HW229346   2.739   4.136   9.977  0.4024 -1.3802  1.5470
 5963SOL     OW29347   2.217   1.916  17.074  0.4716 -0.2834 -0.1808
 5963SOL    HW129348   2.140   1.957  17.113  0.7708 -0.2017  0.3158
 5963SOL    HW229349   2.258   1.876  17.150  1.3697 -1.3241 -1.2009
 5964SOL     OW29350   2.716   3.293  17.378  0.1268  0.3094  0.2755
 5964SOL    HW129351   2.808   3.287  17.404  0.0580 -2.6492 -0.1995
 5964SOL    HW229352   2.693   3.364  17.438  1.7882  1.3669 -0.3194
 5965SOL     OW29353   1.793   1.357   4.224 -0.1288  0.2878  0.2650
 5965SOL    HW129354   1.785   1.432   4.165  1.8227 -1.1094 -1.7827
 5965SOL    HW229355   1.805   1.407   4.305  1.1028  0.6892 -0.1612
 5966SOL     OW29356   2.465   2.098  12.148 -0.3583 -0.4691  0.4010
 5966SOL    HW129357   2.501   2.145  12.073  0.3478 -0.1718  0.9242
 5966SOL    HW229358   2.438   2.018  12.103 -1.3071 -1.4923  2.7685
 5967SOL     OW29359   3.583   3.982   9.180 -0.2468 -0.0408 -0.0517
 5967SOL    HW129360   3.588   3.944   9.092  0.9316 -1.1339  0.4772
 5967SOL    HW229361   3.507   4.039   9.183 -1.7884 -1.9357 -2.8838
 5968SOL     OW29362   3.816   3.060   3.885 -0.6132 -0.1867 -0.8896
 5968SOL    HW129363   3.800   3.024   3.798  0.3058  0.2223 -1.2320
 5968SOL    HW229364   3.781   2.990   3.941  0.1030  0.1586 -0.0122
 5969SOL     OW29365   0.788   1.243   7.344 -0.2346  0.0285  0.3449
 5969SOL    HW129366   0.861   1.191   7.377  0.1032 -0.3106 -0.9099
 5969SOL    HW229367   0.834   1.304   7.287 -1.2843  0.2715 -0.2442
 5970SOL     OW29368   2.075   1.460   3.974 -0.0382  0.7357 -0.1623
 5970SOL    HW129369   2.154   1.478   3.923 -0.6313  0.6599 -1.1030
 5970SOL    HW229370   2.068   1.551   4.005  0.1100  0.4328  0.7763
 5971SOL     OW29371   2.827   4.036   1.850 -0.5841 -0.5215  0.1620
 5971SOL    HW129372   2.826   4.015   1.943  0.4221 -1.3091  0.0061
 5971SOL    HW229373   2.921   4.038   1.835 -0.9759  0.2806 -2.1291
 5972SOL     OW29374   0.830   1.463   2.033 -0.2658  0.1513  0.2894
 5972SOL    HW129375   0.808   1.525   1.963 -1.0144  2.0334  2.2142
 5972SOL    HW229376   0.749   1.417   2.055 -0.3759  0.5569  0.7329
 5973SOL     OW29377   3.308   4.466   7.868  0.4638  0.0438 -0.6740
 5973SOL    HW129378   3.392   4.490   7.828  1.2588 -0.7287  0.5176
 5973SOL    HW229379   3.255   4.441   7.793  1.3614  0.2975 -1.3964
 5974SOL     OW29380   0.130   2.339   6.259 -0.2707 -0.7578  0.0476
 5974SOL    HW129381   0.073   2.324   6.334 -0.4196  0.2083  0.1275
 5974SOL    HW229382   0.091   2.407   6.204  0.0307 -0.6437 -0.0269
 5975SOL     OW29383   2.732   0.172   4.304 -0.3690  0.2413 -0.0348
 5975SOL    HW129384   2.674   0.241   4.335 -0.2733  0.0831  0.4938
 5975SOL    HW229385   2.693   0.167   4.216  0.2066 -2.0844 -0.1801
 5976SOL     OW29386   0.333   3.509   6.089 -0.7198 -0.4625 -0.1423
 5976SOL    HW129387   0.420   3.494   6.127 -1.1850 -0.1921  1.0068
 5976SOL    HW229388   0.296   3.579   6.143  1.8836 -0.1279  1.2326
 5977SOL     OW29389   3.672   3.729   7.926  0.0251  0.2412 -0.2551
 5977SOL    HW129390   3.756   3.714   7.970 -0.4748 -0.4329  0.4610
 5977SOL    HW229391   3.625   3.650   7.950  0.5456  0.8569  2.7830
 5978SOL     OW29392   2.548   2.602   5.406  0.5004 -0.4261  0.0173
 5978SOL    HW129393   2.551   2.679   5.463  0.4103  1.2070 -2.1644
 5978SOL    HW229394   2.602   2.635   5.334 -0.6957  1.8807  0.1601
 5979SOL     OW29395   2.553   4.384   8.760  0.2421  0.0502  0.1010
 5979SOL    HW129396   2.502   4.350   8.833  1.1747  0.6909  1.0373
 5979SOL    HW229397   2.600   4.312   8.719  0.6647 -0.4751  1.5195
 5980SOL     OW29398   3.178   3.830   3.124 -0.2392 -0.4316 -0.1629
 5980SOL    HW129399   3.229   3.907   3.150 -0.8130 -0.2290  0.3718
 5980SOL    HW229400   3.238   3.757   3.142  1.1460  0.7368  0.0074
 5981SOL     OW29401   0.989   2.731   3.481  0.5964 -0.5487  0.6835
 5981SOL    HW129402   1.029   2.700   3.400  1.4469  0.6345  0.6552
 5981SOL    HW229403   0.940   2.807   3.448  2.2410  1.0367  1.8737
 5982SOL     OW29404   3.521   3.610   4.325  0.1200  0.3789  0.4122
 5982SOL    HW129405   3.487   3.526   4.357 -0.4080  1.0845  1.6919
 5982SOL    HW229406   3.447   3.649   4.278 -0.2981  1.7895  2.2540
 5983SOL     OW29407   2.518   1.041   7.419 -0.8953  0.4618  0.1094
 5983SOL    HW129408   2.595   0.999   7.459  0.1328  0.9126 -1.4145
 5983SOL    HW229409   2.541   1.027   7.327 -2.1439 -1.1424  0.0390
 5984SOL     OW29410   3.601   0.447   3.030  0.3482 -0.1843  0.2732
 5984SOL    HW129411   3.507   0.464   3.023  0.3318 -0.6581 -0.6808
 5984SOL    HW229412   3.599   0.352   3.044 -1.4539 -0.4840 -2.1033
 5985SOL     OW29413   0.875   0.570  12.225 -0.1338  0.2537 -0.9042
 5985SOL    HW129414   0.841   0.495  12.273  2.7253  0.6337  1.6450
 5985SOL    HW229415   0.940   0.600  12.288  0.0574  0.8999 -1.4139
 5986SOL     OW29416   2.524   2.777   4.678 -0.0597 -0.2363 -0.2551
 5986SOL    HW129417   2.551   2.757   4.589  0.5078  1.1977 -0.4110
 5986SOL    HW229418   2.481   2.696   4.705  1.0435 -0.7350 -0.0090
 5987SOL     OW29419   3.016   2.328   4.348 -0.7657 -0.3007  0.8847
 5987SOL    HW129420   2.920   2.326   4.352 -0.7913  0.2356  0.6049
 5987SOL    HW229421   3.037   2.408   4.396 -1.5411  0.0151  0.7130
 5988SOL     OW29422   2.237   2.010   3.514  0.0821  0.1366 -0.1857
 5988SOL    HW129423   2.170   1.991   3.579  1.8810 -0.3911  1.5105
 5988SOL    HW229424   2.291   2.079   3.554  0.8021 -1.0453  0.8828
 5989SOL     OW29425   1.056   4.524  17.507  0.0186 -0.5665  0.2664
 5989SOL    HW129426   0.992   4.496  17.572  0.5563 -0.2396  0.9410
 5989SOL    HW229427   1.049   4.618  17.524  0.4403  0.2451 -3.9486
 5990SOL     OW29428   3.034   0.098   1.765 -0.4678  0.0816 -0.6039
 5990SOL    HW129429   3.091   0.028   1.796  0.8613  2.8088  3.1037
 5990SOL    HW229430   3.095   0.139   1.704  0.4217 -1.3692 -0.6751
 5991SOL     OW29431   1.004   4.242  11.062 -0.4614 -0.0448  0.2085
 5991SOL    HW129432   0.982   4.312  11.000  1.4113 -0.1634 -0.5962
 5991SOL    HW229433   0.946   4.271  11.132  0.6119  2.2902  0.1418
 5992SOL     OW29434   2.348   0.206   2.758 -0.2714  0.0939 -0.1404
 5992SOL    HW129435   2.279   0.247   2.811 -1.1972 -1.0765 -0.4621
 5992SOL    HW229436   2.296   0.155   2.696  1.0544  1.7045 -2.6053
 5993SOL     OW29437   2.535   3.163   5.425  0.1838 -0.1279 -0.0856
 5993SOL    HW129438   2.568   3.160   5.335  0.7481  0.5733  0.0911
 5993SOL    HW229439   2.532   3.254   5.454  0.1728 -0.3931  0.7524
 5994SOL     OW29440   1.248   0.508   3.244 -1.0050 -0.3598 -0.5361
 5994SOL    HW129441   1.310   0.532   3.176  0.7064  0.5807  1.3868
 5994SOL    HW229442   1.179   0.574   3.236 -2.3031 -1.3528  2.5735
 5995SOL     OW29443   1.077   2.478   4.435 -0.2332 -0.0710  0.0808
 5995SOL    HW129444   1.046   2.568   4.420 -0.4073 -0.1993 -0.3168
 5995SOL    HW229445   1.039   2.439   4.356 -2.8221  0.1027  1.2241
 5996SOL     OW29446   3.201   2.038   7.869  0.9552  0.5924  0.0843
 5996SOL    HW129447   3.262   2.010   7.801 -0.2597 -0.2919 -0.6226
 5996SOL    HW229448   3.241   2.013   7.952 -3.1635 -0.9087  1.5777
 5997SOL     OW29449   1.976   3.464  17.635  0.6199 -0.0613 -0.2636
 5997SOL    HW129450   2.051   3.495  17.686  0.9274 -0.1362 -0.6743
 5997SOL    HW229451   1.926   3.545  17.625  1.0550  0.4593  1.7610
 5998SOL     OW29452   4.190   2.022   0.392 -0.0297  0.5480 -0.1910
 5998SOL    HW129453   4.212   2.100   0.340 -1.0656  0.7970 -0.2582
 5998SOL    HW229454   4.179   1.949   0.331  1.5109  0.2904 -0.1506
 5999SOL     OW29455   2.643   4.508   5.482  0.4737  0.0749 -0.0787
 5999SOL    HW129456   2.579   4.437   5.472  0.2004  0.2786  0.2334
 5999SOL    HW229457   2.627   4.549   5.397 -1.5174 -2.4192 -0.8878
 6000SOL     OW29458   0.581   4.426   8.216  0.5435  0.1568  0.1668
 6000SOL    HW129459   0.565   4.367   8.289  0.2813  0.5333  0.4146
 6000SOL    HW229460   0.529   4.384   8.148  2.7822 -2.9593  0.4018
 6001SOL     OW29461   0.577   2.457   8.325 -0.4629 -0.3167 -0.8345
 6001SOL    HW129462   0.546   2.368   8.342  1.1897 -0.8543 -0.6709
 6001SOL    HW229463   0.666   2.464   8.359  0.0715 -3.8944 -1.5395
 6002SOL     OW29464   2.762   0.913   2.773  0.3452 -0.0405  0.2340
 6002SOL    HW129465   2.687   0.854   2.771  0.4214 -0.1616  1.3076
 6002SOL    HW229466   2.744   0.960   2.691 -0.6648  0.9208  1.0179
 6003SOL     OW29467   3.425   0.049   3.022 -0.0930  0.2423  0.3442
 6003SOL    HW129468   3.498   4.711   3.005 -1.7878 -1.9302  0.5868
 6003SOL    HW229469   3.458   0.085   3.104  1.9424  0.1190 -0.4368
 6004SOL     OW29470   0.253   4.255   4.151 -0.2324 -0.2121  0.2037
 6004SOL    HW129471   0.188   4.214   4.094  0.6280  0.0017 -0.9329
 6004SOL    HW229472   0.263   4.183   4.213  0.8736  1.3336  1.8005
 6005SOL     OW29473   0.292   1.999  13.165  0.0527  0.2005 -0.1966
 6005SOL    HW129474   0.366   1.938  13.170  0.9436  1.3317  0.5562
 6005SOL    HW229475   0.245   1.989  13.083  0.3415  1.4193 -0.5183
 6006SOL     OW29476   0.182   1.487   2.828 -0.4034 -0.0821  0.1187
 6006SOL    HW129477   0.173   1.456   2.918  2.3002  1.6993  0.9914
 6006SOL    HW229478   0.109   1.441   2.786 -0.6205  0.0804  0.3101
 6007SOL     OW29479   3.132   2.892  10.064  0.1833 -0.1708 -0.2742
 6007SOL    HW129480   3.165   2.813  10.109  1.4768  0.3183 -0.3780
 6007SOL    HW229481   3.119   2.949  10.140  0.8526 -0.6802  0.2296
 6008SOL     OW29482   0.952   2.170   2.969  0.0879 -0.2317  0.6988
 6008SOL    HW129483   1.036   2.144   2.929 -0.5158 -0.4536 -0.4232
 6008SOL    HW229484   0.982   2.242   3.024  0.3214  1.0244 -1.0563
 6009SOL     OW29485   0.464   1.902  10.273  0.0306  0.3678 -0.4344
 6009SOL    HW129486   0.466   1.854  10.190  1.0712 -0.4134  0.0351
 6009SOL    HW229487   0.464   1.991  10.239 -0.5326  0.8866  0.9165
 6010SOL     OW29488   4.508   0.280   6.921  0.1603 -0.8109 -0.0743
 6010SOL    HW129489   4.486   0.280   6.828  0.2655 -0.7342 -0.0987
 6010SOL    HW229490   4.439   0.223   6.956  0.2660 -0.5495  0.5549
 6011SOL     OW29491   1.634   1.289   7.115 -0.2397  0.1807  0.2665
 6011SOL    HW129492   1.624   1.340   7.196 -0.6375 -1.9561  1.5680
 6011SOL    HW229493   1.671   1.356   7.059 -3.2699 -0.9243 -3.0533
 6012SOL     OW29494   3.511   1.532   8.510  0.5675 -0.4316 -0.5234
 6012SOL    HW129495   3.560   1.466   8.461  0.8911 -2.5846  2.7588
 6012SOL    HW229496   3.423   1.504   8.486  0.4067  0.3520 -0.8688
 6013SOL     OW29497   2.223   1.021  10.916 -0.2532 -0.4660 -0.1951
 6013SOL    HW129498   2.284   1.086  10.881  1.0710 -2.2072 -1.1159
 6013SOL    HW229499   2.152   1.076  10.950 -0.7223 -0.5435 -1.0684
 6014SOL     OW29500   2.643   0.883   4.286 -0.3665 -0.7001 -0.2099
 6014SOL    HW129501   2.556   0.867   4.323 -0.6053 -0.7826 -0.8132
 6014SOL    HW229502   2.662   0.959   4.342 -0.0158 -0.4105 -0.7262
 6015SOL     OW29503   4.241   2.410   3.695 -0.5917  0.2827 -0.6010
 6015SOL    HW129504   4.298   2.409   3.618 -0.4226  0.3570 -0.4765
 6015SOL    HW229505   4.238   2.322   3.731  2.0285  1.3329  2.1330
 6016SOL     OW29506   2.796   3.773   4.049  0.2414  0.3832  0.1971
 6016SOL    HW129507   2.800   3.681   4.078 -0.0127  0.8546  1.7413
 6016SOL    HW229508   2.875   3.784   3.997 -0.3694  1.2392 -0.5339
 6017SOL     OW29509   1.953   1.555   3.588 -0.5469 -0.5636  0.2427
 6017SOL    HW129510   1.907   1.609   3.523  2.0753  0.8480 -0.4632
 6017SOL    HW229511   1.886   1.512   3.641 -0.0875 -1.4831  0.0817
 6018SOL     OW29512   3.168   2.336   1.279  0.0726  0.2843  0.6620
 6018SOL    HW129513   3.120   2.398   1.335 -0.4953  1.4992 -1.1518
 6018SOL    HW229514   3.254   2.377   1.290  1.0006 -1.0972 -1.5169
 6019SOL     OW29515   4.481   0.732  12.724 -0.1186  0.6934 -0.1860
 6019SOL    HW129516   4.431   0.732  12.805  0.1079 -0.5119 -0.0473
 6019SOL    HW229517   4.520   0.645  12.734  0.9626  1.2164  0.1836
 6020SOL     OW29518   0.605   4.071   6.325 -0.1299  0.0117  0.1497
 6020SOL    HW129519   0.666   4.138   6.355  0.2365 -0.2950  0.0863
 6020SOL    HW229520   0.554   4.126   6.265  1.2676 -0.3605 -1.3793
 6021SOL     OW29521   1.675   4.651   2.956 -0.2471 -0.2230  0.3800
 6021SOL    HW129522   1.723   0.006   2.988  0.5578  0.4777 -2.4359
 6021SOL    HW229523   1.735   4.577   2.968  1.5358  0.9333 -1.4508
 6022SOL     OW29524   2.281   2.020  15.057  0.5756  0.0839  0.0447
 6022SOL    HW129525   2.358   1.971  15.027 -0.6734 -2.1873  0.5771
 6022SOL    HW229526   2.220   2.014  14.984  0.0181  1.6453  0.3743
 6023SOL     OW29527   3.969   3.744  14.875  0.3764 -0.0240  0.0779
 6023SOL    HW129528   3.899   3.789  14.828 -1.2375 -1.2974  1.2424
 6023SOL    HW229529   3.931   3.749  14.963  0.9977  0.1249  0.3371
 6024SOL     OW29530   3.051   4.242   2.028  0.1657  0.4433  0.1739
 6024SOL    HW129531   3.016   4.153   2.038  2.2937 -0.6706 -2.2756
 6024SOL    HW229532   3.060   4.274   2.118  1.0465 -0.1974  0.3178
 6025SOL     OW29533   0.486   0.082  17.290  0.0861  0.0001  0.1599
 6025SOL    HW129534   0.559   0.033  17.327 -0.8265 -1.1497  0.4440
 6025SOL    HW229535   0.519   0.163  17.252 -1.8455  0.4386 -0.6119
 6026SOL     OW29536   2.361   3.142   7.817 -0.4104  0.2204 -0.5652
 6026SOL    HW129537   2.383   3.206   7.884  1.7887  0.5563 -1.5958
 6026SOL    HW229538   2.271   3.114   7.833 -0.1640  0.6636  1.6096
 6027SOL     OW29539   3.137   3.256  10.541  0.0673 -0.0341 -0.4433
 6027SOL    HW129540   3.156   3.309  10.619 -0.1914 -0.7479  0.1054
 6027SOL    HW229541   3.221   3.210  10.533  0.4778  0.6266  0.0978
 6028SOL     OW29542   0.510   2.008   2.273 -0.0701 -0.0384 -0.2356
 6028SOL    HW129543   0.580   2.014   2.337  0.0492 -1.4248 -0.2238
 6028SOL    HW229544   0.465   1.923   2.281  1.5112 -0.9687 -1.2562
 6029SOL     OW29545   3.441   4.192  10.915 -0.1170 -0.3411 -0.3890
 6029SOL    HW129546   3.349   4.171  10.930 -0.1066 -0.1279 -0.0370
 6029SOL    HW229547   3.476   4.105  10.932 -0.4055 -0.2463  0.7174
 6030SOL     OW29548   0.327   4.106   2.508 -0.0203 -0.3753  0.4646
 6030SOL    HW129549   0.294   4.060   2.585 -1.3731  1.5730  1.0295
 6030SOL    HW229550   0.395   4.161   2.548  1.1774 -0.5204 -1.3635
 6031SOL     OW29551   3.917   3.858   8.702  0.4813 -0.7646  0.2030
 6031SOL    HW129552   3.873   3.943   8.712  3.0740  0.7008 -0.8496
 6031SOL    HW229553   3.977   3.855   8.777 -1.5124 -0.9858  1.7939
 6032SOL     OW29554   2.993   2.960   5.750  0.3672  0.8536 -0.0494
 6032SOL    HW129555   3.061   3.028   5.753 -1.0527  2.4445 -4.0960
 6032SOL    HW229556   2.917   2.993   5.702  0.3900  1.8578  0.5926
 6033SOL     OW29557   0.358   1.199   3.869  0.3528  0.2543  0.1039
 6033SOL    HW129558   0.283   1.194   3.810  0.5829 -2.8082  0.0618
 6033SOL    HW229559   0.387   1.110   3.848  1.6054  0.4101  1.1456
 6034SOL     OW29560   2.262   2.273   9.809  0.4399 -0.1748  0.2421
 6034SOL    HW129561   2.348   2.232   9.805  1.0615  1.1611  0.1198
 6034SOL    HW229562   2.248   2.289   9.715 -2.2310  0.2700  0.7201
 6035SOL     OW29563   2.184   0.932   4.329  0.3444 -0.1941  0.0425
 6035SOL    HW129564   2.137   0.851   4.347  1.1105 -0.6567 -0.0588
 6035SOL    HW229565   2.243   0.915   4.255  0.2774 -1.3109  0.2569
 6036SOL     OW29566   2.079   3.567   2.938  0.0133  0.2362 -0.0320
 6036SOL    HW129567   2.031   3.601   2.863 -0.1450 -0.7333 -0.3625
 6036SOL    HW229568   2.013   3.529   2.996 -0.9401 -0.1339 -1.3703
 6037SOL     OW29569   0.915   1.277   3.523  0.1722  0.0272  0.2102
 6037SOL    HW129570   0.919   1.259   3.429 -0.2846 -0.2494  0.2460
 6037SOL    HW229571   0.822   1.297   3.531 -0.3494 -1.8720 -1.1032
 6038SOL     OW29572   0.040   4.258   3.474 -0.6610  0.7305  0.2278
 6038SOL    HW129573   0.050   4.188   3.411 -3.0018  0.3241  0.3245
 6038SOL    HW229574   4.701   4.213   3.533  2.4409 -1.8264  1.4344
 6039SOL     OW29575   3.456   3.943   4.311  0.4392 -0.0111  0.1288
 6039SOL    HW129576   3.369   3.981   4.305  0.3573 -0.4450 -1.3790
 6039SOL    HW229577   3.441   3.862   4.361 -2.7485  0.3891 -0.2037
 6040SOL     OW29578   1.396   1.634  11.681  0.1593 -0.5181  0.2120
 6040SOL    HW129579   1.467   1.653  11.620  2.4212 -3.0870  2.0284
 6040SOL    HW229580   1.415   1.700  11.748  1.8882 -2.5855  1.7516
 6041SOL     OW29581   0.192   2.334   6.993  0.0778  0.1867 -0.3072
 6041SOL    HW129582   0.271   2.298   7.034  0.8060  2.0592 -0.0779
 6041SOL    HW229583   0.194   2.301   6.903 -3.1369  0.2669 -0.3991
 6042SOL     OW29584   1.093   2.435   0.674 -0.1490  0.5191  0.3779
 6042SOL    HW129585   1.187   2.443   0.658 -0.1747  1.0653  0.5090
 6042SOL    HW229586   1.083   2.517   0.723 -0.5332  0.9539 -0.4383
 6043SOL     OW29587   2.686   0.896  13.367 -0.0597 -0.3574  0.0254
 6043SOL    HW129588   2.769   0.925  13.404 -1.1336  0.7785  1.5579
 6043SOL    HW229589   2.626   0.905  13.441  0.1846  1.4269  0.0083
 6044SOL     OW29590   0.880   1.688   7.905  0.0813  0.0968 -0.2037
 6044SOL    HW129591   0.860   1.611   7.957 -1.4407  1.3860  1.1176
 6044SOL    HW229592   0.945   1.733   7.959  1.0770 -1.1402 -0.3717
 6045SOL     OW29593   3.927   1.068   9.711 -0.2354 -0.2152  0.0611
 6045SOL    HW129594   3.852   1.074   9.770 -0.2444 -0.0621  0.0345
 6045SOL    HW229595   3.908   1.138   9.648 -1.4306 -0.3172  0.3105
 6046SOL     OW29596   3.678   1.387   5.431 -0.2573 -0.1185  0.1318
 6046SOL    HW129597   3.648   1.316   5.374 -2.1126  1.0323 -0.3358
 6046SOL    HW229598   3.765   1.356   5.455  0.3610  0.9875 -0.6835
 6047SOL     OW29599   2.543   1.497   4.770  0.1399 -0.0496  0.0835
 6047SOL    HW129600   2.489   1.575   4.755 -2.5135 -1.9291 -0.0623
 6047SOL    HW229601   2.486   1.454   4.834  1.0030 -1.2597  0.0304
 6048SOL     OW29602   0.262   1.147   1.367 -0.4511 -0.3085 -0.2663
 6048SOL    HW129603   0.230   1.234   1.341  0.1959 -0.9546 -3.1496
 6048SOL    HW229604   0.247   1.145   1.462 -1.4245 -0.9488 -0.4267
 6049SOL     OW29605   1.426   3.587   8.398 -0.2513  0.7449  0.0569
 6049SOL    HW129606   1.513   3.628   8.399  0.2624 -0.2630 -3.6287
 6049SOL    HW229607   1.416   3.606   8.491  2.6373 -0.7774  0.6608
 6050SOL     OW29608   1.201   1.233   1.682  0.4230  0.4298 -0.5904
 6050SOL    HW129609   1.120   1.198   1.644  0.6222 -1.0843  0.3955
 6050SOL    HW229610   1.191   1.230   1.777  2.3447 -0.0039 -0.3915
 6051SOL     OW29611   2.153   4.155   5.286  0.1025  0.0049  0.0235
 6051SOL    HW129612   2.062   4.139   5.312  0.3289  1.6498  1.7330
 6051SOL    HW229613   2.161   4.062   5.262  0.9863 -0.2829  1.4898
 6052SOL     OW29614   3.590   2.060  17.349  0.0205 -0.5609 -0.1015
 6052SOL    HW129615   3.644   2.119  17.296 -1.6461  2.0288  1.0553
 6052SOL    HW229616   3.589   1.987  17.287 -1.0527  1.0503 -1.9821
 6053SOL     OW29617   1.733   0.001  10.339 -0.2074 -0.2182  0.1834
 6053SOL    HW129618   1.720   4.672  10.419 -2.4421  0.1049  0.0250
 6053SOL    HW229619   1.645   4.719  10.303 -0.2103  1.5872  0.0068
 6054SOL     OW29620   3.846   3.905   6.518  0.1114  0.4087 -0.4437
 6054SOL    HW129621   3.797   3.962   6.458  0.8649  2.1666  0.6245
 6054SOL    HW229622   3.885   3.852   6.448  1.4151 -0.9394  1.3217
 6055SOL     OW29623   3.793   4.008   2.967  0.5078 -0.0036 -0.0034
 6055SOL    HW129624   3.763   4.082   2.914 -0.7550 -1.1289 -0.8722
 6055SOL    HW229625   3.763   3.935   2.913  3.2301 -0.7639 -0.4436
 6056SOL     OW29626   3.306   3.687   4.168 -0.0982  0.2146  0.1721
 6056SOL    HW129627   3.314   3.756   4.103  0.6198 -0.4929 -0.4851
 6056SOL    HW229628   3.211   3.687   4.182  0.3806  0.6678  3.5732
 6057SOL     OW29629   3.407   1.969   0.807  0.0207 -0.2533  0.1628
 6057SOL    HW129630   3.460   2.036   0.850  0.5078 -1.1107  0.8882
 6057SOL    HW229631   3.326   2.020   0.798 -0.7807 -1.5449 -0.0011
 6058SOL     OW29632   4.605   4.169   7.128 -0.5817 -0.4404  0.6701
 6058SOL    HW129633   4.698   4.172   7.107 -0.6474 -1.2815  0.2564
 6058SOL    HW229634   4.579   4.077   7.134  0.3721 -0.8654 -1.7669
 6059SOL     OW29635   0.955   3.074   6.014  0.4644 -0.3052 -0.2351
 6059SOL    HW129636   1.021   3.049   6.079  0.1299  0.7069  0.4839
 6059SOL    HW229637   0.894   3.001   6.027  2.3456 -1.5468  1.7609
 6060SOL     OW29638   4.474   1.974   8.393 -0.0404 -0.1634 -0.0881
 6060SOL    HW129639   4.483   2.017   8.308  1.1816 -1.8556 -0.8289
 6060SOL    HW229640   4.477   2.047   8.454  0.8435  0.8695 -1.3645
 6061SOL     OW29641   3.668   2.537   9.173  0.3697 -0.3350 -0.1646
 6061SOL    HW129642   3.696   2.626   9.151  0.0803 -0.3336 -0.5319
 6061SOL    HW229643   3.741   2.487   9.136  2.0101  2.2628 -0.4455
 6062SOL     OW29644   1.149   0.563   6.864  0.0635 -0.2816  0.3088
 6062SOL    HW129645   1.066   0.611   6.865 -0.9811 -2.0394 -1.1699
 6062SOL    HW229646   1.117   0.485   6.909 -3.5352  0.5901 -0.7599
 6063SOL     OW29647   4.563   2.219   0.634 -0.5624  0.0376  0.7289
 6063SOL    HW129648   4.575   2.297   0.689  2.3884  0.6313 -0.7238
 6063SOL    HW229649   4.468   2.211   0.643 -0.5197 -1.3614 -0.1224
 6064SOL     OW29650   2.225   3.616   2.143  0.1512  0.5836  0.3018
 6064SOL    HW129651   2.250   3.597   2.053 -0.2761 -0.4835  0.4076
 6064SOL    HW229652   2.185   3.702   2.134  0.3451  0.6705  0.2663
 6065SOL     OW29653   4.323   2.177   1.267  0.3037 -0.0130 -0.1861
 6065SOL    HW129654   4.337   2.083   1.279  0.8119  0.1415  0.4468
 6065SOL    HW229655   4.408   2.211   1.292  0.7186 -0.8615 -0.4313
 6066SOL     OW29656   0.418   2.807  15.862  0.2619  0.3949  0.4127
 6066SOL    HW129657   0.379   2.795  15.948  0.5735  0.5724  0.5810
 6066SOL    HW229658   0.357   2.785  15.792 -1.1586  0.4895  1.6087
 6067SOL     OW29659   3.119   1.678   6.903 -0.1517  0.2021  0.1132
 6067SOL    HW129660   3.206   1.641   6.888 -0.3743  0.0265 -0.7274
 6067SOL    HW229661   3.082   1.654   6.988  0.4302  1.7730  0.8111
 6068SOL     OW29662   0.682   1.781   1.954 -0.2233 -0.6651 -0.1431
 6068SOL    HW129663   0.745   1.752   1.889  0.4458 -0.2847  0.3371
 6068SOL    HW229664   0.745   1.820   2.015 -0.0197 -1.1501 -0.0450
 6069SOL     OW29665   3.783   1.077  16.023 -0.6324 -0.1879 -0.5898
 6069SOL    HW129666   3.739   1.151  16.065  2.2679 -0.0274  2.1620
 6069SOL    HW229667   3.771   1.105  15.933 -0.4830 -0.2608 -0.6311
 6070SOL     OW29668   1.302   1.213   5.505  0.1201  0.0322 -0.0327
 6070SOL    HW129669   1.221   1.257   5.481 -0.6941 -1.5795 -0.2415
 6070SOL    HW229670   1.318   1.161   5.426 -2.8179 -1.0840  0.1276
 6071SOL     OW29671   4.701   4.351   8.355  0.3010  0.0119 -0.4136
 6071SOL    HW129672   4.694   4.438   8.394 -0.3004 -0.8791  1.4817
 6071SOL    HW229673   0.067   4.360   8.317  0.0885 -2.0656 -1.4146
 6072SOL     OW29674   3.790   2.766   9.101  0.2397  0.5666  0.2795
 6072SOL    HW129675   3.759   2.813   9.178  1.2750  0.1043  0.9798
 6072SOL    HW229676   3.766   2.842   9.047  1.2015  0.2251 -0.6149
 6073SOL     OW29677   1.837   3.052  10.334 -0.0752 -0.1668 -0.0162
 6073SOL    HW129678   1.759   3.106  10.349  1.8882  2.5160  0.6263
 6073SOL    HW229679   1.825   2.989  10.405 -1.8461  0.0684 -0.1017
 6074SOL     OW29680   1.642   1.020  10.012  0.0593 -0.9213 -0.2959
 6074SOL    HW129681   1.662   1.017   9.918 -1.7548 -0.1122 -0.6975
 6074SOL    HW229682   1.623   1.114  10.012  1.4114 -0.6432  1.1469
 6075SOL     OW29683   0.029   3.091   7.335 -0.5884  0.6546  0.3662
 6075SOL    HW129684   4.655   3.103   7.336 -0.5365  0.9487  1.6224
 6075SOL    HW229685   0.038   3.064   7.426  0.5839  1.7333  0.5628
 6076SOL     OW29686   1.498   2.079   2.088 -0.7877  0.0628  0.3146
 6076SOL    HW129687   1.581   2.127   2.087  0.3103 -1.8936 -2.8368
 6076SOL    HW229688   1.443   2.146   2.049  3.3027  2.5653 -1.1601
 6077SOL     OW29689   4.417   0.212   8.606  0.0358 -0.4671  0.1458
 6077SOL    HW129690   4.400   0.198   8.699 -0.4191 -0.0870  0.1195
 6077SOL    HW229691   4.359   0.145   8.570 -0.6861 -0.3113  1.0048
 6078SOL     OW29692   1.267   3.544   0.466 -0.2430 -0.3347  0.2272
 6078SOL    HW129693   1.270   3.615   0.531  0.6582  0.8773 -1.1587
 6078SOL    HW229694   1.205   3.482   0.504 -0.0749 -0.7724 -0.2154
 6079SOL     OW29695   1.581   2.535  12.363 -0.2674 -0.0577  0.0563
 6079SOL    HW129696   1.622   2.495  12.439  0.0321 -0.5967 -0.3862
 6079SOL    HW229697   1.566   2.623  12.397  0.4985 -0.3564  1.1718
 6080SOL     OW29698   0.260   0.505  10.072  0.3031 -0.0088 -0.0405
 6080SOL    HW129699   0.338   0.457  10.101  0.8740  0.5190 -0.6880
 6080SOL    HW229700   0.270   0.502   9.976  0.5780 -1.5805  0.0287
 6081SOL     OW29701   0.043   0.600  11.908  0.3220  0.0692  0.0791
 6081SOL    HW129702   0.037   0.551  11.991 -0.9137 -0.5562 -0.3782
 6081SOL    HW229703   4.671   0.604  11.888  0.1390  0.5699  1.0083
 6082SOL     OW29704   4.011   1.125   6.901 -0.0326 -0.3690  0.3667
 6082SOL    HW129705   4.023   1.047   6.954 -1.4066 -1.7137 -1.2602
 6082SOL    HW229706   3.963   1.187   6.957  1.6887  0.4074  0.9668
 6083SOL     OW29707   2.958   3.740   9.005 -0.1709  0.2693  0.1078
 6083SOL    HW129708   3.015   3.671   9.040  0.4736  0.4791 -0.5103
 6083SOL    HW229709   3.017   3.808   8.973 -2.1067  1.3079 -1.2523
 6084SOL     OW29710   3.751   1.751   4.886 -0.0519  0.4350  0.0568
 6084SOL    HW129711   3.675   1.757   4.828 -0.1904 -1.4419  0.0520
 6084SOL    HW229712   3.780   1.841   4.901  0.8823 -0.2129  2.1321
 6085SOL     OW29713   1.832   1.162   6.775  0.1975 -0.2037  0.4935
 6085SOL    HW129714   1.908   1.125   6.730  0.4112  0.7601  0.0488
 6085SOL    HW229715   1.881   1.222   6.831 -1.0798 -0.2441  1.6430
 6086SOL     OW29716   3.424   3.524   6.799 -0.6828  0.1270 -0.2416
 6086SOL    HW129717   3.445   3.499   6.709 -4.2997 -0.0042 -1.0511
 6086SOL    HW229718   3.428   3.438   6.841 -0.2322  0.1475 -0.2476
 6087SOL     OW29719   0.482   3.069   7.140  0.4177 -0.2193 -0.2445
 6087SOL    HW129720   0.474   3.121   7.060  1.3717 -1.2721 -1.0250
 6087SOL    HW229721   0.389   3.059   7.162  0.2223  2.0436 -0.0084
 6088SOL     OW29722   3.146   1.961   6.845 -0.1526 -0.4632 -0.8092
 6088SOL    HW129723   3.160   1.952   6.939 -1.2107 -0.4787 -0.6530
 6088SOL    HW229724   3.137   1.866   6.835  4.8410 -0.8040 -2.4786
 6089SOL     OW29725   3.290   2.613   3.663  0.3284  0.2135 -0.6811
 6089SOL    HW129726   3.307   2.613   3.757 -1.8405  0.3853 -0.3011
 6089SOL    HW229727   3.252   2.526   3.655 -0.8759  0.7891 -1.2205
 6090SOL     OW29728   4.682   0.173   5.777 -0.3729 -0.2775 -0.3939
 6090SOL    HW129729   4.617   0.110   5.809 -0.7473  0.2781 -0.0554
 6090SOL    HW229730   0.023   0.180   5.849 -1.2624  0.8170  0.2730
 6091SOL     OW29731   3.198   3.761  11.763 -0.1091  0.3089 -0.1369
 6091SOL    HW129732   3.186   3.841  11.712  3.2281 -0.0132 -1.3792
 6091SOL    HW229733   3.285   3.731  11.740 -0.6434 -0.5267 -1.0808
 6092SOL     OW29734   1.921   1.376   2.700  0.2410  0.2457 -0.2831
 6092SOL    HW129735   1.996   1.424   2.667  1.9716 -2.4659 -0.3137
 6092SOL    HW229736   1.970   1.321   2.762  0.3220  0.7317  0.0832
 6093SOL     OW29737   3.887   4.411  11.289  0.2169 -0.2455  0.5454
 6093SOL    HW129738   3.824   4.365  11.345  0.7488 -2.0045 -0.2816
 6093SOL    HW229739   3.882   4.350  11.215 -0.9848  1.0636 -0.4644
 6094SOL     OW29740   3.544   2.376  16.599 -0.0663  0.0175 -0.4435
 6094SOL    HW129741   3.555   2.290  16.560 -0.8903 -0.9185  1.3701
 6094SOL    HW229742   3.455   2.404  16.575  0.9988  0.7078 -3.5805
 6095SOL     OW29743   1.168   0.163   6.298  0.6739  0.1432  0.4405
 6095SOL    HW129744   1.217   0.219   6.239 -1.7168  1.3988 -0.3306
 6095SOL    HW229745   1.229   0.089   6.304 -0.3731 -0.9643 -2.8649
 6096SOL     OW29746   3.223   0.584   3.927  0.9875 -0.5951  0.4898
 6096SOL    HW129747   3.188   0.515   3.871  0.6518  1.0072 -1.2654
 6096SOL    HW229748   3.283   0.639   3.877  0.4438 -1.7381 -1.4195
 6097SOL     OW29749   3.542   0.450  11.576  0.4750 -0.1216 -0.3322
 6097SOL    HW129750   3.525   0.393  11.651 -1.3605  0.1930 -0.5274
 6097SOL    HW229751   3.536   0.380  11.510  0.2942  1.8767 -2.4129
 6098SOL     OW29752   2.464   2.762   8.402  0.5951 -0.4555 -0.0839
 6098SOL    HW129753   2.398   2.698   8.431  0.3069  0.2930  0.9015
 6098SOL    HW229754   2.505   2.706   8.336  0.5850  1.0317 -1.3458
 6099SOL     OW29755   2.384   1.515   2.175  0.5768 -0.1927 -0.1538
 6099SOL    HW129756   2.472   1.536   2.145  0.8768  0.8925  1.4365
 6099SOL    HW229757   2.349   1.604   2.187  0.2251 -0.0800 -2.0365
 6100SOL     OW29758   2.691   4.005   6.632  0.3846  0.0021  0.1670
 6100SOL    HW129759   2.648   3.920   6.634 -1.3098  0.8753  0.8946
 6100SOL    HW229760   2.667   4.046   6.715 -0.8130 -2.9171  1.2704
 6101SOL     OW29761   1.782   1.744   3.506  0.6707  0.1017 -0.5171
 6101SOL    HW129762   1.791   1.818   3.566 -1.2575  1.6426 -2.1407
 6101SOL    HW229763   1.849   1.776   3.446  2.2715 -2.6503 -0.2156
 6102SOL     OW29764   0.606   1.919   7.322  0.1255 -0.9295 -0.1505
 6102SOL    HW129765   0.582   1.956   7.407 -0.0114  1.9247 -1.4214
 6102SOL    HW229766   0.697   1.899   7.340  0.1834 -0.0789  0.5082
 6103SOL     OW29767   3.943   3.054   0.809  0.7222 -0.2020 -0.1661
 6103SOL    HW129768   4.030   3.030   0.778  0.6432 -3.1071  1.8766
 6103SOL    HW229769   3.979   3.100   0.885  1.2467 -2.1001  0.7415
 6104SOL     OW29770   4.183   0.128   7.676  0.0245 -0.3748 -0.2370
 6104SOL    HW129771   4.193   0.221   7.653 -1.0494  0.1231  1.3074
 6104SOL    HW229772   4.139   0.132   7.760 -0.5689  0.7370 -0.5973
 6105SOL     OW29773   4.619   2.413  10.449  0.0807 -0.1574 -0.0930
 6105SOL    HW129774   4.630   2.453  10.535  0.0416  2.9619 -1.5359
 6105SOL    HW229775   4.524   2.401  10.446  0.3796 -2.6862  0.7921
 6106SOL     OW29776   0.266   3.481   8.702  0.2593 -0.4877  0.4074
 6106SOL    HW129777   0.228   3.494   8.789 -0.7854  3.6971 -0.6779
 6106SOL    HW229778   0.206   3.544   8.663  0.1537 -0.9405 -0.1639
 6107SOL     OW29779   2.655   1.812   8.937  0.0278  0.2658  0.2285
 6107SOL    HW129780   2.730   1.862   8.966  0.7929 -0.5029 -0.4211
 6107SOL    HW229781   2.697   1.726   8.939  0.0027  0.3042  2.1507
 6108SOL     OW29782   1.023   4.266   0.435  0.7230  0.6895  0.6690
 6108SOL    HW129783   1.080   4.333   0.472  0.4897 -0.1406  2.5024
 6108SOL    HW229784   1.084   4.198   0.406  1.1393  0.9212  1.0114
 6109SOL     OW29785   2.073   0.882   7.357  0.4823 -0.1413  0.7462
 6109SOL    HW129786   2.135   0.927   7.300 -3.4890 -0.2089 -3.5880
 6109SOL    HW229787   2.103   0.792   7.346 -0.1137 -0.6080  2.8367
 6110SOL     OW29788   0.235   1.501   4.892  0.7127 -0.0997 -0.9436
 6110SOL    HW129789   0.141   1.516   4.902  1.0495  2.2890 -1.3693
 6110SOL    HW229790   0.233   1.526   4.800 -1.4801 -0.5928 -1.0453
 6111SOL     OW29791   0.121   0.228   7.152 -0.4482  0.6223 -0.2563
 6111SOL    HW129792   0.168   0.175   7.088  0.8911  1.9096 -0.3715
 6111SOL    HW229793   0.072   0.160   7.197 -0.8009  1.1524  0.1667
 6112SOL     OW29794   2.040   2.633   9.071 -0.1455 -0.6028 -0.3232
 6112SOL    HW129795   1.996   2.555   9.104 -0.4436  0.0101  0.7394
 6112SOL    HW229796   1.998   2.645   8.986 -1.2364  1.6969  0.5277
 6113SOL     OW29797   2.363   1.613   2.708  0.6734 -0.6148 -0.4616
 6113SOL    HW129798   2.414   1.684   2.669  1.4586 -0.7912  0.2441
 6113SOL    HW229799   2.441   1.563   2.733  0.6906 -0.7168 -0.7132
 6114SOL     OW29800   4.335   0.706   2.585 -0.6510  0.4979  0.4936
 6114SOL    HW129801   4.291   0.621   2.587  1.0368 -0.3787  0.2998
 6114SOL    HW229802   4.260   0.765   2.569  0.5661  2.3183  1.4890
 6115SOL     OW29803   4.353   0.044   3.178  0.2562  0.3185  0.1559
 6115SOL    HW129804   4.439   0.001   3.182  0.8883  1.7442  2.4159
 6115SOL    HW229805   4.337   0.032   3.084  1.8657  0.4197 -0.1394
 6116SOL     OW29806   3.108   2.018   0.878  0.1968 -0.5805 -0.2322
 6116SOL    HW129807   3.040   1.972   0.927 -0.6464  0.7687 -0.1537
 6116SOL    HW229808   3.067   2.104   0.884 -0.5758 -0.9000 -0.8516
 6117SOL     OW29809   4.407   0.976  10.975 -0.3967 -0.4010 -0.4108
 6117SOL    HW129810   4.419   0.913  10.904  0.0140 -0.1167 -0.6026
 6117SOL    HW229811   4.495   1.015  10.974 -1.4976  2.1227 -0.9279
 6118SOL     OW29812   0.934   1.264   6.882 -0.3532  0.1341 -0.3727
 6118SOL    HW129813   0.847   1.257   6.843 -0.2594  1.2652 -0.7705
 6118SOL    HW229814   0.954   1.184   6.931  1.5409  1.7919  1.5066
 6119SOL     OW29815   2.751   1.746   7.577  0.1615 -0.2236 -0.7491
 6119SOL    HW129816   2.787   1.660   7.556  1.5558 -0.0341  0.8019
 6119SOL    HW229817   2.819   1.779   7.636  0.2379  0.0612 -0.9979
 6120SOL     OW29818   3.690   3.224  16.165 -0.6558  0.3541 -0.3475
 6120SOL    HW129819   3.741   3.298  16.131  0.3918 -0.0779  0.3148
 6120SOL    HW229820   3.628   3.267  16.223  0.6471  2.1601 -0.2816
 6121SOL     OW29821   0.018   2.159   6.467 -0.2505  0.5124 -0.2190
 6121SOL    HW129822   0.105   2.122   6.452  0.3564  2.1971 -0.8106
 6121SOL    HW229823   4.683   2.081   6.471 -0.0958  0.3852 -0.5940
 6122SOL     OW29824   4.594   4.058  17.298 -0.5399 -0.1479 -0.3658
 6122SOL    HW129825   4.583   4.131  17.359 -0.3502 -0.8455  0.5045
 6122SOL    HW229826   4.657   4.103  17.241 -3.0371  0.7528 -2.4011
 6123SOL     OW29827   3.614   1.786   2.056 -0.7470 -0.2435  0.0949
 6123SOL    HW129828   3.537   1.824   2.013 -0.1899  1.1740  0.3468
 6123SOL    HW229829   3.598   1.829   2.141  1.2499 -0.0135  0.3589
 6124SOL     OW29830   2.752   3.065   5.614 -0.7552  0.2306  0.8259
 6124SOL    HW129831   2.762   3.018   5.531 -0.1240 -0.5986  1.3766
 6124SOL    HW229832   2.695   3.135   5.582  0.2352  1.1269  1.0572
 6125SOL     OW29833   3.842   3.822  14.619 -0.2857 -0.5472  0.4397
 6125SOL    HW129834   3.775   3.763  14.655 -1.4956  0.0519 -0.8191
 6125SOL    HW229835   3.798   3.904  14.643  1.6337  0.6627 -0.2036
 6126SOL     OW29836   3.899   0.329   6.545  0.4721 -0.3547 -0.0226
 6126SOL    HW129837   3.861   0.321   6.457 -1.6194 -1.4812  0.9977
 6126SOL    HW229838   3.994   0.336   6.540  0.2872  2.1449 -0.2325
 6127SOL     OW29839   2.058   3.584   2.347 -0.1518  0.2989 -0.1904
 6127SOL    HW129840   2.051   3.679   2.359 -0.5433  0.3569 -0.8355
 6127SOL    HW229841   2.127   3.574   2.281  2.3671  1.2535  2.3054
 6128SOL     OW29842   0.077   1.493   8.316  0.2931 -0.3503 -0.5989
 6128SOL    HW129843   0.107   1.522   8.230  0.5833 -1.0698 -0.7437
 6128SOL    HW229844   0.069   1.580   8.354  3.7911 -0.3696  0.1448
 6129SOL     OW29845   1.245   0.638   2.288 -0.0280  0.1921  0.2345
 6129SOL    HW129846   1.272   0.659   2.198 -0.5990  0.5863  0.1530
 6129SOL    HW229847   1.320   0.587   2.317  0.5320  1.1396  0.4379
 6130SOL     OW29848   2.599   3.518   8.615  0.3556  0.4040 -0.0470
 6130SOL    HW129849   2.572   3.432   8.582  1.3358 -0.0210  0.2461
 6130SOL    HW229850   2.690   3.499   8.641 -0.1681 -0.8437  0.8508
 6131SOL     OW29851   1.260   3.248   2.761 -0.5299 -0.3885 -0.1692
 6131SOL    HW129852   1.340   3.222   2.807 -0.5965  1.4202  0.9857
 6131SOL    HW229853   1.199   3.271   2.832 -0.4046 -2.5276  0.6280
 6132SOL     OW29854   2.228   2.239  14.057 -0.3871  0.1660 -0.1391
 6132SOL    HW129855   2.230   2.197  14.144 -0.5539 -0.3793 -0.3956
 6132SOL    HW229856   2.168   2.308  14.085 -0.6092 -0.0968  0.0283
 6133SOL     OW29857   0.328   1.673   4.276  0.1705  0.2447 -0.4835
 6133SOL    HW129858   0.332   1.669   4.181 -2.9476 -1.8842 -0.5191
 6133SOL    HW229859   0.285   1.590   4.297  2.3264 -0.8854 -0.5294
 6134SOL     OW29860   3.761   2.743  17.575 -0.0289  0.6495 -0.1268
 6134SOL    HW129861   3.728   2.711  17.659 -0.1629  1.6955  0.2064
 6134SOL    HW229862   3.781   2.834  17.595  0.8836  0.4688 -0.1851
 6135SOL     OW29863   2.492   2.541   5.746  0.0801  0.0996  0.0757
 6135SOL    HW129864   2.458   2.613   5.800 -1.6638 -0.6464 -0.0491
 6135SOL    HW229865   2.578   2.576   5.721 -0.6066  4.0031  3.1758
 6136SOL     OW29866   2.431   4.536  14.789 -0.0737 -0.0121 -0.0593
 6136SOL    HW129867   2.429   4.594  14.865  0.2914 -2.6710  1.9753
 6136SOL    HW229868   2.342   4.502  14.789  0.4189 -1.3326  0.1555
 6137SOL     OW29869   4.686   4.589   1.416 -0.5633  0.6538  0.1710
 6137SOL    HW129870   4.653   4.522   1.356  0.6095 -0.8983  1.2408
 6137SOL    HW229871   0.012   4.639   1.349 -0.8651  1.7740  0.7973
 6138SOL     OW29872   4.571   4.536   2.419  0.2501  0.6242 -0.8655
 6138SOL    HW129873   4.508   4.492   2.475 -1.9799  1.7665 -2.4909
 6138SOL    HW229874   4.618   4.604   2.467  2.0274 -0.7610 -0.6547
 6139SOL     OW29875   4.315   1.431   4.590 -0.3884 -0.3566  0.1369
 6139SOL    HW129876   4.340   1.522   4.604  0.4066 -0.4335 -0.7855
 6139SOL    HW229877   4.393   1.397   4.546  1.1133  1.4743  1.4121
 6140SOL     OW29878   4.091   3.532  10.259 -0.1215 -0.4950  0.0557
 6140SOL    HW129879   4.091   3.532  10.164 -0.2703 -0.2773  0.0536
 6140SOL    HW229880   4.126   3.445  10.279 -0.1644 -0.6758 -0.6768
 6141SOL     OW29881   0.977   3.783   9.023  0.0699 -0.3626 -0.1898
 6141SOL    HW129882   0.893   3.802   8.981  0.2010  1.0345  0.1769
 6141SOL    HW229883   0.962   3.793   9.117 -0.5618  0.9112 -0.4300
 6142SOL     OW29884   3.363   1.604   4.454  0.9192 -0.3349 -0.3099
 6142SOL    HW129885   3.349   1.516   4.419  0.0701  0.5020 -2.0893
 6142SOL    HW229886   3.456   1.590   4.471  1.4300  1.0229 -2.0316
 6143SOL     OW29887   0.657   3.357   8.570  0.0116  0.3538 -0.4838
 6143SOL    HW129888   0.726   3.413   8.534 -0.5775  0.5311 -1.3303
 6143SOL    HW229889   0.610   3.342   8.488 -0.5107 -0.8665  0.0441
 6144SOL     OW29890   4.291   4.388   8.589  0.0323  0.1269 -0.1794
 6144SOL    HW129891   4.349   4.315   8.572 -0.2656 -0.7527  2.5403
 6144SOL    HW229892   4.315   4.412   8.679 -0.5950 -1.2604  0.3667
 6145SOL     OW29893   0.632   0.469   4.072 -0.3716  0.3083  0.1762
 6145SOL    HW129894   0.641   0.415   4.150  1.1815  1.1428  0.5668
 6145SOL    HW229895   0.693   0.540   4.091  2.1265 -1.2893 -1.7993
 6146SOL     OW29896   3.545   3.215   5.432  0.6453  0.6071  0.1150
 6146SOL    HW129897   3.508   3.297   5.464 -1.5785 -0.3698 -0.0064
 6146SOL    HW229898   3.545   3.245   5.342  0.9810  2.3955  0.7055
 6147SOL     OW29899   2.447   4.244   0.824 -0.4740 -0.3311 -0.1252
 6147SOL    HW129900   2.458   4.250   0.919  0.6002 -3.0605 -0.0904
 6147SOL    HW229901   2.392   4.323   0.815  0.2476  0.4020  1.9010
 6148SOL     OW29902   0.247   3.491   4.597 -0.9273 -0.2416 -0.3727
 6148SOL    HW129903   0.271   3.567   4.651 -1.5556 -1.0651  1.0565
 6148SOL    HW229904   0.324   3.434   4.595  0.5860  1.7912 -0.4361
 6149SOL     OW29905   4.643   4.202  12.260 -0.1495 -0.4115 -0.2373
 6149SOL    HW129906   4.558   4.194  12.305  0.1794 -0.1557  0.4298
 6149SOL    HW229907   4.624   4.275  12.202  0.9731  0.5794  0.6349
 6150SOL     OW29908   4.205   3.810   6.570  0.7140 -0.0027 -0.5664
 6150SOL    HW129909   4.223   3.797   6.664 -0.4091  0.2993 -0.3114
 6150SOL    HW229910   4.115   3.841   6.575  0.8070 -0.0037  1.4169
 6151SOL     OW29911   4.465   2.172   5.466  0.0801  0.3148 -0.1443
 6151SOL    HW129912   4.429   2.247   5.515 -1.5719 -0.8071  0.3501
 6151SOL    HW229913   4.531   2.220   5.416  0.2718  1.6755  1.3908
 6152SOL     OW29914   2.919   1.619  12.036 -0.3847  0.6108  0.1006
 6152SOL    HW129915   2.957   1.620  12.124 -2.5249  0.3415  1.0373
 6152SOL    HW229916   2.995   1.629  11.979 -0.1883 -0.6586  0.1241
 6153SOL     OW29917   3.518   4.203   1.530 -0.0658 -0.1894  0.2042
 6153SOL    HW129918   3.502   4.220   1.438  2.6390 -4.0602 -0.9844
 6153SOL    HW229919   3.428   4.186   1.556  0.0922  0.7155  1.3935
 6154SOL     OW29920   0.969   0.337   2.080 -0.3607  0.6984  0.5715
 6154SOL    HW129921   1.047   0.282   2.074 -0.1458  0.9211  1.3487
 6154SOL    HW229922   1.017   0.418   2.064  0.3323  0.0278 -0.7379
 6155SOL     OW29923   4.547   4.639   5.495 -0.1708  0.8606 -0.2047
 6155SOL    HW129924   4.586   0.006   5.491  1.3665  0.2702  1.7645
 6155SOL    HW229925   4.612   4.572   5.475 -0.8447  0.5668 -1.3758
 6156SOL     OW29926   2.950   1.413  12.981  0.1804 -0.7456  0.6509
 6156SOL    HW129927   3.009   1.470  12.930  1.1118 -0.4136  2.0937
 6156SOL    HW229928   3.000   1.421  13.063 -0.8729 -1.5655  1.3668
 6157SOL     OW29929   0.984   3.954   1.509  0.0216 -0.1267  0.3970
 6157SOL    HW129930   1.001   3.971   1.601 -1.2916  0.8464  0.4735
 6157SOL    HW229931   0.896   3.990   1.498 -0.1341 -0.6161 -0.0148
 6158SOL     OW29932   1.717   1.979  13.320  0.2685  0.2177 -0.1436
 6158SOL    HW129933   1.802   1.979  13.364 -0.7958 -0.0640  1.9188
 6158SOL    HW229934   1.754   1.984  13.232  0.0018  1.9837 -0.1639
 6159SOL     OW29935   2.587   4.035  17.392  0.5674  0.0275 -0.7948
 6159SOL    HW129936   2.649   4.105  17.372 -0.1626  1.5257  2.2716
 6159SOL    HW229937   2.643   3.974  17.440 -0.0109  0.7999  0.8525
 6160SOL     OW29938   2.303   0.952   5.487  0.2419 -0.3254  0.6750
 6160SOL    HW129939   2.312   1.019   5.419 -0.5746  0.4705  1.3560
 6160SOL    HW229940   2.395   0.940   5.509  0.5279  0.6009 -0.0027
 6161SOL     OW29941   0.226   3.192   4.384 -0.1477  0.2921  0.1760
 6161SOL    HW129942   0.173   3.152   4.315 -0.3896 -0.0353  0.5588
 6161SOL    HW229943   0.186   3.169   4.467  0.2154 -2.5642 -0.4344
 6162SOL     OW29944   2.534   3.682   9.241 -0.3418 -0.3677 -0.9095
 6162SOL    HW129945   2.506   3.674   9.149 -1.9568 -2.0498 -0.2657
 6162SOL    HW229946   2.509   3.769   9.270 -0.7651 -0.9249  0.3868
 6163SOL     OW29947   2.286   2.787   6.519 -0.2923  0.1914  0.5238
 6163SOL    HW129948   2.258   2.830   6.600  0.2774 -0.5720  1.1204
 6163SOL    HW229949   2.335   2.856   6.475  1.7443 -1.4679  0.1936
 6164SOL     OW29950   3.072   3.446   4.125 -0.4796 -0.4572 -0.5550
 6164SOL    HW129951   3.086   3.504   4.199 -2.2381  0.5679 -1.0204
 6164SOL    HW229952   3.083   3.367   4.177  1.3208 -2.8831 -4.6125
 6165SOL     OW29953   3.582   2.011  10.167 -0.0294  0.3774  0.2810
 6165SOL    HW129954   3.499   2.051  10.194  0.3903 -0.1413  2.3281
 6165SOL    HW229955   3.611   2.063  10.092 -3.1826 -0.0327 -1.2297
 6166SOL     OW29956   2.537   4.576   5.238  0.2762  0.5302 -0.4452
 6166SOL    HW129957   2.498   4.489   5.227  1.9014 -0.1300 -1.0634
 6166SOL    HW229958   2.486   4.616   5.169 -0.4495  1.5771  0.6892
 6167SOL     OW29959   4.173   0.622  10.803 -0.2133  0.5212  0.2018
 6167SOL    HW129960   4.101   0.568  10.770  0.3352 -0.2796  0.3448
 6167SOL    HW229961   4.125   0.666  10.874  0.1486  1.9047 -0.4085
 6168SOL     OW29962   1.045   0.828   6.668 -0.3801  0.4631  0.2967
 6168SOL    HW129963   0.998   0.770   6.727  0.3006 -1.1115 -0.7241
 6168SOL    HW229964   1.133   0.839   6.703  0.6118  0.5292 -2.2061
 6169SOL     OW29965   4.285   4.117   5.787  0.0053 -0.2506 -0.5796
 6169SOL    HW129966   4.196   4.081   5.785 -1.2663  2.9750 -0.9713
 6169SOL    HW229967   4.302   4.116   5.881 -0.3936 -0.2982 -0.5074
 6170SOL     OW29968   0.172   2.098  15.402  0.7827 -0.5357 -0.0177
 6170SOL    HW129969   0.207   2.075  15.316 -1.9333 -0.3130 -1.1554
 6170SOL    HW229970   0.253   2.071  15.447  0.2612 -0.7778  0.7758
 6171SOL     OW29971   1.837   1.891   4.785  0.1427 -0.2618  0.4848
 6171SOL    HW129972   1.743   1.887   4.801 -0.0760 -1.9836 -1.1834
 6171SOL    HW229973   1.863   1.959   4.847 -3.5016  0.7303  0.8906
 6172SOL     OW29974   2.183   2.207   4.130 -0.2340 -0.3561  0.5439
 6172SOL    HW129975   2.234   2.201   4.050 -1.2463 -0.8684 -0.0600
 6172SOL    HW229976   2.244   2.153   4.180  0.4251  1.0348  1.2344
 6173SOL     OW29977   3.694   4.516   5.415  0.0532 -0.5855  0.3467
 6173SOL    HW129978   3.628   4.455   5.383 -1.8377  0.8716  1.5056
 6173SOL    HW229979   3.770   4.458   5.422  0.3132 -0.3052 -0.1973
 6174SOL     OW29980   0.562   3.513  15.164 -0.3328  0.0071  0.5482
 6174SOL    HW129981   0.539   3.591  15.113  0.6078  0.4435  0.7890
 6174SOL    HW229982   0.484   3.500  15.218 -0.1213 -1.7000  0.4490
 6175SOL     OW29983   3.462   4.107   7.772 -0.2525  0.3956  0.0661
 6175SOL    HW129984   3.423   4.176   7.719 -2.3508 -0.4906  0.4774
 6175SOL    HW229985   3.389   4.082   7.828 -1.8831  1.2085 -1.6820
 6176SOL     OW29986   4.490   3.298   6.182 -0.1242  0.0814  0.0802
 6176SOL    HW129987   4.506   3.344   6.265  4.8396  1.0125 -1.4201
 6176SOL    HW229988   4.513   3.369   6.123 -0.8929  0.6451  0.4640
 6177SOL     OW29989   1.711   2.836   2.230  0.1855 -0.0129  0.6848
 6177SOL    HW129990   1.689   2.813   2.320  0.9964  0.0471  0.8976
 6177SOL    HW229991   1.662   2.918   2.215 -0.0402 -0.0572  1.1857
 6178SOL     OW29992   2.706   3.895   4.447  0.1155 -0.1198  0.3900
 6178SOL    HW129993   2.774   3.886   4.514 -2.4349 -0.9340  2.8208
 6178SOL    HW229994   2.764   3.893   4.371 -0.1453  0.6744  0.1625
 6179SOL     OW29995   1.409   2.478   4.872 -0.0292  0.5923  0.2537
 6179SOL    HW129996   1.384   2.386   4.879  1.0533  0.3401  0.8156
 6179SOL    HW229997   1.329   2.517   4.838  0.5524  1.7244  0.1703
 6180SOL     OW29998   3.764   3.232  14.701  0.2144  0.5943 -0.4167
 6180SOL    HW129999   3.710   3.307  14.680  0.2656  1.0784  1.2103
 6180SOL    HW230000   3.825   3.284  14.753 -0.5407  1.1602 -0.0960
 6181SOL     OW30001   4.670   1.114   1.742 -0.1260  0.7057  0.6306
 6181SOL    HW130002   4.636   1.064   1.668 -0.7778  2.1839 -0.0533
 6181SOL    HW230003   4.707   1.041   1.793 -1.0271 -0.3756 -0.2547
 6182SOL     OW30004   0.508   4.447   5.465  0.1280  0.2902  0.3830
 6182SOL    HW130005   0.475   4.373   5.516  0.2194 -1.0219 -1.4766
 6182SOL    HW230006   0.575   4.403   5.413 -1.4805 -1.8916  0.1580
 6183SOL     OW30007   0.277   0.871   5.527 -0.0582 -0.5108  0.0340
 6183SOL    HW130008   0.361   0.908   5.501 -0.6999 -0.0383 -1.3886
 6183SOL    HW230009   0.295   0.778   5.511 -0.9881 -1.0340  2.0128
 6184SOL     OW30010   1.799   4.025   8.567  0.4767 -0.8155 -0.4072
 6184SOL    HW130011   1.846   4.102   8.536  1.3402 -1.4419 -0.6694
 6184SOL    HW230012   1.868   3.959   8.577  1.3550  0.3925  1.5106
 6185SOL     OW30013   3.651   1.769  13.675 -0.2423  0.2825 -0.0703
 6185SOL    HW130014   3.695   1.842  13.718  1.3803 -0.7390 -0.0108
 6185SOL    HW230015   3.710   1.694  13.682 -0.1503  0.0105 -3.5146
 6186SOL     OW30016   1.255   1.885   6.828  0.1033  0.5131 -0.2886
 6186SOL    HW130017   1.198   1.839   6.767 -5.2720  4.0396  2.1542
 6186SOL    HW230018   1.343   1.882   6.789  1.1158  0.4084  1.9751
 6187SOL     OW30019   1.031   4.700   3.792  0.3371 -0.1671  0.4051
 6187SOL    HW130020   0.955   4.652   3.758 -0.7206  0.5183  1.7988
 6187SOL    HW230021   1.062   4.637   3.857  0.1378 -0.2269  0.4419
 6188SOL     OW30022   3.577   0.155   9.114  0.1188 -0.3172  0.1446
 6188SOL    HW130023   3.502   0.209   9.090 -0.9663 -1.2959  1.3415
 6188SOL    HW230024   3.587   0.177   9.207  1.3318  1.3293 -0.3842
 6189SOL     OW30025   0.317   4.154   4.801 -0.2730  0.4070  0.2719
 6189SOL    HW130026   0.304   4.235   4.752 -2.4297  0.8668  1.6189
 6189SOL    HW230027   0.407   4.166   4.833  0.2546 -1.8064 -0.3780
 6190SOL     OW30028   2.102   4.471   5.534  0.2544  0.0320  0.0108
 6190SOL    HW130029   2.187   4.438   5.504  0.8248  1.1232  0.4382
 6190SOL    HW230030   2.080   4.401   5.595  0.0644  1.7671  1.9007
 6191SOL     OW30031   1.441   1.226  13.578  0.5119  0.1630 -0.4576
 6191SOL    HW130032   1.349   1.249  13.581  0.4618 -0.2485  1.6252
 6191SOL    HW230033   1.482   1.301  13.536  2.3420  0.0455  1.0879
 6192SOL     OW30034   4.456   4.088   4.389 -0.7196  0.7629 -0.4791
 6192SOL    HW130035   4.514   4.127   4.454 -2.7667  0.4452  1.5383
 6192SOL    HW230036   4.383   4.061   4.445 -0.4979 -1.8435 -1.4412
 6193SOL     OW30037   0.351   0.454   3.513  0.6529  0.3737  0.0110
 6193SOL    HW130038   0.404   0.479   3.589  2.7202  0.3311 -1.4036
 6193SOL    HW230039   0.355   0.535   3.463 -0.6280 -0.3094 -1.1932
 6194SOL     OW30040   1.306   0.082  13.362  0.2459 -0.0271 -0.1904
 6194SOL    HW130041   1.235   0.019  13.345 -1.4157  1.9270 -0.4357
 6194SOL    HW230042   1.296   0.141  13.288  0.5413  0.5573  0.2424
 6195SOL     OW30043   0.643   2.185  12.972 -0.0899 -0.6031  0.0234
 6195SOL    HW130044   0.674   2.236  12.897 -1.5464 -1.5290 -1.2356
 6195SOL    HW230045   0.565   2.235  12.996 -1.2421 -0.8347 -3.1639
 6196SOL     OW30046   2.596   4.479   7.856  0.4675  0.0157  0.4387
 6196SOL    HW130047   2.519   4.455   7.804 -2.1540 -0.7782  4.6816
 6196SOL    HW230048   2.555   4.440   7.933 -1.2191 -2.5482 -1.7727
 6197SOL     OW30049   1.227   0.406  13.337 -0.1863  0.4491  0.2060
 6197SOL    HW130050   1.148   0.353  13.336  0.4538 -0.5388  1.9246
 6197SOL    HW230051   1.253   0.395  13.428  1.2848  0.5973 -0.1825
 6198SOL     OW30052   1.168   2.653   1.286  0.0164 -0.1624  0.5355
 6198SOL    HW130053   1.121   2.613   1.213  2.4618 -1.7645 -0.1608
 6198SOL    HW230054   1.095   2.695   1.333  0.3152 -1.1576  1.9056
 6199SOL     OW30055   2.909   3.283  11.093  0.2091 -0.3811  0.5317
 6199SOL    HW130056   2.903   3.202  11.144  2.1977 -0.9046 -0.0498
 6199SOL    HW230057   2.987   3.264  11.040 -1.1814 -3.1307 -0.5018
 6200SOL     OW30058   4.101   1.848   8.764  0.0716  0.2789 -0.3188
 6200SOL    HW130059   4.059   1.879   8.845 -0.3336  1.2318 -0.8950
 6200SOL    HW230060   4.178   1.811   8.807  0.4735  0.4790 -0.8712
 6201SOL     OW30061   1.952   1.532   7.156  0.0426 -0.3796 -0.0467
 6201SOL    HW130062   1.958   1.481   7.236 -0.2085  0.5286  0.5507
 6201SOL    HW230063   2.040   1.569   7.162 -0.9239  1.4850  2.5363
 6202SOL     OW30064   3.955   1.084   8.037 -0.7248  0.3709 -0.9508
 6202SOL    HW130065   3.999   1.166   8.015 -1.6088  1.2272  0.4547
 6202SOL    HW230066   3.921   1.104   8.124 -1.8629 -2.1182 -0.8520
 6203SOL     OW30067   1.224   0.104   3.934  0.0127 -0.3104  0.5838
 6203SOL    HW130068   1.173   0.139   4.007  0.1865 -0.9329  0.9991
 6203SOL    HW230069   1.159   0.080   3.868 -1.1882  0.7719  1.3557
 6204SOL     OW30070   2.995   0.223   7.560 -0.0479 -0.1669  0.5038
 6204SOL    HW130071   3.006   0.290   7.627  2.5937 -1.3100  1.2356
 6204SOL    HW230072   3.086   0.192   7.556  0.3331  0.7917  1.8219
 6205SOL     OW30073   0.829   0.168   6.109  0.9132 -1.0661  0.8761
 6205SOL    HW130074   0.893   0.108   6.070  1.8722  0.1490  0.5936
 6205SOL    HW230075   0.864   0.255   6.094  0.1982 -0.9607 -0.1682
 6206SOL     OW30076   0.186   4.100   6.315  0.1247 -0.2267 -0.4010
 6206SOL    HW130077   0.142   4.182   6.338  1.6946  0.0471  1.5876
 6206SOL    HW230078   0.117   4.060   6.262 -0.3040 -0.8735  0.6270
 6207SOL     OW30079   2.383   1.557   6.615 -0.1552  0.1417  0.5551
 6207SOL    HW130080   2.402   1.503   6.538  1.2246 -1.5054  2.0395
 6207SOL    HW230081   2.465   1.603   6.635  0.0052  0.6018 -1.1515
 6208SOL     OW30082   3.386   0.928   6.965  0.2877 -0.1752  0.0535
 6208SOL    HW130083   3.445   0.997   6.935 -0.5295  1.3601  1.9124
 6208SOL    HW230084   3.313   0.936   6.904 -0.2909 -2.7172  0.4088
 6209SOL     OW30085   1.551   2.447   2.729  0.2903 -0.2962  0.0680
 6209SOL    HW130086   1.579   2.435   2.820 -1.0737 -1.9952  0.2580
 6209SOL    HW230087   1.544   2.357   2.698  0.2419  0.0224 -0.8438
 6210SOL     OW30088   4.402   1.644   1.923  0.7031 -0.1680  0.2204
 6210SOL    HW130089   4.322   1.592   1.930  0.3218  0.2262 -1.2124
 6210SOL    HW230090   4.429   1.639   1.831  2.3470  1.1923  0.6416
 6211SOL     OW30091   0.664   3.734   1.033 -0.2468 -0.0792  0.6627
 6211SOL    HW130092   0.608   3.662   1.064 -2.2775  0.6351 -1.3635
 6211SOL    HW230093   0.627   3.803   1.089  0.3954 -0.2975  1.3592
 6212SOL     OW30094   3.912   1.828  11.628 -0.1527  0.1421 -0.3899
 6212SOL    HW130095   3.902   1.830  11.723  0.6634 -0.0505 -0.2985
 6212SOL    HW230096   3.871   1.743  11.614  2.8057 -1.5538  1.2758
 6213SOL     OW30097   1.432   2.136   3.204 -0.0270 -0.2714  0.4128
 6213SOL    HW130098   1.481   2.100   3.278 -0.4302 -1.2023  0.2169
 6213SOL    HW230099   1.358   2.076   3.198 -0.3387  0.0397  1.1678
 6214SOL     OW30100   0.510   3.338   0.555  0.2729  0.0864  0.4119
 6214SOL    HW130101   0.576   3.290   0.506 -2.9464 -2.0290 -1.8333
 6214SOL    HW230102   0.435   3.340   0.495  0.2759  0.2324  0.4131
 6215SOL     OW30103   1.008   1.689   9.772  0.2623  0.2972  0.2169
 6215SOL    HW130104   0.920   1.683   9.733 -0.7288 -0.5557  2.6038
 6215SOL    HW230105   1.033   1.597   9.776  0.0194  0.2140 -0.1849
 6216SOL     OW30106   2.741   0.920   8.558 -0.2694 -0.0443 -0.1317
 6216SOL    HW130107   2.670   0.924   8.493 -2.0757  0.8276  1.9008
 6216SOL    HW230108   2.735   0.836   8.602 -0.4758  0.5378  0.9487
 6217SOL     OW30109   1.439   1.354   3.612  0.0948  0.5660  0.0874
 6217SOL    HW130110   1.436   1.270   3.566  0.0161  0.9055 -0.5142
 6217SOL    HW230111   1.487   1.415   3.557 -0.0023 -0.3248 -0.9846
 6218SOL     OW30112   3.341   1.522   7.823  0.3882  0.4255 -0.1636
 6218SOL    HW130113   3.283   1.571   7.882 -1.3640 -0.8807 -0.8211
 6218SOL    HW230114   3.301   1.439   7.848 -1.9948  1.4549 -0.6332
 6219SOL     OW30115   3.848   3.701   3.315  0.3393  0.1900  0.1767
 6219SOL    HW130116   3.930   3.751   3.322  1.2917 -1.2912 -0.2467
 6219SOL    HW230117   3.868   3.653   3.235  0.0266  0.4206 -0.0375
 6220SOL     OW30118   0.603   0.352  10.725  0.2076 -0.1699 -0.2468
 6220SOL    HW130119   0.642   0.372  10.810  1.0737 -0.2499 -0.6338
 6220SOL    HW230120   0.666   0.381  10.660  2.1428 -4.5056 -0.3447
 6221SOL     OW30121   0.457   0.843   0.620 -0.5525 -0.2988  0.6313
 6221SOL    HW130122   0.398   0.908   0.582 -1.9101 -2.6457 -1.2436
 6221SOL    HW230123   0.462   0.775   0.553 -1.4827  0.7565 -0.5196
 6222SOL     OW30124   2.268   2.095  14.318  0.2010 -0.4643 -0.6047
 6222SOL    HW130125   2.273   2.000  14.304  0.9333 -0.2586 -1.7391
 6222SOL    HW230126   2.224   2.102  14.402  1.1215  2.9599 -0.4203
 6223SOL     OW30127   2.873   3.252  10.484 -0.1439 -0.0954 -0.1231
 6223SOL    HW130128   2.857   3.313  10.412  1.8332  0.6568  0.0650
 6223SOL    HW230129   2.967   3.240  10.472 -0.6978 -2.6915 -1.7597
 6224SOL     OW30130   4.178   3.207   7.721 -0.1267  0.4485  0.0231
 6224SOL    HW130131   4.222   3.153   7.786 -1.1838  0.9740  1.1922
 6224SOL    HW230132   4.129   3.269   7.776  1.0605  1.2320  0.1905
 6225SOL     OW30133   3.723   1.139   6.176 -0.3389  1.1162  0.1097
 6225SOL    HW130134   3.668   1.121   6.100 -1.0971  1.5850  0.5457
 6225SOL    HW230135   3.809   1.113   6.143 -0.6888  1.0296 -0.7327
 6226SOL     OW30136   1.631   1.992  17.470 -0.0052 -0.0166 -0.3110
 6226SOL    HW130137   1.680   1.977  17.390 -2.6538 -0.7395 -1.8200
 6226SOL    HW230138   1.560   2.046  17.436 -0.0918  0.3372  0.4377
 6227SOL     OW30139   2.623   0.284   0.242  0.0935 -0.0367 -0.6870
 6227SOL    HW130140   2.714   0.310   0.244  0.2972 -0.8237  0.1649
 6227SOL    HW230141   2.642   0.191   0.230  2.2512  0.6418 -2.4589
 6228SOL     OW30142   3.524   1.407   4.045 -0.2049  0.0876 -0.2087
 6228SOL    HW130143   3.550   1.391   4.136 -0.9456 -0.8914 -0.1759
 6228SOL    HW230144   3.607   1.410   3.997  0.5848  2.5970  1.2850
 6229SOL     OW30145   3.485   4.357   2.874 -0.7324 -0.1315  0.0401
 6229SOL    HW130146   3.423   4.429   2.884 -0.3787  0.2926 -0.8211
 6229SOL    HW230147   3.536   4.389   2.800 -0.9691 -2.3294 -1.0928
 6230SOL     OW30148   3.645   1.902  17.592  0.8927  0.3496  0.4074
 6230SOL    HW130149   3.642   1.975  17.530 -1.7165 -1.3967 -1.5301
 6230SOL    HW230150   3.555   1.870  17.584  1.5292 -1.7726  1.8146
 6231SOL     OW30151   4.430   1.357   7.171 -0.0419  0.5617 -0.3926
 6231SOL    HW130152   4.468   1.271   7.187 -1.9272 -0.2030 -0.1443
 6231SOL    HW230153   4.484   1.420   7.219 -1.0859  0.3495  1.0522
 6232SOL     OW30154   3.011   2.356   7.441 -0.4397 -0.2244 -0.2143
 6232SOL    HW130155   3.099   2.330   7.412 -0.6070  0.2211 -1.1301
 6232SOL    HW230156   3.029   2.432   7.496 -0.1107 -0.6930  0.3254
 6233SOL     OW30157   0.118   0.571   1.509  0.4191 -0.0874  0.9129
 6233SOL    HW130158   0.034   0.541   1.541  0.6954 -0.0469  1.6829
 6233SOL    HW230159   0.136   0.517   1.432  1.1508 -1.4271  2.0193
 6234SOL     OW30160   0.280   2.522   6.626 -0.0407 -0.1473 -0.8033
 6234SOL    HW130161   0.367   2.540   6.662 -0.1858  0.2113 -0.6297
 6234SOL    HW230162   0.258   2.441   6.671 -0.0962  0.5540  0.4296
 6235SOL     OW30163   0.642   2.370  14.339 -0.0219 -0.4874 -0.5127
 6235SOL    HW130164   0.667   2.344  14.250  2.4543  0.9398 -0.2474
 6235SOL    HW230165   0.564   2.422  14.322 -0.1164 -1.6190 -3.7483
 6236SOL     OW30166   2.102   1.064   4.750 -0.0180 -0.1657  0.6336
 6236SOL    HW130167   2.039   1.048   4.679 -0.3572  0.2820  0.8326
 6236SOL    HW230168   2.057   1.114   4.818  0.1200 -0.8458  1.2244
 6237SOL     OW30169   1.222   4.521   5.448  0.4177 -0.4841  0.1602
 6237SOL    HW130170   1.189   4.599   5.403 -1.2453 -2.0250 -1.2889
 6237SOL    HW230171   1.149   4.461   5.432 -0.0828  0.2062 -0.1468
 6238SOL     OW30172   3.326   1.677   9.814 -0.5734 -0.2274 -0.7650
 6238SOL    HW130173   3.356   1.671   9.724  1.7559  0.5115 -0.0387
 6238SOL    HW230174   3.234   1.655   9.798 -0.4544 -1.4965  0.2772
 6239SOL     OW30175   3.575   2.280   5.680 -0.3618 -0.0018 -0.1421
 6239SOL    HW130176   3.495   2.226   5.682  0.5528 -1.3526  0.3021
 6239SOL    HW230177   3.641   2.213   5.664  1.7589  1.9125  0.6773
 6240SOL     OW30178   4.523   0.845   9.783  0.5578  0.0119 -0.2785
 6240SOL    HW130179   4.532   0.868   9.875 -1.4080  0.1775 -0.1130
 6240SOL    HW230180   4.473   0.920   9.751  0.8374 -0.4799 -1.8663
 6241SOL     OW30181   4.399   1.774   4.117  0.4696 -0.2237  0.2031
 6241SOL    HW130182   4.480   1.784   4.067 -0.4565  0.5723 -1.1441
 6241SOL    HW230183   4.364   1.861   4.100 -1.1224 -0.7176  0.9447
 6242SOL     OW30184   4.183   1.439   6.667  0.6533  0.1301 -0.0617
 6242SOL    HW130185   4.249   1.424   6.599  0.2405 -0.6815 -0.2747
 6242SOL    HW230186   4.223   1.434   6.754  2.5287 -0.6212 -0.9687
 6243SOL     OW30187   0.898   2.040   0.380  0.4496  0.2283  0.3083
 6243SOL    HW130188   0.965   2.078   0.436  1.5148  0.2846 -0.9853
 6243SOL    HW230189   0.951   2.032   0.300 -1.5637  0.6630 -1.0665
 6244SOL     OW30190   1.971   1.555   6.811  0.0750 -0.0898 -0.3156
 6244SOL    HW130191   2.006   1.569   6.723 -0.1630  0.4460 -0.3325
 6244SOL    HW230192   2.033   1.615   6.851  0.2233 -0.3855 -0.1057
 6245SOL     OW30193   1.226   3.040   5.737 -0.3017  0.4944 -0.2504
 6245SOL    HW130194   1.225   3.106   5.668  1.9409 -0.3535 -1.0973
 6245SOL    HW230195   1.133   3.033   5.760 -0.2598  1.6713  0.3251
 6246SOL     OW30196   2.211   2.159   5.076 -0.4293 -0.0038  0.2583
 6246SOL    HW130197   2.189   2.171   5.168 -2.4319  0.3461 -0.2704
 6246SOL    HW230198   2.282   2.094   5.075 -0.2516  0.2450 -1.8389
 6247SOL     OW30199   2.182   4.062   6.874  0.2618 -0.0608 -0.4647
 6247SOL    HW130200   2.115   4.067   6.942 -0.6303  0.9125 -1.4206
 6247SOL    HW230201   2.133   4.073   6.793  0.1055  0.4793 -0.2948
 6248SOL     OW30202   0.686   3.200   3.792 -0.0527 -0.1578  0.1761
 6248SOL    HW130203   0.740   3.258   3.738 -0.4564 -0.7169 -0.8206
 6248SOL    HW230204   0.734   3.118   3.801 -2.3975 -1.7173 -1.3096
 6249SOL     OW30205   4.616   2.831   5.320 -0.2138  0.3023 -0.2394
 6249SOL    HW130206   4.624   2.745   5.363 -0.0516 -0.0507 -0.9810
 6249SOL    HW230207   4.543   2.862   5.373  0.2258  3.2729 -1.3921
 6250SOL     OW30208   4.209   1.527   0.138 -0.5805 -0.5130 -0.0478
 6250SOL    HW130209   4.292   1.495   0.175  0.5701 -0.2966 -2.4843
 6250SOL    HW230210   4.196   1.457   0.074  1.4980 -1.3602  0.4363
 6251SOL     OW30211   4.035   0.169   4.543 -0.1045 -0.4019  0.5183
 6251SOL    HW130212   4.015   0.081   4.513 -3.6375  0.9143 -1.0059
 6251SOL    HW230213   3.974   0.224   4.494  0.7335  0.1865  0.1543
 6252SOL     OW30214   4.058   3.573   1.716  0.1189 -0.1784 -0.4732
 6252SOL    HW130215   4.097   3.651   1.754 -2.0826  1.0249 -0.6878
 6252SOL    HW230216   4.109   3.502   1.755 -1.3566  0.6607  2.9338
 6253SOL     OW30217   2.277   1.678  15.366 -0.1710  0.0367  0.2913
 6253SOL    HW130218   2.351   1.737  15.379 -1.8313  1.8518  1.3716
 6253SOL    HW230219   2.227   1.732  15.304  3.3617  3.1001  0.1233
 6254SOL     OW30220   0.684   3.998   4.278  0.7388  0.6029  0.1392
 6254SOL    HW130221   0.767   3.972   4.238 -0.1586  0.6991 -1.7785
 6254SOL    HW230222   0.716   4.036   4.360  1.1764 -1.3581  0.8873
 6255SOL     OW30223   0.560   4.303   7.360 -0.0157  0.1238 -0.1140
 6255SOL    HW130224   0.528   4.373   7.417 -2.8754 -1.2001 -0.0802
 6255SOL    HW230225   0.606   4.242   7.418 -0.0084 -1.1284 -1.4455
 6256SOL     OW30226   4.048   1.403   3.596  0.0900 -0.5916  0.5591
 6256SOL    HW130227   4.015   1.314   3.610  1.6416 -1.1181  0.8526
 6256SOL    HW230228   4.122   1.421   3.654 -0.5493  0.1962  1.1377
 6257SOL     OW30229   3.572   4.047   8.032  0.2421  0.3280 -0.1393
 6257SOL    HW130230   3.513   3.983   8.070  0.2791  1.8044  2.4182
 6257SOL    HW230231   3.535   4.063   7.945  0.1281 -1.0535 -0.3371
 6258SOL     OW30232   0.114   2.087  12.639  0.3195  0.1062 -0.1847
 6258SOL    HW130233   0.024   2.102  12.608 -0.0770 -0.7141  0.5587
 6258SOL    HW230234   0.146   2.001  12.613  2.6520  1.0159 -0.3067
 6259SOL     OW30235   3.268   4.615  10.409 -0.2030  0.0490 -0.3557
 6259SOL    HW130236   3.338   4.613  10.474 -1.5446  2.3806  1.1475
 6259SOL    HW230237   3.243   4.523  10.408 -0.7667  0.2000  0.2313
 6260SOL     OW30238   1.143   3.602   4.750  0.6829 -0.3171  0.2850
 6260SOL    HW130239   1.211   3.544   4.784  1.6932  1.1126  0.6843
 6260SOL    HW230240   1.064   3.557   4.780 -0.0625  0.4002 -0.6009
 6261SOL     OW30241   3.522   3.622   7.238  0.2597  0.0063 -0.3662
 6261SOL    HW130242   3.499   3.659   7.153 -3.6326 -0.1736  0.6180
 6261SOL    HW230243   3.508   3.528   7.229 -0.5828  0.0703  0.2902
 6262SOL     OW30244   3.386   1.870  10.957 -0.3865 -0.3164 -0.3337
 6262SOL    HW130245   3.474   1.897  10.984 -0.7429 -0.0749  0.5583
 6262SOL    HW230246   3.342   1.954  10.951 -0.7841 -0.4604  0.7165
 6263SOL     OW30247   2.652   2.732   7.917  0.2663 -0.1930 -0.8073
 6263SOL    HW130248   2.610   2.655   7.879 -1.8461  0.3737  0.3442
 6263SOL    HW230249   2.598   2.801   7.877 -0.6850 -0.6835 -0.3554
 6264SOL     OW30250   3.673   4.448   9.857  0.1255 -0.0693  0.1468
 6264SOL    HW130251   3.613   4.519   9.881 -0.0966  0.0450 -0.7447
 6264SOL    HW230252   3.738   4.452   9.928  1.0490  2.0045 -0.7947
 6265SOL     OW30253   4.161   4.118   2.440  0.4599 -0.6502  0.0762
 6265SOL    HW130254   4.110   4.194   2.467 -1.2525 -1.3565 -1.1686
 6265SOL    HW230255   4.202   4.163   2.366  0.0646 -2.2330 -1.0997
 6266SOL     OW30256   2.954   3.082   1.039 -0.4469 -0.7349 -0.6014
 6266SOL    HW130257   2.941   3.073   0.944  1.9321  1.5876 -1.1386
 6266SOL    HW230258   3.002   3.001   1.058 -1.4866 -1.0034  0.8535
 6267SOL     OW30259   0.170   2.964   6.539 -0.5652 -0.3985  0.8472
 6267SOL    HW130260   0.206   3.018   6.468 -0.6288 -2.3540 -0.6537
 6267SOL    HW230261   0.246   2.913   6.568 -1.0125 -0.0667  2.6290
 6268SOL     OW30262   0.777   1.631   7.096  0.0787 -0.0485  0.2771
 6268SOL    HW130263   0.742   1.694   7.033  0.5548 -0.6285 -0.5697
 6268SOL    HW230264   0.842   1.686   7.139  2.6271 -1.9823 -1.1552
 6269SOL     OW30265   4.304   4.559   7.573  0.2478 -0.5892  0.1155
 6269SOL    HW130266   4.253   4.480   7.590 -0.9400 -0.2329 -1.7787
 6269SOL    HW230267   4.267   4.610   7.646  1.7332  1.0715 -0.2788
 6270SOL     OW30268   2.509   0.239  17.641  0.1824 -0.1523  0.5736
 6270SOL    HW130269   2.512   0.298   0.029 -0.1065  0.6699 -0.0519
 6270SOL    HW230270   2.420   0.204  17.649  0.1883 -0.8371 -2.1829
 6271SOL     OW30271   3.428   3.587   7.503 -0.0687  0.3651  0.0993
 6271SOL    HW130272   3.384   3.503   7.514  0.7710 -0.2926 -1.4400
 6271SOL    HW230273   3.465   3.570   7.416  1.4706  1.1761  0.5866
 6272SOL     OW30274   0.609   3.238   9.879 -0.3475 -0.8065  0.2284
 6272SOL    HW130275   0.643   3.194   9.802  2.7270 -2.1160  2.3427
 6272SOL    HW230276   0.591   3.326   9.847  1.0526 -0.4719  0.3696
 6273SOL     OW30277   0.132   2.167   1.957 -0.3707 -0.6585  0.7781
 6273SOL    HW130278   0.104   2.146   1.868 -1.9448  0.3997  1.0158
 6273SOL    HW230279   0.226   2.152   1.945 -0.7395 -1.2771 -1.4176
 6274SOL     OW30280   3.077   0.467   5.843 -0.0811  0.2606 -0.4280
 6274SOL    HW130281   3.106   0.449   5.933 -4.0694 -1.6538  0.4652
 6274SOL    HW230282   3.159   0.439   5.803  0.9324  4.0847 -1.0602
 6275SOL     OW30283   3.410   3.179   3.195 -0.0963 -0.0645  0.1174
 6275SOL    HW130284   3.479   3.233   3.232  0.1895 -0.2439 -0.1571
 6275SOL    HW230285   3.440   3.091   3.217  1.2931  0.3461 -0.1890
 6276SOL     OW30286   0.888   0.146  10.985  0.8268  0.2408 -0.1328
 6276SOL    HW130287   0.837   0.191  11.053  0.1850 -0.9636  0.1754
 6276SOL    HW230288   0.958   0.097  11.029  0.4193 -1.4988 -1.4191
 6277SOL     OW30289   1.595   3.300  13.161 -0.3806  0.0027 -0.1997
 6277SOL    HW130290   1.640   3.227  13.203 -2.3420 -0.7174  0.6330
 6277SOL    HW230291   1.562   3.350  13.236  0.7731  0.7671 -0.2076
 6278SOL     OW30292   0.002   3.362   4.630 -0.0235  0.2159  0.3697
 6278SOL    HW130293   0.080   3.405   4.595 -1.3161  1.6426 -0.7605
 6278SOL    HW230294   0.010   3.281   4.581  0.0503  1.6051 -1.9212
 6279SOL     OW30295   3.173   1.803  13.037  0.1028 -0.8359 -0.3150
 6279SOL    HW130296   3.136   1.885  13.005 -0.5494 -0.6291  0.9583
 6279SOL    HW230297   3.215   1.833  13.118  1.9422  0.7221 -1.8541
 6280SOL     OW30298   1.310   1.519   8.569 -0.0337  0.2308 -0.8717
 6280SOL    HW130299   1.318   1.611   8.595  1.6508  0.3057 -1.6266
 6280SOL    HW230300   1.240   1.528   8.506 -1.8340  0.5416  1.1778
 6281SOL     OW30301   0.023   2.673   7.400 -0.1267 -0.0514  0.1073
 6281SOL    HW130302   4.694   2.710   7.327 -0.0471 -1.2226 -0.5334
 6281SOL    HW230303   4.693   2.598   7.431  0.9016 -0.9849 -0.4722
 6282SOL     OW30304   1.460   4.514   5.942 -0.0980 -0.0196  0.4870
 6282SOL    HW130305   1.415   4.511   5.857 -3.5190 -0.5641  2.3522
 6282SOL    HW230306   1.405   4.444   5.977  0.3337 -0.7425 -0.2766
 6283SOL     OW30307   0.721   3.494   1.452 -0.2043 -0.3093 -0.4140
 6283SOL    HW130308   0.739   3.405   1.483 -0.1991 -0.4215 -0.7465
 6283SOL    HW230309   0.626   3.490   1.444 -0.5903  2.4126  2.7140
 6284SOL     OW30310   4.371   0.652   0.222  0.1115  0.0895  0.4618
 6284SOL    HW130311   4.292   0.698   0.251 -0.0794  0.2002 -0.2497
 6284SOL    HW230312   4.362   0.635   0.128  2.7669 -0.2400  0.2612
 6285SOL     OW30313   1.912   3.310   3.629 -0.0398 -0.0721  0.3213
 6285SOL    HW130314   1.941   3.219   3.629 -0.7404 -0.2886 -0.5230
 6285SOL    HW230315   1.921   3.337   3.721  1.4315  1.1833 -0.1778
 6286SOL     OW30316   1.964   3.569   7.159  0.1333  0.4223  0.0103
 6286SOL    HW130317   1.881   3.558   7.112  0.8046 -0.8576 -0.8709
 6286SOL    HW230318   1.946   3.632   7.229  1.3029  2.5922 -1.6567
 6287SOL     OW30319   3.129   0.612   7.521 -0.6581 -0.6347  0.5541
 6287SOL    HW130320   3.220   0.643   7.531 -0.9829 -0.0359  1.6310
 6287SOL    HW230321   3.120   0.594   7.428 -0.5295  0.7927  0.2675
 6288SOL     OW30322   4.385   4.572   3.514  0.4989 -0.2550 -0.0366
 6288SOL    HW130323   4.292   4.570   3.537  0.7186  0.4123  0.9236
 6288SOL    HW230324   4.393   4.484   3.476 -1.2016 -0.2351 -0.4258
 6289SOL     OW30325   3.988   3.326   7.419 -0.3429 -0.1079  0.0128
 6289SOL    HW130326   3.956   3.264   7.484 -1.8552  0.2121 -0.4248
 6289SOL    HW230327   3.992   3.411   7.463 -1.8190  0.2985 -0.6390
 6290SOL     OW30328   0.405   2.477  14.402  0.1439 -0.3849  0.2441
 6290SOL    HW130329   0.388   2.473  14.496 -0.2864  3.7535  0.3438
 6290SOL    HW230330   0.327   2.439  14.361 -0.8646  0.3939  1.4274
 6291SOL     OW30331   1.408   1.136   9.781  0.1286  0.6918 -0.0295
 6291SOL    HW130332   1.431   1.054   9.825  1.0437  1.4785  0.9576
 6291SOL    HW230333   1.355   1.125   9.702  2.2693  1.0809 -1.5123
 6292SOL     OW30334   1.860   2.797   5.380 -0.3064 -0.1428 -0.1726
 6292SOL    HW130335   1.830   2.776   5.468 -0.5068  0.4424 -0.1078
 6292SOL    HW230336   1.802   2.867   5.351  0.4604  0.6625  0.2578
 6293SOL     OW30337   3.296   2.175   3.477 -0.7192  0.1265 -0.5809
 6293SOL    HW130338   3.340   2.164   3.562  2.4331  1.7876 -2.0225
 6293SOL    HW230339   3.366   2.158   3.415 -1.9882  0.5865 -2.1190
 6294SOL     OW30340   4.084   1.684  12.047 -0.1739  0.5465  0.3504
 6294SOL    HW130341   4.023   1.740  11.998 -1.3022 -0.9305  0.0777
 6294SOL    HW230342   4.014   1.621  12.066  0.7038 -0.7954 -0.9880
 6295SOL     OW30343   3.014   0.373   4.725 -0.9588  0.1816 -0.0250
 6295SOL    HW130344   3.049   0.437   4.662  0.4216 -1.0847 -0.5404
 6295SOL    HW230345   2.956   0.321   4.669  1.5982 -0.2392 -2.3072
 6296SOL     OW30346   4.426   3.861  15.449 -0.4470 -0.1114 -0.0159
 6296SOL    HW130347   4.414   3.951  15.420 -1.9115  0.4495  2.3651
 6296SOL    HW230348   4.359   3.858  15.518 -0.3588 -2.9327 -0.0582
 6297SOL     OW30349   0.429   2.470  10.426  0.7443 -0.5970  0.3749
 6297SOL    HW130350   0.410   2.504  10.339  0.8981 -2.4240 -0.3722
 6297SOL    HW230351   0.504   2.522  10.455  1.5390 -2.9327  2.5716
 6298SOL     OW30352   1.040   0.738  14.711 -0.1089 -0.3672  0.3238
 6298SOL    HW130353   1.126   0.750  14.671 -0.5844  1.5703 -0.1071
 6298SOL    HW230354   0.993   0.692  14.642 -1.0380 -0.3727  0.9513
 6299SOL     OW30355   0.367   2.063   7.888 -0.3933 -0.2407  0.0062
 6299SOL    HW130356   0.363   2.112   7.806  0.6110 -0.2598 -0.0500
 6299SOL    HW230357   0.371   2.129   7.957  1.5137 -0.2371 -0.1211
 6300SOL     OW30358   2.402   0.829  12.488 -0.1129 -0.3891  0.0826
 6300SOL    HW130359   2.353   0.896  12.440 -1.1951 -2.0365 -1.1353
 6300SOL    HW230360   2.351   0.752  12.463  0.6809 -0.7858 -0.3113
 6301SOL     OW30361   1.758   1.322  10.115  0.4847 -0.4119 -0.6563
 6301SOL    HW130362   1.682   1.315  10.058 -0.0724 -0.3714  0.0932
 6301SOL    HW230363   1.767   1.417  10.115 -1.0965 -0.2665 -1.5679
 6302SOL     OW30364   1.981   3.293   8.333  0.0987 -0.2224  0.1581
 6302SOL    HW130365   2.011   3.260   8.248  1.0143  1.0487 -0.0034
 6302SOL    HW230366   2.060   3.330   8.371  1.4185  0.2763 -3.0910
 6303SOL     OW30367   2.903   3.305   7.886  0.5888  0.3372 -0.0118
 6303SOL    HW130368   2.934   3.215   7.897 -0.4093 -0.1381 -1.0228
 6303SOL    HW230369   2.928   3.338   7.800 -0.5674 -0.1306 -0.5328
 6304SOL     OW30370   4.278   4.180   6.306 -0.8775 -0.3680 -0.0658
 6304SOL    HW130371   4.301   4.272   6.319  3.3823 -1.2609 -1.5042
 6304SOL    HW230372   4.259   4.151   6.395 -2.5754  1.8008  0.3029
 6305SOL     OW30373   3.474   2.213  15.287 -0.3219  0.2750  0.5333
 6305SOL    HW130374   3.544   2.154  15.314  1.4699  1.4709 -1.5517
 6305SOL    HW230375   3.426   2.148  15.235 -1.0216  0.3148  1.1275
 6306SOL     OW30376   3.589   2.394  17.384 -0.1945 -0.2030 -0.2631
 6306SOL    HW130377   3.684   2.399  17.379 -0.4343  0.5537 -4.0045
 6306SOL    HW230378   3.567   2.323  17.323 -2.3209 -0.3096  0.6259
 6307SOL     OW30379   4.027   2.903   4.167  0.4079  0.0670 -0.2467
 6307SOL    HW130380   3.937   2.930   4.148  0.7311  1.3575  0.0486
 6307SOL    HW230381   4.066   2.979   4.209  0.7265 -0.5456  0.5623
 6308SOL     OW30382   1.992   4.346   9.083 -0.2168  0.0574  0.0530
 6308SOL    HW130383   2.015   4.253   9.086 -0.9886 -0.2256 -2.6467
 6308SOL    HW230384   2.069   4.385   9.123 -0.5663  0.3594  0.4283
 6309SOL     OW30385   2.795   2.226   7.895  0.5451 -0.3355  0.1685
 6309SOL    HW130386   2.882   2.263   7.878 -0.3517  2.6386  1.8565
 6309SOL    HW230387   2.780   2.162   7.825  1.4235 -1.7444  1.2882
 6310SOL     OW30388   2.664   1.314   5.053 -0.0714  0.2111 -0.3414
 6310SOL    HW130389   2.700   1.381   5.112  0.4036  0.2284 -0.6535
 6310SOL    HW230390   2.600   1.369   5.008 -0.4284 -1.9542 -2.4272
 6311SOL     OW30391   2.127   0.811   6.764 -0.0144 -0.5125 -0.2288
 6311SOL    HW130392   2.197   0.753   6.793  1.2681  0.1319 -2.0128
 6311SOL    HW230393   2.098   0.766   6.684  2.3639 -0.3653 -1.1566
 6312SOL     OW30394   0.120   3.875  10.285  0.3232  0.5698 -0.1157
 6312SOL    HW130395   0.172   3.953  10.304 -0.0422  0.7857 -0.0061
 6312SOL    HW230396   0.151   3.828  10.363  0.1240 -1.7567 -1.4490
 6313SOL     OW30397   2.536   2.271   5.383  0.3452 -0.1648  0.2609
 6313SOL    HW130398   2.587   2.288   5.463  0.1322 -0.5731  0.4822
 6313SOL    HW230399   2.602   2.273   5.313  2.3686 -0.2521  2.1580
 6314SOL     OW30400   1.774   2.218   7.137 -0.4154  0.2802  0.0406
 6314SOL    HW130401   1.836   2.155   7.174  0.3083 -1.1566 -3.5796
 6314SOL    HW230402   1.713   2.234   7.209  1.5497 -1.4248  2.0571
 6315SOL     OW30403   3.338   4.677   7.433 -0.2622 -0.0630 -0.5944
 6315SOL    HW130404   3.367   0.009   7.508  0.2903 -1.4973  0.2154
 6315SOL    HW230405   3.280   4.611   7.471 -0.6462  0.2342 -0.6671
 6316SOL     OW30406   4.327   4.274   6.638  0.1179  0.2023 -0.5841
 6316SOL    HW130407   4.390   4.332   6.596  2.0487  0.1218  2.2545
 6316SOL    HW230408   4.379   4.247   6.714 -4.2574 -2.4382  1.4285
 6317SOL     OW30409   4.377   2.295   8.198  0.4555  0.3109  0.4477
 6317SOL    HW130410   4.316   2.240   8.247  0.7007 -0.0631  0.3309
 6317SOL    HW230411   4.317   2.362   8.168 -1.2432 -0.7453  1.4716
 6318SOL     OW30412   0.249   3.604   7.469  0.1493  0.0024  0.3905
 6318SOL    HW130413   0.340   3.590   7.443  0.1116  1.6707 -0.6440
 6318SOL    HW230414   0.264   3.698   7.477 -2.8077  0.3589  1.6367
 6319SOL     OW30415   3.468   4.301  16.256  0.3827  0.0149  0.2505
 6319SOL    HW130416   3.547   4.278  16.207  0.9225  1.8075  0.2984
 6319SOL    HW230417   3.494   4.383  16.297  1.0680  0.0236 -0.2075
 6320SOL     OW30418   3.404   4.720  10.986  0.2354  0.0999  0.2881
 6320SOL    HW130419   3.433   4.667  11.061 -1.1856 -2.9251 -1.3163
 6320SOL    HW230420   3.494   0.029  10.969 -0.2496  0.8947 -0.8747
 6321SOL     OW30421   1.911   2.675   5.097  0.3492 -0.3442  0.1962
 6321SOL    HW130422   1.873   2.759   5.123  0.5630 -0.4261  0.7850
 6321SOL    HW230423   1.992   2.661   5.147  0.2641 -0.8707  0.1894
 6322SOL     OW30424   2.250   1.524   5.926  0.1202 -0.2224  0.4623
 6322SOL    HW130425   2.304   1.586   5.877 -0.8054  1.2623  1.3314
 6322SOL    HW230426   2.273   1.443   5.880  0.8752 -0.2930  0.9521
 6323SOL     OW30427   3.793   3.537   4.367 -0.2687  0.0615  0.0972
 6323SOL    HW130428   3.708   3.547   4.323 -0.1166  1.3854  0.1135
 6323SOL    HW230429   3.800   3.624   4.405 -0.2296  0.5861 -1.1162
 6324SOL     OW30430   1.264   3.127  12.011  0.1181 -0.5833  0.0582
 6324SOL    HW130431   1.251   3.206  12.064  0.1190 -0.6076  0.0943
 6324SOL    HW230432   1.349   3.098  12.043  0.0586 -1.3023 -0.4496
 6325SOL     OW30433   4.684   3.900  15.676 -0.3532 -0.0275 -0.1298
 6325SOL    HW130434   4.601   3.891  15.723  0.1569  0.3348  0.8374
 6325SOL    HW230435   4.653   3.880  15.587  1.9795  0.9077 -1.1430
 6326SOL     OW30436   0.921   2.754  12.214 -0.3075  0.0659 -0.3581
 6326SOL    HW130437   0.860   2.805  12.161  1.1637  1.9501 -0.2555
 6326SOL    HW230438   0.964   2.702  12.147  4.4154  1.2777  1.7430
 6327SOL     OW30439   1.154   2.457   3.739  0.0623 -0.4203  0.2923
 6327SOL    HW130440   1.189   2.443   3.651  1.8878 -1.2668  1.1508
 6327SOL    HW230441   1.229   2.499   3.780 -0.2160  1.7718 -1.4303
 6328SOL     OW30442   0.145   2.133  11.943  0.3805 -0.4581 -0.1177
 6328SOL    HW130443   0.179   2.110  11.857 -1.6435  1.1809 -1.3518
 6328SOL    HW230444   0.164   2.227  11.937 -1.4058 -0.0330  0.8927
 6329SOL     OW30445   4.354   4.514   5.979  0.7043 -0.3478  0.4751
 6329SOL    HW130446   4.282   4.452   5.984 -0.3080  0.7438 -0.4222
 6329SOL    HW230447   4.363   4.517   5.883  0.9574 -1.8383  0.4627
 6330SOL     OW30448   1.736   1.237   9.615  0.1831  0.4131  0.6398
 6330SOL    HW130449   1.768   1.327   9.616  1.6366 -0.0881 -0.0586
 6330SOL    HW230450   1.676   1.245   9.541  1.5050 -0.4103 -0.5219
 6331SOL     OW30451   1.380   1.316   8.254 -0.3154  0.1253  0.0406
 6331SOL    HW130452   1.313   1.307   8.186  0.0960 -0.4036 -0.2942
 6331SOL    HW230453   1.430   1.238   8.228  1.0733  1.7143 -1.9837
 6332SOL     OW30454   1.921   0.422  15.712  0.0014 -0.4046 -0.4588
 6332SOL    HW130455   1.970   0.501  15.688  0.4461 -0.0916  1.4462
 6332SOL    HW230456   1.943   0.394  15.801 -0.9608 -0.5581 -0.2732
 6333SOL     OW30457   0.085   2.669  15.181  0.1408 -0.4549 -0.1422
 6333SOL    HW130458   0.087   2.722  15.260  0.3285 -2.0392  0.9250
 6333SOL    HW230459   0.018   2.606  15.209 -3.6646  2.5950 -2.4470
 6334SOL     OW30460   0.969   0.095   7.370  0.3338  0.0631  0.3356
 6334SOL    HW130461   1.037   0.119   7.308  0.7396  0.2186  0.8332
 6334SOL    HW230462   0.953   0.006   7.339 -0.0325  0.4263 -0.5198
 6335SOL     OW30463   2.113   4.419   3.186 -0.9105  0.5614  0.1582
 6335SOL    HW130464   2.030   4.443   3.227 -0.9244 -0.3451  0.6527
 6335SOL    HW230465   2.077   4.386   3.103 -0.4604  0.4870 -0.0083
 6336SOL     OW30466   3.518   4.437   5.151  0.8106 -0.0466 -0.4272
 6336SOL    HW130467   3.433   4.464   5.185  1.7907  1.3312  0.9527
 6336SOL    HW230468   3.530   4.373   5.220 -0.3132  0.6166  0.3824
 6337SOL     OW30469   4.570   2.111   4.428  0.0629  0.3225 -0.1236
 6337SOL    HW130470   4.511   2.154   4.367  0.4770  0.7694 -0.2089
 6337SOL    HW230471   4.515   2.090   4.503 -0.1274  0.6360 -0.1784
 6338SOL     OW30472   3.099   2.274   6.129 -0.5330  0.0942 -0.1681
 6338SOL    HW130473   3.156   2.334   6.081  1.0119 -0.6800  0.7000
 6338SOL    HW230474   3.016   2.320   6.115  0.0910  1.4531  0.6824
 6339SOL     OW30475   2.097   3.011   9.085  0.1994 -0.2214 -0.2725
 6339SOL    HW130476   2.057   2.999   9.171  0.8683 -0.6121 -0.0123
 6339SOL    HW230477   2.023   3.047   9.037  0.2182  0.1446 -0.0233
 6340SOL     OW30478   0.065   1.249   5.461 -0.1963  0.1159 -0.1709
 6340SOL    HW130479   0.022   1.321   5.508  0.9280 -0.9762  2.5267
 6340SOL    HW230480   0.098   1.190   5.529  0.3434 -0.6716 -1.1161
 6341SOL     OW30481   3.539   0.009   5.033  0.2852 -0.0138  0.5619
 6341SOL    HW130482   3.510   4.651   5.080 -2.3120  0.3879 -0.3316
 6341SOL    HW230483   3.634   0.003   5.026  0.1458 -1.4702 -0.2236
 6342SOL     OW30484   1.085   0.048   2.847 -0.3667  0.0768  0.2858
 6342SOL    HW130485   1.168   0.051   2.896 -0.0159  1.3960 -0.3892
 6342SOL    HW230486   1.114   0.055   2.756 -0.1422 -0.2251  0.3307
 6343SOL     OW30487   0.967   1.525   2.274 -0.7066 -0.1282 -0.2547
 6343SOL    HW130488   0.912   1.495   2.201 -0.8389  0.3839 -0.3635
 6343SOL    HW230489   0.920   1.492   2.350 -1.1808 -2.4451 -1.5546
 6344SOL     OW30490   2.867   1.377   8.197  0.3275  0.0667  0.5987
 6344SOL    HW130491   2.804   1.305   8.195 -1.9577  2.0844 -0.4779
 6344SOL    HW230492   2.818   1.445   8.244  0.6931 -0.6573  2.0558
 6345SOL     OW30493   0.417   3.928   5.524  0.0498  0.1592  0.4306
 6345SOL    HW130494   0.446   3.867   5.592  0.3372 -2.0036 -1.5977
 6345SOL    HW230495   0.327   3.929   5.556 -0.1139  1.1432 -0.0691
 6346SOL     OW30496   0.238   1.991   5.279 -0.1418 -0.5235  0.6780
 6346SOL    HW130497   0.249   2.022   5.368  0.0551  3.6579 -0.7896
 6346SOL    HW230498   0.328   1.971   5.253 -0.0371  0.2758  0.4171
 6347SOL     OW30499   0.961   3.154   1.116 -0.0521 -0.0122 -0.5765
 6347SOL    HW130500   0.962   3.091   1.044 -1.1690 -0.7226  0.0290
 6347SOL    HW230501   0.880   3.200   1.093 -0.4767 -0.2430  0.4696
 6348SOL     OW30502   2.827   4.165   9.311  0.1579 -0.0556  0.0564
 6348SOL    HW130503   2.842   4.083   9.359 -2.7818 -1.4227 -1.3226
 6348SOL    HW230504   2.915   4.199   9.293  0.6345 -1.0782  0.4438
 6349SOL     OW30505   4.077   4.156  10.271 -0.2385 -0.0603 -0.1777
 6349SOL    HW130506   4.172   4.145  10.278 -0.2049 -0.9262 -2.0004
 6349SOL    HW230507   4.058   4.197  10.355  3.3848 -4.1295  2.5905
 6350SOL     OW30508   4.025   0.154   6.913  0.0843 -1.0358 -0.3017
 6350SOL    HW130509   4.012   0.063   6.941  1.1196 -1.3874 -0.9503
 6350SOL    HW230510   3.964   0.201   6.970 -1.1149 -1.4626 -1.2333
 6351SOL     OW30511   4.212   1.242   3.868 -0.1611  0.3249 -0.9303
 6351SOL    HW130512   4.265   1.204   3.798 -2.0200 -3.0521 -0.5150
 6351SOL    HW230513   4.147   1.174   3.887  0.3443 -0.2068 -1.0932
 6352SOL     OW30514   3.399   0.208   6.078 -0.7797  0.1526  0.2028
 6352SOL    HW130515   3.400   0.116   6.105  0.3536 -0.4589 -1.9433
 6352SOL    HW230516   3.403   0.197   5.983  1.4713  0.3564  0.2664
 6353SOL     OW30517   4.542   2.818   0.856 -0.6565  0.5162 -0.1233
 6353SOL    HW130518   4.511   2.737   0.897  3.7843 -0.4069  1.4068
 6353SOL    HW230519   4.515   2.869   0.933  0.6510  0.0826  0.6265
 6354SOL     OW30520   0.446   3.322   4.541  0.3968  0.1178 -0.3343
 6354SOL    HW130521   0.384   3.267   4.493  0.7138 -0.0127 -0.5944
 6354SOL    HW230522   0.528   3.289   4.503  0.2818 -0.8642  0.2768
 6355SOL     OW30523   1.745   0.481  10.147  0.2778  0.2365 -0.3665
 6355SOL    HW130524   1.724   0.493  10.055  2.5449 -1.1826 -1.0803
 6355SOL    HW230525   1.700   0.398  10.166 -1.0113  0.4432 -2.4975
 6356SOL     OW30526   0.982   2.556  12.017 -0.1173 -0.1335  0.0881
 6356SOL    HW130527   1.029   2.527  11.938 -1.2646  1.6484 -1.2330
 6356SOL    HW230528   1.025   2.496  12.079  1.6707 -0.1858 -1.2033
 6357SOL     OW30529   4.100   1.958   1.677 -0.3679 -0.5752 -0.2640
 6357SOL    HW130530   4.027   1.900   1.701 -0.6167 -0.6393 -1.1683
 6357SOL    HW230531   4.088   1.965   1.582 -1.0718 -0.3797 -0.1672
 6358SOL     OW30532   4.601   0.180   5.496  0.4857  0.3038  0.7959
 6358SOL    HW130533   4.590   0.267   5.457 -0.1811  0.3720  1.1255
 6358SOL    HW230534   4.629   0.197   5.586 -0.3342 -1.2920  1.3528
 6359SOL     OW30535   1.424   0.445   2.338  0.1923  0.4359  0.5337
 6359SOL    HW130536   1.411   0.413   2.428  3.6072 -1.6008  0.2987
 6359SOL    HW230537   1.514   0.423   2.318  0.5517  2.0568  0.3652
 6360SOL     OW30538   3.148   3.665   7.380  0.3661  0.1503 -0.3534
 6360SOL    HW130539   3.235   3.675   7.421 -0.0812  2.2479  0.1049
 6360SOL    HW230540   3.141   3.749   7.335 -0.1190  0.5526  0.4841
 6361SOL     OW30541   0.208   2.395   0.345 -0.0455 -0.2367 -0.3598
 6361SOL    HW130542   0.164   2.361   0.267  1.1307  1.3400 -1.7293
 6361SOL    HW230543   0.136   2.430   0.398  0.1729  0.3028 -0.4166
 6362SOL     OW30544   1.367   1.553   7.067  0.4157  0.4144 -0.2709
 6362SOL    HW130545   1.390   1.501   6.990 -1.2305 -2.1432  0.9580
 6362SOL    HW230546   1.283   1.585   7.034  0.8884  0.4488 -1.4406
 6363SOL     OW30547   1.119   4.030   5.276 -0.2277 -0.0059  0.0102
 6363SOL    HW130548   1.059   3.971   5.231 -1.1391  1.7612 -1.0960
 6363SOL    HW230549   1.172   3.992   5.347 -0.1532 -0.0271 -0.0566
 6364SOL     OW30550   1.628   2.203   0.042  0.3010 -0.7985  0.2576
 6364SOL    HW130551   1.608   2.116   0.010  0.0667 -0.4712 -0.4925
 6364SOL    HW230552   1.721   2.209   0.020  0.2922  0.9379  0.6166
 6365SOL     OW30553   0.372   1.684   7.834 -0.3115  0.3132  0.3227
 6365SOL    HW130554   0.350   1.729   7.915 -1.0073 -1.1835  0.9654
 6365SOL    HW230555   0.458   1.710   7.801  0.2847  0.9611  2.4218
 6366SOL     OW30556   4.244   3.708   9.676 -0.2112  0.5427 -0.1000
 6366SOL    HW130557   4.282   3.758   9.749  0.6123  0.1925 -0.2902
 6366SOL    HW230558   4.184   3.651   9.726  1.2021  0.8826  1.9844
 6367SOL     OW30559   3.924   2.915   6.411  0.1653 -0.4687 -0.0403
 6367SOL    HW130560   4.002   2.864   6.387  1.6168  1.4417  0.6615
 6367SOL    HW230561   3.868   2.865   6.352 -0.6702 -1.3845  1.5315
 6368SOL     OW30562   3.561   2.160   0.912  0.1379  0.2902 -0.6404
 6368SOL    HW130563   3.597   2.247   0.897  2.1764 -0.4613 -0.0819
 6368SOL    HW230564   3.540   2.163   1.006 -0.6317 -0.4955 -0.7913
 6369SOL     OW30565   4.506   3.794   7.935  0.2071  0.1545  0.1129
 6369SOL    HW130566   4.495   3.888   7.920 -1.8657  0.0443  0.8951
 6369SOL    HW230567   4.569   3.790   8.007 -2.4800  0.5757  2.5206
 6370SOL     OW30568   1.023   1.885  16.529 -0.1383 -0.3300  0.5312
 6370SOL    HW130569   0.954   1.896  16.463  0.6910 -0.0886 -0.2965
 6370SOL    HW230570   0.963   1.885  16.604 -0.5357 -0.5535  0.2144
 6371SOL     OW30571   2.301   1.334   0.828  0.7675  0.0926 -0.2741
 6371SOL    HW130572   2.338   1.422   0.831 -1.7188  1.1748 -1.1933
 6371SOL    HW230573   2.258   1.319   0.913 -0.1362 -1.4374 -1.0060
 6372SOL     OW30574   2.526   3.141   6.806  0.4591 -0.4861  0.1934
 6372SOL    HW130575   2.445   3.128   6.855  1.0852 -0.5758  1.2080
 6372SOL    HW230576   2.567   3.215   6.850  2.3415 -1.7470  0.6020
 6373SOL     OW30577   1.239   1.838  17.089 -0.2223 -0.6681  0.3811
 6373SOL    HW130578   1.262   1.903  17.157 -0.9038 -1.2820  1.2019
 6373SOL    HW230579   1.179   1.888  17.034  0.2533  0.8837  1.2601
 6374SOL     OW30580   0.637   2.414   0.814  0.3575  0.0805 -0.7755
 6374SOL    HW130581   0.694   2.480   0.775  0.3446  1.3671  1.3936
 6374SOL    HW230582   0.648   2.343   0.751  1.6790 -0.0612 -0.3799
 6375SOL     OW30583   0.207   2.402  15.754  0.4890  0.2924 -0.0469
 6375SOL    HW130584   0.261   2.358  15.688  0.0716  1.6294 -1.2904
 6375SOL    HW230585   0.156   2.327  15.786  1.5501 -0.9041 -1.1828
 6376SOL     OW30586   2.596   3.906   4.908  0.0018  0.2194  0.6150
 6376SOL    HW130587   2.635   3.853   4.838  0.6628 -0.2226  1.3163
 6376SOL    HW230588   2.511   3.864   4.915  1.3081 -2.3347  1.1715
 6377SOL     OW30589   0.587   3.505   9.093 -0.0921 -0.3377 -0.2754
 6377SOL    HW130590   0.571   3.496   8.999 -1.0449 -0.8574 -0.0586
 6377SOL    HW230591   0.503   3.537   9.125 -1.3464 -0.8906 -3.0381
 6378SOL     OW30592   2.765   3.479   9.190 -0.1579  0.4822  0.1673
 6378SOL    HW130593   2.754   3.384   9.199  0.0121  0.3451 -1.1793
 6378SOL    HW230594   2.670   3.488   9.190 -0.2024  0.0854  1.0418
 6379SOL     OW30595   2.026   0.240   9.086  0.3318 -0.3980  0.1089
 6379SOL    HW130596   2.039   0.330   9.057  0.0888 -0.6845 -0.9034
 6379SOL    HW230597   2.005   0.194   9.004 -1.1641  0.9749 -0.2886
 6380SOL     OW30598   0.216   3.941  13.996 -0.9506 -0.5791  0.0135
 6380SOL    HW130599   0.239   3.897  14.078  1.0953  0.8649  0.2146
 6380SOL    HW230600   0.122   3.924  13.995 -1.1027  0.2845  0.0383
 6381SOL     OW30601   2.506   0.735   3.489 -0.4048  0.2727 -0.1969
 6381SOL    HW130602   2.552   0.775   3.562 -1.7399  1.0255  0.2444
 6381SOL    HW230603   2.579   0.720   3.429  1.4985 -0.7216  2.3726
 6382SOL     OW30604   2.760   3.483  10.245  0.2269  0.3468 -0.1018
 6382SOL    HW130605   2.766   3.566  10.292  0.0150 -0.3033  1.0782
 6382SOL    HW230606   2.753   3.503  10.151  0.1829  0.3474 -0.0982
 6383SOL     OW30607   2.281   1.135   5.262  0.1765  0.2372 -0.0779
 6383SOL    HW130608   2.241   1.197   5.201  1.3567 -0.7939 -1.9146
 6383SOL    HW230609   2.361   1.119   5.211 -1.2399 -0.7458 -1.9717
 6384SOL     OW30610   4.653   0.853   3.935 -0.3072  0.1833  0.8133
 6384SOL    HW130611   0.021   0.818   3.949 -0.6087 -0.8747  0.1333
 6384SOL    HW230612   4.661   0.875   3.843 -0.4759  0.6814  0.9196
 6385SOL     OW30613   0.436   1.540   2.580  0.0104  0.3097  0.4438
 6385SOL    HW130614   0.501   1.515   2.515 -1.1865 -0.8445 -0.2968
 6385SOL    HW230615   0.353   1.541   2.533  0.2653  1.1893  0.0083
 6386SOL     OW30616   0.835   1.957  15.099  0.4663 -0.3349  0.5119
 6386SOL    HW130617   0.828   1.875  15.050 -1.9001  0.1601  0.0109
 6386SOL    HW230618   0.909   1.998  15.053 -1.2779 -0.3753 -2.3554
 6387SOL     OW30619   4.094   2.000   7.354 -0.2282 -0.0447 -0.5115
 6387SOL    HW130620   4.100   2.010   7.449  2.2666  0.6292 -0.7460
 6387SOL    HW230621   4.013   2.050   7.341  1.7079  3.4257  0.6840
 6388SOL     OW30622   3.931   3.321   1.236  0.0358  0.3194  0.1047
 6388SOL    HW130623   3.933   3.405   1.281 -1.1210  0.4509 -0.0824
 6388SOL    HW230624   3.836   3.307   1.239  0.4354 -2.2601  0.5127
 6389SOL     OW30625   2.629   0.897  10.007 -0.2710 -0.1075  0.0091
 6389SOL    HW130626   2.544   0.922  10.042 -1.3331 -0.2867 -2.4502
 6389SOL    HW230627   2.619   0.803  10.023  1.4796 -0.1951  0.5322
 6390SOL     OW30628   0.581   2.663   8.720 -0.2566  0.0609  0.6483
 6390SOL    HW130629   0.584   2.601   8.792 -1.0429  0.0970  0.7070
 6390SOL    HW230630   0.504   2.633   8.672  0.4749  1.7809 -1.6046
 6391SOL     OW30631   3.551   2.207   2.955 -0.0694 -0.1420  0.7973
 6391SOL    HW130632   3.554   2.302   2.943  1.3482 -0.3327 -0.4491
 6391SOL    HW230633   3.639   2.198   2.992  1.0036  0.9913 -1.4376
 6392SOL     OW30634   3.006   0.819   1.233  0.1770 -0.3479 -0.3670
 6392SOL    HW130635   3.003   0.776   1.319 -0.1383 -0.5428 -0.4783
 6392SOL    HW230636   2.916   0.839   1.209  0.0941 -2.0907 -1.4909
 6393SOL     OW30637   0.819   3.671   7.491 -0.1241 -0.2085 -0.3022
 6393SOL    HW130638   0.749   3.639   7.548  2.5919  1.2935  3.8431
 6393SOL    HW230639   0.812   3.609   7.418 -0.6137  1.6926 -1.8695
 6394SOL     OW30640   2.390   1.131  15.045  0.1514  0.3852  0.8480
 6394SOL    HW130641   2.480   1.097  15.043 -0.6034 -1.5255 -0.6884
 6394SOL    HW230642   2.393   1.202  14.982 -0.1323  0.2396  0.6718
 6395SOL     OW30643   0.633   3.103   9.380 -0.0588 -0.0319  0.1549
 6395SOL    HW130644   0.606   3.042   9.311  0.6228  0.5037 -0.5726
 6395SOL    HW230645   0.572   3.174   9.362  1.1929  0.9137 -0.2835
 6396SOL     OW30646   1.884   4.300   6.177 -0.1210  0.5576  0.0298
 6396SOL    HW130647   1.822   4.228   6.175 -0.6478  0.9819  1.1338
 6396SOL    HW230648   1.829   4.377   6.191 -0.2458  0.3113  0.9296
 6397SOL     OW30649   3.530   2.334   5.936  0.2655 -0.0311  0.1715
 6397SOL    HW130650   3.540   2.323   5.842  1.9325 -1.1702  0.4929
 6397SOL    HW230651   3.592   2.405   5.953 -2.1350  2.1033  0.0419
 6398SOL     OW30652   4.549   0.254  14.436  0.3256 -0.1312 -0.4006
 6398SOL    HW130653   4.470   0.245  14.490 -0.2219 -1.7688 -1.4592
 6398SOL    HW230654   4.512   0.272  14.349 -2.0947 -0.3644  0.5595
 6399SOL     OW30655   0.390   2.552  17.449  0.4985 -0.6559 -0.1705
 6399SOL    HW130656   0.429   2.585  17.367 -1.9767 -0.0179 -1.0905
 6399SOL    HW230657   0.317   2.614  17.450 -0.5618 -1.9069 -0.1859
 6400SOL     OW30658   0.125   4.486   4.285  0.2362 -0.0331  0.5400
 6400SOL    HW130659   0.049   4.516   4.234 -0.6823  0.2704  2.0614
 6400SOL    HW230660   0.154   4.412   4.232  1.9217  1.6296 -0.8302
 6401SOL     OW30661   1.092   0.342  10.494  0.1729  0.1037 -0.1112
 6401SOL    HW130662   1.070   0.335  10.587  0.1009  1.3847 -0.0247
 6401SOL    HW230663   1.185   0.365  10.486  1.2812 -3.8621  1.5207
 6402SOL     OW30664   0.750   3.789   6.088 -0.0443 -0.4377  0.0462
 6402SOL    HW130665   0.742   3.695   6.072 -1.4447 -0.3236  0.0845
 6402SOL    HW230666   0.834   3.806   6.045 -0.1095 -0.5856 -0.1416
 6403SOL     OW30667   4.079   0.780   0.184 -0.5462  0.2981 -0.1589
 6403SOL    HW130668   4.040   0.694   0.167  1.6220 -0.5927 -0.5747
 6403SOL    HW230669   4.127   0.791   0.102 -1.8198 -1.6145 -1.1797
 6404SOL     OW30670   2.443   2.716   8.764  1.2252 -0.6565  0.0215
 6404SOL    HW130671   2.412   2.650   8.827  0.2579  1.3494  1.6448
 6404SOL    HW230672   2.512   2.658   8.730  1.4066 -0.3698 -0.0987
 6405SOL     OW30673   3.059   3.831   0.024  0.2364 -0.0131  0.1144
 6405SOL    HW130674   3.094   3.920   0.025  0.8631 -0.2758  1.6448
 6405SOL    HW230675   3.021   3.839   0.111 -0.6696  0.3016 -0.3141
 6406SOL     OW30676   0.476   3.178  13.985 -0.3215  0.4067 -0.1583
 6406SOL    HW130677   0.552   3.180  14.044 -0.6198 -0.0193  0.2436
 6406SOL    HW230678   0.521   3.137  13.911  0.8672 -1.3093  1.4855
 6407SOL     OW30679   3.917   4.308   6.298  0.1506 -0.2715  0.6421
 6407SOL    HW130680   3.914   4.404   6.303  0.7417 -0.1595 -1.4317
 6407SOL    HW230681   3.967   4.280   6.375 -0.2732 -1.0815  0.6255
 6408SOL     OW30682   1.789   2.501  16.111  0.1013 -0.3697  0.2055
 6408SOL    HW130683   1.859   2.437  16.125  0.3672 -0.6901 -2.7108
 6408SOL    HW230684   1.794   2.496  16.016 -0.1647  0.1637  0.1646
 6409SOL     OW30685   0.172   0.104   3.093 -0.1871  0.5846 -0.1281
 6409SOL    HW130686   0.209   0.016   3.092  0.1286  0.7483 -2.1783
 6409SOL    HW230687   0.227   0.157   3.036 -1.8236  1.1236 -1.2166
 6410SOL     OW30688   3.316   0.466  12.426 -0.1859  0.4258  0.3304
 6410SOL    HW130689   3.237   0.462  12.371 -0.0521  1.9683  0.0194
 6410SOL    HW230690   3.346   0.555  12.409  0.0499 -0.0615 -1.7835
 6411SOL     OW30691   1.716   4.634   5.982 -0.5745 -0.2136 -0.0636
 6411SOL    HW130692   1.784   4.588   5.933  0.2189  1.7304 -0.7643
 6411SOL    HW230693   1.640   4.586   5.951 -0.3709 -1.8763  1.9974
 6412SOL     OW30694   1.572   1.508   8.324  0.0578  0.3996  0.8597
 6412SOL    HW130695   1.649   1.474   8.369 -0.1624  1.6003  2.1452
 6412SOL    HW230696   1.524   1.428   8.302 -1.6281  1.6109  0.1158
 6413SOL     OW30697   0.959   4.100   6.781 -0.1706 -0.1480  0.1582
 6413SOL    HW130698   0.966   4.097   6.876  0.8839 -0.3207  0.0801
 6413SOL    HW230699   0.893   4.036   6.756 -0.7814  0.3289  0.5764
 6414SOL     OW30700   1.233   2.249  13.070 -0.5090 -0.0350 -0.4850
 6414SOL    HW130701   1.179   2.223  13.144  0.8574 -0.8402  0.2249
 6414SOL    HW230702   1.173   2.302  13.017 -1.1733  1.0934  1.3876
 6415SOL     OW30703   3.852   0.798   9.010 -0.1931 -0.4503  0.5835
 6415SOL    HW130704   3.893   0.714   8.991 -0.7028 -1.1162  2.3379
 6415SOL    HW230705   3.906   0.827   9.083  0.4786 -2.1031  0.7286
 6416SOL     OW30706   1.867   1.750   5.064  0.2309  0.1441 -0.2267
 6416SOL    HW130707   1.880   1.739   4.969 -1.7778  0.5152 -0.5448
 6416SOL    HW230708   1.776   1.726   5.080 -0.0755  1.0043 -0.6479
 6417SOL     OW30709   3.867   1.029   2.858  0.0724 -0.6279 -0.1408
 6417SOL    HW130710   3.885   0.965   2.927  0.6552 -1.4207 -1.0227
 6417SOL    HW230711   3.775   1.054   2.861 -0.4857 -2.7874  0.5058
 6418SOL     OW30712   3.496   0.662   7.015  0.2317  0.2400 -0.3627
 6418SOL    HW130713   3.553   0.713   6.958  0.3504  1.7466  1.0708
 6418SOL    HW230714   3.446   0.730   7.062 -1.5462 -1.2312 -0.1169
 6419SOL     OW30715   3.548   0.228   4.234 -0.7974  0.1218 -0.1698
 6419SOL    HW130716   3.461   0.188   4.232 -0.5179 -0.3831 -1.6092
 6419SOL    HW230717   3.552   0.257   4.143 -0.0700 -0.1425 -0.2185
 6420SOL     OW30718   0.828   3.328  17.470  0.1257 -0.0179 -0.8037
 6420SOL    HW130719   0.866   3.253  17.516 -0.4050  1.2037  1.6066
 6420SOL    HW230720   0.906   3.365  17.429 -0.3104  0.3675 -1.2841
 6421SOL     OW30721   3.609   1.563   4.539  0.2541 -0.1591 -0.4079
 6421SOL    HW130722   3.585   1.535   4.628  0.2854 -1.3730 -0.7768
 6421SOL    HW230723   3.691   1.517   4.523  0.6041 -0.9990  3.6786
 6422SOL     OW30724   1.590   2.084   7.982 -0.2462 -0.0846 -0.1264
 6422SOL    HW130725   1.603   2.066   8.075  1.0790 -2.5032 -0.8099
 6422SOL    HW230726   1.508   2.129   8.004 -0.1374 -0.4501  1.0144
 6423SOL     OW30727   4.714   0.034  16.534  0.6729 -0.0067  0.2498
 6423SOL    HW130728   4.663   4.674  16.529  0.4000  0.3116 -2.3612
 6423SOL    HW230729   4.652   0.090  16.581  0.0616 -1.2193  0.8940
 6424SOL     OW30730   2.910   1.839   9.075 -0.3909  0.2355  0.0688
 6424SOL    HW130731   2.989   1.786   9.084  0.0988  1.3210  2.0356
 6424SOL    HW230732   2.946   1.901   9.011  0.1697  3.5197  3.5689
 6425SOL     OW30733   1.963   0.409   8.532  0.1522 -0.1034  0.0221
 6425SOL    HW130734   1.975   0.407   8.437  0.9125  0.2236  0.1118
 6425SOL    HW230735   1.890   0.347   8.531 -0.2396  0.3680 -0.8163
 6426SOL     OW30736   4.273   2.297  13.076  0.5197 -0.0789  0.3365
 6426SOL    HW130737   4.325   2.351  13.017  1.7524 -2.1579 -0.5006
 6426SOL    HW230738   4.333   2.291  13.151  1.0753 -0.2284 -0.1235
 6427SOL     OW30739   0.333   0.201   5.723 -0.0567 -0.0093 -0.5427
 6427SOL    HW130740   0.388   0.201   5.644 -0.3960  0.3659 -0.7818
 6427SOL    HW230741   0.295   0.288   5.706 -1.1242 -0.0130  1.8929
 6428SOL     OW30742   3.997   2.583   4.956 -0.4477  0.1809  0.9950
 6428SOL    HW130743   3.971   2.526   4.883 -0.6985  1.1418  0.3332
 6428SOL    HW230744   4.021   2.512   5.015  0.7995 -0.4170 -0.2072
 6429SOL     OW30745   3.731   0.292  17.495  0.4322 -0.4642  0.1514
 6429SOL    HW130746   3.670   0.344  17.442  2.1644  0.4828 -0.9002
 6429SOL    HW230747   3.682   0.290  17.577 -0.4573 -0.5581 -0.3691
 6430SOL     OW30748   0.167   2.685   0.867  0.3650  0.2950 -0.1265
 6430SOL    HW130749   0.075   2.680   0.891  0.1341 -0.3837 -1.1592
 6430SOL    HW230750   0.220   2.677   0.946 -1.7036  2.1393  1.4354
 6431SOL     OW30751   1.325   0.242   2.780 -0.1331 -0.1832  0.1097
 6431SOL    HW130752   1.253   0.305   2.792  0.5739  0.9195 -1.5627
 6431SOL    HW230753   1.369   0.288   2.709 -0.2358 -1.4547 -0.7600
 6432SOL     OW30754   1.364   2.282   3.611  0.2086 -0.5932  0.2340
 6432SOL    HW130755   1.446   2.267   3.658  0.0528 -0.6414  0.4861
 6432SOL    HW230756   1.392   2.356   3.556  1.9391 -0.3450  1.4138
 6433SOL     OW30757   3.556   0.091   8.221 -0.3794 -0.2248  0.0577
 6433SOL    HW130758   3.548   0.166   8.161  2.2251  0.3073  0.3736
 6433SOL    HW230759   3.640   0.057   8.191  0.3259  0.0200  1.7884
 6434SOL     OW30760   4.242   1.460  17.192 -0.1468  0.4974  0.3190
 6434SOL    HW130761   4.255   1.486  17.283  0.2356  0.0907  0.3838
 6434SOL    HW230762   4.331   1.474  17.159  0.1865 -0.4162  0.8369
 6435SOL     OW30763   1.399   2.541   0.388  0.1519  0.4581 -0.1504
 6435SOL    HW130764   1.491   2.550   0.362  0.2185 -0.6644 -0.2791
 6435SOL    HW230765   1.373   2.492   0.310  1.5911  0.4686 -0.6325
 6436SOL     OW30766   0.173   1.819   4.485 -0.1693  0.1499 -0.1587
 6436SOL    HW130767   0.228   1.814   4.407 -0.1309  1.5247 -0.2323
 6436SOL    HW230768   0.087   1.843   4.448  0.8611  2.0327 -1.3125
 6437SOL     OW30769   3.520   2.139   3.664 -0.1967  0.1038 -0.4172
 6437SOL    HW130770   3.554   2.156   3.751  1.6094  0.5874 -1.2169
 6437SOL    HW230771   3.596   2.166   3.613  1.4695 -0.6629  1.7225
 6438SOL     OW30772   2.203   2.583   1.538 -0.6423 -0.4092 -0.1389
 6438SOL    HW130773   2.174   2.569   1.448 -1.9634 -0.5601  0.3225
 6438SOL    HW230774   2.218   2.678   1.534  0.9812 -0.5929  1.3375
 6439SOL     OW30775   3.931   4.250   5.508  0.5549  0.3561  0.2849
 6439SOL    HW130776   3.909   4.263   5.600 -0.0697  0.6625  0.0916
 6439SOL    HW230777   4.026   4.252   5.512  0.5647 -0.1227  0.2373
 6440SOL     OW30778   2.992   0.272   6.241  0.3002 -0.2446  0.1265
 6440SOL    HW130779   2.943   0.253   6.161 -2.0478 -0.4322  1.5968
 6440SOL    HW230780   3.062   0.330   6.211  2.7538 -2.6615  1.2110
 6441SOL     OW30781   3.892   1.705   1.496  0.1402 -0.9111  0.6138
 6441SOL    HW130782   3.888   1.796   1.464 -0.2759 -2.2578 -3.2129
 6441SOL    HW230783   3.833   1.713   1.571  0.1187  1.9977  0.2956
 6442SOL     OW30784   2.251   3.549  15.058  0.2150  0.2394  0.1188
 6442SOL    HW130785   2.214   3.548  15.147 -1.3334 -0.4220 -0.5339
 6442SOL    HW230786   2.344   3.561  15.075  0.3424  0.3261 -0.6655
 6443SOL     OW30787   3.079   2.206   3.879  0.3688 -0.2361  0.8078
 6443SOL    HW130788   3.158   2.162   3.913  1.8661  1.0661 -0.9902
 6443SOL    HW230789   3.018   2.133   3.882 -2.3426  2.0104 -0.0737
 6444SOL     OW30790   0.905   2.418  13.513  0.4668  0.0390  0.5793
 6444SOL    HW130791   0.818   2.428  13.474 -0.7763 -1.4348  2.9991
 6444SOL    HW230792   0.964   2.395  13.441 -0.7451 -2.0067  0.2631
 6445SOL     OW30793   4.277   0.243  11.175  0.1128  0.0080 -0.3625
 6445SOL    HW130794   4.197   0.250  11.228  0.7681  1.1168  0.4812
 6445SOL    HW230795   4.251   0.166  11.125  0.5852  0.7889 -1.8053
 6446SOL     OW30796   2.023   0.250  17.310 -0.0488  0.8181 -0.1734
 6446SOL    HW130797   2.066   0.236  17.225  1.9295  0.6314  0.8430
 6446SOL    HW230798   2.018   0.345  17.306  1.4690  0.8845 -0.5240
 6447SOL     OW30799   3.584   0.724   8.192 -0.0998  0.4072 -0.7981
 6447SOL    HW130800   3.559   0.671   8.116 -0.7778 -1.3635  0.6636
 6447SOL    HW230801   3.576   0.809   8.149 -3.2528  0.1114 -0.7994
 6448SOL     OW30802   0.046   1.040   7.956 -0.1964  0.0652  0.0930
 6448SOL    HW130803   0.122   1.098   7.949  0.1036 -0.6214 -2.5960
 6448SOL    HW230804   0.019   1.030   7.865  1.9229  0.0596 -0.5310
 6449SOL     OW30805   4.476   1.924   2.952 -0.2601  0.3374  0.1667
 6449SOL    HW130806   4.531   1.863   2.902 -2.3285 -1.2100 -0.2179
 6449SOL    HW230807   4.389   1.887   2.935 -0.7837  2.6676 -2.1143
 6450SOL     OW30808   4.079   1.661   3.186 -0.3589  0.3109  0.5007
 6450SOL    HW130809   4.035   1.633   3.267 -1.3099 -0.3395 -0.2378
 6450SOL    HW230810   4.153   1.601   3.186  1.8150  2.9795 -1.3106
 6451SOL     OW30811   3.345   0.263  11.466 -0.0932  0.7590  0.2035
 6451SOL    HW130812   3.292   0.321  11.413 -1.1203  0.3746  0.8181
 6451SOL    HW230813   3.286   0.188  11.466 -1.0762  1.5389  0.0538
 6452SOL     OW30814   2.203   0.410   4.886  0.0849 -0.3653 -0.3526
 6452SOL    HW130815   2.272   0.418   4.820  1.1691 -2.9909  0.4577
 6452SOL    HW230816   2.253   0.372   4.958 -0.7765  0.0982  0.4762
 6453SOL     OW30817   1.108   2.563   7.526 -0.3649  0.2561  0.0800
 6453SOL    HW130818   1.152   2.648   7.521  0.6187 -0.2407  0.3343
 6453SOL    HW230819   1.081   2.540   7.436  0.5067 -0.4458 -0.0029
 6454SOL     OW30820   4.385   3.549   8.964 -0.2491 -0.3251  0.4299
 6454SOL    HW130821   4.313   3.611   8.974 -0.0345 -0.5055  3.1348
 6454SOL    HW230822   4.333   3.469   8.955  1.8258 -1.6396  0.1673
 6455SOL     OW30823   2.889   0.053  10.436 -0.3490 -0.8959  0.0205
 6455SOL    HW130824   2.930   0.009  10.361 -0.9485 -1.1573 -0.1505
 6455SOL    HW230825   2.903   4.702  10.497  1.4699 -0.5055  0.0828
 6456SOL     OW30826   4.511   4.190   8.236 -0.6734 -0.0023 -0.0421
 6456SOL    HW130827   4.560   4.272   8.247 -0.5480 -0.0623 -0.1503
 6456SOL    HW230828   4.563   4.148   8.167  0.1555  0.8708  0.0460
 6457SOL     OW30829   4.486   1.603  16.257  0.2437  0.2739  0.2499
 6457SOL    HW130830   4.529   1.616  16.342  0.5191 -2.5592  0.5379
 6457SOL    HW230831   4.395   1.603  16.287 -0.3388  2.3779 -1.5080
 6458SOL     OW30832   2.571   3.384   2.988 -0.0543  0.0870 -0.3144
 6458SOL    HW130833   2.625   3.453   2.949 -0.4993  1.1079  0.8806
 6458SOL    HW230834   2.512   3.362   2.916 -0.7645 -1.6182  0.7924
 6459SOL     OW30835   3.165   2.613   1.723 -0.5306 -0.0223 -0.2427
 6459SOL    HW130836   3.219   2.674   1.774 -1.7050  0.5141  0.3433
 6459SOL    HW230837   3.079   2.617   1.764  1.2319 -0.4527  3.5196
 6460SOL     OW30838   4.357   1.102   3.672  0.1343 -0.5357 -0.3903
 6460SOL    HW130839   4.341   1.010   3.694 -0.2362 -0.1517  0.9533
 6460SOL    HW230840   4.349   1.086   3.578  1.4020  1.1565 -0.7840
 6461SOL     OW30841   4.575   1.190  15.076 -0.3652 -0.1625  0.4560
 6461SOL    HW130842   4.629   1.159  15.003  0.1044  2.2151 -0.2129
 6461SOL    HW230843   4.552   1.274  15.035 -1.5807  0.3031  2.0964
 6462SOL     OW30844   3.925   3.648  11.910  0.3495  0.4148 -0.3053
 6462SOL    HW130845   3.992   3.604  11.857  0.0816 -2.0750  1.4468
 6462SOL    HW230846   3.906   3.727  11.860 -0.2748 -0.1777 -1.0157
 6463SOL     OW30847   2.645   1.916   4.417  0.4379 -0.0113  0.2873
 6463SOL    HW130848   2.567   1.883   4.371  0.7562  1.0542 -1.0066
 6463SOL    HW230849   2.627   2.010   4.418 -0.4672 -0.2010  1.4452
 6464SOL     OW30850   4.571   0.162  16.767 -0.3079 -0.1430  0.0295
 6464SOL    HW130851   4.482   0.191  16.787  0.2304  1.4301  0.1023
 6464SOL    HW230852   4.604   0.128  16.851 -1.5488 -0.3917  0.4090
 6465SOL     OW30853   1.879   3.523   3.411  0.0240 -0.6863 -0.9707
 6465SOL    HW130854   1.953   3.583   3.419  0.5461 -0.9664 -3.7284
 6465SOL    HW230855   1.899   3.473   3.490 -3.7333 -1.2478 -0.3542
 6466SOL     OW30856   0.863   1.842  12.049 -0.5250 -0.2740  0.1947
 6466SOL    HW130857   0.878   1.922  12.100  3.7139 -1.1345  0.2289
 6466SOL    HW230858   0.767   1.841  12.048 -0.4886 -2.3529 -0.2760
 6467SOL     OW30859   1.134   2.632   6.559  0.0641  0.7612 -0.2557
 6467SOL    HW130860   1.208   2.658   6.505  1.0064  1.0851  1.2090
 6467SOL    HW230861   1.093   2.574   6.495 -0.1198  0.8859 -0.2514
 6468SOL     OW30862   0.169   2.983  15.094 -0.5398  0.1960  0.3680
 6468SOL    HW130863   0.136   2.894  15.103 -0.5496  0.3065  1.3791
 6468SOL    HW230864   0.143   3.022  15.178 -2.3528 -0.2873  0.0437
 6469SOL     OW30865   0.963   3.540   1.765  0.0064  0.1998 -0.2378
 6469SOL    HW130866   1.031   3.521   1.701 -2.1054 -0.7736 -2.2077
 6469SOL    HW230867   0.908   3.594   1.709  0.1315 -0.2310 -0.7738
 6470SOL     OW30868   3.693   4.624   1.836  0.0416 -0.2028 -0.3782
 6470SOL    HW130869   3.608   4.586   1.811  0.1957 -0.4719 -0.4950
 6470SOL    HW230870   3.706   4.579   1.919 -3.3404 -0.1347  0.1736
 6471SOL     OW30871   2.770   1.679   5.577  0.1449  0.3081  0.3646
 6471SOL    HW130872   2.760   1.604   5.519 -1.4287  0.8088 -0.0120
 6471SOL    HW230873   2.841   1.642   5.631  0.1828 -0.0279  0.0842
 6472SOL     OW30874   4.395   3.823   4.313 -0.6492  0.4778 -0.0901
 6472SOL    HW130875   4.472   3.791   4.265  0.0165  0.4337  0.9994
 6472SOL    HW230876   4.429   3.896   4.366 -1.0552  0.4814  0.1637
 6473SOL     OW30877   3.264   0.539   8.995 -0.3945  0.3607  0.0150
 6473SOL    HW130878   3.223   0.513   8.912 -2.2853  1.7620  0.5143
 6473SOL    HW230879   3.265   0.632   8.972  1.1118  0.6078  1.1402
 6474SOL     OW30880   3.176   2.736   2.550  0.0145  0.2940  0.0635
 6474SOL    HW130881   3.173   2.793   2.473 -1.0898 -0.5182 -0.4995
 6474SOL    HW230882   3.122   2.779   2.616  0.0962  0.8365 -0.2243
 6475SOL     OW30883   2.309   0.691  15.596 -0.1457  0.0588 -0.7237
 6475SOL    HW130884   2.294   0.717  15.505  4.1087  0.7356 -1.2176
 6475SOL    HW230885   2.378   0.625  15.601 -0.4322 -0.2037 -0.2389
 6476SOL     OW30886   0.125   2.400   2.104  0.3033 -0.1007  0.0115
 6476SOL    HW130887   0.139   2.325   2.045 -0.0236 -1.2975  1.4588
 6476SOL    HW230888   0.031   2.411   2.117  0.3813  0.6933 -0.1471
 6477SOL     OW30889   1.402   2.407   3.198  0.0071  0.3058 -0.2684
 6477SOL    HW130890   1.389   2.439   3.287 -0.6726 -0.0857 -0.2209
 6477SOL    HW230891   1.427   2.315   3.211  1.2259  0.3225 -2.3587
 6478SOL     OW30892   1.026   4.269   9.840  0.1977  0.3684  0.2698
 6478SOL    HW130893   1.069   4.224   9.767 -0.2465  1.2273 -0.5194
 6478SOL    HW230894   1.098   4.269   9.901  0.1314  2.6285  0.3314
 6479SOL     OW30895   3.642   0.222  11.078 -0.7237  0.4269  0.0109
 6479SOL    HW130896   3.625   0.181  11.162  3.4278 -0.2908  0.4914
 6479SOL    HW230897   3.620   0.315  11.088  0.5074  0.3333  3.3626
 6480SOL     OW30898   4.471   3.255   0.315  0.0207  0.1175 -0.5458
 6480SOL    HW130899   4.405   3.200   0.274 -0.6425  0.0875  0.5516
 6480SOL    HW230900   4.424   3.337   0.330 -0.1245 -0.2515  1.0021
 6481SOL     OW30901   1.664   0.929   3.004 -0.1232  0.1607 -0.1040
 6481SOL    HW130902   1.666   1.022   3.027  2.7386 -0.2411  1.2265
 6481SOL    HW230903   1.658   0.934   2.908  0.0342 -0.6841 -0.1536
 6482SOL     OW30904   2.426   3.866   3.716 -0.1457 -0.8880 -0.0977
 6482SOL    HW130905   2.348   3.906   3.678  1.1918  0.1241 -1.8011
 6482SOL    HW230906   2.433   3.895   3.806  2.2961  0.3023 -0.6780
 6483SOL     OW30907   3.631   4.396   4.353  0.2704 -0.5949 -0.3704
 6483SOL    HW130908   3.604   4.485   4.376  2.0529  0.5074 -2.4968
 6483SOL    HW230909   3.578   4.381   4.274 -0.2427  0.9182 -0.3072
 6484SOL     OW30910   0.706   3.090  14.148  0.2140 -0.1413  0.1627
 6484SOL    HW130911   0.799   3.107  14.139 -0.4814  2.8269 -1.6012
 6484SOL    HW230912   0.707   2.995  14.155 -0.5572 -0.3252 -2.1551
 6485SOL     OW30913   1.790   2.544   6.045  0.6033  0.1603  0.8210
 6485SOL    HW130914   1.879   2.509   6.036 -0.7595 -2.9454 -0.3883
 6485SOL    HW230915   1.784   2.551   6.140  0.0134 -2.3121  0.9658
 6486SOL     OW30916   2.293   2.080   6.817  0.3625 -0.0941  1.1258
 6486SOL    HW130917   2.292   2.024   6.739 -1.0337  1.0290  0.3120
 6486SOL    HW230918   2.199   2.080   6.837 -0.7011  0.2157 -3.6400
 6487SOL     OW30919   1.011   1.436   3.756 -0.2588  0.0521  0.5183
 6487SOL    HW130920   0.987   1.416   3.666  1.6892  0.0390 -0.0114
 6487SOL    HW230921   1.097   1.393   3.765 -0.9176 -1.4528 -0.2822
 6488SOL     OW30922   3.760   4.655   0.598  0.2780  0.0473 -0.1599
 6488SOL    HW130923   3.776   0.009   0.656 -1.8235  0.2427  0.1520
 6488SOL    HW230924   3.665   4.656   0.587  0.5415 -0.6562 -2.5075
 6489SOL     OW30925   2.206   4.494  15.115  0.0242  0.3629 -0.3142
 6489SOL    HW130926   2.161   4.460  15.192  0.9585  2.3316  1.0987
 6489SOL    HW230927   2.255   4.572  15.142 -0.4429 -0.1283  1.9182
 6490SOL     OW30928   1.407   2.744  14.049  0.6264 -0.1421  0.1589
 6490SOL    HW130929   1.352   2.683  14.000  0.9984 -0.2067 -0.1745
 6490SOL    HW230930   1.469   2.778  13.985 -0.8952 -1.3575 -1.9662
 6491SOL     OW30931   4.073   3.910  16.085  0.1932 -0.2663 -0.6965
 6491SOL    HW130932   4.024   3.828  16.090  1.3279 -0.7711  1.9239
 6491SOL    HW230933   4.112   3.923  16.171  0.2990  0.5805 -0.8723
 6492SOL     OW30934   4.241   3.582  15.476  0.3721 -0.0677  0.6066
 6492SOL    HW130935   4.247   3.519  15.405 -1.8820  1.3711 -0.8817
 6492SOL    HW230936   4.167   3.634  15.445  1.8855  1.8166  0.1474
 6493SOL     OW30937   4.241   4.617   6.576 -0.4974  0.8395 -0.2800
 6493SOL    HW130938   4.210   4.707   6.582 -1.3597  0.6785 -2.4267
 6493SOL    HW230939   4.232   4.587   6.666  1.8074  2.3744  0.4660
 6494SOL     OW30940   1.813   4.101   7.512 -0.4399  0.7652  0.1093
 6494SOL    HW130941   1.901   4.076   7.484 -0.6269  1.3104 -0.9398
 6494SOL    HW230942   1.765   4.099   7.430 -2.1553  3.0207  1.0424
 6495SOL     OW30943   4.568   0.735  11.224  0.3112 -0.6736  0.5044
 6495SOL    HW130944   4.603   0.728  11.135  0.8260  0.3775  0.6292
 6495SOL    HW230945   4.549   0.645  11.254 -0.7904 -0.4602  0.4431
 6496SOL     OW30946   1.206   0.216   5.162  0.1413 -0.0668  0.3807
 6496SOL    HW130947   1.183   0.159   5.235  1.1816 -1.4663 -0.3809
 6496SOL    HW230948   1.289   0.253   5.194  1.2147 -1.5627 -0.6803
 6497SOL     OW30949   1.926   1.621  16.077  0.3387  0.2270 -0.0123
 6497SOL    HW130950   1.995   1.614  16.012  0.9101  1.3684  0.4651
 6497SOL    HW230951   1.899   1.713  16.079  1.5609  0.5516  1.8610
 6498SOL     OW30952   3.697   1.672   6.969  1.0936  0.3572 -0.1219
 6498SOL    HW130953   3.725   1.739   6.906 -0.1581  0.5097 -0.5047
 6498SOL    HW230954   3.731   1.698   7.055 -1.8135 -1.9772  1.7284
 6499SOL     OW30955   4.504   3.174   5.147  0.2494  0.3172 -0.0521
 6499SOL    HW130956   4.479   3.204   5.060 -0.4325 -1.2772 -0.4078
 6499SOL    HW230957   4.419   3.142   5.176 -0.6469  2.0060 -0.8230
 6500SOL     OW30958   3.520   0.856   5.852 -0.1366 -0.0317 -1.1490
 6500SOL    HW130959   3.520   0.948   5.824  0.1977  0.7132  1.3353
 6500SOL    HW230960   3.607   0.859   5.892 -0.2502  1.9780 -1.0414
 6501SOL     OW30961   1.343   0.304  10.903 -0.1800 -0.4836 -0.0586
 6501SOL    HW130962   1.313   0.242  10.837  1.7354 -0.8138 -0.6126
 6501SOL    HW230963   1.292   0.382  10.882  0.7299  0.6696  2.0562
 6502SOL     OW30964   0.836   4.561   4.494 -0.4447  0.3225  0.0862
 6502SOL    HW130965   0.765   4.536   4.553  0.1375 -0.9756  0.2305
 6502SOL    HW230966   0.849   4.486   4.436 -0.5596  1.1155 -0.9818
 6503SOL     OW30967   4.094   1.542   5.280 -0.0733 -0.1215  0.9092
 6503SOL    HW130968   4.138   1.555   5.364 -0.6174 -0.0396  1.1809
 6503SOL    HW230969   4.079   1.448   5.272  0.8051 -0.1947  0.0211
 6504SOL     OW30970   3.609   4.397  15.559  0.0702  0.0500  0.2890
 6504SOL    HW130971   3.641   4.307  15.571  3.1219  1.0503 -0.2870
 6504SOL    HW230972   3.692   4.442  15.580  0.3981 -1.4643  2.2332
 6505SOL     OW30973   1.941   2.203   1.288  0.5195  0.5192  0.5368
 6505SOL    HW130974   1.947   2.159   1.204 -0.8065  0.9823  0.1888
 6505SOL    HW230975   1.872   2.267   1.270  0.5851  0.6416  0.7203
 6506SOL     OW30976   0.781   3.466   7.328  0.0368  0.3518  0.5105
 6506SOL    HW130977   0.728   3.386   7.335  1.2251 -0.4668  0.1761
 6506SOL    HW230978   0.790   3.473   7.233 -1.0667  0.3764  0.4124
 6507SOL     OW30979   4.265   1.420  14.454  0.2353  0.2359  0.6736
 6507SOL    HW130980   4.303   1.430  14.541  0.1243 -1.4417  0.9129
 6507SOL    HW230981   4.250   1.508  14.418  3.5399  0.7429  0.5074
 6508SOL     OW30982   2.835   2.957   5.092  0.8479  0.0086  0.2087
 6508SOL    HW130983   2.745   2.987   5.108  0.5241  0.1771 -1.9491
 6508SOL    HW230984   2.878   3.033   5.052  0.7348 -0.7473 -1.3326
 6509SOL     OW30985   2.452   2.604  15.737 -0.0478 -0.0237 -0.2074
 6509SOL    HW130986   2.404   2.682  15.766 -0.5840 -0.8599  1.1870
 6509SOL    HW230987   2.509   2.643  15.671  0.4876 -0.7217 -0.1608
 6510SOL     OW30988   4.277   0.742   5.743 -0.2348 -0.1419  0.4873
 6510SOL    HW130989   4.214   0.763   5.673 -0.8457 -2.5105  0.3541
 6510SOL    HW230990   4.361   0.739   5.696 -2.0140  0.8760 -2.8202
 6511SOL     OW30991   4.645   0.890  14.886 -0.0605 -0.4505 -0.1959
 6511SOL    HW130992   0.014   0.898  14.855 -0.2585  1.2017 -0.3312
 6511SOL    HW230993   4.656   0.902  14.981  1.1656 -0.3909 -0.3385
 6512SOL     OW30994   3.053   4.215  11.466 -0.5508 -0.2031 -0.0220
 6512SOL    HW130995   3.020   4.288  11.414  0.2369  0.2400  0.0980
 6512SOL    HW230996   3.112   4.263  11.524 -0.6951  1.7808 -1.5283
 6513SOL     OW30997   1.219   0.333   5.928  0.3714  0.1781 -0.2463
 6513SOL    HW130998   1.246   0.418   5.892 -1.8970  0.6850 -0.7992
 6513SOL    HW230999   1.282   0.329   6.000 -0.7607 -2.5617  0.5917
 6514SOL     OW31000   2.591   1.635   7.361  0.5637 -0.0511 -0.0498
 6514SOL    HW131001   2.535   1.695   7.312 -1.2885 -0.4522  1.5577
 6514SOL    HW231002   2.665   1.691   7.382  2.2971 -1.9413 -1.0954
 6515SOL     OW31003   4.149   3.721  14.271  0.4259  0.7183 -0.1846
 6515SOL    HW131004   4.212   3.792  14.281 -0.5603  1.6549 -0.6089
 6515SOL    HW231005   4.096   3.724  14.351  0.6403  1.1751 -0.0603
 6516SOL     OW31006   2.884   3.311  10.759 -0.1040  0.2668 -0.0417
 6516SOL    HW131007   2.842   3.286  10.677  1.3900 -1.3130 -0.3212
 6516SOL    HW231008   2.933   3.391  10.738  2.2520 -1.3305 -0.6705
 6517SOL     OW31009   2.736   2.013   5.553 -0.0770  0.9091 -0.2871
 6517SOL    HW131010   2.831   2.022   5.563 -0.2980 -0.6373  3.0744
 6517SOL    HW231011   2.727   1.919   5.534 -1.3624  0.4497  2.6019
 6518SOL     OW31012   0.952   2.858   8.337 -0.5157 -0.0645 -0.0992
 6518SOL    HW131013   0.872   2.862   8.390  1.0314  0.2907  2.1770
 6518SOL    HW231014   0.919   2.852   8.247 -1.3438 -0.6963  0.2473
 6519SOL     OW31015   3.409   2.570   2.895  0.3688 -0.5762  0.7502
 6519SOL    HW131016   3.389   2.526   2.978 -2.1375  0.7082  0.8068
 6519SOL    HW231017   3.404   2.663   2.918 -1.6447 -0.6110  0.4234
 6520SOL     OW31018   4.404   4.569   7.317 -0.9862 -0.2071  0.4204
 6520SOL    HW131019   4.367   4.655   7.296  0.1197  0.1759  0.0177
 6520SOL    HW231020   4.385   4.573   7.411 -1.5268 -2.6126  0.4004
 6521SOL     OW31021   0.113   0.216  14.718 -0.0571 -0.3057  0.3511
 6521SOL    HW131022   0.041   0.184  14.665 -0.8321 -2.3275  2.6326
 6521SOL    HW231023   0.120   0.166  14.799  2.3138 -1.5691 -0.6411
 6522SOL     OW31024   1.979   0.745   5.966  0.1577 -0.9814 -0.4840
 6522SOL    HW131025   1.904   0.789   5.925  1.8904  0.5659 -2.0368
 6522SOL    HW231026   2.034   0.723   5.890 -1.7898 -1.1460 -1.8477
 6523SOL     OW31027   3.756   0.435   6.328 -0.1427  0.0497  0.0094
 6523SOL    HW131028   3.718   0.500   6.269 -0.8506 -0.7103 -0.3645
 6523SOL    HW231029   3.679   0.397   6.369  1.1490 -2.1932  0.3602
 6524SOL     OW31030   1.283   1.424  10.622  0.5230  0.3707  0.0987
 6524SOL    HW131031   1.332   1.469  10.553 -2.2518 -0.4807 -2.3884
 6524SOL    HW231032   1.229   1.366  10.568 -0.3461  0.6530  0.6760
 6525SOL     OW31033   1.216   3.684   3.903 -0.4170  0.2975  0.4070
 6525SOL    HW131034   1.142   3.679   3.842  0.1614 -3.5478  0.0303
 6525SOL    HW231035   1.252   3.595   3.905  2.2501  1.3445 -1.3604
 6526SOL     OW31036   2.028   0.437   4.195 -0.5263 -0.2872 -0.2794
 6526SOL    HW131037   2.083   0.470   4.124 -0.7409 -0.3427 -0.4723
 6526SOL    HW231038   2.088   0.439   4.270 -0.9055  1.0559 -0.0179
 6527SOL     OW31039   1.554   3.536  15.405 -0.3521 -0.0089  0.6094
 6527SOL    HW131040   1.484   3.472  15.396  1.6604 -1.9656 -1.1337
 6527SOL    HW231041   1.515   3.599  15.344  1.0377 -0.7757 -1.0742
 6528SOL     OW31042   2.584   3.329   4.177  0.2525 -0.1258 -0.1002
 6528SOL    HW131043   2.604   3.244   4.137  2.5860 -0.0857  0.9889
 6528SOL    HW231044   2.491   3.319   4.199  1.2248 -1.6712  3.3315
 6529SOL     OW31045   2.808   0.558  17.601  0.1482  0.0355 -0.4696
 6529SOL    HW131046   2.753   0.553  17.679  1.4864  0.0767  0.4703
 6529SOL    HW231047   2.755   0.497  17.551 -2.7012  2.7557 -0.7740
 6530SOL     OW31048   1.382   1.378   9.084  0.2360  0.1319 -0.3399
 6530SOL    HW131049   1.475   1.397   9.073  0.3559 -0.5090 -0.4803
 6530SOL    HW231050   1.353   1.382   8.992 -1.1126 -2.1754 -0.0279
 6531SOL     OW31051   2.873   1.934  13.506 -0.0058  0.5705  0.5551
 6531SOL    HW131052   2.957   1.979  13.498  0.1691  0.4596  1.7714
 6531SOL    HW231053   2.843   1.989  13.578  0.6314  2.1343 -0.3586
 6532SOL     OW31054   1.565   3.274   4.551 -0.5930  0.2594  0.5655
 6532SOL    HW131055   1.554   3.187   4.588  1.4214  0.2420  1.1365
 6532SOL    HW231056   1.655   3.267   4.520 -1.1097 -0.9264 -0.6710
 6533SOL     OW31057   2.762   0.898   5.116 -0.1084 -0.9597  0.0768
 6533SOL    HW131058   2.779   0.862   5.029  0.8657  0.1512 -0.1963
 6533SOL    HW231059   2.672   0.868   5.124 -0.1794 -0.9696 -0.7020
 6534SOL     OW31060   0.763   2.332  12.799 -0.2967  0.6746 -0.5242
 6534SOL    HW131061   0.844   2.342  12.850  0.9746  0.1149 -2.4103
 6534SOL    HW231062   0.766   2.412  12.747 -0.5240  1.0305  0.0049
 6535SOL     OW31063   0.084   4.276   6.614 -0.5568  0.1018  0.2274
 6535SOL    HW131064   0.148   4.347   6.604 -0.7653  0.4267  1.1741
 6535SOL    HW231065   0.026   4.296   6.687 -2.3041 -1.0406 -0.8492
 6536SOL     OW31066   2.521   3.988   9.269  0.6110 -0.5079  0.3948
 6536SOL    HW131067   2.464   4.033   9.206 -0.3194 -1.6628  0.4089
 6536SOL    HW231068   2.596   4.046   9.262 -0.4921  0.7308 -1.2749
 6537SOL     OW31069   4.148   3.325   1.805  0.3563 -0.5246  0.3959
 6537SOL    HW131070   4.235   3.302   1.838  0.3868  0.3270  0.9064
 6537SOL    HW231071   4.120   3.238   1.776  0.4657  0.6635 -3.2063
 6538SOL     OW31072   3.247   0.604   8.199  0.0061 -0.3865 -0.3562
 6538SOL    HW131073   3.300   0.641   8.270 -1.0440 -0.8159  0.6423
 6538SOL    HW231074   3.166   0.652   8.211  1.7974  2.5960 -0.0493
 6539SOL     OW31075   4.457   4.564   5.733 -0.2098 -0.2929 -0.2950
 6539SOL    HW131076   4.438   4.476   5.702 -0.6384 -0.3271  0.0671
 6539SOL    HW231077   4.500   4.605   5.658  1.2451 -0.1449  0.6232
 6540SOL     OW31078   2.621   2.523   8.706  0.2648  0.1877 -0.0366
 6540SOL    HW131079   2.658   2.436   8.699  1.6137  0.8198 -0.7754
 6540SOL    HW231080   2.705   2.569   8.704  0.7550 -0.7278 -0.2724
 6541SOL     OW31081   3.488   3.501   9.523  0.4741  0.1587 -0.0520
 6541SOL    HW131082   3.394   3.509   9.543  0.5944  2.1002 -0.2893
 6541SOL    HW231083   3.529   3.581   9.556  2.0179 -0.2658 -0.9651
 6542SOL     OW31084   2.406   2.528  13.342  0.0896  0.1413 -0.1416
 6542SOL    HW131085   2.387   2.619  13.320  0.7516  0.5587  0.9864
 6542SOL    HW231086   2.458   2.486  13.273  0.7852  0.5040  0.1593
 6543SOL     OW31087   2.659   4.701   3.373 -0.4579  0.6392  0.1897
 6543SOL    HW131088   2.566   4.717   3.386 -0.3954  0.5192  0.7957
 6543SOL    HW231089   2.689   0.064   3.406  3.4185 -1.0133  0.8868
 6544SOL     OW31090   2.547   0.092  11.395 -0.1336  0.4364 -0.0729
 6544SOL    HW131091   2.640   0.113  11.409  0.1503 -0.5892 -0.3578
 6544SOL    HW231092   2.540   0.129  11.307  0.6768  0.6071 -0.0653
 6545SOL     OW31093   4.009   2.614   1.590 -0.3261 -0.0580  0.3305
 6545SOL    HW131094   3.945   2.548   1.563  0.8790 -1.0062 -0.1847
 6545SOL    HW231095   3.951   2.683   1.622 -1.1742 -0.9545  0.7175
 6546SOL     OW31096   4.251   0.264   0.577 -0.0323  0.0194 -0.3330
 6546SOL    HW131097   4.194   0.336   0.605 -2.0914 -1.6509 -0.2706
 6546SOL    HW231098   4.283   0.301   0.494  0.4599  0.6702  0.1493
 6547SOL     OW31099   2.296   2.428   1.008 -0.1817  0.2863 -0.8624
 6547SOL    HW131100   2.295   2.399   1.100  3.1607 -0.8664 -1.2048
 6547SOL    HW231101   2.209   2.397   0.984  0.6630 -2.0174 -0.9708
 6548SOL     OW31102   2.398   3.206   7.533 -0.2454  0.3599 -0.0761
 6548SOL    HW131103   2.340   3.175   7.463  0.3568 -0.0303 -0.3952
 6548SOL    HW231104   2.376   3.141   7.599  0.8113  0.5359  0.4469
 6549SOL     OW31105   3.356   1.098   8.547 -0.5795  0.2034 -0.4323
 6549SOL    HW131106   3.381   1.136   8.463  1.8156 -0.0274  0.1867
 6549SOL    HW231107   3.428   1.037   8.562 -0.7819  0.3939  1.3967
 6550SOL     OW31108   4.673   1.346   2.751  0.0043  0.1495 -0.2960
 6550SOL    HW131109   4.641   1.370   2.838  0.6355 -1.0879  0.2815
 6550SOL    HW231110   4.593   1.315   2.709 -1.2005  2.7139  0.1401
 6551SOL     OW31111   3.015   2.189   1.489  0.0307 -0.1917  0.1988
 6551SOL    HW131112   3.057   2.272   1.507 -0.2442 -0.4320  1.9802
 6551SOL    HW231113   2.931   2.207   1.446 -0.7629  0.8370  2.1856
 6552SOL     OW31114   1.413   2.771  12.286  0.4704  0.0645 -0.3347
 6552SOL    HW131115   1.391   2.755  12.194 -1.6567 -0.3801  0.2436
 6552SOL    HW231116   1.330   2.810  12.314 -0.0583 -0.1848 -1.5626
 6553SOL     OW31117   3.920   2.332   1.030 -0.1818 -0.3266 -0.5080
 6553SOL    HW131118   4.012   2.322   1.005  0.0589  0.8769 -0.0701
 6553SOL    HW231119   3.896   2.240   1.044  1.6055 -0.6625  0.4493
 6554SOL     OW31120   4.507   0.475   4.550 -0.2946  0.1283 -0.2903
 6554SOL    HW131121   4.442   0.410   4.525 -0.7867  0.9046 -1.0140
 6554SOL    HW231122   4.548   0.481   4.463  0.9913 -3.7363  0.0457
 6555SOL     OW31123   3.514   0.377   8.375 -0.3801  0.3951  0.4042
 6555SOL    HW131124   3.583   0.417   8.429 -0.3649 -0.1666  0.8036
 6555SOL    HW231125   3.454   0.358   8.447 -0.2557  0.6767  0.5837
 6556SOL     OW31126   3.019   4.435   6.597  0.0140 -0.6223  0.3760
 6556SOL    HW131127   2.967   4.375   6.651  1.6400 -1.1788  1.3204
 6556SOL    HW231128   3.089   4.459   6.658  0.3681 -0.2635 -0.1730
 6557SOL     OW31129   4.064   3.564   6.007 -1.0135  0.0452  0.6439
 6557SOL    HW131130   4.009   3.489   6.028 -1.5737  0.2556 -0.0754
 6557SOL    HW231131   4.040   3.579   5.915  0.3697  3.0246  0.7902
 6558SOL     OW31132   3.337   3.615   4.793  0.4035  0.3367 -0.1948
 6558SOL    HW131133   3.275   3.688   4.803  0.0539 -0.0446  0.4466
 6558SOL    HW231134   3.285   3.552   4.743  2.9765 -0.7034 -1.5499
 6559SOL     OW31135   2.839   1.426   6.627 -0.1335  0.1362  0.2294
 6559SOL    HW131136   2.871   1.403   6.539 -2.1903 -0.1970 -0.4268
 6559SOL    HW231137   2.791   1.347   6.652 -0.8612  1.0646  1.7462
 6560SOL     OW31138   1.118   0.473   2.757  0.3165 -0.0782  0.6579
 6560SOL    HW131139   1.162   0.551   2.726 -0.5713  0.0177 -0.3447
 6560SOL    HW231140   1.028   0.504   2.762  0.8481  1.1549  2.5914
 6561SOL     OW31141   4.294   0.668   6.190  0.2808 -0.2220 -0.3079
 6561SOL    HW131142   4.342   0.662   6.273 -1.9400 -0.5714  0.9569
 6561SOL    HW231143   4.246   0.585   6.194 -1.0952  0.6518  1.2430
 6562SOL     OW31144   1.453   2.467   3.460 -0.5103 -0.2550 -0.1500
 6562SOL    HW131145   1.494   2.526   3.397  0.1690 -1.8195 -1.1563
 6562SOL    HW231146   1.517   2.470   3.532 -0.0775 -2.0014 -0.4793
 6563SOL     OW31147   4.119   4.195  16.896 -0.6069  0.3062  0.0972
 6563SOL    HW131148   4.135   4.213  16.988 -3.2919 -0.3627  0.7179
 6563SOL    HW231149   4.031   4.156  16.898  0.6808 -2.7594 -1.8589
 6564SOL     OW31150   2.193   1.495  16.765 -0.1218 -0.0783 -0.2128
 6564SOL    HW131151   2.125   1.491  16.832  0.5018 -1.6542  0.3220
 6564SOL    HW231152   2.143   1.554  16.708 -1.4897 -0.4094  0.6406
 6565SOL     OW31153   2.041   1.480   6.326  0.1369  0.3381 -0.3415
 6565SOL    HW131154   2.081   1.402   6.289 -0.9309  1.3681 -3.6684
 6565SOL    HW231155   2.091   1.538   6.267  1.8486 -0.1284  0.6509
 6566SOL     OW31156   2.357   0.853   7.520 -0.3079  0.5047  0.2344
 6566SOL    HW131157   2.298   0.828   7.448 -1.2038 -0.6004  1.3552
 6566SOL    HW231158   2.411   0.919   7.477  0.1342 -0.4711 -0.7243
 6567SOL     OW31159   1.280   1.434   9.928 -0.6754  0.5445 -0.4472
 6567SOL    HW131160   1.351   1.425   9.865 -0.1830  0.8468  0.0574
 6567SOL    HW231161   1.199   1.413   9.882 -0.1711  0.2567 -1.1931
 6568SOL     OW31162   2.000   1.952  17.252  0.1593  0.0999  0.1310
 6568SOL    HW131163   2.002   1.874  17.307  5.7014  0.7098  0.8519
 6568SOL    HW231164   2.037   2.016  17.313  0.8431  0.2834 -0.4671
 6569SOL     OW31165   2.087   3.248   8.099  0.0342 -0.8829 -0.0967
 6569SOL    HW131166   2.101   3.161   8.060 -2.4190 -0.2116 -2.4169
 6569SOL    HW231167   2.115   3.315   8.037 -1.5350 -1.4739 -1.4190
 6570SOL     OW31168   0.662   3.052  14.474 -0.6540  0.1657  0.0964
 6570SOL    HW131169   0.583   3.037  14.525 -1.2337 -0.4510 -0.9882
 6570SOL    HW231170   0.633   3.094  14.393 -1.0292 -2.0519 -0.9218
 6571SOL     OW31171   1.101   4.479   3.979  0.8986  0.3537  0.1678
 6571SOL    HW131172   1.142   4.526   4.052  1.6062  0.5471 -0.3573
 6571SOL    HW231173   1.175   4.436   3.936 -0.0232 -1.0587  0.0192
 6572SOL     OW31174   2.873   3.514  11.664  0.2363  0.1955  0.1799
 6572SOL    HW131175   2.908   3.584  11.608  0.1407  0.3587  0.3254
 6572SOL    HW231176   2.784   3.546  11.674  0.7971  2.2730 -1.5821
 6573SOL     OW31177   4.067   0.417   6.141 -0.1876 -0.1461  0.3834
 6573SOL    HW131178   4.039   0.430   6.051 -0.8506  0.2077  0.6435
 6573SOL    HW231179   4.020   0.488   6.184 -1.0734  0.7389 -2.0414
 6574SOL     OW31180   0.481   3.643   4.694 -0.2586  0.0521 -0.2510
 6574SOL    HW131181   0.447   3.726   4.728  0.5314 -0.3699  1.5695
 6574SOL    HW231182   0.572   3.647   4.725 -0.2692 -0.0181 -0.2132
 6575SOL     OW31183   0.725   1.029  16.956  0.0226  0.0749 -0.4584
 6575SOL    HW131184   0.660   1.047  16.888 -1.4167  0.1621  0.9294
 6575SOL    HW231185   0.661   1.031  17.027  1.1367  2.0192  0.4640
 6576SOL     OW31186   2.446   2.876   3.835 -0.1943 -0.3710 -0.4393
 6576SOL    HW131187   2.474   2.839   3.919 -0.2705 -1.1113 -0.7468
 6576SOL    HW231188   2.382   2.818   3.793 -0.2536 -0.3106 -0.4327
 6577SOL     OW31189   0.388   2.824   3.308  0.0818  0.4777  0.2593
 6577SOL    HW131190   0.334   2.780   3.243  1.0164 -1.5200  0.8141
 6577SOL    HW231191   0.429   2.882   3.244  1.7670  1.2456  2.0275
 6578SOL     OW31192   3.175   3.245  14.688  0.0041  0.2158  0.1608
 6578SOL    HW131193   3.167   3.268  14.781  0.7473 -3.2340  1.0644
 6578SOL    HW231194   3.270   3.240  14.680 -0.0068 -1.6575  1.1734
 6579SOL     OW31195   2.928   0.384   9.739 -0.3966 -0.4356  0.4756
 6579SOL    HW131196   2.958   0.317   9.678 -0.4531 -1.8830  2.0582
 6579SOL    HW231197   2.833   0.384   9.725  0.2553 -2.4148 -4.1273
 6580SOL     OW31198   0.015   0.507   3.489 -0.3708 -0.0300 -0.7182
 6580SOL    HW131199   0.076   0.443   3.527  0.3162 -0.2435 -2.1859
 6580SOL    HW231200   0.031   0.499   3.395  2.0471 -0.0728 -0.2998
 6581SOL     OW31201   0.121   2.646   1.362  0.3701  0.2604  0.2450
 6581SOL    HW131202   0.074   2.567   1.387  0.3771  0.4784  0.9469
 6581SOL    HW231203   0.214   2.624   1.362  0.3308  0.1445 -1.8778
 6582SOL     OW31204   4.336   0.249  10.613  0.2297 -0.6051 -0.3299
 6582SOL    HW131205   4.373   0.197  10.541  0.8469 -0.1741 -0.3232
 6582SOL    HW231206   4.292   0.311  10.555 -2.5414 -0.3980  1.9808
 6583SOL     OW31207   4.598   4.689  16.036  0.8312  0.8261  0.2782
 6583SOL    HW131208   4.506   4.714  16.035  1.4455  3.0394 -0.1554
 6583SOL    HW231209   4.598   4.635  15.957 -1.3482  1.5636 -0.2313
 6584SOL     OW31210   3.258   3.308   1.472  0.0154  0.0921  0.3687
 6584SOL    HW131211   3.275   3.221   1.509  0.6059 -0.0276 -0.1898
 6584SOL    HW231212   3.163   3.313   1.469  0.0286 -0.1402 -0.5307
 6585SOL     OW31213   0.576   4.712  13.554  0.6811  0.5202 -0.5318
 6585SOL    HW131214   0.515   0.063  13.538 -1.5864 -0.4797  3.6455
 6585SOL    HW231215   0.583   4.717  13.650  0.4574 -0.7644 -0.4477
 6586SOL     OW31216   3.699   3.761  16.097 -0.3144  0.0575 -0.1644
 6586SOL    HW131217   3.730   3.824  16.032  0.1138  0.8559  0.8161
 6586SOL    HW231218   3.677   3.685  16.044  0.1664  0.3884 -0.8433
 6587SOL     OW31219   3.635   3.575   9.267 -0.0096 -0.2196  0.5966
 6587SOL    HW131220   3.624   3.582   9.362  0.8075 -1.4271  0.7802
 6587SOL    HW231221   3.680   3.658   9.247 -1.4413  0.2474 -0.6412
 6588SOL     OW31222   1.196   3.886  14.815  0.6604  0.2794 -0.1747
 6588SOL    HW131223   1.275   3.932  14.787  0.8295  0.6242  0.8879
 6588SOL    HW231224   1.179   3.836  14.736 -2.1528  1.3647 -0.2847
 6589SOL     OW31225   0.283   2.467  13.994  0.3329 -0.7670  0.0060
 6589SOL    HW131226   0.273   2.409  14.070 -2.7639  1.3846  1.2529
 6589SOL    HW231227   0.366   2.508  14.015 -0.1782  0.2454  0.0499
 6590SOL     OW31228   2.989   3.794   5.776 -0.6462  0.1123 -0.1043
 6590SOL    HW131229   3.036   3.877   5.778  0.6232 -0.5999 -0.5491
 6590SOL    HW231230   2.897   3.821   5.768  0.1176  2.1482 -1.9554
 6591SOL     OW31231   2.682   0.330   5.769  0.2154 -0.0006 -0.0251
 6591SOL    HW131232   2.774   0.304   5.769 -0.5969 -2.9128 -1.5228
 6591SOL    HW231233   2.654   0.305   5.681 -0.5986  0.1603  0.1884
 6592SOL     OW31234   4.518   0.470  11.281 -0.3423 -0.5230 -0.4853
 6592SOL    HW131235   4.503   0.439  11.192  0.0446  0.4087 -0.8646
 6592SOL    HW231236   4.579   0.403  11.313 -2.2615 -2.0076  0.1123
 6593SOL     OW31237   3.670   3.907   3.239 -0.1423 -0.2066 -0.2428
 6593SOL    HW131238   3.674   3.897   3.334 -1.0545  0.0612 -0.1719
 6593SOL    HW231239   3.681   3.814   3.220 -0.8918 -0.2334 -0.5331
 6594SOL     OW31240   0.240   1.478   1.667 -0.3754  0.3575 -0.0694
 6594SOL    HW131241   0.325   1.508   1.633  0.8260 -0.0528  2.5423
 6594SOL    HW231242   0.225   1.393   1.624 -0.6397  0.7322 -0.7161
 6595SOL     OW31243   1.307   1.459  13.549 -0.2430 -0.2487  0.3471
 6595SOL    HW131244   1.312   1.475  13.454 -1.2747  1.0610  0.5169
 6595SOL    HW231245   1.239   1.391  13.552 -0.9463  0.3987 -0.8804
 6596SOL     OW31246   3.953   1.175  13.258 -0.2245 -0.8531  0.2268
 6596SOL    HW131247   4.032   1.223  13.283 -0.7150 -1.3095  2.6378
 6596SOL    HW231248   3.916   1.236  13.193  2.1922 -0.6905 -1.0086
 6597SOL     OW31249   0.644   0.092  10.000 -0.0350 -0.3685 -0.0966
 6597SOL    HW131250   0.553   0.080  10.027  0.4891  1.9997  2.6535
 6597SOL    HW231251   0.682   0.131  10.078 -2.6366  1.1730  0.4151
 6598SOL     OW31252   0.138   1.999   3.882  0.2370  0.3355  0.7604
 6598SOL    HW131253   0.198   2.025   3.812 -0.9922  1.2609  0.0584
 6598SOL    HW231254   0.052   2.027   3.849 -0.4491 -0.5967  1.7554
 6599SOL     OW31255   0.918   3.833   6.976 -0.4410  0.7674  0.1294
 6599SOL    HW131256   0.890   3.807   6.888 -0.2630 -1.3697  0.6866
 6599SOL    HW231257   0.854   3.779   7.022 -1.5428  1.5830 -0.4377
 6600SOL     OW31258   1.587   2.230   7.340  0.0667  0.3216 -0.4125
 6600SOL    HW131259   1.524   2.174   7.294 -1.7470  1.0612  1.1459
 6600SOL    HW231260   1.535   2.309   7.358 -0.7852 -0.3804  0.1631
 6601SOL     OW31261   4.453   3.996  14.210  0.2014 -0.4747  0.0435
 6601SOL    HW131262   4.374   4.001  14.156 -1.5533 -1.5723  2.4842
 6601SOL    HW231263   4.413   3.976  14.295 -1.0415  0.6983 -0.2605
 6602SOL     OW31264   1.927   1.457   5.676  0.3299  0.6016 -0.2294
 6602SOL    HW131265   1.866   1.528   5.654  1.8817  2.4816  1.4617
 6602SOL    HW231266   1.945   1.409   5.595  1.0923 -0.5759  0.6372
 6603SOL     OW31267   3.242   4.055   3.434 -0.0760 -0.5208  0.1804
 6603SOL    HW131268   3.159   4.015   3.460  0.2720 -0.3536  1.5512
 6603SOL    HW231269   3.308   4.001   3.478 -2.0580 -0.4972  3.1403
 6604SOL     OW31270   3.906   1.392   4.275  0.4226  0.4890  0.8728
 6604SOL    HW131271   3.995   1.426   4.283 -0.2289  2.1367  1.1930
 6604SOL    HW231272   3.912   1.308   4.321  0.7679 -0.8681 -1.6776
 6605SOL     OW31273   4.410   3.199  13.980  0.0305  0.3048  0.5332
 6605SOL    HW131274   4.504   3.207  13.966  0.0388  1.1393  1.0586
 6605SOL    HW231275   4.377   3.270  13.925 -0.6461  0.4499  1.1174
 6606SOL     OW31276   2.627   2.602   9.531  0.1689 -0.8539 -0.1322
 6606SOL    HW131277   2.649   2.560   9.448 -0.8216  0.3567 -1.0068
 6606SOL    HW231278   2.708   2.639   9.564 -0.2900  0.3259 -0.3120
 6607SOL     OW31279   4.130   2.761   1.069  0.5398  0.1048 -0.6300
 6607SOL    HW131280   4.181   2.683   1.052 -0.1080 -0.7283  1.2017
 6607SOL    HW231281   4.069   2.759   0.995  0.4705 -0.5320 -0.5509
 6608SOL     OW31282   1.490   2.803   4.795  0.4661 -0.0873 -0.3429
 6608SOL    HW131283   1.444   2.858   4.859  1.4817 -0.9668  1.1526
 6608SOL    HW231284   1.526   2.733   4.849  1.9753  0.2259 -0.9643
 6609SOL     OW31285   0.898   3.449   4.701  0.4419 -0.5570  0.0339
 6609SOL    HW131286   0.851   3.533   4.697  1.5818  0.0861  0.1048
 6609SOL    HW231287   0.830   3.383   4.709 -0.9395  0.6903 -1.5184
 6610SOL     OW31288   1.914   4.382   2.503  0.6286  0.2551 -0.1790
 6610SOL    HW131289   1.976   4.440   2.459  0.3829  0.0177 -0.8368
 6610SOL    HW231290   1.916   4.418   2.591  0.7435 -0.4957  0.1205
 6611SOL     OW31291   3.245   2.835   1.967  0.2193 -0.4946  0.2190
 6611SOL    HW131292   3.191   2.906   1.933 -0.0443 -1.2792 -0.9907
 6611SOL    HW231293   3.310   2.886   2.016 -1.2018  1.6825 -0.1668
 6612SOL     OW31294   1.475   2.816   6.494 -0.0023 -0.8684 -0.0171
 6612SOL    HW131295   1.427   2.750   6.445 -3.8835  0.9828  1.3088
 6612SOL    HW231296   1.427   2.815   6.577 -1.7850 -1.6234 -1.0764
 6613SOL     OW31297   3.406   1.834   3.129 -0.1379 -0.0879  0.3517
 6613SOL    HW131298   3.334   1.874   3.079  0.2731 -1.6977 -1.5181
 6613SOL    HW231299   3.372   1.848   3.218  0.2974 -1.8239  0.7924
 6614SOL     OW31300   4.693   0.778   5.357 -0.2344  0.3346  0.3327
 6614SOL    HW131301   4.670   0.792   5.449 -2.4968 -0.3774 -0.1401
 6614SOL    HW231302   4.605   0.788   5.322  0.0416 -0.0454 -0.4482
 6615SOL     OW31303   0.524   3.137   5.515  0.0227  0.2307 -0.6066
 6615SOL    HW131304   0.435   3.101   5.508  0.9066 -1.8779 -1.1276
 6615SOL    HW231305   0.530   3.190   5.436  1.0971  0.5371 -0.3174
 6616SOL     OW31306   4.567   3.434   2.541  0.0893 -0.1129  0.0852
 6616SOL    HW131307   4.534   3.523   2.552 -2.9684 -1.6827  3.5111
 6616SOL    HW231308   4.546   3.392   2.624  0.1667  0.3539  0.3382
 6617SOL     OW31309   1.404   3.412   4.077 -0.6039  0.4590 -0.2661
 6617SOL    HW131310   1.393   3.368   4.162  1.4482 -0.5160 -0.5147
 6617SOL    HW231311   1.399   3.506   4.095 -2.4036  0.1852  0.7598
 6618SOL     OW31312   3.158   0.162   5.330 -0.0895 -0.3902 -0.1973
 6618SOL    HW131313   3.184   0.101   5.261 -0.8776 -0.8295 -0.1070
 6618SOL    HW231314   3.197   0.246   5.305 -0.2737  0.1043  1.1672
 6619SOL     OW31315   4.481   1.326  16.157 -0.0135 -0.1674 -0.1660
 6619SOL    HW131316   4.446   1.408  16.191 -0.6662 -0.8391  0.7877
 6619SOL    HW231317   4.424   1.254  16.184 -0.1016  0.7702  2.2048
 6620SOL     OW31318   4.544   3.793   5.221  0.0946 -0.7992  0.2134
 6620SOL    HW131319   4.551   3.710   5.175  3.3488  0.7570 -2.0552
 6620SOL    HW231320   4.451   3.780   5.238  0.4563 -3.1319  0.3336
 6621SOL     OW31321   4.414   4.557  13.899  0.1715 -0.0090  0.2656
 6621SOL    HW131322   4.378   4.489  13.841 -1.2515  1.4012 -0.5123
 6621SOL    HW231323   4.442   4.510  13.977 -1.3655  0.3310  1.0232
 6622SOL     OW31324   1.822   3.853  10.343  0.0618  0.2811 -0.5962
 6622SOL    HW131325   1.913   3.839  10.369 -0.5788  1.1823  2.1342
 6622SOL    HW231326   1.771   3.798  10.402 -0.0459  0.5492 -0.4407
 6623SOL     OW31327   1.147   1.368   0.026  0.1593 -0.0660  0.3243
 6623SOL    HW131328   1.228   1.384   0.075  1.1598 -0.2855 -1.2818
 6623SOL    HW231329   1.116   1.452  17.681 -0.6422 -1.0844 -1.5459
 6624SOL     OW31330   1.051   3.076   5.125  0.3858 -0.3634  0.1455
 6624SOL    HW131331   0.979   3.056   5.185  0.6054 -0.6675  0.3079
 6624SOL    HW231332   1.109   3.002   5.142  0.1632 -0.7711 -0.8298
 6625SOL     OW31333   0.375   1.619   5.453  0.1316  0.6917 -0.6489
 6625SOL    HW131334   0.373   1.589   5.362  2.9861  2.4810 -1.3053
 6625SOL    HW231335   0.410   1.708   5.453  1.1491  0.2814  0.4467
 6626SOL     OW31336   2.087   2.644  15.981 -0.1450 -0.0694  0.3417
 6626SOL    HW131337   2.026   2.573  15.960  0.6885 -1.0687  1.3330
 6626SOL    HW231338   2.149   2.606  16.043 -0.7985  0.0275  1.0470
 6627SOL     OW31339   3.318   2.162  17.486  0.3489  0.2819  0.0978
 6627SOL    HW131340   3.392   2.160  17.425  0.0748  0.3796 -0.2355
 6627SOL    HW231341   3.237   2.135  17.442 -0.3072 -0.4229  1.7591
 6628SOL     OW31342   0.359   0.174  13.524 -0.1088 -0.2888  0.2532
 6628SOL    HW131343   0.322   0.260  13.543  0.2293 -0.3737  1.2768
 6628SOL    HW231344   0.290   0.135  13.470  1.2397 -0.3823 -1.3776
 6629SOL     OW31345   0.128   2.779   0.611 -1.1906  0.0795  0.2534
 6629SOL    HW131346   0.137   2.740   0.698  0.8214  3.7737  1.6723
 6629SOL    HW231347   0.216   2.774   0.574 -0.2081  1.1294  2.4894
 6630SOL     OW31348   4.453   2.004   4.966  0.2531 -0.4542  0.1358
 6630SOL    HW131349   4.496   1.920   4.981  0.0824 -0.9738 -2.2171
 6630SOL    HW231350   4.508   2.018   4.889  0.1290 -1.2416 -0.0918
 6631SOL     OW31351   3.230   2.571   2.098  0.1935  0.0079 -0.3935
 6631SOL    HW131352   3.319   2.595   2.126 -0.9146  1.0944  2.2081
 6631SOL    HW231353   3.217   2.651   2.047 -1.0827  0.6278  0.9111
 6632SOL     OW31354   1.576   0.710   4.268  0.2019 -0.2378  0.4191
 6632SOL    HW131355   1.633   0.656   4.213  0.8974 -0.8921  1.7568
 6632SOL    HW231356   1.495   0.690   4.222 -0.1523 -0.5558  1.1761
 6633SOL     OW31357   0.869   0.138   3.035 -0.2035  0.0256  0.5550
 6633SOL    HW131358   0.926   0.150   2.959 -0.5962  0.3866  0.3207
 6633SOL    HW231359   0.884   0.226   3.069  1.1550 -0.6195  1.6160
 6634SOL     OW31360   0.674   3.269   4.398  0.2140 -0.5653 -0.1395
 6634SOL    HW131361   0.768   3.267   4.417 -0.1971 -3.7885  1.6417
 6634SOL    HW231362   0.671   3.245   4.305 -0.4907 -1.8998  0.2302
 6635SOL     OW31363   0.318   3.510  10.084  0.4623  0.3881 -0.3110
 6635SOL    HW131364   0.280   3.422  10.079  2.3628 -0.3636 -1.9689
 6635SOL    HW231365   0.379   3.514  10.010  2.2802  2.7985  1.3002
 6636SOL     OW31366   0.140   3.320   6.158 -0.0825  0.3216  0.2076
 6636SOL    HW131367   0.188   3.403   6.166 -0.5532  0.7196 -1.1041
 6636SOL    HW231368   0.100   3.332   6.072 -2.3040 -1.2335  1.0437
 6637SOL     OW31369   1.124   3.814  17.337 -0.0408  0.4143 -0.3609
 6637SOL    HW131370   1.073   3.752  17.390  0.4579  2.8707  2.9972
 6637SOL    HW231371   1.190   3.752  17.306 -1.0165 -0.6991 -0.2266
 6638SOL     OW31372   0.597   0.222   8.769  0.2142  0.0659  0.3022
 6638SOL    HW131373   0.686   0.190   8.784  0.4097  2.1086  3.4146
 6638SOL    HW231374   0.539   0.150   8.796  1.6025 -1.7139 -1.4392
 6639SOL     OW31375   3.141   2.854   9.785 -0.0699 -0.1171  0.9601
 6639SOL    HW131376   3.066   2.910   9.766  0.6437  0.6536  0.4532
 6639SOL    HW231377   3.156   2.855   9.880  0.6404 -0.6907  0.8583
 6640SOL     OW31378   3.007   3.970   4.326 -0.0891 -0.8727 -0.0190
 6640SOL    HW131379   2.942   4.039   4.340  0.9760  0.3601 -1.1613
 6640SOL    HW231380   3.080   3.995   4.383 -2.7962 -1.3782  3.6642
 6641SOL     OW31381   0.142   1.095   3.710  0.3598 -0.1024 -0.4995
 6641SOL    HW131382   0.090   1.017   3.688  0.7568  0.4091 -3.2003
 6641SOL    HW231383   0.075   1.162   3.694 -0.7890 -1.1608 -0.1792
 6642SOL     OW31384   0.604   3.215  17.306 -0.2181 -0.1472  0.7721
 6642SOL    HW131385   0.646   3.285  17.355 -1.1951  1.2269 -0.3759
 6642SOL    HW231386   0.629   3.136  17.353 -1.5938 -0.3766  1.1128
 6643SOL     OW31387   4.669   1.876  10.534  0.0372  0.6701  0.1682
 6643SOL    HW131388   4.616   1.956  10.541 -1.3674 -0.1857 -0.9759
 6643SOL    HW231389   0.031   1.916  10.508  0.5807 -1.9303 -2.0653
 6644SOL     OW31390   1.455   1.856  10.564  0.1065 -0.1866  0.2470
 6644SOL    HW131391   1.504   1.816  10.493  0.1057 -1.4543  0.9631
 6644SOL    HW231392   1.523   1.865  10.632 -2.3320  3.2022  2.2369
 6645SOL     OW31393   2.437   2.729   3.271  0.2823  0.1035  0.3359
 6645SOL    HW131394   2.518   2.717   3.221 -0.6798  2.0801 -1.7236
 6645SOL    HW231395   2.429   2.824   3.261  1.7679  0.3600  1.4775
 6646SOL     OW31396   0.796   1.284   5.550  0.2598  0.0374  0.2030
 6646SOL    HW131397   0.802   1.271   5.645 -0.9546  4.2440  0.8644
 6646SOL    HW231398   0.847   1.211   5.516  0.9672  0.4530  0.3680
 6647SOL     OW31399   2.256   2.078   9.498  0.0357  0.1402  0.4704
 6647SOL    HW131400   2.236   2.157   9.446 -0.1022 -0.3698 -0.2496
 6647SOL    HW231401   2.246   2.010   9.432  0.2989  0.6265 -0.0712
 6648SOL     OW31402   4.545   2.000   6.639 -0.1910 -0.3414 -0.1446
 6648SOL    HW131403   4.455   1.972   6.620 -0.4483  0.1626  0.3459
 6648SOL    HW231404   4.589   1.949   6.570  1.3571 -0.6134  1.0655
 6649SOL     OW31405   3.623   4.565   2.367 -0.0436  0.0113 -0.2029
 6649SOL    HW131406   3.639   4.489   2.311  0.9042 -1.0455  1.5039
 6649SOL    HW231407   3.625   4.631   2.298 -1.8499  0.4355  0.1452
 6650SOL     OW31408   0.337   2.536   8.639 -0.5602  0.6263  0.4809
 6650SOL    HW131409   0.291   2.617   8.662 -2.4400 -1.1769  3.1224
 6650SOL    HW231410   0.277   2.468   8.668 -1.0793 -0.0133 -2.1358
 6651SOL     OW31411   3.416   2.283   8.831  0.2196  0.1872 -0.3198
 6651SOL    HW131412   3.439   2.314   8.744  1.8369 -2.3763 -0.7995
 6651SOL    HW231413   3.448   2.360   8.878 -0.8248 -0.2248  1.0957
 6652SOL     OW31414   3.952   1.715   2.946 -0.4407 -0.1304  0.1937
 6652SOL    HW131415   3.996   1.695   3.029  1.1649 -0.9706 -0.8546
 6652SOL    HW231416   4.027   1.741   2.892  0.0562  0.1625  1.0168
 6653SOL     OW31417   4.684   4.058   2.617  0.2032 -0.2778  0.2203
 6653SOL    HW131418   0.033   4.011   2.662  1.4668  0.7835 -0.6176
 6653SOL    HW231419   4.608   4.051   2.674  0.1773  0.3333  0.2609
 6654SOL     OW31420   3.592   2.404   5.104  0.1090  0.8867 -0.5318
 6654SOL    HW131421   3.535   2.358   5.043  2.4368 -1.8511 -0.6172
 6654SOL    HW231422   3.650   2.334   5.132 -2.5270 -1.8000 -1.8550
 6655SOL     OW31423   1.596   3.257   8.797 -0.0428 -0.3178  0.2242
 6655SOL    HW131424   1.616   3.210   8.878  1.5302 -0.6784 -0.3745
 6655SOL    HW231425   1.520   3.311   8.818  0.2193  0.8296 -1.7635
 6656SOL     OW31426   2.234   4.625   3.952 -0.2707  0.1076  0.6560
 6656SOL    HW131427   2.225   4.675   3.871 -0.4186 -0.0944  0.5463
 6656SOL    HW231428   2.150   4.642   3.995 -1.3097  1.0617 -1.7338
 6657SOL     OW31429   0.932   1.362   7.161 -0.1381  0.3507 -0.2284
 6657SOL    HW131430   1.027   1.367   7.171  0.0247 -3.0530 -0.1134
 6657SOL    HW231431   0.920   1.370   7.066  1.6785  1.3009 -0.3784
 6658SOL     OW31432   4.598   1.793  10.809  0.3080 -0.1000  0.3566
 6658SOL    HW131433   4.503   1.808  10.810 -0.1209 -2.6145 -1.3245
 6658SOL    HW231434   4.617   1.781  10.716 -0.3937  3.2332 -0.2064
 6659SOL     OW31435   3.577   0.918   6.251  0.0206 -0.5339  0.1692
 6659SOL    HW131436   3.608   0.903   6.340 -2.2031 -0.8026  0.9102
 6659SOL    HW231437   3.627   0.996   6.227  0.1141 -1.0584 -1.3618
 6660SOL     OW31438   1.396   3.029   6.900 -0.2798 -0.2665 -0.0917
 6660SOL    HW131439   1.398   3.091   6.972 -0.9109 -1.6237  1.0926
 6660SOL    HW231440   1.490   3.028   6.886  0.0258 -0.8779  2.0162
 6661SOL     OW31441   4.611   1.231   3.710 -0.0647 -0.7457 -0.2394
 6661SOL    HW131442   4.521   1.201   3.699 -0.7770  0.9009  1.0429
 6661SOL    HW231443   4.610   1.242   3.805  1.2300  0.1736 -0.3328
 6662SOL     OW31444   4.122   2.931   6.158 -0.3031 -0.3389 -0.4064
 6662SOL    HW131445   4.204   2.974   6.134  0.0184  0.7438  2.5931
 6662SOL    HW231446   4.072   3.012   6.169  0.1267 -0.1454  0.1242
 6663SOL     OW31447   3.872   1.292   0.504 -0.1071 -0.3342 -0.1108
 6663SOL    HW131448   3.941   1.262   0.562  0.0062  2.1089  1.0142
 6663SOL    HW231449   3.808   1.319   0.570 -1.2972 -0.1946 -1.2939
 6664SOL     OW31450   4.051   3.954   2.971 -0.4658 -0.1852  0.6483
 6664SOL    HW131451   3.957   3.956   2.954 -0.4935 -0.2755  0.7863
 6664SOL    HW231452   4.095   3.956   2.886 -1.9698 -0.1259 -0.1168
 6665SOL     OW31453   3.745   2.475   6.987  0.0257  0.6645  0.2625
 6665SOL    HW131454   3.804   2.527   6.933 -0.5153 -0.5685 -1.5396
 6665SOL    HW231455   3.715   2.416   6.917  1.2556 -0.0539  0.3366
 6666SOL     OW31456   3.161   2.868   2.287  0.0728  0.9390 -0.3520
 6666SOL    HW131457   3.218   2.876   2.210 -0.8650  0.8209 -1.0687
 6666SOL    HW231458   3.096   2.937   2.275  0.6103  1.4820 -0.0852
 6667SOL     OW31459   3.259   3.340   0.322  0.4450  0.2447 -0.7627
 6667SOL    HW131460   3.347   3.317   0.292  0.5919  1.2952 -1.1311
 6667SOL    HW231461   3.268   3.434   0.309  0.5932  0.3904  0.4770
 6668SOL     OW31462   1.835   1.781   7.139 -0.5374  0.4892  0.5968
 6668SOL    HW131463   1.839   1.813   7.229  1.9353  1.4759  0.1361
 6668SOL    HW231464   1.875   1.694   7.148 -2.7608 -0.4381  1.5807
 6669SOL     OW31465   0.860   2.013   3.698 -0.6836  0.6861  0.0406
 6669SOL    HW131466   0.903   1.963   3.629  0.4564  2.0589 -0.2511
 6669SOL    HW231467   0.861   1.956   3.775  0.4610  0.3561 -0.2136
 6670SOL     OW31468   1.001   2.390  12.985 -0.4183  0.1249  0.0399
 6670SOL    HW131469   0.975   2.369  13.075  2.1304  0.1706  0.7747
 6670SOL    HW231470   1.007   2.485  12.992 -0.4790  0.3226 -2.7598
 6671SOL     OW31471   1.860   2.376   9.432  0.2381 -0.1460  0.8223
 6671SOL    HW131472   1.835   2.320   9.505  1.0707  1.1789  2.1218
 6671SOL    HW231473   1.792   2.443   9.442  1.0551  0.8336 -0.1788
 6672SOL     OW31474   1.322   1.620   7.737 -0.3468  0.2105  0.5077
 6672SOL    HW131475   1.306   1.543   7.683  0.2196 -0.4609  1.3098
 6672SOL    HW231476   1.276   1.593   7.816  1.2974 -0.3484  1.2653
 6673SOL     OW31477   0.652   4.609   5.059 -0.6353  0.4726 -0.3751
 6673SOL    HW131478   0.714   4.545   5.094 -0.9724  0.6019  0.4429
 6673SOL    HW231479   0.596   4.632   5.133  1.1707 -0.2756  1.2023
 6674SOL     OW31480   2.622   1.738   3.463 -0.0814  0.3477 -0.0955
 6674SOL    HW131481   2.705   1.728   3.415 -0.5250 -1.2502 -0.5025
 6674SOL    HW231482   2.595   1.828   3.441  1.6763  1.1724  1.0813
 6675SOL     OW31483   2.617   1.798   3.140  0.3744  0.0108 -0.5897
 6675SOL    HW131484   2.697   1.787   3.192  0.6109  1.3221 -0.6893
 6675SOL    HW231485   2.635   1.852   3.063  1.4456  1.4887  0.7034
 6676SOL     OW31486   3.047   4.438   3.747 -0.2852 -0.7132 -0.3596
 6676SOL    HW131487   2.973   4.494   3.727  0.7479  0.3483 -1.1695
 6676SOL    HW231488   2.998   4.367   3.790  1.5372 -0.5715  1.9424
 6677SOL     OW31489   1.528   1.574  11.334  0.2076  0.2510  0.1518
 6677SOL    HW131490   1.575   1.623  11.267 -2.6092 -0.1882 -2.1303
 6677SOL    HW231491   1.602   1.549  11.389  0.2319  3.8075  1.7535
 6678SOL     OW31492   4.139   2.198  12.882  0.0116 -0.1634  0.1259
 6678SOL    HW131493   4.184   2.248  12.950  0.6502  1.6987 -1.6580
 6678SOL    HW231494   4.079   2.144  12.934  0.7690  0.1572  1.3199
 6679SOL     OW31495   4.096   1.475   8.309 -0.8777  0.2124  0.0123
 6679SOL    HW131496   4.162   1.406   8.306 -0.4686  0.6304 -0.6090
 6679SOL    HW231497   4.144   1.552   8.342  0.8806 -0.6862 -0.4576
 6680SOL     OW31498   1.355   1.634   0.145 -0.0134 -0.0591  0.1870
 6680SOL    HW131499   1.287   1.697   0.170 -0.0823 -0.0136 -0.1193
 6680SOL    HW231500   1.349   1.642   0.050 -1.4972 -1.1579  0.2074
 6681SOL     OW31501   0.072   3.319   5.146 -0.1999  0.4586 -0.1660
 6681SOL    HW131502   0.002   3.256   5.132 -0.2213  0.5133 -0.3026
 6681SOL    HW231503   0.103   3.317   5.056 -1.1563 -1.0896 -0.4403
 6682SOL     OW31504   4.615   1.681   7.810 -0.1839  0.1676  0.3298
 6682SOL    HW131505   4.651   1.678   7.898 -2.1659  1.2511  1.1716
 6682SOL    HW231506   4.701   1.676   7.768 -0.8146  3.3956 -1.3524
 6683SOL     OW31507   0.850   3.303   3.191 -0.4251  0.2434  0.0277
 6683SOL    HW131508   0.882   3.392   3.203  1.3194 -0.6722  2.2626
 6683SOL    HW231509   0.903   3.286   3.113  1.0153 -3.2986  1.7894
 6684SOL     OW31510   1.634   0.206   6.838  0.1105 -0.9681  0.0105
 6684SOL    HW131511   1.561   0.234   6.893 -0.0768  0.3476 -0.9224
 6684SOL    HW231512   1.591   0.216   6.752 -1.2700  0.7236  0.8971
 6685SOL     OW31513   4.450   1.011  17.625 -0.2137  0.6765 -0.2659
 6685SOL    HW131514   4.489   0.978  17.544 -0.9157 -2.5666  0.7403
 6685SOL    HW231515   4.527   1.014  17.681 -1.8771  2.0042  1.9520
 6686SOL     OW31516   2.841   1.197   2.916  0.2639  0.4183  0.4451
 6686SOL    HW131517   2.898   1.155   2.980  0.6532  0.5387  0.1786
 6686SOL    HW231518   2.765   1.140   2.911  0.7592 -0.1050 -1.1420
 6687SOL     OW31519   0.914   4.161   7.046 -0.3802 -0.4476 -0.2277
 6687SOL    HW131520   0.919   4.092   7.113 -1.1953  0.0833  0.3772
 6687SOL    HW231521   0.878   4.239   7.089  0.7375  1.2003 -2.3102
 6688SOL     OW31522   4.061   4.661   6.168  0.2506 -0.0292 -0.1934
 6688SOL    HW131523   4.150   4.657   6.201  0.2088 -0.5611 -0.1538
 6688SOL    HW231524   4.008   4.651   6.247 -0.8794  0.7254 -0.8542
 6689SOL     OW31525   3.347   0.044   4.473  0.4330 -0.1181  0.0097
 6689SOL    HW131526   3.290   4.692   4.451  0.5513 -0.5044  1.0073
 6689SOL    HW231527   3.321   0.102   4.401 -2.5926  1.8991  2.6655
 6690SOL     OW31528   4.441   1.816   9.978  0.3346 -0.4675  0.3715
 6690SOL    HW131529   4.509   1.778   9.922  0.2687 -0.1182  0.0494
 6690SOL    HW231530   4.449   1.908   9.956 -3.5286 -0.4058 -0.7862
 6691SOL     OW31531   3.548   2.873   0.919 -0.6081 -0.4562  0.5391
 6691SOL    HW131532   3.506   2.808   0.975 -1.7327 -1.0048 -0.9174
 6691SOL    HW231533   3.624   2.897   0.972  0.2829  0.8586 -1.3137
 6692SOL     OW31534   3.664   0.816   6.877 -0.6238 -0.5538  0.1517
 6692SOL    HW131535   3.748   0.845   6.914 -1.3104 -1.6273  2.5566
 6692SOL    HW231536   3.642   0.899   6.834 -1.2603 -0.2659  1.0448
 6693SOL     OW31537   3.792   1.475  12.427 -0.2897  0.5849  0.7260
 6693SOL    HW131538   3.828   1.418  12.495  0.0939 -0.8042 -0.6621
 6693SOL    HW231539   3.733   1.422  12.374  1.1392 -0.3646  0.0993
 6694SOL     OW31540   1.435   2.121   1.238 -0.4259  0.4090 -0.4341
 6694SOL    HW131541   1.391   2.147   1.319  2.0684 -0.1455  1.0777
 6694SOL    HW231542   1.527   2.131   1.260 -0.7001  1.7548  0.1039
 6695SOL     OW31543   2.280   3.164   6.920  0.6959  0.2221 -0.2569
 6695SOL    HW131544   2.235   3.246   6.936 -2.4275 -1.3561 -1.0157
 6695SOL    HW231545   2.208   3.123   6.873  0.8853  1.2894 -1.4555
 6696SOL     OW31546   2.600   2.818   3.050 -0.0516  0.3301  0.7797
 6696SOL    HW131547   2.649   2.836   2.969 -1.2433 -1.1327 -0.2729
 6696SOL    HW231548   2.667   2.829   3.118 -0.5983 -0.0926  1.3835
 6697SOL     OW31549   3.974   4.206  13.437 -0.2283 -0.1589  0.0150
 6697SOL    HW131550   4.003   4.116  13.453  0.3711  0.3769  1.9595
 6697SOL    HW231551   3.884   4.197  13.469 -0.4925 -0.9028 -0.9285
 6698SOL     OW31552   0.069   0.200   4.172  0.6267 -0.0365 -0.5743
 6698SOL    HW131553   0.155   0.238   4.192  0.6282  0.1996 -1.0461
 6698SOL    HW231554   0.064   0.196   4.077 -0.1165  0.5616 -0.5569
 6699SOL     OW31555   1.310   0.811   3.792 -0.2970 -0.1211 -0.0947
 6699SOL    HW131556   1.276   0.774   3.710 -1.7226  0.4534  0.2377
 6699SOL    HW231557   1.340   0.898   3.765 -1.8070 -0.1452 -1.8342
 6700SOL     OW31558   0.889   3.222   1.832 -0.2284  0.2696 -0.1827
 6700SOL    HW131559   0.976   3.231   1.792  0.1456 -1.0950  0.3228
 6700SOL    HW231560   0.879   3.127   1.825 -0.3878  0.2504  0.3128
 6701SOL     OW31561   0.724   1.945   4.169  0.1893  0.7501 -0.0743
 6701SOL    HW131562   0.699   1.857   4.199 -2.2297  0.6642 -2.3419
 6701SOL    HW231563   0.813   1.961   4.198  0.0120 -2.4693  2.2809
 6702SOL     OW31564   4.601   1.190   5.972 -0.0393  0.1423  0.0839
 6702SOL    HW131565   4.696   1.202   5.974 -0.0451 -0.0900  1.5418
 6702SOL    HW231566   4.571   1.280   5.957  1.5884  0.3240 -2.1477
 6703SOL     OW31567   1.430   1.750  16.931 -0.3392 -0.1798 -0.5626
 6703SOL    HW131568   1.376   1.792  16.998  0.7349 -2.4705  1.7650
 6703SOL    HW231569   1.408   1.659  16.954 -1.0465  0.2867  0.5880
 6704SOL     OW31570   4.124   1.952  12.234 -0.4141 -0.2844 -0.6351
 6704SOL    HW131571   4.108   2.045  12.214  1.0073  0.1226  0.1611
 6704SOL    HW231572   4.192   1.939  12.168  0.5565 -0.9811  0.5131
 6705SOL     OW31573   3.410   0.296  14.085 -0.4057  0.6560 -0.0819
 6705SOL    HW131574   3.451   0.250  14.012 -1.2862  1.3605 -1.0214
 6705SOL    HW231575   3.474   0.358  14.121  0.6893  0.3693 -1.5224
 6706SOL     OW31576   3.965   1.670   0.055 -0.0095  0.0279  0.2933
 6706SOL    HW131577   3.993   1.591   0.103 -1.3817 -1.1579 -0.8547
 6706SOL    HW231578   4.043   1.723   0.065 -0.4452  0.8308 -0.6326
 6707SOL     OW31579   1.522   3.249   7.017 -0.3913  0.0056  0.2876
 6707SOL    HW131580   1.450   3.284   7.070  1.6280  3.2813  0.8715
 6707SOL    HW231581   1.530   3.314   6.947 -0.7404 -0.1405  0.1134
 6708SOL     OW31582   4.137   2.308  11.265  0.0679 -0.3285 -0.5498
 6708SOL    HW131583   4.219   2.286  11.220  0.1915 -0.8756 -0.0540
 6708SOL    HW231584   4.112   2.394  11.232  1.6615  0.0370 -0.7868
 6709SOL     OW31585   1.766   4.523  11.695 -0.6165 -0.5566 -0.2626
 6709SOL    HW131586   1.747   4.480  11.611 -1.7132  0.7502 -0.6865
 6709SOL    HW231587   1.860   4.507  11.701 -0.3946  0.0436 -2.3085
 6710SOL     OW31588   3.616   3.789   2.522  0.0437  0.4430  0.1212
 6710SOL    HW131589   3.526   3.800   2.490  0.1437  1.0223  0.0487
 6710SOL    HW231590   3.660   3.803   2.438  0.1410 -0.1016  0.0788
 6711SOL     OW31591   3.890   4.383  15.826 -0.3450  0.1112  0.1342
 6711SOL    HW131592   3.869   4.428  15.908  3.4034 -0.0710  1.1966
 6711SOL    HW231593   3.862   4.444  15.758  1.6580  0.6000 -0.2577
 6712SOL     OW31594   3.038   1.870   3.593 -0.1688 -0.2254  0.0118
 6712SOL    HW131595   3.099   1.818   3.645  1.3907 -1.2107 -2.7954
 6712SOL    HW231596   2.950   1.847   3.621  0.3599 -3.3801 -0.9103
 6713SOL     OW31597   3.525   2.357   8.492 -0.8379  0.4842  0.0301
 6713SOL    HW131598   3.604   2.355   8.438 -0.1824 -1.6876  1.0348
 6713SOL    HW231599   3.520   2.443   8.533  0.1090  0.6314 -0.1726
 6714SOL     OW31600   0.012   2.568   5.790  0.3549 -0.8968  0.3086
 6714SOL    HW131601   0.017   2.531   5.702 -1.1145  0.0357 -0.1769
 6714SOL    HW231602   0.015   2.661   5.768 -0.9689 -0.4711  1.8777
 6715SOL     OW31603   3.720   2.147   2.039 -0.2099  0.4124  0.8126
 6715SOL    HW131604   3.814   2.129   2.036 -0.2897  0.0514  0.5304
 6715SOL    HW231605   3.709   2.240   2.056  0.8109  0.7209 -0.2452
 6716SOL     OW31606   0.828   4.640  12.542 -0.2921  0.2966  0.2309
 6716SOL    HW131607   0.887   4.669  12.612  0.4646  0.1052 -0.3157
 6716SOL    HW231608   0.856   4.712  12.485 -1.2880  0.5107  0.0174
 6717SOL     OW31609   2.361   4.707   6.218 -0.5880  0.0722 -0.1073
 6717SOL    HW131610   2.277   4.695   6.173 -0.2289  1.3782 -1.1596
 6717SOL    HW231611   2.335   4.682   6.306  1.3735  1.0687  0.7638
 6718SOL     OW31612   0.185   1.926   7.501  0.6653  0.3964  0.0603
 6718SOL    HW131613   0.255   1.862   7.489  1.4791  1.3537 -0.2637
 6718SOL    HW231614   0.201   1.980   7.423 -1.2589 -0.5215 -0.9842
 6719SOL     OW31615   1.734   2.762   5.610  0.5689  0.6202  0.3847
 6719SOL    HW131616   1.713   2.727   5.697 -0.8544 -0.7789 -0.5175
 6719SOL    HW231617   1.648   2.745   5.571  0.9259  0.5083 -0.3552
 6720SOL     OW31618   0.194   2.530   2.335  0.7886 -0.0075  0.5352
 6720SOL    HW131619   0.164   2.482   2.258  2.8477  1.9529 -1.4820
 6720SOL    HW231620   0.276   2.484   2.355  1.0982  0.1718 -0.3546
 6721SOL     OW31621   4.531   0.264  13.025 -0.5596 -0.0672 -0.2163
 6721SOL    HW131622   4.502   0.173  13.031  0.7661 -0.3081  2.5912
 6721SOL    HW231623   4.520   0.296  13.115 -1.2927 -1.4047  0.1725
 6722SOL     OW31624   1.739   2.208   8.492 -0.2725 -0.2719  0.5206
 6722SOL    HW131625   1.676   2.279   8.486  0.1452  0.1091  0.6842
 6722SOL    HW231626   1.812   2.254   8.532  0.0351 -1.1355  0.9632
 6723SOL     OW31627   1.892   2.811   9.372 -0.0448  0.0220  0.1978
 6723SOL    HW131628   1.894   2.768   9.287 -1.3917 -0.5097  0.4390
 6723SOL    HW231629   1.914   2.745   9.439  0.8843 -2.4045 -2.5169
 6724SOL     OW31630   1.908   4.426   3.592  0.7629  0.1040 -0.0891
 6724SOL    HW131631   1.920   4.519   3.614 -0.2848 -0.8709  4.6000
 6724SOL    HW231632   1.820   4.413   3.630  0.8382 -2.5475 -0.8759
 6725SOL     OW31633   2.967   1.420   6.062  0.0919 -0.5503  0.2702
 6725SOL    HW131634   2.920   1.498   6.030 -0.5706 -1.7941 -1.8140
 6725SOL    HW231635   2.895   1.363   6.088  0.6107 -1.1056  0.4821
 6726SOL     OW31636   2.773   0.836   4.859  0.0974 -0.0348 -0.6941
 6726SOL    HW131637   2.793   0.751   4.819 -0.9578  0.2931 -1.9143
 6726SOL    HW231638   2.719   0.874   4.790  0.0336 -1.0675 -1.2040
 6727SOL     OW31639   4.046   0.346  12.455 -0.2928  0.2388  0.3316
 6727SOL    HW131640   4.008   0.432  12.442 -1.6944 -0.5574 -0.9014
 6727SOL    HW231641   4.035   0.308  12.368 -0.9728 -0.1170  0.5743
 6728SOL     OW31642   3.485   0.865  10.172 -0.1862 -0.2248  0.5850
 6728SOL    HW131643   3.406   0.811  10.174 -0.6054  0.3522 -0.6385
 6728SOL    HW231644   3.455   0.955  10.166 -0.3651 -0.3937 -1.0819
 6729SOL     OW31645   0.922   2.976  10.674  0.2891  0.2301  0.4824
 6729SOL    HW131646   1.005   2.984  10.628  0.8109  2.8594  1.9087
 6729SOL    HW231647   0.946   2.937  10.758 -0.4723 -2.2790 -0.4617
 6730SOL     OW31648   1.761   2.866  15.135 -0.2326  0.0337 -0.0721
 6730SOL    HW131649   1.702   2.941  15.137  1.3226  1.2284  1.3608
 6730SOL    HW231650   1.697   2.795  15.143  1.0059 -1.1741 -0.7430
 6731SOL     OW31651   0.924   3.154   4.453 -0.0421  0.1155  0.6421
 6731SOL    HW131652   0.856   3.088   4.440  0.2467 -0.0136 -0.2414
 6731SOL    HW231653   0.998   3.122   4.401  1.1979  1.5024  1.5501
 6732SOL     OW31654   3.633   4.533   6.364 -0.8624 -0.5717  0.3282
 6732SOL    HW131655   3.612   4.626   6.365  0.1793 -0.3456  0.2839
 6732SOL    HW231656   3.575   4.495   6.298 -1.6109  2.4492 -0.7535
 6733SOL     OW31657   2.701   0.150   3.003 -0.3700 -0.2935  0.0750
 6733SOL    HW131658   2.653   0.214   2.950 -2.3963 -1.0415  1.0394
 6733SOL    HW231659   2.790   0.184   3.013 -1.0391  1.7601 -0.9243
 6734SOL     OW31660   1.015   4.675  12.947 -0.3076 -0.2817  0.1789
 6734SOL    HW131661   1.108   4.688  12.962 -1.0450  3.4240  1.6602
 6734SOL    HW231662   1.006   0.017  12.876 -0.5334 -0.5780 -0.0540
 6735SOL     OW31663   0.747   1.460   8.024 -0.2494  0.1851 -0.1783
 6735SOL    HW131664   0.806   1.415   8.085 -0.1578  1.4424  0.6724
 6735SOL    HW231665   0.694   1.506   8.089  1.1581  0.2968  0.8959
 6736SOL     OW31666   3.840   1.927  17.274  0.0207  0.0323  0.2113
 6736SOL    HW131667   3.797   1.842  17.261 -0.2741 -0.2346  2.9322
 6736SOL    HW231668   3.923   1.905  17.317 -1.0518 -1.1205  1.6832
 6737SOL     OW31669   2.539   1.969   2.679  0.2921 -0.1216  0.3959
 6737SOL    HW131670   2.586   2.050   2.662  1.3391 -1.0181 -0.9957
 6737SOL    HW231671   2.545   1.937   2.589  1.3313  1.3124 -0.0403
 6738SOL     OW31672   2.151   2.181   2.112 -0.2514 -0.6998  0.6674
 6738SOL    HW131673   2.191   2.232   2.041 -2.3306  1.2054  0.8658
 6738SOL    HW231674   2.108   2.252   2.159 -1.0623 -0.1942 -0.8410
 6739SOL     OW31675   0.512   1.022   3.322  0.4598  0.5933 -0.1094
 6739SOL    HW131676   0.426   1.004   3.282  0.9126 -1.1014 -0.3424
 6739SOL    HW231677   0.530   1.102   3.273 -1.3267  2.4409  2.2373
 6740SOL     OW31678   1.108   3.592  14.124  0.3646 -0.1019 -0.5640
 6740SOL    HW131679   1.140   3.646  14.052  1.9496 -0.4718 -0.1184
 6740SOL    HW231680   1.012   3.601  14.124  0.2528 -1.3063 -0.2814
 6741SOL     OW31681   3.542   0.841   2.864 -0.4862 -0.3114  0.3843
 6741SOL    HW131682   3.536   0.936   2.854  1.0300 -0.2710 -0.1802
 6741SOL    HW231683   3.560   0.828   2.957  2.2582 -1.9535 -0.3761
 6742SOL     OW31684   0.509   4.707   5.355 -0.0585  0.4436 -0.5279
 6742SOL    HW131685   0.518   4.628   5.408  1.3561  2.2144  1.9008
 6742SOL    HW231686   0.524   0.054   5.421 -0.2810 -0.4787  0.4642
 6743SOL     OW31687   0.066   1.659   3.948 -0.7171  0.3499 -0.0370
 6743SOL    HW131688   0.115   1.741   3.954  0.0012  0.1009 -2.7849
 6743SOL    HW231689   0.130   1.590   3.965 -1.0897 -0.0201 -0.1389
 6744SOL     OW31690   3.395   4.532  14.656 -0.4711  0.5358 -0.4861
 6744SOL    HW131691   3.302   4.509  14.651  0.1909 -2.2206 -0.2272
 6744SOL    HW231692   3.441   4.489  14.584 -0.8772  0.4874 -0.7150
 6745SOL     OW31693   3.757   1.017  10.149 -0.4502 -0.7089 -0.2978
 6745SOL    HW131694   3.754   1.106  10.185  0.9730 -0.1883 -1.4729
 6745SOL    HW231695   3.669   0.987  10.172 -0.7989 -0.4923 -1.3429
 6746SOL     OW31696   4.454   0.998   5.027 -0.3735 -0.0124  0.1158
 6746SOL    HW131697   4.438   1.085   4.990  1.4173  0.0501 -0.5460
 6746SOL    HW231698   4.550   0.999   5.023 -0.3713  2.6369  0.8347
 6747SOL     OW31699   0.374   4.302   3.160  0.4282 -0.0305 -0.1001
 6747SOL    HW131700   0.335   4.353   3.231 -2.8996 -0.5192 -1.5990
 6747SOL    HW231701   0.415   4.225   3.200 -0.6503 -0.1785  0.7306
 6748SOL     OW31702   0.167   2.604   4.748 -0.3825  0.6337 -0.5457
 6748SOL    HW131703   0.198   2.695   4.755 -0.9994  0.7919  0.1627
 6748SOL    HW231704   0.111   2.610   4.671  0.3560  2.0559 -0.9771
 6749SOL     OW31705   0.450   0.429   4.396  0.5110  0.1895  0.2229
 6749SOL    HW131706   0.526   0.386   4.436 -1.4311 -2.0531  1.5119
 6749SOL    HW231707   0.401   0.469   4.468 -2.7399 -3.9855  0.2707
 6750SOL     OW31708   2.753   3.874   2.877  0.7239  0.2457  0.1756
 6750SOL    HW131709   2.665   3.865   2.914 -0.8219 -0.6128 -3.7600
 6750SOL    HW231710   2.804   3.888   2.957  1.0759  1.3374 -0.2361
 6751SOL     OW31711   0.688   3.086  13.237 -0.4613  0.4100  0.6795
 6751SOL    HW131712   0.618   3.038  13.193 -0.3337  0.2856  0.6114
 6751SOL    HW231713   0.731   3.021  13.292 -0.2611 -2.7448 -3.2289
 6752SOL     OW31714   0.354   2.496   1.401  0.0065 -0.4027 -0.2298
 6752SOL    HW131715   0.429   2.438   1.415 -2.6408 -3.8368 -0.1927
 6752SOL    HW231716   0.290   2.436   1.439 -0.7785  1.0729  0.7620
 6753SOL     OW31717   2.128   4.611   6.100 -0.2032 -0.1924 -0.3516
 6753SOL    HW131718   2.135   4.560   6.019  0.2453 -0.6803  0.0013
 6753SOL    HW231719   2.047   4.583   6.142  0.4919  0.2282  1.2370
 6754SOL     OW31720   0.972   2.822   3.026 -0.3102 -0.3155  0.1436
 6754SOL    HW131721   1.050   2.782   2.988 -0.1748 -1.1253  1.2817
 6754SOL    HW231722   0.972   2.770   3.107 -1.1738 -0.3469  0.1251
 6755SOL     OW31723   2.005   1.962   2.426 -0.7620 -0.3352 -0.3312
 6755SOL    HW131724   2.016   1.872   2.457  0.4040 -0.0137  0.1989
 6755SOL    HW231725   1.961   1.943   2.343 -0.9372 -0.5078 -0.1968
 6756SOL     OW31726   3.711   2.787   4.791  0.2513 -0.5343  0.0055
 6756SOL    HW131727   3.758   2.761   4.712 -1.1152 -2.0240 -0.3186
 6756SOL    HW231728   3.666   2.707   4.819  0.5550 -1.4241 -2.0486
 6757SOL     OW31729   4.544   1.215   4.674  0.3332  0.0309  0.0362
 6757SOL    HW131730   4.556   1.180   4.586 -1.9718 -1.0036  0.1308
 6757SOL    HW231731   4.503   1.138   4.713 -0.5069  0.3896 -0.1397
 6758SOL     OW31732   4.627   3.332   7.693 -0.3264  0.3567 -0.4172
 6758SOL    HW131733   4.554   3.320   7.632 -1.2333 -0.3668  0.8109
 6758SOL    HW231734   4.605   3.418   7.728 -1.2629 -0.4786  1.0346
 6759SOL     OW31735   0.392   0.130  14.432  0.4295  0.5381 -0.4068
 6759SOL    HW131736   0.411   0.221  14.413  2.0113  0.2422 -0.2308
 6759SOL    HW231737   0.296   0.126  14.434  0.4562  0.9741  1.1122
 6760SOL     OW31738   3.893   1.546  12.800 -0.5542  0.1880 -0.2503
 6760SOL    HW131739   3.900   1.494  12.721 -0.9980 -0.9726  0.4833
 6760SOL    HW231740   3.886   1.637  12.768 -0.9122  0.5694  0.9177
 6761SOL     OW31741   2.559   2.025   3.797 -0.1286 -0.4731 -0.3840
 6761SOL    HW131742   2.653   2.024   3.778 -0.5581  0.8657 -2.5670
 6761SOL    HW231743   2.539   1.932   3.800 -0.2430 -0.5180 -2.8641
 6762SOL     OW31744   1.665   1.918   4.036 -0.0628 -0.0136  0.0623
 6762SOL    HW131745   1.709   1.974   4.100 -0.9225  0.6387  0.0856
 6762SOL    HW231746   1.653   1.975   3.960 -1.1284  2.9828  2.5239
 6763SOL     OW31747   4.082   2.417  14.184  0.5310  0.1921 -0.3029
 6763SOL    HW131748   3.988   2.438  14.185  0.5021  0.0862 -0.6061
 6763SOL    HW231749   4.094   2.402  14.090 -0.4523  2.7750 -0.8478
 6764SOL     OW31750   2.025   0.124   0.371  0.2160 -0.3675 -0.1738
 6764SOL    HW131751   1.974   0.137   0.451 -1.8408  0.1792 -1.5702
 6764SOL    HW231752   1.961   0.133   0.301 -0.3256 -1.3716  0.1885
 6765SOL     OW31753   1.533   2.733   7.813  0.2179 -0.5873  0.1769
 6765SOL    HW131754   1.626   2.754   7.803  0.5672 -1.0073  2.6904
 6765SOL    HW231755   1.538   2.661   7.875  1.7342 -0.2725  0.4164
 6766SOL     OW31756   1.458   2.140   3.839 -0.3949  0.3452 -0.2183
 6766SOL    HW131757   1.429   2.147   3.931  0.8430  2.9290 -0.0520
 6766SOL    HW231758   1.368   2.140   3.805 -1.5143  0.9455  2.7206
 6767SOL     OW31759   3.754   3.526   8.218 -0.2345  0.5007 -0.2441
 6767SOL    HW131760   3.668   3.569   8.219 -0.6358 -0.2780 -0.5631
 6767SOL    HW231761   3.822   3.592   8.227  0.9255 -0.5261 -1.5013
 6768SOL     OW31762   0.806   4.718  14.031  0.4892 -0.6144 -0.3974
 6768SOL    HW131763   0.887   0.016  14.079  1.3052  1.2429 -2.4796
 6768SOL    HW231764   0.838   4.647  13.974 -1.0168  0.0881 -2.1158
 6769SOL     OW31765   0.173   2.784  11.531 -0.1465 -0.5094  0.5828
 6769SOL    HW131766   0.252   2.738  11.559 -0.2849 -2.6803 -2.5663
 6769SOL    HW231767   0.140   2.728  11.460  0.0514 -0.4586  0.4525
 6770SOL     OW31768   3.841   4.175   5.273 -0.1210 -0.2104 -0.0225
 6770SOL    HW131769   3.877   4.196   5.359 -0.2076  2.2648 -0.5816
 6770SOL    HW231770   3.882   4.248   5.227  1.5675 -1.1076  0.0687
 6771SOL     OW31771   1.724   4.620   8.583 -0.0939 -0.1621 -0.1646
 6771SOL    HW131772   1.691   4.679   8.651 -0.0795  0.1621 -0.4348
 6771SOL    HW231773   1.812   4.599   8.616  0.3425  0.8246 -0.6853
 6772SOL     OW31774   4.573   1.349   3.198 -0.1938 -0.1425  0.0321
 6772SOL    HW131775   4.564   1.258   3.227 -0.6320 -0.1865 -0.2431
 6772SOL    HW231776   4.630   1.390   3.263 -1.3665 -2.1985  2.3294
 6773SOL     OW31777   3.026   2.907   2.700  0.9143 -0.3729  0.1417
 6773SOL    HW131778   2.974   2.987   2.703  1.1398 -0.2913  2.0728
 6773SOL    HW231779   3.110   2.947   2.680  0.5278 -0.0287 -0.7880
 6774SOL     OW31780   1.640   4.439   3.650 -0.4416  0.1245 -0.1961
 6774SOL    HW131781   1.593   4.378   3.594  3.0108 -1.2183 -1.6095
 6774SOL    HW231782   1.582   4.515   3.648 -0.2545  0.2180 -2.0459
 6775SOL     OW31783   2.802   0.845   4.562 -0.3412 -0.1284  0.0405
 6775SOL    HW131784   2.868   0.914   4.565 -0.0614 -0.4482  1.2175
 6775SOL    HW231785   2.844   0.766   4.530 -0.5481 -0.0367 -0.4526
 6776SOL     OW31786   1.587   0.129  13.458  0.4051 -0.2303 -0.0924
 6776SOL    HW131787   1.577   0.188  13.532 -0.7150 -0.5096 -0.0106
 6776SOL    HW231788   1.502   0.087  13.445  0.7055 -0.8023 -0.2239
 6777SOL     OW31789   2.865   1.412   2.675  0.0097  0.6135 -0.4100
 6777SOL    HW131790   2.887   1.383   2.586 -0.6514 -0.6116 -0.1750
 6777SOL    HW231791   2.886   1.334   2.725  1.7356  1.9796  0.9939
 6778SOL     OW31792   3.144   1.439  17.637 -0.2257  0.2586 -0.0484
 6778SOL    HW131793   3.230   1.476  17.656 -0.3592  0.9585 -0.8495
 6778SOL    HW231794   3.101   1.517  17.604  0.5465  0.6306 -0.1716
 6779SOL     OW31795   4.701   4.067   0.371  0.1735 -0.2425 -0.2852
 6779SOL    HW131796   4.707   3.984   0.323  0.9684 -0.4358  0.1448
 6779SOL    HW231797   4.672   4.126   0.301 -2.6314 -1.4593 -0.1358
 6780SOL     OW31798   0.534   1.921  14.635  0.5171  0.1843  0.0588
 6780SOL    HW131799   0.469   1.904  14.703  3.1977 -0.1588  2.5534
 6780SOL    HW231800   0.500   1.985  14.573  0.1089  0.8095  0.9326
 6781SOL     OW31801   0.397   2.435  10.701  0.0072 -0.4694  0.6902
 6781SOL    HW131802   0.302   2.425  10.704  0.0031  0.0687  2.2635
 6781SOL    HW231803   0.404   2.467  10.611 -0.1380  0.6258  1.0581
 6782SOL     OW31804   4.024   0.140   8.404 -0.2949  0.0007  0.3611
 6782SOL    HW131805   3.968   0.105   8.474 -0.5089 -0.4708 -0.0410
 6782SOL    HW231806   3.994   0.231   8.395  0.4625  0.2774  0.6857
 6783SOL     OW31807   3.060   2.926   8.184 -0.1446 -0.0525  0.2659
 6783SOL    HW131808   3.067   2.833   8.160 -1.9373 -0.3988  1.0583
 6783SOL    HW231809   2.965   2.934   8.197  0.2197  2.7552  1.1766
 6784SOL     OW31810   4.127   1.950   3.343  0.1064 -0.6929  0.4544
 6784SOL    HW131811   4.099   1.868   3.302 -1.1902  0.3218 -0.6878
 6784SOL    HW231812   4.158   2.005   3.271  1.4746  0.7314  2.1300
 6785SOL     OW31813   1.884   4.494   3.315  0.4785 -0.0824  0.0918
 6785SOL    HW131814   1.853   4.576   3.353  1.0211  0.7748 -1.3181
 6785SOL    HW231815   1.858   4.436   3.386  1.3747 -1.6718 -0.8829
 6786SOL     OW31816   3.360   0.099   8.392  0.9415 -0.2446 -0.2434
 6786SOL    HW131817   3.438   0.100   8.336 -0.3064  1.3896 -1.9641
 6786SOL    HW231818   3.293   0.106   8.325  2.1240  0.7101 -1.3192
 6787SOL     OW31819   4.008   1.379   3.005  0.0259  0.3052 -0.2203
 6787SOL    HW131820   4.041   1.442   3.068  0.2810 -0.9453  0.8980
 6787SOL    HW231821   3.989   1.306   3.063 -1.9091 -0.2257 -1.5277
 6788SOL     OW31822   3.056   1.381   9.526  0.1883 -0.2606  0.3749
 6788SOL    HW131823   2.980   1.323   9.529 -0.7153  0.9932  1.5391
 6788SOL    HW231824   3.039   1.400   9.434 -0.0084  0.6929  0.6184
 6789SOL     OW31825   0.064   1.074  16.719 -0.2055  0.0341 -0.2649
 6789SOL    HW131826   0.048   0.989  16.678  1.1795  0.4682 -1.6964
 6789SOL    HW231827   4.707   1.088  16.773  0.5953  0.0586  0.8764
 6790SOL     OW31828   1.035   3.597   3.723 -0.2786 -0.0954 -0.4323
 6790SOL    HW131829   1.014   3.513   3.683  1.8725 -1.7596  1.9231
 6790SOL    HW231830   0.961   3.647   3.689  0.8025  1.6138 -0.3019
 6791SOL     OW31831   2.834   4.003  17.509 -0.1736  0.4518 -0.2558
 6791SOL    HW131832   2.870   4.045  17.587 -1.7753  0.9731  0.1793
 6791SOL    HW231833   2.853   4.061  17.435  0.4468  0.0115 -0.4443
 6792SOL     OW31834   2.218   3.891   4.868 -0.5815 -0.4461  0.2402
 6792SOL    HW131835   2.209   3.823   4.801  0.2752 -0.9687  0.6470
 6792SOL    HW231836   2.212   3.965   4.808  2.0773 -0.7738 -0.4349
 6793SOL     OW31837   4.015   2.472   9.296  0.0631 -0.0624  0.1741
 6793SOL    HW131838   3.946   2.406   9.290 -0.8454  0.9225 -0.2678
 6793SOL    HW231839   4.066   2.464   9.215 -0.9309  0.4847 -0.5072
 6794SOL     OW31840   1.163   1.348   6.531 -0.3055 -0.9088  0.4712
 6794SOL    HW131841   1.206   1.313   6.454 -0.3342 -0.4559  0.2482
 6794SOL    HW231842   1.191   1.291   6.603 -0.1940 -2.3955 -0.7618
 6795SOL     OW31843   0.580   4.131  13.778  0.2670 -0.0339 -0.4405
 6795SOL    HW131844   0.636   4.202  13.809 -0.9481  0.5224  0.4570
 6795SOL    HW231845   0.599   4.119  13.685  1.9284  1.4013 -0.2900
 6796SOL     OW31846   3.507   4.373   3.904 -0.1927 -0.3867  0.1460
 6796SOL    HW131847   3.494   4.394   3.812 -0.0969  0.3798  0.3070
 6796SOL    HW231848   3.488   4.279   3.907 -1.5584 -0.1201  0.0055
 6797SOL     OW31849   0.502   1.236   7.374 -0.4103  0.1364 -0.1768
 6797SOL    HW131850   0.514   1.141   7.381  0.0237  0.3384  1.9784
 6797SOL    HW231851   0.593   1.263   7.382 -0.5024  0.9596 -1.9472
 6798SOL     OW31852   1.968   1.018   7.567  0.4339  0.0242  0.6054
 6798SOL    HW131853   2.036   0.976   7.515 -0.5135 -1.0970  0.2738
 6798SOL    HW231854   1.898   0.977   7.516 -0.9403  1.0932  1.6182
 6799SOL     OW31855   3.246   4.032   1.827 -0.0803  0.0674 -0.0340
 6799SOL    HW131856   3.284   4.076   1.751  1.3278  1.7012  1.6061
 6799SOL    HW231857   3.221   3.953   1.780  1.4695 -0.3727 -0.1332
 6800SOL     OW31858   0.301   0.806   9.411 -0.8343  0.0136 -0.0582
 6800SOL    HW131859   0.243   0.737   9.444 -1.2982 -0.0484 -1.0030
 6800SOL    HW231860   0.389   0.772   9.425 -1.0772 -0.7252 -0.3561
 6801SOL     OW31861   1.197   0.149  13.109  0.0636 -0.2781  0.0748
 6801SOL    HW131862   1.181   0.216  13.042  0.4478  0.4935  0.7519
 6801SOL    HW231863   1.115   0.149  13.159 -1.4773  0.9414 -2.4303
 6802SOL     OW31864   0.717   2.595   2.975 -0.5902  0.1063  0.7654
 6802SOL    HW131865   0.809   2.609   2.996 -0.1124  0.2925 -1.4645
 6802SOL    HW231866   0.695   2.521   3.032 -0.1610 -0.8805 -0.3390
 6803SOL     OW31867   0.073   2.819  15.395 -0.4090 -0.4394  0.4904
 6803SOL    HW131868   0.142   2.879  15.427 -3.2927  2.6970  0.8218
 6803SOL    HW231869   0.013   2.814  15.469 -0.8145  1.4629  0.2955
 6804SOL     OW31870   2.497   3.987   9.569 -0.2607  0.0607 -0.6779
 6804SOL    HW131871   2.572   4.024   9.615 -1.6029  1.4725  0.3861
 6804SOL    HW231872   2.512   4.012   9.477  3.1203  0.6598  0.0576
 6805SOL     OW31873   4.064   0.130   4.134 -0.6915  0.2077 -0.0166
 6805SOL    HW131874   4.101   0.065   4.194 -0.7511 -1.2184 -1.5576
 6805SOL    HW231875   3.983   0.165   4.172  0.4418  3.8946 -0.9535
 6806SOL     OW31876   3.416   1.654   6.966 -0.8452 -0.2785  0.5270
 6806SOL    HW131877   3.506   1.681   6.980  0.1010 -2.4893 -1.3617
 6806SOL    HW231878   3.373   1.723   7.015  1.1890  1.8828 -0.7471
 6807SOL     OW31879   3.867   1.367   2.754  0.0463  1.2396  0.1358
 6807SOL    HW131880   3.939   1.320   2.795 -1.8709  0.1677  2.3016
 6807SOL    HW231881   3.853   1.441   2.813  1.7921  1.0879  0.7499
 6808SOL     OW31882   1.691   3.437   8.624  0.3941  0.2543 -0.5216
 6808SOL    HW131883   1.676   3.389   8.706 -1.3570  1.5057 -0.0882
 6808SOL    HW231884   1.716   3.360   8.573 -1.8985 -0.3437 -0.7658
 6809SOL     OW31885   1.388   2.815   8.300 -0.2804 -0.2262 -0.1648
 6809SOL    HW131886   1.442   2.894   8.296  0.4026 -0.7317 -0.8279
 6809SOL    HW231887   1.310   2.856   8.263 -2.7596 -2.2683  2.8123
 6810SOL     OW31888   3.263   4.608   6.982 -0.5520 -0.4542  0.1212
 6810SOL    HW131889   3.310   4.579   7.060 -0.3983  0.9847  0.5665
 6810SOL    HW231890   3.288   4.701   6.987 -2.5871  0.2152 -2.2478
 6811SOL     OW31891   3.163   1.009   6.845  0.1143 -0.0352 -0.0146
 6811SOL    HW131892   3.119   1.084   6.884 -2.0445 -1.1371 -0.2800
 6811SOL    HW231893   3.209   1.056   6.776 -2.0505  2.1197  0.0036
 6812SOL     OW31894   2.148   2.968   8.629  0.1110  0.3219  0.2872
 6812SOL    HW131895   2.058   2.949   8.656  1.1379 -0.4840  3.1437
 6812SOL    HW231896   2.188   2.979   8.716 -0.1528  0.1447  0.4314
 6813SOL     OW31897   2.443   0.877  13.512  0.0747  0.1141 -0.6104
 6813SOL    HW131898   2.359   0.863  13.555  0.3396 -3.1148 -1.1420
 6813SOL    HW231899   2.487   0.793  13.523  0.1534  0.2121 -0.1803
 6814SOL     OW31900   1.495   0.843   3.394  0.0446  0.2527 -0.2203
 6814SOL    HW131901   1.514   0.822   3.303 -0.6617  0.7317 -0.4752
 6814SOL    HW231902   1.416   0.896   3.392 -0.7004 -0.9037 -1.1683
 6815SOL     OW31903   3.395   0.377   9.178  0.7880  0.0621 -0.0291
 6815SOL    HW131904   3.318   0.324   9.198 -0.2281  0.3830 -3.0749
 6815SOL    HW231905   3.362   0.435   9.109 -0.8001 -0.9977 -0.1657
 6816SOL     OW31906   4.277   3.671   8.388 -0.1122 -0.1464 -0.0303
 6816SOL    HW131907   4.196   3.711   8.420 -0.3557 -1.5956  1.1841
 6816SOL    HW231908   4.272   3.687   8.294  2.1798  1.8472  0.1481
 6817SOL     OW31909   0.687   2.043  14.847 -0.2050 -0.3727 -1.2450
 6817SOL    HW131910   0.681   2.046  14.751 -1.1116  1.1676 -1.1346
 6817SOL    HW231911   0.781   2.035  14.865 -0.6896 -0.8266  0.9980
 6818SOL     OW31912   0.013   0.174   6.828 -0.1078 -0.1019  0.1638
 6818SOL    HW131913   4.662   0.215   6.875 -0.8400 -0.6559 -0.4702
 6818SOL    HW231914   0.047   0.247   6.777 -1.5596 -0.3531 -1.1313
 6819SOL     OW31915   2.837   0.142   6.912 -0.3631  0.2987  0.3050
 6819SOL    HW131916   2.922   0.185   6.923 -1.1154  2.3336 -2.0322
 6819SOL    HW231917   2.858   0.049   6.898 -1.0111 -0.0626  1.7267
 6820SOL     OW31918   1.328   0.092   7.501 -0.4924 -0.2709  0.0062
 6820SOL    HW131919   1.332   0.085   7.597  1.7715 -1.1709 -0.1559
 6820SOL    HW231920   1.317   0.188   7.501  0.9408 -0.1115 -2.9131
 6821SOL     OW31921   1.681   0.174  12.789 -0.5872 -0.0322  0.3019
 6821SOL    HW131922   1.608   0.222  12.829 -3.3025 -1.8586 -2.5395
 6821SOL    HW231923   1.718   0.139  12.870  1.1704 -0.1082 -0.5381
 6822SOL     OW31924   1.491   3.453   6.071  0.4355 -0.1138 -1.0999
 6822SOL    HW131925   1.580   3.481   6.091 -0.3149  0.3153  1.6289
 6822SOL    HW231926   1.498   3.426   5.979 -0.1521  0.1327 -1.2201
 6823SOL     OW31927   2.957   0.921   5.534  0.4478 -0.2914 -0.0098
 6823SOL    HW131928   2.933   0.983   5.466 -0.8611  1.4276  1.9978
 6823SOL    HW231929   2.878   0.909   5.587  1.2873 -1.1607  1.0543
 6824SOL     OW31930   1.148   1.582  11.576  0.2394  0.7224  0.4421
 6824SOL    HW131931   1.235   1.605  11.610 -0.8699  1.8877  2.4426
 6824SOL    HW231932   1.128   1.505  11.630 -2.0391 -0.4384 -2.0595
 6825SOL     OW31933   3.014   1.802   0.432 -0.7211  0.1635 -0.2330
 6825SOL    HW131934   3.024   1.893   0.403 -2.1005  0.4193  0.1092
 6825SOL    HW231935   3.027   1.752   0.352  4.4902  0.7902  0.1687
 6826SOL     OW31936   1.496   2.672   5.505  0.3225  0.4431 -0.3923
 6826SOL    HW131937   1.509   2.583   5.472  1.9002 -0.1789  1.8805
 6826SOL    HW231938   1.416   2.657   5.555 -0.7827  1.5472 -1.8754
 6827SOL     OW31939   3.654   2.542   5.656  0.0817  0.0220 -0.0118
 6827SOL    HW131940   3.668   2.539   5.751  0.4837 -0.4289 -0.0832
 6827SOL    HW231941   3.619   2.454   5.648 -0.8923  0.4335 -0.2366
 6828SOL     OW31942   1.164   0.979  13.802  0.5486 -0.5780  0.9214
 6828SOL    HW131943   1.241   1.029  13.828  0.7899 -0.0291 -0.8950
 6828SOL    HW231944   1.194   0.892  13.775  0.2459  0.2629 -2.1336
 6829SOL     OW31945   2.688   3.715  11.963 -0.2452 -0.3006  0.2589
 6829SOL    HW131946   2.694   3.656  12.038 -0.3446  2.0113  2.1066
 6829SOL    HW231947   2.779   3.724  11.935 -0.9183  1.3889 -1.4034
 6830SOL     OW31948   0.724   2.386  11.438 -0.1191  0.6479 -0.1519
 6830SOL    HW131949   0.685   2.307  11.475 -0.0680  0.9435  0.5284
 6830SOL    HW231950   0.652   2.421  11.384  0.2460  0.4082 -0.7966
 6831SOL     OW31951   0.616   0.851  10.423 -0.1528  0.4289 -0.0247
 6831SOL    HW131952   0.693   0.866  10.477  0.3200 -0.5150 -0.4355
 6831SOL    HW231953   0.622   0.930  10.369  2.6021  0.6294  0.6167
 6832SOL     OW31954   2.180   0.482   8.720  0.3310 -0.3048  0.4671
 6832SOL    HW131955   2.210   0.573   8.713 -1.3513  0.3405  1.6910
 6832SOL    HW231956   2.136   0.471   8.636  0.8916  2.7765 -0.2185
 6833SOL     OW31957   1.884   3.274   3.919 -0.0324  0.1406 -0.0852
 6833SOL    HW131958   1.840   3.314   3.994 -1.4008 -1.7054  0.0874
 6833SOL    HW231959   1.910   3.191   3.959  1.4161  0.5514 -0.1769
 6834SOL     OW31960   4.322   2.066  15.721  0.3269 -0.1416  0.4772
 6834SOL    HW131961   4.281   1.983  15.697 -0.6758  0.0091  1.6177
 6834SOL    HW231962   4.395   2.032  15.772  0.9466 -1.3430 -1.2724
 6835SOL     OW31963   1.683   0.258   6.274 -0.1083  0.3921 -0.2850
 6835SOL    HW131964   1.748   0.269   6.344  1.6942  0.3125 -1.9320
 6835SOL    HW231965   1.721   0.302   6.198 -2.1622 -1.2203 -2.2321
 6836SOL     OW31966   4.353   0.003   7.010  0.0510  0.0605  0.1936
 6836SOL    HW131967   4.438   4.681   7.020  0.8220  1.9020  1.6598
 6836SOL    HW231968   4.295   4.655   6.977  2.0269 -1.4786 -0.0141
 6837SOL     OW31969   0.393   1.947   2.876 -0.3211 -0.0592  0.0872
 6837SOL    HW131970   0.337   2.010   2.921  0.5651 -0.6290  1.9828
 6837SOL    HW231971   0.345   1.920   2.798 -0.2900  1.6699 -0.5263
 6838SOL     OW31972   4.665   1.689  13.660 -1.0062  0.6251 -0.1170
 6838SOL    HW131973   4.676   1.595  13.643  1.4643  1.0225 -0.7867
 6838SOL    HW231974   4.710   1.729  13.586 -2.1148  1.1357 -0.5088
 6839SOL     OW31975   0.687   1.009   3.652  0.2581 -0.2267 -0.2699
 6839SOL    HW131976   0.717   0.919   3.634 -0.1066 -0.8361  2.1203
 6839SOL    HW231977   0.620   0.984   3.716  0.0883 -2.8655 -1.4790
 6840SOL     OW31978   3.327   1.360   7.003  0.8628  0.4693  0.2149
 6840SOL    HW131979   3.345   1.449   7.034  0.9793  0.5836 -0.1906
 6840SOL    HW231980   3.300   1.317   7.085  0.4663  1.1984  0.4696
 6841SOL     OW31981   3.683   0.460  16.128  0.0509  0.4190 -0.4624
 6841SOL    HW131982   3.673   0.508  16.210  0.6025  0.0929 -0.2004
 6841SOL    HW231983   3.703   0.533  16.069 -0.7581  1.1503  0.1841
 6842SOL     OW31984   3.816   1.392   6.556  0.0729 -0.2211  0.4466
 6842SOL    HW131985   3.806   1.473   6.506  0.0481 -0.1463  0.5700
 6842SOL    HW231986   3.783   1.412   6.644 -0.9340  2.3847 -0.5348
 6843SOL     OW31987   1.411   1.851   7.063 -0.1680  0.7021 -0.4612
 6843SOL    HW131988   1.374   1.881   6.980 -2.8613 -1.2074  0.0549
 6843SOL    HW231989   1.408   1.756   7.052  0.8899  0.8279 -1.7427
 6844SOL     OW31990   0.904   3.149   8.148 -0.4826 -0.5660  0.1220
 6844SOL    HW131991   0.958   3.163   8.225  1.8252  1.2204 -1.8294
 6844SOL    HW231992   0.822   3.133   8.195 -0.5175  1.2742  0.6776
 6845SOL     OW31993   4.547   4.597   4.705  0.1416 -0.0307  0.4630
 6845SOL    HW131994   4.593   4.669   4.748  0.4775 -1.5187  2.6214
 6845SOL    HW231995   4.628   4.548   4.694  1.9843  2.7206  1.7091
 6846SOL     OW31996   0.544   0.654   3.240  0.2427  0.5636 -0.0861
 6846SOL    HW131997   0.490   0.622   3.168  0.3588  1.3342 -0.5220
 6846SOL    HW231998   0.478   0.659   3.308  0.8257  1.6749  0.4015
 6847SOL     OW31999   4.040   2.246   2.150  0.5152  0.4048  0.5915
 6847SOL    HW132000   4.117   2.213   2.103  0.3533 -0.4282  0.8953
 6847SOL    HW232001   4.061   2.339   2.147 -3.1164  1.0992 -2.2252
 6848SOL     OW32002   4.712   1.933   1.179  0.0544  0.1222  0.1947
 6848SOL    HW132003   0.013   1.940   1.086  0.3317 -1.1534  0.1654
 6848SOL    HW232004   0.059   1.874   1.211 -0.4371 -0.9611 -0.7198
 6849SOL     OW32005   1.920   4.648   1.303  0.5114 -0.1184 -0.5431
 6849SOL    HW132006   1.854   4.594   1.261 -0.0569  1.0513 -1.1507
 6849SOL    HW232007   1.963   4.690   1.229  0.2715  1.3198  0.1214
 6850SOL     OW32008   3.663   2.717   7.119  0.1561  0.1580  0.4891
 6850SOL    HW132009   3.587   2.670   7.154 -1.0033  0.9687 -0.9541
 6850SOL    HW232010   3.702   2.649   7.064  0.0289  1.8959 -1.7384
 6851SOL     OW32011   3.717   2.235  14.131 -0.0412 -0.3144  0.7318
 6851SOL    HW132012   3.739   2.256  14.040  0.4618  0.4231  1.0234
 6851SOL    HW232013   3.738   2.320  14.169 -0.0857  0.4081 -0.8566
 6852SOL     OW32014   0.855   0.692  15.691 -0.3179 -0.5472  0.2222
 6852SOL    HW132015   0.797   0.705  15.616 -0.3521  1.6128  0.6126
 6852SOL    HW232016   0.934   0.718  15.645 -0.0336  2.3581  2.3237
 6853SOL     OW32017   4.307   2.259   7.238  0.1429  0.4581 -0.4531
 6853SOL    HW132018   4.363   2.311   7.181  0.0920 -1.5206 -2.2899
 6853SOL    HW232019   4.362   2.185   7.262 -1.0991 -0.6930 -1.1378
 6854SOL     OW32020   3.166   4.235   2.972 -0.3538  0.0027 -0.1848
 6854SOL    HW132021   3.229   4.302   2.945  0.4485 -0.0789  1.5422
 6854SOL    HW232022   3.160   4.258   3.064 -0.4426  0.2706 -0.2537
 6855SOL     OW32023   0.593   4.503   4.609  0.2452  0.3607 -0.1616
 6855SOL    HW132024   0.516   4.535   4.562  0.2185  0.7102  0.1160
 6855SOL    HW232025   0.587   4.557   4.688  2.2247  1.8752 -1.0432
 6856SOL     OW32026   2.455   1.772  16.226 -0.1062 -0.1469 -0.5028
 6856SOL    HW132027   2.452   1.704  16.159 -1.9620  0.5290 -1.1148
 6856SOL    HW232028   2.369   1.815  16.219  0.5530  1.2793  0.2215
 6857SOL     OW32029   2.510   1.429   3.187 -0.3074 -0.1351 -0.5975
 6857SOL    HW132030   2.435   1.377   3.219  1.0787 -1.6138  0.2524
 6857SOL    HW232031   2.552   1.454   3.269 -0.2531 -1.9814 -0.0553
 6858SOL     OW32032   3.096   2.820   6.288  0.6888  0.3141  0.8658
 6858SOL    HW132033   3.137   2.735   6.303  1.4888  0.2596 -1.5069
 6858SOL    HW232034   3.146   2.869   6.353  1.1720  1.1981 -0.1735
 6859SOL     OW32035   1.953   2.290   9.838  0.2607 -0.5792  0.8242
 6859SOL    HW132036   1.969   2.255   9.925 -2.5361  0.5378  1.7739
 6859SOL    HW232037   2.042   2.270   9.808  0.1817  0.6853 -0.2585
 6860SOL     OW32038   3.152   0.991   1.912 -0.1327 -0.4242  0.0857
 6860SOL    HW132039   3.078   1.041   1.876 -0.8092 -0.6257  1.1853
 6860SOL    HW232040   3.218   1.005   1.845  0.6222  0.2037  0.9732
 6861SOL     OW32041   2.172   3.602   0.081 -0.2741  0.1094  0.2842
 6861SOL    HW132042   2.239   3.624   0.145  1.7355 -0.9893 -1.4533
 6861SOL    HW232043   2.139   3.689   0.059  0.7832  0.1399 -1.2108
 6862SOL     OW32044   1.231   2.372   8.794 -0.0577 -0.5503  0.1358
 6862SOL    HW132045   1.284   2.444   8.761  0.0238 -0.5651  0.2343
 6862SOL    HW232046   1.298   2.306   8.813  1.1792  1.1364  1.6323
 6863SOL     OW32047   2.508   0.262   7.630 -0.6843  0.2010  0.1854
 6863SOL    HW132048   2.441   0.224   7.686  1.2057 -1.5777  1.2641
 6863SOL    HW232049   2.455   0.325   7.581 -0.7768 -0.3246 -0.3969
 6864SOL     OW32050   4.342   0.125   7.374  0.1891 -1.2284  0.5596
 6864SOL    HW132051   4.430   0.108   7.340  0.6656  2.8869 -0.2208
 6864SOL    HW232052   4.375   0.157   7.458 -1.5958  2.3434 -0.1012
 6865SOL     OW32053   1.971   2.345  14.684 -0.1812 -0.3983 -0.5387
 6865SOL    HW132054   2.000   2.337  14.775  1.4262 -2.0936 -1.2047
 6865SOL    HW232055   1.893   2.290  14.687  0.4974 -1.3196  0.0438
 6866SOL     OW32056   0.504   1.945   6.507  0.3154  0.5480  0.7375
 6866SOL    HW132057   0.449   1.881   6.553 -0.4121  1.0949  0.6204
 6866SOL    HW232058   0.573   1.893   6.465  0.3158  1.9235 -0.9445
 6867SOL     OW32059   3.707   0.108   6.580 -0.4436  0.4887 -0.4325
 6867SOL    HW132060   3.764   0.185   6.570  0.8792 -0.3526  0.4910
 6867SOL    HW232061   3.770   0.045   6.617  0.1520  1.1051 -0.3824
 6868SOL     OW32062   3.360   1.859  17.552 -0.7608  0.0745 -0.2530
 6868SOL    HW132063   3.346   1.777  17.505  1.2939 -0.9032  0.8294
 6868SOL    HW232064   3.315   1.922  17.496 -2.2032  0.6186  1.5168
 6869SOL     OW32065   0.596   1.670   6.746 -0.0333 -0.0803  0.0947
 6869SOL    HW132066   0.563   1.706   6.828  2.0023 -0.0791  0.9195
 6869SOL    HW232067   0.519   1.665   6.690 -0.1221 -1.1388  0.3099
 6870SOL     OW32068   1.376   0.623   1.718 -0.0546  0.0374  0.3571
 6870SOL    HW132069   1.375   0.571   1.798 -1.1938 -0.8084 -0.2068
 6870SOL    HW232070   1.366   0.712   1.752 -0.0094 -0.1330  0.8121
 6871SOL     OW32071   3.871   0.062   0.824  0.8375 -0.6203 -0.2352
 6871SOL    HW132072   3.963   0.086   0.830  0.9648 -1.3276  0.6268
 6871SOL    HW232073   3.871   4.709   0.885  1.2006 -2.7671 -2.8351
 6872SOL     OW32074   2.143   1.135   4.073 -0.1165  0.5019  0.0832
 6872SOL    HW132075   2.231   1.172   4.077  0.1364  0.1050 -1.7136
 6872SOL    HW232076   2.089   1.207   4.106  0.4788  2.0284 -2.3098
 6873SOL     OW32077   3.458   1.814   0.273  0.1233  0.0054  0.6798
 6873SOL    HW132078   3.487   1.831   0.362 -1.6377 -1.4376  1.5297
 6873SOL    HW232079   3.543   1.784   0.240 -0.1670  1.7546 -1.7007
 6874SOL     OW32080   0.626   4.095   3.515  0.0012 -0.2339 -0.2859
 6874SOL    HW132081   0.558   4.154   3.547  0.6614  1.1525 -1.4543
 6874SOL    HW232082   0.657   4.157   3.449  0.2278 -1.3616 -1.2585
 6875SOL     OW32083   2.293   1.380   1.114  0.6448  0.0125 -0.6102
 6875SOL    HW132084   2.220   1.357   1.172  1.6992 -2.1104 -0.1507
 6875SOL    HW232085   2.350   1.434   1.169  2.6016 -1.7992 -0.8724
 6876SOL     OW32086   3.813   4.223   6.702 -0.0561 -0.1080  0.3847
 6876SOL    HW132087   3.770   4.214   6.787 -1.7922  2.1770 -0.2534
 6876SOL    HW232088   3.760   4.286   6.653  1.4381  0.9303  0.0616
 6877SOL     OW32089   3.977   1.958  14.965 -0.1868  0.4071 -0.0581
 6877SOL    HW132090   3.910   1.962  15.033  2.0974  3.3399  2.0348
 6877SOL    HW232091   4.024   2.036  14.996  1.4019  0.1114 -1.7715
 6878SOL     OW32092   2.702   1.181   4.339 -0.5352  0.0395  0.1352
 6878SOL    HW132093   2.728   1.272   4.321  0.3234 -0.9159 -3.5300
 6878SOL    HW232094   2.694   1.179   4.434 -2.2318 -1.3060 -0.0456
 6879SOL     OW32095   1.870   2.927   2.737 -0.2021  0.8618  0.6942
 6879SOL    HW132096   1.927   2.995   2.773 -0.0222  1.6017 -0.9865
 6879SOL    HW232097   1.903   2.855   2.790  0.2208 -0.3333 -1.1754
 6880SOL     OW32098   3.138   0.786   7.022 -0.4505 -0.6584 -0.7734
 6880SOL    HW132099   3.122   0.836   6.942  0.4273  0.0793 -0.4924
 6880SOL    HW232100   3.203   0.848   7.057 -1.2259 -0.5079  0.4101
 6881SOL     OW32101   3.937   1.354  13.493  0.5381  0.0077 -0.1081
 6881SOL    HW132102   3.968   1.266  13.473 -0.8860 -0.6581  0.6252
 6881SOL    HW232103   3.951   1.400  13.410  2.7544 -0.0723  0.2357
 6882SOL     OW32104   2.823   0.735   3.512  0.3799  0.0405  0.4269
 6882SOL    HW132105   2.891   0.762   3.450  0.8304 -3.2726 -0.5432
 6882SOL    HW232106   2.834   0.805   3.577 -0.6981  1.1838 -0.6194
 6883SOL     OW32107   3.747   1.706   0.648  0.0435 -0.3715  0.2007
 6883SOL    HW132108   3.741   1.613   0.624 -2.9888 -0.8669  2.7996
 6883SOL    HW232109   3.837   1.729   0.624 -1.0437  2.2498 -1.3617
 6884SOL     OW32110   4.111   4.546   9.462  0.2441 -0.0831 -0.1278
 6884SOL    HW132111   4.043   4.568   9.398  0.9831  1.3096 -0.4327
 6884SOL    HW232112   4.117   4.624   9.516  1.1867 -0.1924 -0.0896
 6885SOL     OW32113   0.883   2.964   4.744 -0.1015 -0.4808  0.4845
 6885SOL    HW132114   0.896   2.897   4.677 -2.3804 -0.5888  0.1345
 6885SOL    HW232115   0.955   2.943   4.803 -1.0475 -1.9236  1.1283
 6886SOL     OW32116   4.524   0.954  10.076  0.4801  0.3182  0.4372
 6886SOL    HW132117   4.449   1.001  10.041  0.1119  0.2814  1.1660
 6886SOL    HW232118   4.538   1.000  10.159  0.7210  1.0940 -0.0355
 6887SOL     OW32119   1.651   0.849   7.873  0.2900 -0.3072 -0.4225
 6887SOL    HW132120   1.735   0.808   7.892 -0.0546  0.0166  1.8852
 6887SOL    HW232121   1.656   0.940   7.902 -1.7574 -0.4317  0.3754
 6888SOL     OW32122   3.515   0.345   7.827  0.2647 -0.6397  0.1311
 6888SOL    HW132123   3.469   0.271   7.867 -0.8369  0.4215  0.8433
 6888SOL    HW232124   3.560   0.361   7.910 -1.3753  2.1065  0.4922
 6889SOL     OW32125   1.976   1.217   3.178  0.3649 -0.1966 -0.0010
 6889SOL    HW132126   2.011   1.129   3.163  0.5547  0.4094 -3.1090
 6889SOL    HW232127   1.945   1.234   3.089  0.5414  2.1470  0.3894
 6890SOL     OW32128   2.743   1.193   2.313 -0.0775 -0.2377 -0.2685
 6890SOL    HW132129   2.670   1.150   2.269 -0.1588  0.8194 -1.1568
 6890SOL    HW232130   2.731   1.282   2.282  2.0738  0.0659 -0.2084
 6891SOL     OW32131   3.442   1.198   8.921  0.4812  0.0297  0.3396
 6891SOL    HW132132   3.515   1.160   8.872  0.7547  0.5281  0.3600
 6891SOL    HW232133   3.402   1.252   8.853  0.6370 -0.2797  0.0051
 6892SOL     OW32134   1.625   2.111   8.264  0.5763  0.4725  1.2051
 6892SOL    HW132135   1.533   2.111   8.291 -0.0777  0.4104 -1.0404
 6892SOL    HW232136   1.668   2.130   8.348  1.2720  1.2744  0.6691
 6893SOL     OW32137   2.797   2.865   6.052 -0.7223 -0.2002 -0.2717
 6893SOL    HW132138   2.823   2.944   6.100 -1.4950  0.7397 -1.3895
 6893SOL    HW232139   2.877   2.826   6.016  0.3337  1.3381  0.4187
 6894SOL     OW32140   0.069   3.395   6.817  0.1146 -0.2914  0.2266
 6894SOL    HW132141   0.123   3.348   6.754 -1.3712  0.8774 -1.9226
 6894SOL    HW232142   4.707   3.347   6.810 -0.0868  0.1301 -0.2196
 6895SOL     OW32143   2.127   0.789  11.500 -0.0786  0.2076  0.1857
 6895SOL    HW132144   2.201   0.821  11.448 -1.8016 -1.6175 -3.4144
 6895SOL    HW232145   2.160   0.703  11.524  0.5411  1.1994  2.8255
 6896SOL     OW32146   4.473   0.376  11.029  0.2329 -0.0141  0.8842
 6896SOL    HW132147   4.424   0.394  10.949  0.3131 -0.7188  0.6770
 6896SOL    HW232148   4.410   0.336  11.089  0.6241  0.6681  1.7448
 6897SOL     OW32149   0.999   0.277  16.622  0.4494 -0.5425  0.2555
 6897SOL    HW132150   1.011   0.205  16.684  0.7580 -1.5958 -1.0330
 6897SOL    HW232151   0.991   0.344  16.690  3.2910  0.0852  0.0029
 6898SOL     OW32152   0.123   1.920  16.097 -0.0941  0.0902 -0.4074
 6898SOL    HW132153   0.108   1.867  16.020 -0.4701  0.0979 -0.3358
 6898SOL    HW232154   0.128   1.852  16.164 -0.1989  1.5546  1.1018
 6899SOL     OW32155   1.188   2.394   5.845 -0.1986 -1.0423 -0.0281
 6899SOL    HW132156   1.163   2.391   5.937  2.1256  2.6621  0.6956
 6899SOL    HW232157   1.111   2.424   5.796  0.0122 -0.9017 -0.2727
 6900SOL     OW32158   1.867   2.230   2.711 -0.4494  0.3213  0.1327
 6900SOL    HW132159   1.953   2.219   2.670  0.1467  0.3403  1.3818
 6900SOL    HW232160   1.810   2.203   2.639  1.6492  1.6392 -2.0089
 6901SOL     OW32161   0.909   4.201  14.125  0.2301  0.2599  0.1133
 6901SOL    HW132162   0.947   4.279  14.164  1.0276  0.3370 -0.8230
 6901SOL    HW232163   0.959   4.139  14.179  0.2844 -0.8987 -1.2638
 6902SOL     OW32164   2.816   2.186   6.830  0.0856 -0.1273  0.4628
 6902SOL    HW132165   2.741   2.225   6.874 -1.2389 -1.5673 -0.4752
 6902SOL    HW232166   2.883   2.191   6.898 -0.5013 -1.0551  1.1214
 6903SOL     OW32167   1.511   3.306   3.847 -0.0672 -0.2932 -0.1140
 6903SOL    HW132168   1.597   3.333   3.880  0.2744  0.2155 -1.4002
 6903SOL    HW232169   1.456   3.337   3.918  0.2981 -1.6450  0.7694
 6904SOL     OW32170   1.135   0.328  12.628  0.1330  0.2080 -0.3781
 6904SOL    HW132171   1.166   0.324  12.719  1.4523 -0.3501 -0.8643
 6904SOL    HW232172   1.162   0.418  12.607  0.3926 -0.0137 -0.9795
 6905SOL     OW32173   0.517   0.871  11.946 -0.0865 -0.5097 -0.0627
 6905SOL    HW132174   0.444   0.809  11.952  0.0366 -0.3644  3.1254
 6905SOL    HW232175   0.586   0.811  11.974  1.5187 -0.6765 -4.4607
 6906SOL     OW32176   2.990   3.417   1.642 -0.2406  0.1336 -0.0855
 6906SOL    HW132177   3.011   3.360   1.569 -1.5066  0.6496 -0.8505
 6906SOL    HW232178   2.897   3.399   1.653  0.0541 -1.7812 -0.8045
 6907SOL     OW32179   4.273   1.754   8.307 -0.3308  0.3518  0.3105
 6907SOL    HW132180   4.336   1.739   8.236  1.9834 -0.2612  2.5177
 6907SOL    HW232181   4.315   1.828   8.350 -1.4070  0.5284  1.0629
 6908SOL     OW32182   4.098   1.692  10.161  0.0841  0.1894 -0.6055
 6908SOL    HW132183   4.158   1.619  10.148 -1.7109 -1.1130 -1.5036
 6908SOL    HW232184   4.113   1.711  10.254  1.1547  0.5700 -0.8532
 6909SOL     OW32185   4.108   0.324  10.909  0.1913 -0.6244 -0.2706
 6909SOL    HW132186   4.064   0.382  10.847 -0.7953 -0.8177  0.2478
 6909SOL    HW232187   4.085   0.363  10.993  0.0298  2.1019 -1.5907
 6910SOL     OW32188   2.306   2.187  17.532  0.1866 -0.4363  0.3466
 6910SOL    HW132189   2.250   2.172  17.608 -1.7474 -2.7394 -1.5310
 6910SOL    HW232190   2.241   2.162  17.466 -1.1812 -0.9949  1.9061
 6911SOL     OW32191   1.103   0.061   5.368  0.0123 -0.4906  0.0915
 6911SOL    HW132192   1.021   0.026   5.404 -1.2742 -0.2213 -2.5838
 6911SOL    HW232193   1.112   0.141   5.419 -0.6110 -0.1242 -0.3761
 6912SOL     OW32194   3.873   1.851   0.377 -0.2553  0.7623 -0.5417
 6912SOL    HW132195   3.947   1.867   0.318  1.4115 -1.7961  0.8484
 6912SOL    HW232196   3.800   1.849   0.315 -0.7010  0.2652  0.0093
 6913SOL     OW32197   0.653   0.749   0.053  0.2462 -0.2088 -0.6721
 6913SOL    HW132198   0.650   0.667   0.102  0.7177  0.6072  0.7246
 6913SOL    HW232199   0.640   0.717  17.651  2.0592 -1.1123 -0.6140
 6914SOL     OW32200   4.545   3.279   6.854 -0.1938  0.2865 -0.2868
 6914SOL    HW132201   4.471   3.333   6.828 -0.3786 -0.1036 -0.5705
 6914SOL    HW232202   4.534   3.286   6.949  0.1876  0.0691 -0.2249
 6915SOL     OW32203   1.522   0.332   8.385 -0.0160 -0.0403 -0.5437
 6915SOL    HW132204   1.525   0.263   8.318  1.4157 -0.9317  0.4545
 6915SOL    HW232205   1.556   0.406   8.334  1.0992  0.5386  1.0625
 6916SOL     OW32206   0.339   1.614  15.689 -0.8233  0.4930 -0.4572
 6916SOL    HW132207   0.417   1.559  15.691 -0.0610  1.6115  0.4326
 6916SOL    HW232208   0.332   1.631  15.595 -1.0874  0.1627 -0.4972
 6917SOL     OW32209   3.241   3.062   9.291 -0.6112  0.5311 -0.2683
 6917SOL    HW132210   3.268   3.074   9.200  1.6163  0.4920  0.3887
 6917SOL    HW232211   3.152   3.094   9.278 -0.4541  0.9762 -0.2268
 6918SOL     OW32212   4.172   3.278  10.319 -0.7719  0.0556 -0.4920
 6918SOL    HW132213   4.241   3.239  10.266  0.0226  0.8123 -0.0125
 6918SOL    HW232214   4.186   3.225  10.398 -0.1261 -0.1107 -0.7202
 6919SOL     OW32215   4.044   1.217   0.695 -0.0304  0.0255 -0.3769
 6919SOL    HW132216   4.101   1.155   0.741  1.1037  1.0541 -0.3977
 6919SOL    HW232217   4.098   1.295   0.707  1.2018 -0.8381 -0.2579
 6920SOL     OW32218   4.227   0.842   7.107 -0.4020 -0.3941 -0.2752
 6920SOL    HW132219   4.290   0.853   7.036 -2.0241  2.2048 -1.2841
 6920SOL    HW232220   4.181   0.766   7.071 -0.2306 -1.3190  1.4354
 6921SOL     OW32221   1.765   1.284   3.555  0.0099  0.1683 -0.3214
 6921SOL    HW132222   1.741   1.308   3.644  0.6780 -1.1722  0.2255
 6921SOL    HW232223   1.682   1.277   3.508 -0.8075 -1.3552  1.3425
 6922SOL     OW32224   0.629   1.840   6.135 -0.4237  0.3889  0.0094
 6922SOL    HW132225   0.643   1.811   6.225  1.3702 -1.3981 -0.8420
 6922SOL    HW232226   0.651   1.756   6.096  2.4014  0.1500  2.1172
 6923SOL     OW32227   2.132   1.979   2.886  0.0805 -0.1365  0.7500
 6923SOL    HW132228   2.163   1.899   2.928 -1.3043 -0.1099  1.8203
 6923SOL    HW232229   2.055   1.956   2.833 -0.7640  1.1377  1.4274
 6924SOL     OW32230   1.475   1.765   6.728  0.0022 -0.0331 -0.5658
 6924SOL    HW132231   1.547   1.702   6.735  0.3173  0.5888  1.6502
 6924SOL    HW232232   1.446   1.754   6.637 -0.3910  1.0828 -0.5796
 6925SOL     OW32233   0.603   3.073   7.869 -0.0920 -0.0421 -0.3174
 6925SOL    HW132234   0.614   2.978   7.867  1.1254  0.1281 -1.8369
 6925SOL    HW232235   0.526   3.083   7.925  0.5578  0.3811  0.5043
 6926SOL     OW32236   0.084   0.558   5.469 -0.7764  0.2041  0.4855
 6926SOL    HW132237   0.063   0.647   5.442 -1.1838  0.1560  0.6418
 6926SOL    HW232238   0.034   0.502   5.408 -0.6287 -0.7119  1.2104
 6927SOL     OW32239   2.439   1.573   0.794 -0.4155 -0.2638  0.1320
 6927SOL    HW132240   2.504   1.572   0.864 -0.2967  2.3516  0.0629
 6927SOL    HW232241   2.491   1.555   0.716  0.6694  2.6645  0.1940
 6928SOL     OW32242   2.035   3.417   7.816  0.4755  0.2172 -0.3483
 6928SOL    HW132243   2.117   3.414   7.765  0.2179 -0.8486 -0.6942
 6928SOL    HW232244   2.060   3.481   7.883 -0.3537  1.9156 -1.6625
 6929SOL     OW32245   0.858   3.981   3.600  0.0689 -0.1484 -0.2064
 6929SOL    HW132246   0.872   4.027   3.683 -0.8685  0.9358 -0.6528
 6929SOL    HW232247   0.779   4.030   3.575 -1.7227 -1.8308  2.1592
 6930SOL     OW32248   3.929   1.088  11.137 -0.0737  0.0065  0.1896
 6930SOL    HW132249   3.872   1.015  11.159 -0.1407 -0.6404 -2.1288
 6930SOL    HW232250   3.858   1.152  11.135  1.5436  1.8377  1.0302
 6931SOL     OW32251   4.413   0.451  10.785 -0.0415  0.7006 -0.2064
 6931SOL    HW132252   4.386   0.364  10.753  0.7753  0.1038  0.7269
 6931SOL    HW232253   4.358   0.508  10.731  0.2767  0.6805 -0.5536
 6932SOL     OW32254   0.333   2.461   0.021  0.3133  0.5085 -0.1668
 6932SOL    HW132255   0.368   2.372   0.021  2.3840  1.3033  0.1796
 6932SOL    HW232256   0.364   2.478  17.619 -0.7203 -1.7623 -0.9662
 6933SOL     OW32257   2.449   1.542  16.708 -0.2626  0.1438  0.1888
 6933SOL    HW132258   2.464   1.472  16.644  3.5169  1.7784 -0.7146
 6933SOL    HW232259   2.358   1.532  16.734 -0.6636 -0.2575 -1.3402
 6934SOL     OW32260   0.637   0.982   5.849  0.1826  0.0608  0.1536
 6934SOL    HW132261   0.729   0.997   5.829 -0.7844  4.7096 -0.6552
 6934SOL    HW232262   0.643   0.893   5.884  0.6402 -0.1009 -0.3313
 6935SOL     OW32263   1.183   2.808   7.421 -0.3063  0.0853 -0.4985
 6935SOL    HW132264   1.233   2.866   7.477  2.7750 -1.6112 -1.4636
 6935SOL    HW232265   1.243   2.803   7.346 -0.5396  0.0283 -0.6822
 6936SOL     OW32266   0.383   4.105   7.593 -0.6351  0.6916 -0.2981
 6936SOL    HW132267   0.342   4.145   7.670  0.9810 -0.2239  1.0405
 6936SOL    HW232268   0.477   4.105   7.610 -0.7016 -0.3029  0.0456
 6937SOL     OW32269   4.206   3.933   5.368 -0.0373 -0.3956  0.1808
 6937SOL    HW132270   4.285   3.981   5.396  0.1385 -0.5535 -0.0441
 6937SOL    HW232271   4.170   3.912   5.454 -0.5742  1.2752  0.3632
 6938SOL     OW32272   3.116   1.879  11.095  0.0171 -0.2756 -0.5727
 6938SOL    HW132273   3.165   1.923  11.164 -1.0103  1.0145 -0.6660
 6938SOL    HW232274   3.178   1.840  11.034 -0.5011  0.8777 -1.8376
 6939SOL     OW32275   0.498   1.891   7.643 -0.0959 -0.3594  0.1497
 6939SOL    HW132276   0.468   1.981   7.653 -0.9947 -0.5880 -0.5219
 6939SOL    HW232277   0.547   1.880   7.725  2.1280 -1.2461 -1.2839
 6940SOL     OW32278   2.854   0.354  10.815  0.5874 -0.5909  0.0226
 6940SOL    HW132279   2.832   0.338  10.907  1.3462  1.1919  0.5113
 6940SOL    HW232280   2.904   0.276  10.792  0.6281  0.0877 -2.1967
 6941SOL     OW32281   0.062   2.160  11.463  0.3982 -0.4022  0.3454
 6941SOL    HW132282   0.034   2.079  11.421  0.1319  0.3584 -0.9545
 6941SOL    HW232283   0.146   2.172  11.419 -0.7130  2.2712 -1.0900
 6942SOL     OW32284   0.559   3.225  12.321  0.0263  1.0075  0.4420
 6942SOL    HW132285   0.535   3.140  12.285 -2.0965  0.9032  2.1148
 6942SOL    HW232286   0.640   3.209  12.368 -1.1700 -2.5697  1.2856
 6943SOL     OW32287   0.134   3.517   1.072 -0.2374 -0.2174  0.2520
 6943SOL    HW132288   0.169   3.594   1.027 -0.6791 -0.0762  0.1461
 6943SOL    HW232289   0.198   3.449   1.049  0.0037  0.1654 -0.2181
 6944SOL     OW32290   3.439   1.509   6.699 -0.1667 -0.1441 -0.0202
 6944SOL    HW132291   3.434   1.569   6.773 -1.1977 -0.5347  0.2268
 6944SOL    HW232292   3.530   1.479   6.703 -0.3752 -1.0349 -1.9129
 6945SOL     OW32293   1.902   2.094  14.251 -0.1412 -0.3235 -0.1954
 6945SOL    HW132294   1.839   2.048  14.307 -1.2014  0.4261 -0.7663
 6945SOL    HW232295   1.958   2.131  14.319  1.1383 -0.7927 -1.0077
 6946SOL     OW32296   0.392   2.793   6.559 -0.1887  0.2522  0.2803
 6946SOL    HW132297   0.372   2.705   6.590  2.5557 -0.5655 -0.3256
 6946SOL    HW232298   0.447   2.820   6.633  2.3439 -0.6070 -1.3237
 6947SOL     OW32299   4.715   2.781   1.144 -0.2650  0.1758 -0.1492
 6947SOL    HW132300   0.028   2.709   1.198 -1.6899 -1.1362 -0.9781
 6947SOL    HW232301   4.631   2.792   1.189  0.3373  2.0187  0.5135
 6948SOL     OW32302   0.241   0.752  11.438 -0.4314 -0.3049 -0.0819
 6948SOL    HW132303   0.231   0.675  11.381  1.0313 -0.1357 -0.5717
 6948SOL    HW232304   0.222   0.715  11.524  1.1789 -1.9377 -0.4228
 6949SOL     OW32305   2.749   3.629   7.896 -0.6009  0.1855 -0.1131
 6949SOL    HW132306   2.709   3.601   7.978  1.2873  1.7537  1.3565
 6949SOL    HW232307   2.741   3.725   7.894  0.3600  0.3189  2.1799
 6950SOL     OW32308   2.201   0.112  17.464 -0.4139 -0.3014 -0.0157
 6950SOL    HW132309   2.142   0.163  17.409  1.2128  0.2551 -1.2453
 6950SOL    HW232310   2.244   0.050  17.406  1.5646  0.7587  0.2881
 6951SOL     OW32311   3.739   2.356   8.318  0.2961 -0.4562 -0.5982
 6951SOL    HW132312   3.683   2.337   8.244 -1.2913 -1.4941  0.8651
 6951SOL    HW232313   3.778   2.269   8.327 -0.1556 -0.7338 -1.3782
 6952SOL     OW32314   3.233   0.789  15.919 -0.0496  0.0581  0.1091
 6952SOL    HW132315   3.245   0.825  15.831  0.3939 -0.1821  0.0710
 6952SOL    HW232316   3.182   0.861  15.956 -0.4226 -0.2471  0.1855
 6953SOL     OW32317   3.455   4.259   3.433  0.0107  0.2973 -0.2635
 6953SOL    HW132318   3.359   4.265   3.436 -0.0799 -1.0562 -0.2797
 6953SOL    HW232319   3.472   4.274   3.340 -1.6946  0.2825 -0.5710
 6954SOL     OW32320   1.685   2.644   1.212 -0.2302  0.0491 -0.0966
 6954SOL    HW132321   1.668   2.558   1.175 -2.6697  0.1667  0.7749
 6954SOL    HW232322   1.603   2.666   1.256 -0.4788  2.1296 -1.6111
 6955SOL     OW32323   4.470   2.040  17.461 -0.6461 -0.8138 -0.2546
 6955SOL    HW132324   4.506   1.986  17.390  1.0118 -0.7850  0.5730
 6955SOL    HW232325   4.464   2.131  17.431  1.4888 -0.6396 -0.1845
 6956SOL     OW32326   4.423   0.219   4.280  0.7826 -1.0850  0.4394
 6956SOL    HW132327   4.508   0.230   4.322 -0.4274  1.4273  2.2029
 6956SOL    HW232328   4.371   0.196   4.356 -1.9772 -0.5328 -1.2853
 6957SOL     OW32329   1.592   3.522  16.977 -0.3645 -0.0114 -0.5737
 6957SOL    HW132330   1.673   3.473  16.962  0.6006  1.0500  1.0908
 6957SOL    HW232331   1.526   3.456  16.956  0.1322 -1.0997  1.2646
 6958SOL     OW32332   3.422   2.396   1.581 -0.2952  0.3471 -0.3467
 6958SOL    HW132333   3.449   2.488   1.578  1.9603 -0.3654 -2.0573
 6958SOL    HW232334   3.448   2.369   1.669  1.2880  2.7970 -0.0512
 6959SOL     OW32335   4.581   3.538   6.348 -0.3435 -0.1064 -0.7941
 6959SOL    HW132336   4.605   3.591   6.424 -2.1362 -0.8749  0.2807
 6959SOL    HW232337   4.647   3.468   6.355  0.9930  1.1464 -0.7703
 6960SOL     OW32338   3.505   0.838   0.555  0.0489 -0.1373 -0.0649
 6960SOL    HW132339   3.595   0.810   0.573 -0.2005 -0.1771  1.0872
 6960SOL    HW232340   3.499   0.840   0.459 -1.5734  2.1747  0.0886
 6961SOL     OW32341   3.326   4.199   8.956 -0.3077  0.0823 -0.0028
 6961SOL    HW132342   3.367   4.285   8.972 -2.4294  0.9880  0.5120
 6961SOL    HW232343   3.297   4.165   9.040 -1.7432 -1.7927 -1.2605
 6962SOL     OW32344   1.375   0.381   5.541  0.5187 -0.0098 -0.2298
 6962SOL    HW132345   1.382   0.457   5.483 -2.0887  0.1870 -0.2866
 6962SOL    HW232346   1.445   0.383   5.607 -1.1280 -0.3382  1.5297
 6963SOL     OW32347   1.574   0.807  15.993  0.2620 -0.3551  0.0860
 6963SOL    HW132348   1.565   0.898  16.020  1.0273 -0.7763  1.7121
 6963SOL    HW232349   1.668   0.798  16.009  0.6460 -0.3601 -2.0702
 6964SOL     OW32350   3.446   2.144   5.023  0.0307 -0.7022  0.0689
 6964SOL    HW132351   3.450   2.117   5.114 -1.5421 -0.2335  0.2745
 6964SOL    HW232352   3.399   2.068   4.988 -0.2841 -0.8668  0.8676
 6965SOL     OW32353   4.066   0.776  15.451  0.7306  0.0403 -0.9658
 6965SOL    HW132354   4.032   0.817  15.372 -0.7075  1.4831  0.4032
 6965SOL    HW232355   4.007   0.705  15.476  2.9165 -0.1902  3.6188
 6966SOL     OW32356   3.217   2.986   6.508 -0.6708 -0.2751  0.0839
 6966SOL    HW132357   3.233   3.001   6.601  1.2340 -0.7298 -0.1764
 6966SOL    HW232358   3.299   3.027   6.480 -0.7468  0.8862  1.5545
 6967SOL     OW32359   3.286   3.473   9.160 -0.3935 -0.1789  0.2261
 6967SOL    HW132360   3.296   3.531   9.236  1.4679 -2.1921  1.4850
 6967SOL    HW232361   3.190   3.465   9.158 -0.3178 -0.9905 -0.0830
 6968SOL     OW32362   4.465   1.378   3.931  0.4662  0.2220 -0.4455
 6968SOL    HW132363   4.456   1.467   3.898  0.8408  0.2312 -0.5260
 6968SOL    HW232364   4.374   1.351   3.944  0.0978  1.5192 -0.3722
 6969SOL     OW32365   1.020   1.751  15.478  0.0427 -0.1602 -0.2825
 6969SOL    HW132366   0.994   1.674  15.428  0.9250 -1.1796  0.8138
 6969SOL    HW232367   0.959   1.816  15.444  0.5509  0.9442  0.9167
 6970SOL     OW32368   0.413   2.717  15.388  0.0339  0.1207  0.1705
 6970SOL    HW132369   0.427   2.812  15.381 -1.7871  0.5374  1.9192
 6970SOL    HW232370   0.353   2.721  15.462 -0.5060  1.1846 -0.3259
 6971SOL     OW32371   0.375   2.713   4.375  0.4254 -0.4155 -0.1742
 6971SOL    HW132372   0.347   2.745   4.290  0.2815  1.0994  0.4415
 6971SOL    HW232373   0.294   2.716   4.427 -1.2201  1.0014 -2.8566
 6972SOL     OW32374   2.852   0.992   6.724 -0.0547  0.7669  0.3411
 6972SOL    HW132375   2.933   1.029   6.759  1.8507 -3.0806  0.0436
 6972SOL    HW232376   2.886   0.933   6.656 -0.9218 -1.0204  1.4499
 6973SOL     OW32377   2.819   1.573   8.885  0.9211  0.2389 -0.5201
 6973SOL    HW132378   2.835   1.479   8.894  2.4922  0.5421 -0.1652
 6973SOL    HW232379   2.894   1.612   8.840  0.9750  0.2084 -0.4576
 6974SOL     OW32380   1.393   1.179  14.118 -0.9799  0.7927 -0.3909
 6974SOL    HW132381   1.413   1.173  14.024  2.2686 -0.6579  0.4072
 6974SOL    HW232382   1.301   1.153  14.125 -0.0089 -2.5028  0.0316
 6975SOL     OW32383   0.470   3.287   8.322 -0.3157 -0.1645  0.1575
 6975SOL    HW132384   0.531   3.348   8.280 -0.3428 -0.6668 -0.6066
 6975SOL    HW232385   0.395   3.279   8.262  1.7797  1.3173 -2.6852
 6976SOL     OW32386   3.936   2.919   2.806  0.1466 -0.0788  0.0563
 6976SOL    HW132387   3.893   2.945   2.724  1.4813  2.3538  0.1069
 6976SOL    HW232388   3.918   2.826   2.794  3.2462 -0.4049 -2.0040
 6977SOL     OW32389   2.805   1.330   1.636 -0.4230  0.4800  0.2228
 6977SOL    HW132390   2.798   1.419   1.669 -0.9524  0.4385  0.2227
 6977SOL    HW232391   2.741   1.336   1.564 -2.6971 -1.6077  2.0784
 6978SOL     OW32392   0.449   4.146  11.190  0.0925 -0.0325  1.0035
 6978SOL    HW132393   0.428   4.233  11.222  0.3848 -0.1761  1.5741
 6978SOL    HW232394   0.482   4.090  11.260  0.9136  0.7954  1.2666
 6979SOL     OW32395   4.166   4.486   5.734 -0.0681  0.3753  0.5536
 6979SOL    HW132396   4.149   4.409   5.678  1.4334  1.1338 -0.9494
 6979SOL    HW232397   4.112   4.477   5.812  2.8190 -0.4623  2.4713
 6980SOL     OW32398   2.039   4.389   8.138  0.1355 -0.4769 -0.7828
 6980SOL    HW132399   2.028   4.298   8.164 -0.3176 -0.4077 -0.7222
 6980SOL    HW232400   1.972   4.396   8.070 -0.5635  2.0943  0.1525
 6981SOL     OW32401   2.804   4.159   4.265  0.7092 -0.0205 -0.5179
 6981SOL    HW132402   2.771   4.248   4.274  1.3645  0.1127  0.7104
 6981SOL    HW232403   2.738   4.118   4.210 -1.6894 -0.2225  2.4880
 6982SOL     OW32404   0.658   3.496   9.448 -0.2901  0.2655  0.0908
 6982SOL    HW132405   0.637   3.575   9.496 -2.0158 -0.3605  0.3570
 6982SOL    HW232406   0.571   3.457   9.435  0.8146 -1.1237 -3.3011
 6983SOL     OW32407   1.733   4.377   6.839 -0.1070 -0.1376 -0.0771
 6983SOL    HW132408   1.825   4.394   6.857  0.3169 -0.7724 -1.6768
 6983SOL    HW232409   1.696   4.466   6.847 -0.6744 -0.3441 -0.3945
 6984SOL     OW32410   2.118   3.171  10.236  0.2432  0.0234  0.7836
 6984SOL    HW132411   2.165   3.146  10.315 -0.4147  1.2831  1.5621
 6984SOL    HW232412   2.029   3.145  10.258  0.4596  0.2334  1.9086
 6985SOL     OW32413   2.722   3.621   8.205  0.6832 -0.4820  0.1038
 6985SOL    HW132414   2.725   3.649   8.297 -1.3156 -0.7520  0.2500
 6985SOL    HW232415   2.634   3.646   8.179  0.8580 -1.3276 -1.3086
 6986SOL     OW32416   4.067   3.919  10.124 -0.4761 -0.7771 -0.0927
 6986SOL    HW132417   4.081   4.011  10.147 -0.1916 -0.7135 -0.5161
 6986SOL    HW232418   4.001   3.900  10.190 -0.7491  0.3245 -0.0546
 6987SOL     OW32419   1.832   0.675  13.774  0.2466 -0.4040 -0.2795
 6987SOL    HW132420   1.905   0.720  13.817  1.1561 -0.1761 -2.0421
 6987SOL    HW232421   1.806   0.758  13.734  1.5337  1.5730  2.9905
 6988SOL     OW32422   3.352   3.603   5.233 -0.0264  0.7009  0.2233
 6988SOL    HW132423   3.415   3.566   5.172  2.9191  3.3278  1.6859
 6988SOL    HW232424   3.387   3.689   5.259  2.0014 -0.5877  1.7503
 6989SOL     OW32425   3.755   4.136   3.438 -0.6537  0.2441  0.2992
 6989SOL    HW132426   3.776   4.048   3.467 -0.8917 -0.4155 -1.5270
 6989SOL    HW232427   3.717   4.172   3.518  2.1405 -1.3995  2.3411
 6990SOL     OW32428   4.500   3.069   3.196 -0.0752  0.2417  0.3454
 6990SOL    HW132429   4.558   3.087   3.122 -0.1156  0.9879  0.4928
 6990SOL    HW232430   4.417   3.106   3.166  0.5113  0.2874 -1.2246
 6991SOL     OW32431   4.689   2.928   6.282 -0.0303 -0.0604  0.5550
 6991SOL    HW132432   0.003   2.917   6.370  0.3586  0.1686  0.4311
 6991SOL    HW232433   0.039   2.886   6.233  0.2397  1.2799 -0.2320
 6992SOL     OW32434   0.159   4.646  12.601  0.4544 -0.0195 -0.2638
 6992SOL    HW132435   0.151   4.567  12.548  1.8840  1.3393 -2.5575
 6992SOL    HW232436   0.224   4.623  12.668 -1.1968 -0.8613  1.0376
 6993SOL     OW32437   0.721   0.376  11.946  0.1140  0.1680  0.5937
 6993SOL    HW132438   0.693   0.300  11.996 -0.8798 -0.3307 -0.7133
 6993SOL    HW232439   0.816   0.369  11.939 -0.2229 -0.1160 -3.8558
 6994SOL     OW32440   4.610   1.107  13.024  0.3882 -0.1015  0.4332
 6994SOL    HW132441   4.562   1.024  13.022 -1.5477  1.0025  0.9530
 6994SOL    HW232442   4.697   1.071  13.040 -0.1908 -1.7840 -0.1751
 6995SOL     OW32443   3.955   2.708   0.842  0.3359  0.1381  0.1309
 6995SOL    HW132444   3.872   2.726   0.799  0.2675 -3.0179 -1.0458
 6995SOL    HW232445   4.012   2.780   0.812  0.7135 -0.0853  0.3104
 6996SOL     OW32446   0.703   0.730  16.162  0.5204  0.0924  0.1700
 6996SOL    HW132447   0.773   0.670  16.138 -0.5110 -1.1997  0.3744
 6996SOL    HW232448   0.710   0.794  16.090 -2.5144  2.5866  2.0572
 6997SOL     OW32449   4.280   2.652  17.681 -0.3540 -0.8812  0.6708
 6997SOL    HW132450   4.201   2.603  17.655  1.9444 -3.4729 -1.3760
 6997SOL    HW232451   4.283   2.715  17.609  0.4689 -0.3803  1.1469
 6998SOL     OW32452   0.229   3.055  11.522 -0.2399  0.4851  1.1537
 6998SOL    HW132453   0.324   3.051  11.516 -0.1197  2.0313  1.9072
 6998SOL    HW232454   0.208   2.962  11.526 -0.3664  0.3724 -2.6083
 6999SOL     OW32455   2.139   2.132   5.448 -0.5515  1.1315 -0.1764
 6999SOL    HW132456   2.115   2.208   5.394  1.9389  0.9349 -1.5615
 6999SOL    HW232457   2.061   2.080   5.430  1.6753 -1.3367 -2.7564
 7000SOL     OW32458   1.400   1.461   6.231 -0.3524 -0.2212  0.7852
 7000SOL    HW132459   1.406   1.467   6.327 -1.2008  3.2691  0.6115
 7000SOL    HW232460   1.364   1.373   6.226 -1.4737  0.3149 -0.5472
 7001SOL     OW32461   1.920   2.464   3.682  0.2889  0.2004  0.9942
 7001SOL    HW132462   1.939   2.551   3.647 -4.8887  1.1197  0.5091
 7001SOL    HW232463   1.980   2.413   3.627 -1.0368  2.1184 -2.2215
 7002SOL     OW32464   2.112   2.720   1.950 -0.3850 -0.5574 -0.4058
 7002SOL    HW132465   2.172   2.656   1.989  1.3717  2.6014  2.0883
 7002SOL    HW232466   2.079   2.748   2.035  1.5098  0.9103 -0.1597
 7003SOL     OW32467   3.689   4.273  16.103  0.1576  0.3919 -0.1078
 7003SOL    HW132468   3.730   4.352  16.066  0.4389 -0.1694 -1.0035
 7003SOL    HW232469   3.760   4.214  16.079  0.0993 -0.4322  1.7575
 7004SOL     OW32470   3.564   2.593   4.314  0.4047  0.2354  0.1796
 7004SOL    HW132471   3.643   2.579   4.262  0.6117  1.8760  0.0669
 7004SOL    HW232472   3.500   2.532   4.275  0.5417 -1.1000  2.0266
 7005SOL     OW32473   0.127   0.074  14.961  0.1099  0.2249 -0.4448
 7005SOL    HW132474   0.044   0.036  14.988  1.7718 -2.0455  1.3707
 7005SOL    HW232475   0.183   0.073  15.038 -0.0672 -3.1856 -0.3728
 7006SOL     OW32476   4.372   3.837   5.950  0.2889  0.1722 -0.0034
 7006SOL    HW132477   4.400   3.798   6.032 -0.8912 -1.5843 -0.4279
 7006SOL    HW232478   4.346   3.929   5.961  2.1513  1.0133 -2.7337
 7007SOL     OW32479   2.073   1.041   3.441  0.1735 -0.0738  0.1028
 7007SOL    HW132480   2.081   1.136   3.451  0.0834  0.1750 -2.1516
 7007SOL    HW232481   2.020   1.028   3.519 -0.9230 -0.0877 -0.6484
 7008SOL     OW32482   1.728   2.777   2.510 -0.5324  0.5028  0.0812
 7008SOL    HW132483   1.794   2.712   2.532  0.4809  1.2247 -0.8388
 7008SOL    HW232484   1.746   2.856   2.561 -1.8043  0.4939  0.5381
 7009SOL     OW32485   0.811   0.389  10.369 -0.1333 -0.4837  0.0098
 7009SOL    HW132486   0.834   0.478  10.344  1.5217 -0.6595  0.9075
 7009SOL    HW232487   0.878   0.371  10.435 -0.5942 -1.0544  0.3266
 7010SOL     OW32488   2.200   2.686   5.759 -0.2534  0.1665 -0.3519
 7010SOL    HW132489   2.269   2.642   5.710 -1.6245 -0.8711 -1.3396
 7010SOL    HW232490   2.260   2.747   5.802  1.7537 -1.5830 -0.7121
 7011SOL     OW32491   4.648   3.282   7.127 -0.9402  0.5113 -0.4044
 7011SOL    HW132492   4.695   3.215   7.077 -1.9449  0.1204 -0.8316
 7011SOL    HW232493   4.698   3.287   7.208 -1.2990  1.0117 -0.2130
 7012SOL     OW32494   2.771   0.344   1.775  0.0265  0.0997  0.0862
 7012SOL    HW132495   2.684   0.383   1.782  1.2183  2.6897  0.5144
 7012SOL    HW232496   2.803   0.396   1.701  1.2209 -0.0616  0.4921
 7013SOL     OW32497   2.144   3.689  10.643  0.2221  0.5722  0.5292
 7013SOL    HW132498   2.123   3.607  10.598  0.8125  0.6089  0.1942
 7013SOL    HW232499   2.128   3.757  10.578 -0.5149  0.5563  0.6916
 7014SOL     OW32500   2.477   1.330   1.953 -0.2032 -0.2215 -0.3480
 7014SOL    HW132501   2.435   1.388   2.017 -0.8159 -2.5863  1.4090
 7014SOL    HW232502   2.454   1.239   1.970 -0.1740 -0.1413  0.1395
 7015SOL     OW32503   4.708   1.356   9.391  0.1271 -0.4934  0.7361
 7015SOL    HW132504   4.613   1.362   9.401  0.0613 -1.5164  0.7415
 7015SOL    HW232505   0.009   1.449   9.396  1.2954 -0.7428  0.2386
 7016SOL     OW32506   2.656   0.364   7.898 -0.1379  0.5044  0.2621
 7016SOL    HW132507   2.633   0.303   7.968 -2.2951  2.2452  1.0309
 7016SOL    HW232508   2.611   0.325   7.822  1.7173 -0.0731 -0.5473
 7017SOL     OW32509   3.876   1.348   7.021 -0.0659 -0.0420  0.2623
 7017SOL    HW132510   3.827   1.360   7.101 -1.0203 -0.6040 -0.2414
 7017SOL    HW232511   3.960   1.387   7.047 -0.0517  1.2867 -1.7728
 7018SOL     OW32512   0.799   2.538  14.897  0.0128 -0.1776  0.2063
 7018SOL    HW132513   0.727   2.599  14.885 -0.0031 -0.4787 -1.2853
 7018SOL    HW232514   0.868   2.590  14.939  1.1582 -1.2006 -0.4075
 7019SOL     OW32515   4.105   1.434  11.118 -0.0255 -0.1656  0.1583
 7019SOL    HW132516   4.012   1.433  11.095  0.0466  1.0791 -0.1872
 7019SOL    HW232517   4.147   1.506  11.072  0.9318  1.2456  3.2358
 7020SOL     OW32518   0.267   4.616   8.415  0.3492  0.5980  0.2392
 7020SOL    HW132519   0.341   4.659   8.373  0.2249 -1.5252 -2.1393
 7020SOL    HW232520   0.312   4.589   8.495 -0.0766  1.1678  0.6752
 7021SOL     OW32521   1.884   4.287   1.111 -0.0746  0.2057  0.1369
 7021SOL    HW132522   1.968   4.326   1.134  0.0172 -1.6223  2.8681
 7021SOL    HW232523   1.832   4.367   1.112 -1.0949 -0.4565  0.1165
 7022SOL     OW32524   0.121   4.026   5.998 -0.4283 -0.2686  0.4650
 7022SOL    HW132525   0.206   3.984   5.981 -0.6314 -0.5225  0.0840
 7022SOL    HW232526   0.153   4.116   5.994  1.3712 -0.8274  1.9235
 7023SOL     OW32527   1.979   2.328  16.175 -0.0234  0.2663  0.4472
 7023SOL    HW132528   2.052   2.343  16.236 -0.6845  3.2644  0.4965
 7023SOL    HW232529   2.023   2.260  16.125 -2.9035 -0.9857 -0.3564
 7024SOL     OW32530   3.348   3.458   3.010 -0.2304  0.4331  0.1746
 7024SOL    HW132531   3.285   3.503   2.954  3.0000  1.7404 -2.4394
 7024SOL    HW232532   3.323   3.475   3.101 -2.1605  3.1369 -0.8756
 7025SOL     OW32533   3.883   2.892   1.564  0.2194  0.0907 -0.8839
 7025SOL    HW132534   3.865   2.932   1.479 -0.5795  0.0970 -0.7147
 7025SOL    HW232535   3.803   2.898   1.616  0.2839 -0.4614 -0.7262
 7026SOL     OW32536   0.566   4.192  11.825 -0.0943 -0.0710 -1.2299
 7026SOL    HW132537   0.610   4.263  11.871 -1.3944 -0.5501  0.7518
 7026SOL    HW232538   0.555   4.129  11.897 -0.7799  1.7737  0.2782
 7027SOL     OW32539   2.243   2.683   3.751 -0.6039 -0.1087 -0.1036
 7027SOL    HW132540   2.304   2.619   3.714 -0.0968 -0.3330  1.1405
 7027SOL    HW232541   2.177   2.689   3.682 -1.1412 -2.4166  0.2076
 7028SOL     OW32542   3.278   0.192  11.154  0.4868 -0.2426 -0.2790
 7028SOL    HW132543   3.323   0.125  11.102  1.8659  1.0287 -0.7122
 7028SOL    HW232544   3.335   0.268  11.145  1.8635 -1.2736 -0.2152
 7029SOL     OW32545   4.612   2.748  17.495 -0.9560 -0.1586 -0.4446
 7029SOL    HW132546   4.705   2.747  17.518 -1.3790  0.7690  1.3385
 7029SOL    HW232547   4.581   2.824  17.544  0.6657  0.4917 -0.4042
 7030SOL     OW32548   2.273   2.748   9.085 -0.3512  0.4183 -0.2158
 7030SOL    HW132549   2.181   2.724   9.086  0.2247 -1.7470  0.0915
 7030SOL    HW232550   2.303   2.663   9.051 -1.5172  0.0645 -0.3467
 7031SOL     OW32551   2.928   4.566   3.125  0.1554 -0.1828  0.5452
 7031SOL    HW132552   2.975   4.648   3.140  0.5053 -0.1280 -0.8626
 7031SOL    HW232553   2.850   4.597   3.079 -1.5446 -3.8016  1.0440
 7032SOL     OW32554   1.102   1.498   8.411  0.6698  0.2592 -0.0082
 7032SOL    HW132555   1.016   1.525   8.443 -0.1948 -0.8907 -1.2992
 7032SOL    HW232556   1.086   1.410   8.375 -2.2725  0.2508  1.3298
 7033SOL     OW32557   3.182   0.523  11.421 -0.3423 -0.4051 -0.7800
 7033SOL    HW132558   3.141   0.603  11.389 -0.6239  0.2906  1.3421
 7033SOL    HW232559   3.190   0.538  11.515 -0.7729  0.4180 -0.8779
 7034SOL     OW32560   2.233   2.784   0.343  0.9350 -0.0332  0.8118
 7034SOL    HW132561   2.169   2.716   0.323  0.3914  0.9164 -0.6769
 7034SOL    HW232562   2.298   2.766   0.275 -0.4712  0.3720 -0.6665
 7035SOL     OW32563   3.134   2.787   4.945  0.1211 -0.1746 -0.3877
 7035SOL    HW132564   3.089   2.870   4.933 -0.4541 -0.5819 -1.0177
 7035SOL    HW232565   3.085   2.727   4.889 -1.3729 -0.9310  1.7434
 7036SOL     OW32566   2.429   4.034   3.927 -0.2125 -0.8301 -0.1227
 7036SOL    HW132567   2.373   3.981   3.985 -0.5374 -0.1767  0.1593
 7036SOL    HW232568   2.510   4.027   3.977  1.3098  0.7123 -2.3757
 7037SOL     OW32569   1.319   2.698   6.113 -0.3585  0.2889  0.7416
 7037SOL    HW132570   1.240   2.750   6.125 -0.2291  0.8075 -0.5811
 7037SOL    HW232571   1.364   2.747   6.044 -1.4555 -1.1395 -1.0142
 7038SOL     OW32572   1.884   1.108  11.363 -0.2271 -0.4459  0.1777
 7038SOL    HW132573   1.914   1.133  11.450  4.2099  0.0487 -1.5105
 7038SOL    HW232574   1.947   1.048  11.323 -0.1882 -0.8962  0.9070
 7039SOL     OW32575   0.949   3.246  11.585 -0.1723  0.3532 -0.5899
 7039SOL    HW132576   0.864   3.219  11.551 -0.9052  2.2650 -0.2409
 7039SOL    HW232577   0.979   3.303  11.514  0.8409 -1.2546 -1.4483
 7040SOL     OW32578   3.108   3.367  11.263  0.1527  0.1780  0.0554
 7040SOL    HW132579   3.172   3.322  11.318  0.1850  0.1623  0.0042
 7040SOL    HW232580   3.144   3.349  11.176  3.3535  0.3063  1.3665
 7041SOL     OW32581   1.595   2.835   9.353 -0.3061 -0.4045  0.8236
 7041SOL    HW132582   1.681   2.817   9.390  0.2261 -2.9515 -1.6127
 7041SOL    HW232583   1.580   2.763   9.290  1.2959 -0.0856  0.0885
 7042SOL     OW32584   0.246   3.231   9.302 -0.0104 -0.1042 -0.8158
 7042SOL    HW132585   0.169   3.259   9.351 -0.7544 -1.8682 -0.9577
 7042SOL    HW232586   0.314   3.226   9.369 -1.2165  0.6810  0.4650
 7043SOL     OW32587   4.054   4.483   0.206 -0.0734 -0.7247  0.6000
 7043SOL    HW132588   4.122   4.429   0.245  1.4513  2.1052  1.8401
 7043SOL    HW232589   3.979   4.423   0.202  0.7092 -1.5094 -2.4878
 7044SOL     OW32590   4.338   3.651   0.914 -0.0693 -0.4125  0.0505
 7044SOL    HW132591   4.422   3.604   0.913  0.8866  1.2954  0.0825
 7044SOL    HW232592   4.366   3.739   0.888  0.0703 -0.3627  0.3724
 7045SOL     OW32593   3.028   0.268  11.134  0.4778 -0.4260 -1.0995
 7045SOL    HW132594   3.060   0.352  11.103  0.2858 -0.7238 -2.1400
 7045SOL    HW232595   3.110   0.229  11.166 -0.1351  0.7115  1.8363
 7046SOL     OW32596   3.855   1.374   2.205  0.3125 -0.1656 -0.2767
 7046SOL    HW132597   3.853   1.331   2.291  3.6650  1.9759  0.8807
 7046SOL    HW232598   3.790   1.445   2.209  0.1059 -0.5212  2.8656
 7047SOL     OW32599   4.553   3.914   1.766 -0.3571 -0.4718 -0.2842
 7047SOL    HW132600   4.538   3.940   1.857  0.3634  0.8971 -0.5461
 7047SOL    HW232601   4.554   3.818   1.765 -0.3051 -0.4900  1.2909
 7048SOL     OW32602   0.117   0.596   4.426  0.6850 -0.0281  0.5943
 7048SOL    HW132603   0.052   0.529   4.405 -0.4476  0.7947  1.4256
 7048SOL    HW232604   0.190   0.539   4.447  1.0331  0.0982 -0.2759
 7049SOL     OW32605   0.285   2.528   0.640 -0.2778 -0.2668  0.6539
 7049SOL    HW132606   0.339   2.607   0.649 -1.0418 -0.0864  3.7601
 7049SOL    HW232607   0.294   2.499   0.731  1.2778  0.2594  0.6592
 7050SOL     OW32608   4.712   0.835   4.331 -0.6831  0.7872 -0.5319
 7050SOL    HW132609   0.046   0.772   4.376 -2.0768  0.4500  0.7183
 7050SOL    HW232610   0.040   0.824   4.250  2.4425 -0.0278  1.4936
 7051SOL     OW32611   2.849   3.506  13.283  0.2512  0.2953  0.4206
 7051SOL    HW132612   2.834   3.553  13.364  1.1854 -1.3377  1.5246
 7051SOL    HW232613   2.940   3.480  13.292 -0.1234 -1.5050 -0.8450
 7052SOL     OW32614   1.806   1.480  10.825  0.0437  0.7860 -0.5102
 7052SOL    HW132615   1.762   1.473  10.740 -0.5437  0.1779 -0.1588
 7052SOL    HW232616   1.776   1.403  10.874  0.1390  0.7998 -0.4300
 7053SOL     OW32617   3.016   1.616  12.331  0.3718  0.4261 -0.0395
 7053SOL    HW132618   2.937   1.636  12.382 -0.1174 -2.6237  0.3870
 7053SOL    HW232619   3.030   1.524  12.353 -0.3658  0.1491 -0.7005
 7054SOL     OW32620   2.771   4.704   6.472 -0.4760  0.3660  0.6817
 7054SOL    HW132621   2.707   0.046   6.440 -2.4228 -2.3744 -0.7854
 7054SOL    HW232622   2.721   4.629   6.502  0.3177 -0.2978  0.3526
 7055SOL     OW32623   2.849   1.423   3.525  0.2093  0.3874  0.0079
 7055SOL    HW132624   2.765   1.383   3.547  1.0725 -0.6467  1.4372
 7055SOL    HW232625   2.895   1.426   3.609 -2.2449  0.0568  1.3927
 7056SOL     OW32626   2.373   0.900   4.107 -0.1159  0.6993  0.1799
 7056SOL    HW132627   2.316   0.909   4.030  0.2686 -2.7011 -0.4986
 7056SOL    HW232628   2.358   0.806   4.118  0.3887  0.1302 -3.7862
 7057SOL     OW32629   4.361   2.882   5.450 -0.6492 -0.1854  0.5505
 7057SOL    HW132630   4.317   2.964   5.428 -0.0294 -0.3081 -1.0968
 7057SOL    HW232631   4.303   2.859   5.522 -2.9233 -2.3361 -1.9746
 7058SOL     OW32632   3.206   1.151   4.167  0.0237 -0.2985  0.1353
 7058SOL    HW132633   3.126   1.118   4.127 -0.6101  2.5545 -0.9624
 7058SOL    HW232634   3.269   1.086   4.138 -1.1921 -0.7862 -1.4098
 7059SOL     OW32635   3.739   1.114   9.450 -0.0448  0.7165  0.3568
 7059SOL    HW132636   3.686   1.167   9.509  0.7614  0.4455  1.3285
 7059SOL    HW232637   3.785   1.180   9.397  2.6241 -1.9229 -0.6415
 7060SOL     OW32638   2.928   3.037   7.895  0.2222  0.2334  0.0411
 7060SOL    HW132639   2.941   2.943   7.908 -2.6821 -0.3146 -0.9158
 7060SOL    HW232640   2.837   3.033   7.866  0.6787  2.0075 -1.6861
 7061SOL     OW32641   4.403   0.154  14.943  0.0635 -0.1049  0.5354
 7061SOL    HW132642   4.370   0.237  14.979  0.7734  0.1211  0.6564
 7061SOL    HW232643   4.457   0.119  15.013 -0.6342 -0.3146  0.9679
 7062SOL     OW32644   2.364   3.927   2.406 -1.4640  0.0299 -0.6878
 7062SOL    HW132645   2.422   3.985   2.455 -1.3837  0.2269 -1.0189
 7062SOL    HW232646   2.402   3.940   2.319  1.7352 -0.7456  0.5938
 7063SOL     OW32647   0.788   2.167   3.482  0.2560  0.1085  0.2770
 7063SOL    HW132648   0.874   2.208   3.487  0.5036 -0.8697  3.8601
 7063SOL    HW232649   0.783   2.108   3.558 -1.6556  0.4347  0.4011
 7064SOL     OW32650   0.585   4.263   2.550  0.7885 -0.0306  0.0528
 7064SOL    HW132651   0.616   4.195   2.610 -1.0530 -0.5352  0.4466
 7064SOL    HW232652   0.644   4.335   2.574  1.0505 -0.4478  0.6697
 7065SOL     OW32653   4.348   2.125  10.267 -0.1529 -0.0961  0.7322
 7065SOL    HW132654   4.314   2.091  10.184  1.3609 -1.1265  0.5351
 7065SOL    HW232655   4.407   2.194  10.238  0.1222 -0.9320 -0.7082
 7066SOL     OW32656   0.148   2.426   1.637  0.1056  0.1894 -0.2827
 7066SOL    HW132657   0.112   2.476   1.710  0.0900  1.6453 -1.2818
 7066SOL    HW232658   0.231   2.393   1.672 -1.3325 -2.3577  0.7549
 7067SOL     OW32659   2.071   3.786   6.456 -0.0224  0.4709 -0.0559
 7067SOL    HW132660   1.995   3.773   6.400 -0.1202 -0.3475  0.2674
 7067SOL    HW232661   2.138   3.726   6.421  0.4970  1.0540 -0.0596
 7068SOL     OW32662   4.672   1.270   4.069 -0.4442  0.2538 -0.4172
 7068SOL    HW132663   4.595   1.326   4.080  0.4255  1.1782  0.9389
 7068SOL    HW232664   4.635   1.183   4.056 -0.8596  0.4869 -0.8350
 7069SOL     OW32665   3.065   4.355   2.278 -0.1458 -0.3935 -0.3661
 7069SOL    HW132666   3.004   4.428   2.293 -0.4792 -0.5805 -0.8241
 7069SOL    HW232667   3.115   4.361   2.359 -0.3170 -1.4754 -0.1874
 7070SOL     OW32668   3.290   4.071   2.134 -0.1003 -0.6174 -0.4632
 7070SOL    HW132669   3.272   4.043   2.224  1.1360  1.6144  0.4659
 7070SOL    HW232670   3.285   3.983   2.096  2.8295 -0.7539 -0.5214
 7071SOL     OW32671   0.948   2.337  14.397 -0.0710 -0.3323  0.2418
 7071SOL    HW132672   0.981   2.390  14.324  1.0878  0.1338  1.0919
 7071SOL    HW232673   0.918   2.258  14.352  0.8819 -1.6075  1.8431
 7072SOL     OW32674   0.220   3.888   8.453 -0.2298 -0.0148  0.4301
 7072SOL    HW132675   0.139   3.938   8.446 -0.5586 -0.7694 -0.9941
 7072SOL    HW232676   0.185   3.803   8.480  1.2146 -1.1685 -1.3602
 7073SOL     OW32677   2.645   3.241  10.885  0.2980 -0.1397  0.3787
 7073SOL    HW132678   2.658   3.157  10.841 -0.5555  0.6730 -1.4126
 7073SOL    HW232679   2.734   3.272  10.905 -0.2191  0.3793  1.9148
 7074SOL     OW32680   2.855   2.471  15.912 -0.8510 -0.0199 -0.5794
 7074SOL    HW132681   2.794   2.456  15.984  0.0427 -1.3246 -0.1180
 7074SOL    HW232682   2.818   2.545  15.864 -1.6707  0.9135  1.4929
 7075SOL     OW32683   2.390   3.261  14.689  0.0118 -0.0314  0.2883
 7075SOL    HW132684   2.332   3.320  14.640 -0.2159  0.5350  1.2341
 7075SOL    HW232685   2.363   3.180  14.645  0.0203  1.3760 -2.2939
 7076SOL     OW32686   2.960   0.717  10.253 -0.2132 -0.5630 -0.0618
 7076SOL    HW132687   2.956   0.785  10.320 -0.7450  0.3671 -1.0409
 7076SOL    HW232688   2.878   0.670  10.268  1.7606 -3.3863  1.9570
 7077SOL     OW32689   4.061   1.202  10.093  0.0424  0.1069 -0.5439
 7077SOL    HW132690   4.026   1.249  10.016 -0.0964  1.6478  0.4643
 7077SOL    HW232691   4.142   1.163  10.062  0.0832 -0.8162  0.7537
 7078SOL     OW32692   1.145   3.673   7.236  0.0648  0.2022 -0.2094
 7078SOL    HW132693   1.095   3.599   7.270 -2.6757  1.8197 -0.7071
 7078SOL    HW232694   1.126   3.740   7.302 -3.7410  2.3919 -3.4955
 7079SOL     OW32695   3.454   0.474   5.992 -0.4922 -0.3375  0.2180
 7079SOL    HW132696   3.471   0.386   6.027 -1.6277 -0.2719  0.9299
 7079SOL    HW232697   3.540   0.507   6.017 -0.5722 -1.2089  1.6280
 7080SOL     OW32698   1.853   0.219  12.581  0.6349  0.5828  0.1933
 7080SOL    HW132699   1.776   0.189  12.531  0.6146  1.7528 -0.4827
 7080SOL    HW232700   1.827   0.198  12.671 -0.9676  1.4264 -0.0572
 7081SOL     OW32701   1.481   0.866   0.269  0.1955  0.6182  0.1786
 7081SOL    HW132702   1.484   0.926   0.343 -0.8923  0.0574  0.6817
 7081SOL    HW232703   1.395   0.823   0.273  0.4057  0.4701  2.6462
 7082SOL     OW32704   2.323   2.615   4.362 -0.1169 -0.2392  0.0470
 7082SOL    HW132705   2.266   2.548   4.399 -1.4632 -0.0386 -1.6609
 7082SOL    HW232706   2.324   2.593   4.269 -4.3773 -2.3088  0.4900
 7083SOL     OW32707   1.108   3.535   6.545 -0.3285  0.1534 -0.1773
 7083SOL    HW132708   1.119   3.535   6.450 -1.5958 -0.0166 -0.3350
 7083SOL    HW232709   1.197   3.535   6.578  0.1091  0.9914 -1.3565
 7084SOL     OW32710   0.890   4.430   7.519 -0.2150  0.0691 -0.2546
 7084SOL    HW132711   0.915   4.469   7.435 -0.8079 -0.8311 -0.8416
 7084SOL    HW232712   0.965   4.455   7.574  0.7967  1.9297 -2.4863
 7085SOL     OW32713   4.270   4.011   4.611  0.3822 -0.5716  0.1920
 7085SOL    HW132714   4.304   3.963   4.687 -2.0753 -1.6148  0.6068
 7085SOL    HW232715   4.176   3.998   4.622  0.2297 -1.0040 -1.7307
 7086SOL     OW32716   1.436   0.524   8.192 -0.2203 -0.1478 -0.3176
 7086SOL    HW132717   1.481   0.580   8.254 -0.5427 -0.2816  0.0389
 7086SOL    HW232718   1.458   0.564   8.108  0.5266 -0.7400 -0.4077
 7087SOL     OW32719   0.710   0.102  14.303  0.4488 -0.1637 -0.0251
 7087SOL    HW132720   0.787   0.087  14.248 -0.0367  2.6580 -1.4686
 7087SOL    HW232721   0.732   0.191  14.332  1.3257 -0.2322 -0.4869
 7088SOL     OW32722   2.253   1.292   5.547 -0.8442 -0.9918 -0.0163
 7088SOL    HW132723   2.158   1.295   5.554 -0.7652  1.1059  0.1871
 7088SOL    HW232724   2.265   1.242   5.466 -1.2443 -2.8642  1.0763
 7089SOL     OW32725   0.005   0.075   1.555  0.1438  0.0050  0.3190
 7089SOL    HW132726   4.642   0.107   1.588  0.1818 -0.9106  1.3248
 7089SOL    HW232727   4.702   4.711   1.517  0.3967 -0.8176  1.9658
 7090SOL     OW32728   0.919   4.202   7.378 -0.8306 -0.1618  0.5347
 7090SOL    HW132729   0.877   4.241   7.302  1.4564  1.1163 -0.0564
 7090SOL    HW232730   0.924   4.274   7.442 -0.4347 -0.1367  0.4759
 7091SOL     OW32731   0.728   4.311   9.170  0.7147 -0.4877 -0.0515
 7091SOL    HW132732   0.687   4.366   9.237 -1.2798 -1.0608 -0.7917
 7091SOL    HW232733   0.723   4.221   9.203  1.1062 -0.1641  0.8922
 7092SOL     OW32734   0.290   2.143  15.957 -0.4161  0.3316 -0.2312
 7092SOL    HW132735   0.255   2.055  15.967  2.7972 -0.7714  1.3676
 7092SOL    HW232736   0.256   2.173  15.872  1.9282  3.3357 -0.0925
 7093SOL     OW32737   0.958   1.230  15.816  0.1384 -0.2069 -0.2959
 7093SOL    HW132738   0.870   1.197  15.798  0.9058 -3.0345  1.1061
 7093SOL    HW232739   0.985   1.266  15.732 -1.4293 -1.7179 -1.4394
 7094SOL     OW32740   3.699   1.075   8.826  0.1538  0.4493 -0.5297
 7094SOL    HW132741   3.673   1.031   8.745 -1.4182  2.7258 -1.2741
 7094SOL    HW232742   3.787   1.106   8.804  1.0097 -1.2909  0.4368
 7095SOL     OW32743   3.011   0.528   5.099  0.2548  0.1776  0.8898
 7095SOL    HW132744   3.034   0.619   5.120  1.5463 -0.0833  0.5632
 7095SOL    HW232745   3.086   0.505   5.045  1.1485  2.7546  1.0289
 7096SOL     OW32746   3.869   2.571   1.205 -0.0917 -0.4759  0.1064
 7096SOL    HW132747   3.903   2.499   1.151  0.4864 -0.8506  0.9885
 7096SOL    HW232748   3.912   2.647   1.165  0.2090 -0.6602  0.0810
 7097SOL     OW32749   1.005   2.341   4.223  0.0675  0.2867  0.1841
 7097SOL    HW132750   0.968   2.253   4.232 -0.9260  0.8284  1.3620
 7097SOL    HW232751   1.013   2.344   4.127 -1.0316  0.0076  0.0835
 7098SOL     OW32752   3.898   3.335  12.822 -0.1886  0.0801  0.0584
 7098SOL    HW132753   3.806   3.309  12.821  0.2381 -1.5144  2.0135
 7098SOL    HW232754   3.939   3.252  12.847  1.1207  0.8620  0.5321
 7099SOL     OW32755   1.402   4.064   9.995 -0.1237 -0.2218 -0.3476
 7099SOL    HW132756   1.450   4.044  10.075  0.4887 -1.7191 -1.1022
 7099SOL    HW232757   1.453   4.024   9.925  0.5321 -0.5874  0.3470
 7100SOL     OW32758   1.738   0.791  15.714 -0.2614 -0.1686  0.2743
 7100SOL    HW132759   1.747   0.811  15.807 -0.5666 -1.9403  0.6971
 7100SOL    HW232760   1.822   0.768  15.675  1.1046  0.3485  2.9159
 7101SOL     OW32761   0.595   0.138  12.062 -0.2137 -0.4562 -0.1542
 7101SOL    HW132762   0.611   0.141  12.157  1.3434  2.1242 -0.4624
 7101SOL    HW232763   0.592   0.045  12.044 -0.6449 -0.2278 -1.2392
 7102SOL     OW32764   0.104   2.067  15.135 -0.4047  0.7566 -0.0028
 7102SOL    HW132765   0.109   2.156  15.099 -2.7491  0.5282 -0.8808
 7102SOL    HW232766   0.189   2.032  15.107 -0.6698 -0.8266  1.1569
 7103SOL     OW32767   4.218   3.794  14.764  0.5139  0.2619  0.4075
 7103SOL    HW132768   4.140   3.779  14.818 -0.0828 -3.6717 -1.5346
 7103SOL    HW232769   4.248   3.883  14.783  2.4153 -0.2592 -0.2334
 7104SOL     OW32770   2.611   4.381   3.800  0.3417 -0.1944  0.0549
 7104SOL    HW132771   2.542   4.439   3.832  0.2533  0.6243 -1.6597
 7104SOL    HW232772   2.670   4.437   3.749 -0.8761  2.4547  1.5893
 7105SOL     OW32773   3.745   2.529   0.639  0.0834 -0.1296 -0.3342
 7105SOL    HW132774   3.655   2.495   0.640  0.0399 -0.0602 -1.9581
 7105SOL    HW232775   3.735   2.620   0.612 -2.0809 -1.6622 -4.7100
 7106SOL     OW32776   2.197   2.326   5.994 -0.4550 -0.0342 -0.1150
 7106SOL    HW132777   2.248   2.263   6.046  1.2572  1.5884  0.1582
 7106SOL    HW232778   2.261   2.355   5.930  0.8258 -0.9052  0.7520
 7107SOL     OW32779   3.517   2.093   1.159 -0.1821 -0.2615 -0.1209
 7107SOL    HW132780   3.517   2.001   1.135 -4.5723 -0.8368  2.0738
 7107SOL    HW232781   3.432   2.095   1.203 -0.0817  0.5378  0.0452
 7108SOL     OW32782   1.266   0.428   4.695 -0.1336  0.4906 -0.9730
 7108SOL    HW132783   1.213   0.411   4.773  2.4438  1.3521  0.9656
 7108SOL    HW232784   1.330   0.486   4.735 -2.1761  2.2734 -0.2818
 7109SOL     OW32785   2.015   1.466   3.285 -0.1172 -0.3124 -0.2173
 7109SOL    HW132786   2.018   1.403   3.357 -0.8325  0.3386  0.3890
 7109SOL    HW232787   1.993   1.404   3.215 -0.2288  0.5696 -0.9553
 7110SOL     OW32788   2.424   4.666  15.242  0.1457  0.6788  0.0724
 7110SOL    HW132789   2.432   0.000  15.320  0.2238  0.6976  0.0507
 7110SOL    HW232790   2.460   4.714  15.168  1.1311  1.3036  0.9518
 7111SOL     OW32791   2.762   1.959   6.012 -0.1359  0.3778 -0.0252
 7111SOL    HW132792   2.854   1.975   6.031 -0.5282  1.7508  0.7564
 7111SOL    HW232793   2.719   1.945   6.096  1.8454  0.1634  0.9323
 7112SOL     OW32794   2.771   2.634   9.830  0.6885 -0.0883 -0.2374
 7112SOL    HW132795   2.781   2.617   9.924  2.5870 -0.7703 -0.5548
 7112SOL    HW232796   2.697   2.694   9.827  0.0271 -0.8595  0.6222
 7113SOL     OW32797   3.021   2.209   5.108  1.0454  0.9097 -0.1612
 7113SOL    HW132798   2.987   2.242   5.024  1.1145  0.7921 -0.2354
 7113SOL    HW232799   3.099   2.261   5.127  0.1297  2.5892 -0.9522
 7114SOL     OW32800   2.527   2.204  14.224 -0.0188  0.5508  0.6300
 7114SOL    HW132801   2.499   2.258  14.298 -1.1115  1.0190 -0.1268
 7114SOL    HW232802   2.451   2.146  14.226  1.0089 -0.7522  1.3490
 7115SOL     OW32803   3.159   3.607   5.900  0.6321  0.5560 -0.6173
 7115SOL    HW132804   3.168   3.629   5.993 -1.9770 -0.1233 -0.2118
 7115SOL    HW232805   3.092   3.669   5.874  1.2581  1.0299 -1.1144
 7116SOL     OW32806   4.412   1.445  13.641 -0.3325 -0.3748  0.6314
 7116SOL    HW132807   4.408   1.434  13.546 -1.3017 -0.8749  0.7293
 7116SOL    HW232808   4.477   1.377  13.658  1.5181  0.4248 -3.3606
 7117SOL     OW32809   1.280   1.422   2.813 -0.0105  0.3986  0.3150
 7117SOL    HW132810   1.221   1.394   2.744  0.7044 -2.4880  0.8684
 7117SOL    HW232811   1.364   1.407   2.768  0.0698 -0.8735  0.8970
 7118SOL     OW32812   3.202   0.703   5.501 -0.0981 -0.0418 -0.0746
 7118SOL    HW132813   3.204   0.619   5.547 -0.9227 -0.3668 -0.6525
 7118SOL    HW232814   3.233   0.772   5.560 -0.2341 -0.7560  0.8285
 7119SOL     OW32815   0.744   2.000   0.593 -0.2000 -0.1042  0.1016
 7119SOL    HW132816   0.713   2.090   0.598  3.9378  1.2368  1.7439
 7119SOL    HW232817   0.794   2.004   0.512  0.0815  0.4642  0.3060
 7120SOL     OW32818   4.346   4.111   6.061  0.2112  0.2122 -0.1218
 7120SOL    HW132819   4.415   4.178   6.061 -1.0537  1.4994  0.2067
 7120SOL    HW232820   4.314   4.113   6.150  0.1880 -1.3170 -0.0887
 7121SOL     OW32821   2.724   2.250   6.222  0.5480  0.0027  0.3571
 7121SOL    HW132822   2.741   2.177   6.282  1.5377  0.2902  0.4257
 7121SOL    HW232823   2.764   2.316   6.280  0.1037 -0.9058  1.7011
 7122SOL     OW32824   4.157   1.057   2.997  0.2582 -0.0208 -0.1911
 7122SOL    HW132825   4.103   1.100   3.064  0.7833  1.2636 -0.5904
 7122SOL    HW232826   4.086   1.035   2.937 -1.4051  1.9921  1.0045
 7123SOL     OW32827   1.122   1.231  14.116 -0.1129  0.3264  0.1142
 7123SOL    HW132828   1.058   1.256  14.183  3.3892  4.3697  1.8933
 7123SOL    HW232829   1.178   1.304  14.091  0.1920 -0.6843 -2.2227
 7124SOL     OW32830   4.066   1.894  11.415  0.1536  0.3193  0.2842
 7124SOL    HW132831   4.009   1.876  11.490  1.8775  1.1716  1.7884
 7124SOL    HW232832   4.150   1.867  11.451  0.4376  1.0832  0.1885
 7125SOL     OW32833   0.851   4.324  16.766 -0.6872 -0.5544  0.2501
 7125SOL    HW132834   0.922   4.318  16.831  1.2590  1.4917 -1.6888
 7125SOL    HW232835   0.841   4.233  16.740  1.2830 -1.3814  2.3484
 7126SOL     OW32836   3.525   2.455  10.928 -0.4778  0.1263 -0.0524
 7126SOL    HW132837   3.565   2.385  10.979  1.1016  1.8645  1.1093
 7126SOL    HW232838   3.593   2.523  10.925 -0.3954  0.0940  1.2694
 7127SOL     OW32839   2.285   0.690   5.828  0.2628 -0.0334  0.6422
 7127SOL    HW132840   2.369   0.684   5.873  1.2031 -0.9348 -1.2223
 7127SOL    HW232841   2.299   0.616   5.769  1.5063 -0.1882  1.1412
 7128SOL     OW32842   2.004   2.637   7.735  0.3273 -0.5897  0.1339
 7128SOL    HW132843   2.075   2.602   7.789 -0.2017  0.3347  1.4275
 7128SOL    HW232844   1.950   2.558   7.722 -1.3155  1.0366 -2.9198
 7129SOL     OW32845   4.633   3.194   0.954  0.3962  0.5474 -0.5822
 7129SOL    HW132846   4.602   3.104   0.951  1.6452  0.0450  1.5585
 7129SOL    HW232847   4.663   3.200   1.044  0.5528 -3.6113 -0.3964
 7130SOL     OW32848   1.980   0.293   4.579  0.4743 -0.4189  0.6041
 7130SOL    HW132849   1.942   0.363   4.527 -0.5915 -1.3494  0.1303
 7130SOL    HW232850   2.061   0.277   4.531  1.0040 -0.2623  1.4422
 7131SOL     OW32851   0.666   1.859   5.752 -0.2942 -0.2739  0.3925
 7131SOL    HW132852   0.726   1.789   5.780 -2.5136 -1.5470  1.9711
 7131SOL    HW232853   0.613   1.815   5.686  1.4758 -0.1202 -1.1428
 7132SOL     OW32854   4.672   2.013   3.652 -0.1376  0.2261  0.0708
 7132SOL    HW132855   4.714   2.078   3.596  2.0491  0.0032  1.4224
 7132SOL    HW232856   4.704   1.933   3.611  0.2660  0.0225  0.7776
 7133SOL     OW32857   1.284   3.447   1.582  0.0454 -0.2537  0.4536
 7133SOL    HW132858   1.304   3.497   1.503 -3.1453  2.0174  1.1131
 7133SOL    HW232859   1.366   3.466   1.627 -1.3096  4.1992  1.0574
 7134SOL     OW32860   1.212   1.105   4.748 -0.1216  0.0910  0.2482
 7134SOL    HW132861   1.264   1.171   4.793  1.4689 -1.3090  0.4517
 7134SOL    HW232862   1.183   1.050   4.820  0.3876  1.4720  1.4972
 7135SOL     OW32863   3.155   3.051   6.119  0.3755 -0.7079 -0.6936
 7135SOL    HW132864   3.124   2.966   6.151  2.7920 -0.7749  1.4924
 7135SOL    HW232865   3.066   3.087   6.121  0.4423 -0.6069  0.6689
 7136SOL     OW32866   1.570   0.102   8.744 -0.4329 -0.4790  0.0680
 7136SOL    HW132867   1.530   0.025   8.784 -1.0866 -0.3832 -0.3987
 7136SOL    HW232868   1.497   0.164   8.740  1.0155  1.2868  0.8432
 7137SOL     OW32869   3.533   2.578   3.819  0.4780 -0.0316 -0.1220
 7137SOL    HW132870   3.540   2.645   3.887  0.0954 -1.5195  1.4005
 7137SOL    HW232871   3.550   2.498   3.868 -2.0856 -0.3943  0.2114
 7138SOL     OW32872   2.552   3.432   4.486  0.3596 -0.2717  0.3354
 7138SOL    HW132873   2.584   3.414   4.398  1.3799  2.5854  0.1241
 7138SOL    HW232874   2.469   3.385   4.478  0.4756 -0.7053  1.6121
 7139SOL     OW32875   1.398   1.607   4.312 -0.8274  0.1091  0.2692
 7139SOL    HW132876   1.408   1.678   4.249 -1.8262  0.4688  0.5113
 7139SOL    HW232877   1.428   1.663   4.383 -0.8416 -0.5540  0.8011
 7140SOL     OW32878   2.354   3.559   1.918 -0.1664  0.1970  0.1895
 7140SOL    HW132879   2.428   3.620   1.925  0.4231 -0.7111  1.7693
 7140SOL    HW232880   2.330   3.557   1.825 -1.9716  0.1326  0.6608
 7141SOL     OW32881   3.094   2.783   3.572  0.1517 -0.2942  0.2479
 7141SOL    HW132882   3.087   2.795   3.667  0.5754 -1.0344  0.3757
 7141SOL    HW232883   3.131   2.695   3.584 -0.1943 -0.5094 -0.2596
 7142SOL     OW32884   4.676   3.407  17.477 -0.2513  0.5732 -0.1510
 7142SOL    HW132885   4.628   3.416  17.395 -1.9497 -1.5575  0.5962
 7142SOL    HW232886   4.619   3.352  17.532 -0.0225 -0.9143 -1.3992
 7143SOL     OW32887   3.774   3.173   8.245  0.0992 -0.3410 -0.6651
 7143SOL    HW132888   3.757   3.236   8.315  0.0434 -1.0859 -0.0063
 7143SOL    HW232889   3.858   3.205   8.211  0.5142 -1.2857 -0.5409
 7144SOL     OW32890   4.638   0.623  17.251 -0.4571  1.2357 -0.0276
 7144SOL    HW132891   4.619   0.569  17.174  0.7874 -0.5846  0.9472
 7144SOL    HW232892   0.012   0.624  17.253 -0.4496  1.1820 -0.4429
 7145SOL     OW32893   3.485   3.332   5.185  0.0075 -0.5074  0.2246
 7145SOL    HW132894   3.405   3.281   5.174 -0.2121 -0.3594  1.1589
 7145SOL    HW232895   3.502   3.368   5.097 -2.2217  0.1006  0.0323
 7146SOL     OW32896   0.812   1.431   4.715  0.6087  0.3057  0.3062
 7146SOL    HW132897   0.716   1.424   4.717  0.6674 -0.4383  0.5343
 7146SOL    HW232898   0.843   1.346   4.683  1.8626  0.5755  0.8216
 7147SOL     OW32899   1.150   0.771  11.478 -0.4275  0.7132  0.7898
 7147SOL    HW132900   1.241   0.744  11.494 -0.0734  2.1138  1.0840
 7147SOL    HW232901   1.145   0.857  11.519 -0.2851  1.8849 -1.6981
 7148SOL     OW32902   0.817   2.492   4.042  0.1231 -0.1025 -0.0016
 7148SOL    HW132903   0.738   2.543   4.055  1.0309  1.9375 -2.5965
 7148SOL    HW232904   0.826   2.475   4.136  0.5794  0.1616  0.0031
 7149SOL     OW32905   4.559   3.382   1.846 -0.5104 -0.0137 -0.1857
 7149SOL    HW132906   4.629   3.376   1.910 -1.4321  0.1355  0.8384
 7149SOL    HW232907   4.490   3.342   1.899  0.4546 -0.2835  0.8692
 7150SOL     OW32908   1.164   1.627  12.890  0.0401 -0.0782 -0.4548
 7150SOL    HW132909   1.198   1.700  12.942  1.6216  1.6834 -4.0027
 7150SOL    HW232910   1.232   1.559  12.900  0.5697  0.7425  1.7191
 7151SOL     OW32911   2.905   2.438   9.003  0.3514  0.1969 -0.7852
 7151SOL    HW132912   2.976   2.377   8.984  1.5072  1.2634  0.1603
 7151SOL    HW232913   2.837   2.371   9.001  0.9690 -0.3682 -2.5472
 7152SOL     OW32914   0.081   3.418   1.612  0.2462 -0.2627 -0.0569
 7152SOL    HW132915   0.023   3.486   1.646  0.4851 -2.1288  4.0636
 7152SOL    HW232916   0.104   3.436   1.521  2.0943  1.3961  0.7423
 7153SOL     OW32917   3.949   2.192   3.387 -0.0964 -0.1255 -0.5303
 7153SOL    HW132918   4.033   2.236   3.375  0.1551 -0.8070 -1.2974
 7153SOL    HW232919   3.964   2.098   3.377 -0.2112 -0.2436  0.4006
 7154SOL     OW32920   1.501   3.684   7.872  0.1088  0.3119  0.0428
 7154SOL    HW132921   1.476   3.747   7.804 -0.6621 -1.3699 -1.2325
 7154SOL    HW232922   1.468   3.716   7.956 -0.0536 -1.0288  0.4777
 7155SOL     OW32923   4.182   4.546   2.906 -0.4648 -0.2669 -0.0517
 7155SOL    HW132924   4.274   4.531   2.930 -0.0191 -0.3416 -1.8054
 7155SOL    HW232925   4.179   4.641   2.901  1.0315 -0.1318  1.3974
 7156SOL     OW32926   4.273   1.809   7.141  0.4560  0.1869  0.2602
 7156SOL    HW132927   4.359   1.773   7.124 -0.0916 -1.0810  0.1721
 7156SOL    HW232928   4.301   1.882   7.197  1.9160 -1.0936  1.1747
 7157SOL     OW32929   1.593   3.388   3.500 -0.0263 -0.2379  0.0475
 7157SOL    HW132930   1.684   3.417   3.506 -0.6886  1.2696  2.9931
 7157SOL    HW232931   1.567   3.360   3.588 -2.3930 -0.4540 -0.7140
 7158SOL     OW32932   3.140   0.072  11.478 -0.1653  0.1013  0.0311
 7158SOL    HW132933   3.129   0.038  11.567 -1.1813  1.0102  0.2575
 7158SOL    HW232934   3.149   4.715  11.424 -2.7429  0.7081 -1.2517
 7159SOL     OW32935   3.437   2.138  12.025  0.2029  0.1676  0.3092
 7159SOL    HW132936   3.447   2.233  12.017  1.6145  0.2190  2.4247
 7159SOL    HW232937   3.524   2.118  11.989  0.0048 -1.6206  0.8085
 7160SOL     OW32938   3.241   2.641   8.808 -0.3503  0.4103  0.0934
 7160SOL    HW132939   3.310   2.621   8.745 -1.0352  1.8828 -1.1300
 7160SOL    HW232940   3.227   2.734   8.791  0.0482  0.5415  0.4652
 7161SOL     OW32941   4.411   0.221   4.025 -0.5931  0.6293  0.1924
 7161SOL    HW132942   4.370   0.146   3.980  0.0918  2.1696 -2.9803
 7161SOL    HW232943   4.393   0.207   4.117  0.5099 -1.6325  0.0675
 7162SOL     OW32944   0.199   0.190   2.748  0.0149  0.1213 -0.8146
 7162SOL    HW132945   0.168   0.250   2.679 -1.6241 -0.9452 -1.0063
 7162SOL    HW232946   0.193   0.243   2.827 -1.3863  0.4804 -1.1654
 7163SOL     OW32947   2.356   1.928  12.338  0.3400  0.3987  0.1330
 7163SOL    HW132948   2.391   2.007  12.297  0.9367  0.1361  0.1457
 7163SOL    HW232949   2.339   1.876  12.259  0.3137  0.7010 -0.0613
 7164SOL     OW32950   1.768   2.619   0.759  0.0029  0.5504 -0.0128
 7164SOL    HW132951   1.787   2.556   0.828 -0.6889  0.2808 -0.0620
 7164SOL    HW232952   1.861   2.634   0.744  0.1484  1.8396  2.2440
 7165SOL     OW32953   2.683   3.087   3.197 -0.7626  0.3763  0.4009
 7165SOL    HW132954   2.711   3.102   3.106  1.4588 -0.6494  0.9188
 7165SOL    HW232955   2.734   3.010   3.222 -0.8136  0.4836  0.8225
 7166SOL     OW32956   3.677   2.108   2.308 -0.5535  0.3363 -0.1256
 7166SOL    HW132957   3.668   2.120   2.213  1.2240 -1.4322 -0.5108
 7166SOL    HW232958   3.592   2.066   2.322  0.3690 -1.8343 -1.1871
 7167SOL     OW32959   0.360   4.454   6.157 -0.2802 -0.2494  0.5122
 7167SOL    HW132960   0.452   4.427   6.155  0.0674  0.9721 -0.1224
 7167SOL    HW232961   0.361   4.533   6.211 -1.0696 -0.6257  1.0807
 7168SOL     OW32962   3.178   3.986  11.614  0.0986  0.1953  0.3078
 7168SOL    HW132963   3.121   4.034  11.554  1.5060  1.6942  0.1948
 7168SOL    HW232964   3.250   4.039  11.647  2.0354 -0.8813 -2.2299
 7169SOL     OW32965   2.128   4.168   5.613 -0.5336 -0.1644 -0.1926
 7169SOL    HW132966   2.060   4.178   5.547 -0.0215  0.7578 -0.5814
 7169SOL    HW232967   2.072   4.167   5.691 -1.7723 -3.0803 -1.1054
 7170SOL     OW32968   2.853   3.683  13.513 -0.0756 -0.5319 -0.2529
 7170SOL    HW132969   2.882   3.704  13.602 -0.0625 -0.3593 -0.2962
 7170SOL    HW232970   2.803   3.763  13.496 -0.6466 -0.6901  0.6711
 7171SOL     OW32971   3.474   0.950   9.402 -0.2743  0.2959 -0.0709
 7171SOL    HW132972   3.557   0.998   9.393 -0.1436 -0.0500 -0.6421
 7171SOL    HW232973   3.416   1.018   9.368 -0.9923 -1.4928 -2.4059
 7172SOL     OW32974   3.407   3.438   8.901 -1.0976  0.5615 -0.1832
 7172SOL    HW132975   3.441   3.349   8.894  1.5026  1.6146 -1.2054
 7172SOL    HW232976   3.378   3.447   8.992  3.8097 -0.2496  1.4605
 7173SOL     OW32977   1.952   1.865   3.330  1.0343 -0.3246  0.0273
 7173SOL    HW132978   2.040   1.869   3.293  1.4330  1.7326  1.1801
 7173SOL    HW232979   1.916   1.947   3.297 -1.2443 -1.5648 -0.5108
 7174SOL     OW32980   1.132   3.068   4.298 -0.0354 -0.2242  0.4471
 7174SOL    HW132981   1.165   3.147   4.256 -1.9523  0.2952 -0.1074
 7174SOL    HW232982   1.198   3.063   4.367  0.0286  1.2634  0.4867
 7175SOL     OW32983   3.099   2.625   7.520 -0.0020  0.2688  0.9673
 7175SOL    HW132984   3.067   2.712   7.546 -1.5302 -0.1356  0.4297
 7175SOL    HW232985   3.145   2.608   7.602 -2.4443 -0.6989  2.1285
 7176SOL     OW32986   3.367   3.256  10.802 -0.4130  0.0517 -0.7349
 7176SOL    HW132987   3.410   3.193  10.859  2.4080  1.4787 -1.2413
 7176SOL    HW232988   3.439   3.261  10.738  0.2395 -1.4502 -0.1187
 7177SOL     OW32989   0.758   4.350  14.654 -0.5619  0.2446 -0.2281
 7177SOL    HW132990   0.736   4.260  14.629  2.7769 -0.8448  0.7355
 7177SOL    HW232991   0.854   4.349  14.649 -0.3516 -0.7431  3.9262
 7178SOL     OW32992   2.782   4.298   7.782 -0.5435 -0.1425 -0.4264
 7178SOL    HW132993   2.714   4.360   7.809 -1.2282 -2.2037  2.6157
 7178SOL    HW232994   2.738   4.259   7.706  2.7276 -0.7365 -2.0009
 7179SOL     OW32995   3.043   3.654   6.611 -0.2639 -0.0612 -0.2997
 7179SOL    HW132996   3.092   3.643   6.693 -0.2418 -1.9993 -0.5684
 7179SOL    HW232997   2.965   3.701   6.637 -0.9207 -0.4675 -1.5173
 7180SOL     OW32998   0.648   1.390   7.038 -0.0356 -0.6355 -0.1026
 7180SOL    HW132999   0.712   1.455   7.065 -0.6071 -0.8982  1.8467
 7180SOL    HW233000   0.678   1.372   6.949  0.8813 -3.2861  0.7264
 7181SOL     OW33001   1.253   2.334  10.125 -0.2023 -0.5448 -0.0229
 7181SOL    HW133002   1.294   2.408  10.170 -1.3342  1.4368 -2.2362
 7181SOL    HW233003   1.255   2.265  10.191 -0.3041 -0.2764  0.2603
 7182SOL     OW33004   0.047   3.638   2.271 -0.2155  0.1282 -0.1231
 7182SOL    HW133005   0.060   3.665   2.362 -1.2734 -2.5805  0.8622
 7182SOL    HW233006   4.677   3.609   2.270 -0.4183  0.7496  0.6241
 7183SOL     OW33007   0.003   1.508   2.067  0.1696  0.3071  0.1911
 7183SOL    HW133008   0.015   1.425   2.113 -0.4001  1.7926  2.9812
 7183SOL    HW233009   4.721   1.469   1.979  1.2911  1.8847 -0.5645
 7184SOL     OW33010   2.282   0.548  11.604  0.2873 -0.2287 -0.2571
 7184SOL    HW133011   2.259   0.520  11.693 -0.6698 -1.7420 -0.9676
 7184SOL    HW233012   2.325   0.464  11.586  0.6159  0.0247 -0.6607
 7185SOL     OW33013   1.366   2.536  10.283  0.4085 -0.2880  1.2539
 7185SOL    HW133014   1.423   2.594  10.232  1.4786 -3.0074 -0.6360
 7185SOL    HW233015   1.282   2.581  10.292  0.3993  0.0525 -0.6728
 7186SOL     OW33016   2.942   1.933  15.638 -0.1159  0.1305 -0.2236
 7186SOL    HW133017   2.916   1.848  15.600 -0.2639  0.0113  0.1475
 7186SOL    HW233018   2.874   1.956  15.700 -0.9308 -1.0706 -0.6688
 7187SOL     OW33019   2.334   1.040   9.433 -0.3258 -0.0794  0.7848
 7187SOL    HW133020   2.283   0.973   9.387 -2.4582  1.1108  1.4088
 7187SOL    HW233021   2.328   1.118   9.379 -1.8486 -0.8791 -0.1959
 7188SOL     OW33022   2.968   1.995   6.641 -0.0222 -0.4688 -0.7149
 7188SOL    HW133023   3.027   1.974   6.713 -0.9428  0.3114  0.2813
 7188SOL    HW233024   2.924   2.068   6.686  2.5426  0.6770 -0.0729
 7189SOL     OW33025   4.670   3.728   3.390  0.1623  0.1043  0.0438
 7189SOL    HW133026   0.004   3.689   3.458  0.0924  0.4848  0.3191
 7189SOL    HW233027   4.590   3.677   3.382  0.0292  0.2120  0.7336
 7190SOL     OW33028   4.100   4.443  13.462  0.7590 -0.2953 -0.1874
 7190SOL    HW133029   4.113   4.453  13.368  1.3852 -0.8591 -0.1657
 7190SOL    HW233030   4.047   4.363  13.465  1.7985 -1.0014 -0.4027
 7191SOL     OW33031   0.373   2.938   1.275 -0.6648  0.2507 -0.5011
 7191SOL    HW133032   0.306   2.931   1.343 -2.4618  0.9673 -2.1662
 7191SOL    HW233033   0.319   2.946   1.195 -2.1507  0.3263  0.5098
 7192SOL     OW33034   0.696   3.791   5.319 -0.5521 -0.0426  0.3999
 7192SOL    HW133035   0.624   3.778   5.257 -1.3670 -1.3706  1.5956
 7192SOL    HW233036   0.722   3.883   5.319 -2.8310  0.5916 -1.2966
 7193SOL     OW33037   3.346   0.446   5.729 -0.3687 -0.0101 -0.6959
 7193SOL    HW133038   3.331   0.359   5.691 -0.0024 -0.5482  0.3944
 7193SOL    HW233039   3.414   0.435   5.796 -0.1331 -1.5557 -1.1980
 7194SOL     OW33040   2.403   4.456   8.370  0.0965  0.3988 -0.3377
 7194SOL    HW133041   2.485   4.411   8.353 -0.6295 -2.1408  2.9005
 7194SOL    HW233042   2.353   4.387   8.414  0.1408 -0.5841 -1.8436
 7195SOL     OW33043   0.034   3.753  11.805  0.3424  0.0725  0.1186
 7195SOL    HW133044   0.097   3.738  11.876 -2.4255  2.3944  3.0302
 7195SOL    HW233045   4.673   3.746  11.854  0.2811  0.6099  0.0902
 7196SOL     OW33046   3.721   1.445   8.900 -0.8936  0.5325  0.6240
 7196SOL    HW133047   3.779   1.370   8.913 -1.1939  0.6686  2.7134
 7196SOL    HW233048   3.649   1.428   8.961 -2.1135  2.3450 -0.3234
 7197SOL     OW33049   4.477   4.043   7.818  0.0292  0.3312 -0.8019
 7197SOL    HW133050   4.427   4.124   7.820 -1.4629 -0.7036  4.1956
 7197SOL    HW233051   4.570   4.066   7.820  0.2681 -0.7394  0.6194
 7198SOL     OW33052   4.455   2.377   9.816 -0.1221 -0.1977  0.4709
 7198SOL    HW133053   4.544   2.410   9.808 -0.7356  1.4405  0.3776
 7198SOL    HW233054   4.458   2.293   9.770  0.3429  0.8444 -1.4165
 7199SOL     OW33055   3.133   2.323  17.191 -0.0111 -0.0585 -0.0333
 7199SOL    HW133056   3.111   2.229  17.188 -0.7048  0.0847  0.4060
 7199SOL    HW233057   3.152   2.336  17.284  0.6389  1.5612 -0.4084
 7200SOL     OW33058   2.472   0.173  17.280 -0.1902 -0.0778  0.0329
 7200SOL    HW133059   2.378   0.180  17.269 -0.0382  0.2812 -1.0450
 7200SOL    HW233060   2.479   0.125  17.363  0.3176 -0.0675  0.0004
 7201SOL     OW33061   4.482   4.034   6.768  0.2428 -0.1854 -0.5212
 7201SOL    HW133062   4.491   4.073   6.854 -0.1966 -0.0323 -0.5438
 7201SOL    HW233063   4.532   3.953   6.774  0.7140  0.0812 -0.8737
 7202SOL     OW33064   2.623   2.819   2.644  0.0353  0.4607  0.0187
 7202SOL    HW133065   2.598   2.863   2.563 -1.6001  1.0426  0.8439
 7202SOL    HW233066   2.585   2.732   2.639 -0.2453  0.3564  4.1353
 7203SOL     OW33067   4.132   2.028   5.550 -0.1253  0.2045  0.0771
 7203SOL    HW133068   4.059   1.982   5.591 -1.3911  0.4339 -1.9538
 7203SOL    HW233069   4.103   2.119   5.556  0.7695  0.4390  0.8712
 7204SOL     OW33070   2.137   1.622   7.732 -0.1219 -0.0789 -0.0911
 7204SOL    HW133071   2.187   1.704   7.734 -1.1895  0.4757  2.9245
 7204SOL    HW233072   2.182   1.575   7.802  0.7612  1.8015  0.6064
 7205SOL     OW33073   0.861   0.162   5.788 -0.1563 -0.0477  0.1855
 7205SOL    HW133074   0.855   0.241   5.734 -0.0035  1.9599  3.0620
 7205SOL    HW233075   0.782   0.169   5.842 -0.7313 -0.9495 -0.5631
 7206SOL     OW33076   0.200   2.296   3.413  0.3287  0.1922 -0.2990
 7206SOL    HW133077   0.170   2.385   3.434 -1.8377 -0.5953 -0.0895
 7206SOL    HW233078   0.237   2.302   3.325  0.6351  1.9429 -0.0514
 7207SOL     OW33079   0.912   4.409   0.012 -0.8029  0.7605  0.5575
 7207SOL    HW133080   0.829   4.442   0.046 -2.3098  0.4959 -2.8410
 7207SOL    HW233081   0.980   4.439   0.072 -1.0007  0.9311  0.6968
 7208SOL     OW33082   0.528   0.234   7.796  0.3574 -0.3671  0.3754
 7208SOL    HW133083   0.528   0.302   7.729 -0.0737  0.1106  0.8670
 7208SOL    HW233084   0.468   0.274   7.859  2.0155 -1.5191  2.6990
 7209SOL     OW33085   4.271   1.612   5.492  0.0325 -0.6980 -0.6442
 7209SOL    HW133086   4.356   1.624   5.451  0.9007 -0.6695  1.1447
 7209SOL    HW233087   4.302   1.561   5.566  1.3505  1.2117  0.1192
 7210SOL     OW33088   3.293   3.850  15.179  0.1602 -0.8530 -0.1283
 7210SOL    HW133089   3.240   3.929  15.188 -1.7239 -1.9196 -1.8133
 7210SOL    HW233090   3.350   3.874  15.106  0.8763  0.2730  0.8020
 7211SOL     OW33091   3.208   1.576   3.236 -0.1408  0.0923 -0.5829
 7211SOL    HW133092   3.259   1.495   3.232 -0.1951  0.0052  0.3225
 7211SOL    HW233093   3.216   1.598   3.144  0.1278 -0.3163 -0.6578
 7212SOL     OW33094   2.164   2.604   6.374 -0.3367  0.5352 -0.1640
 7212SOL    HW133095   2.222   2.666   6.419  0.5793  0.2010 -0.8916
 7212SOL    HW233096   2.099   2.595   6.444 -1.0418 -1.8110 -1.1433
 7213SOL     OW33097   1.755   3.275   6.550  0.5376  0.1186 -0.0027
 7213SOL    HW133098   1.821   3.305   6.613 -1.6727 -0.4145  2.5447
 7213SOL    HW233099   1.811   3.271   6.472  1.4825  0.7287  0.6395
 7214SOL     OW33100   4.413   2.527   4.664 -0.2611  0.1537  0.4433
 7214SOL    HW133101   4.342   2.553   4.606  1.5533 -0.2412 -1.9682
 7214SOL    HW233102   4.392   2.443   4.705  2.4884 -0.6893  0.1651
 7215SOL     OW33103   3.614   4.259  11.438  0.1506 -0.3845 -0.8129
 7215SOL    HW133104   3.637   4.169  11.461  0.9340 -0.3394 -1.3858
 7215SOL    HW233105   3.643   4.302  11.518 -1.5693  0.3923 -0.6037
 7216SOL     OW33106   2.677   3.263   8.014  0.5169 -0.1688 -0.8521
 7216SOL    HW133107   2.752   3.303   7.969  1.1865  0.0864  0.4871
 7216SOL    HW233108   2.661   3.185   7.961  1.2517 -1.0003  0.1455
 7217SOL     OW33109   1.970   4.693   6.916 -0.2750  0.1451 -0.2387
 7217SOL    HW133110   2.005   0.051   6.956 -2.1827  1.0915 -0.4371
 7217SOL    HW233111   1.917   4.652   6.984 -0.9801 -1.3058 -1.6561
 7218SOL     OW33112   3.117   0.643   4.239  0.4781  0.5983  0.0383
 7218SOL    HW133113   3.177   0.676   4.172  1.4574  1.1624  1.1994
 7218SOL    HW233114   3.095   0.723   4.286  0.5041  0.6332 -0.0081
 7219SOL     OW33115   0.302   3.284   6.700  1.4420 -0.2833 -0.3058
 7219SOL    HW133116   0.355   3.224   6.648  0.1535 -1.6676 -0.0222
 7219SOL    HW233117   0.360   3.358   6.718  1.4512 -1.1504  3.1653
 7220SOL     OW33118   0.214   4.392   7.690  0.1664  0.2385  0.5422
 7220SOL    HW133119   0.206   4.478   7.647  1.0321  0.4783  0.8685
 7220SOL    HW233120   0.126   4.358   7.675  0.0939  0.1413  1.2190
 7221SOL     OW33121   3.139   3.734   2.072 -0.6304  0.1240  0.4095
 7221SOL    HW133122   3.113   3.664   2.013 -0.4562  2.3188 -2.2541
 7221SOL    HW233123   3.147   3.691   2.157 -2.3805  0.8060  0.9121
 7222SOL     OW33124   3.436   1.180   4.609 -0.3590 -0.7251 -0.4775
 7222SOL    HW133125   3.527   1.190   4.583 -0.4979 -1.0408 -1.1004
 7222SOL    HW233126   3.417   1.264   4.651  1.1355 -0.4522 -0.3467
 7223SOL     OW33127   1.265   3.144   6.128 -0.1861 -0.4422  0.2862
 7223SOL    HW133128   1.313   3.161   6.047 -0.4290 -0.9077  0.0431
 7223SOL    HW233129   1.322   3.080   6.171  0.8437  0.9500  0.9864
 7224SOL     OW33130   2.663   2.034  16.472  0.2815 -0.2627 -0.1760
 7224SOL    HW133131   2.711   2.116  16.458 -0.8547  0.6691  1.3085
 7224SOL    HW233132   2.680   1.987  16.390  0.9439 -1.8938  0.9096
 7225SOL     OW33133   3.956   1.839   3.530 -0.4214  0.2758 -0.3596
 7225SOL    HW133134   4.044   1.877   3.523 -0.6534  0.7973 -0.4351
 7225SOL    HW233135   3.969   1.776   3.602  1.1001  1.2886  0.2491
 7226SOL     OW33136   0.949   3.783   1.965 -0.2998 -0.5111 -0.6999
 7226SOL    HW133137   0.981   3.859   1.916 -2.4930  1.0987  0.3582
 7226SOL    HW233138   1.011   3.718   1.931  1.8073  0.6595  0.8454
 7227SOL     OW33139   3.321   0.495   2.467  1.0655  0.6870  0.0816
 7227SOL    HW133140   3.274   0.559   2.415 -0.4827 -1.6726 -1.4185
 7227SOL    HW233141   3.309   0.525   2.557  2.1110  0.6213  0.2479
 7228SOL     OW33142   1.758   3.270   5.571 -0.2969 -0.4915  0.4543
 7228SOL    HW133143   1.810   3.194   5.597 -3.1664 -2.7188 -0.2895
 7228SOL    HW233144   1.692   3.221   5.522 -1.4010  1.4634  0.0163
 7229SOL     OW33145   4.083   2.399   4.528  0.4646  0.5053  0.1996
 7229SOL    HW133146   4.085   2.489   4.562 -1.2781  1.9916 -3.7018
 7229SOL    HW233147   4.103   2.413   4.436  1.4049  2.3804  0.6968
 7230SOL     OW33148   2.281   2.572  16.135 -0.3117  0.6619 -0.1684
 7230SOL    HW133149   2.345   2.566  16.206  1.7871 -0.4935 -2.1762
 7230SOL    HW233150   2.320   2.511  16.073 -1.0713  1.0974 -1.0625
 7231SOL     OW33151   2.855   2.955   9.749  0.5791  0.4354 -0.3143
 7231SOL    HW133152   2.875   2.994   9.834 -2.7024  0.8712  0.2761
 7231SOL    HW233153   2.763   2.952   9.775  0.2613 -1.6506 -1.6308
 7232SOL     OW33154   2.303   0.306   5.100 -0.5081 -0.2916 -0.7332
 7232SOL    HW133155   2.334   0.388   5.137  0.9937 -1.7654  1.3036
 7232SOL    HW233156   2.332   0.251   5.173 -2.3469 -0.8162 -0.3912
 7233SOL     OW33157   2.166   4.053   8.395  0.3918  0.2402 -0.2044
 7233SOL    HW133158   2.203   4.138   8.421 -0.7688 -0.1175  2.6479
 7233SOL    HW233159   2.216   3.997   8.454  0.4589  0.8065  0.2727
 7234SOL     OW33160   1.248   3.878  16.461 -0.2367 -0.2259 -0.0138
 7234SOL    HW133161   1.207   3.874  16.547  1.1850  0.1103  0.6685
 7234SOL    HW233162   1.178   3.849  16.402 -0.9146  1.1696  0.1027
 7235SOL     OW33163   1.300   3.676   9.420  0.8058 -0.2630  1.0366
 7235SOL    HW133164   1.388   3.643   9.439  1.3317 -0.1029 -1.1033
 7235SOL    HW233165   1.274   3.599   9.370 -2.0697  0.5959  1.2323
 7236SOL     OW33166   2.454   1.254  12.950 -0.3409 -0.5210 -0.6087
 7236SOL    HW133167   2.471   1.348  12.951 -2.5551 -0.1088 -0.3891
 7236SOL    HW233168   2.361   1.247  12.973  0.3490 -4.0276  1.0977
 7237SOL     OW33169   1.935   3.893  13.231 -0.3330  0.4625 -0.0902
 7237SOL    HW133170   2.011   3.844  13.201 -1.3322 -0.6641 -0.8030
 7237SOL    HW233171   1.912   3.849  13.313 -3.2059  0.9138 -0.6329
 7238SOL     OW33172   1.216   2.651   7.097 -0.0759  0.5012  0.0649
 7238SOL    HW133173   1.251   2.722   7.150 -0.3942  0.1004  0.8125
 7238SOL    HW233174   1.176   2.701   7.026  0.0580  1.7490  0.8689
 7239SOL     OW33175   4.145   4.626   4.270  0.1237 -0.1272 -0.4765
 7239SOL    HW133176   4.193   4.671   4.339  1.6367  1.0980 -2.3549
 7239SOL    HW233177   4.120   4.547   4.318  2.9493 -1.5244 -1.3147
 7240SOL     OW33178   0.984   0.145  15.936  0.0022  0.2435 -0.3953
 7240SOL    HW133179   1.037   0.206  15.986 -1.3461  0.8856  0.2413
 7240SOL    HW233180   1.043   0.069  15.940 -2.7976 -2.0420 -2.5273
 7241SOL     OW33181   0.767   1.697   2.869  0.6604  0.2655  0.3080
 7241SOL    HW133182   0.860   1.700   2.894  0.3222 -1.5095  1.7722
 7241SOL    HW233183   0.771   1.719   2.776  0.2006  1.6280  0.6183
 7242SOL     OW33184   0.613   3.140   0.325  0.1536 -0.5989 -0.1164
 7242SOL    HW133185   0.679   3.170   0.264  4.0914 -2.2470  3.3099
 7242SOL    HW233186   0.657   3.073   0.378  0.1279  0.1237  0.8182
 7243SOL     OW33187   1.624   2.444   2.993 -0.1198  0.0974 -0.5339
 7243SOL    HW133188   1.709   2.456   3.034 -0.6191  1.8101 -0.0159
 7243SOL    HW233189   1.567   2.442   3.071  0.1016 -0.0021 -0.3739
 7244SOL     OW33190   0.001   2.968   4.005  0.2120 -0.4911  0.1277
 7244SOL    HW133191   4.667   2.980   3.928  0.4832 -0.9865 -0.1412
 7244SOL    HW233192   4.716   3.054   4.047  2.2108  0.7095 -2.0059
 7245SOL     OW33193   3.437   4.516   0.847  0.2345 -0.5883 -0.0699
 7245SOL    HW133194   3.438   4.565   0.765  0.7043 -0.1203  0.2152
 7245SOL    HW233195   3.522   4.474   0.854 -1.4887 -4.0719 -0.3532
 7246SOL     OW33196   1.927   3.783   8.596  0.4562  0.5000 -0.3374
 7246SOL    HW133197   1.997   3.814   8.654 -0.0331  0.7637  0.1152
 7246SOL    HW233198   1.883   3.719   8.652  0.3799 -1.3966 -2.5807
 7247SOL     OW33199   0.625   2.644   4.119 -0.4094 -0.4045 -0.7157
 7247SOL    HW133200   0.594   2.694   4.044 -0.9536  2.4607  1.3974
 7247SOL    HW233201   0.548   2.637   4.176 -0.6111  0.8148 -0.8413
 7248SOL     OW33202   4.200   0.789   8.305  0.1943 -1.0541  0.3215
 7248SOL    HW133203   4.126   0.742   8.344  1.5359 -1.9937  1.7592
 7248SOL    HW233204   4.182   0.877   8.338  0.6820  0.0930 -2.4831
 7249SOL     OW33205   0.622   2.949   2.828 -0.2576  0.3437  0.0036
 7249SOL    HW133206   0.700   2.899   2.806  0.8371  3.0688 -2.2508
 7249SOL    HW233207   0.636   3.042   2.816  2.5761 -0.1483 -0.3036
 7250SOL     OW33208   0.445   3.566   1.086  0.1693 -0.1080 -0.0985
 7250SOL    HW133209   0.364   3.618   1.090 -0.1511 -0.5170 -1.3921
 7250SOL    HW233210   0.416   3.478   1.063  0.1210 -0.4699  1.3345
 7251SOL     OW33211   1.529   1.823   8.474 -0.0436  0.5332  0.2821
 7251SOL    HW133212   1.460   1.756   8.468  1.8277 -1.4366  0.8620
 7251SOL    HW233213   1.573   1.816   8.389 -0.8685  0.4999 -0.1482
 7252SOL     OW33214   2.457   4.393   2.931 -0.8270 -0.2635 -0.5058
 7252SOL    HW133215   2.505   4.422   3.009  2.2235 -0.9741 -2.0982
 7252SOL    HW233216   2.525   4.416   2.867 -0.0765 -1.8118 -0.2510
 7253SOL     OW33217   3.585   0.405   2.493 -0.4577  0.6838  0.0597
 7253SOL    HW133218   3.494   0.387   2.470 -0.4185 -0.8377  1.0069
 7253SOL    HW233219   3.591   0.462   2.569  2.4196 -0.4447  0.6903
 7254SOL     OW33220   2.857   3.222   3.887 -0.2534  0.2341 -0.0529
 7254SOL    HW133221   2.918   3.281   3.843  0.1807 -0.9871 -1.0738
 7254SOL    HW233222   2.787   3.228   3.821 -0.5908  1.0672  0.3775
 7255SOL     OW33223   1.313   3.896   6.772  0.0551  0.0242  0.2315
 7255SOL    HW133224   1.354   3.810   6.773  0.3359  0.1554  0.0058
 7255SOL    HW233225   1.278   3.913   6.860  0.9180  0.9411  0.4024
 7256SOL     OW33226   3.293   2.365  11.141 -0.0310  0.0961  0.6386
 7256SOL    HW133227   3.366   2.398  11.089  0.0283  1.0229  1.2946
 7256SOL    HW233228   3.227   2.426  11.106  0.7834  0.2515 -0.5875
 7257SOL     OW33229   3.854   0.990  17.047  1.0425 -0.3499 -0.8266
 7257SOL    HW133230   3.823   1.029  16.966  0.0427 -0.0731 -0.3235
 7257SOL    HW233231   3.792   0.919  17.067  1.5754 -0.0137  2.1105
 7258SOL     OW33232   2.239   4.170   4.209 -0.1532 -0.1434  0.0097
 7258SOL    HW133233   2.157   4.215   4.187 -1.6371 -2.7507  0.0978
 7258SOL    HW233234   2.220   4.076   4.201 -2.5099  0.4403 -1.6098
 7259SOL     OW33235   1.701   1.723  13.424  0.3314  0.5457  0.0944
 7259SOL    HW133236   1.696   1.775  13.504 -3.0445 -1.0048  0.8891
 7259SOL    HW233237   1.710   1.800  13.368  0.2147 -0.7814 -1.7554
 7260SOL     OW33238   0.601   1.479   3.786 -0.1988  0.2456 -0.4422
 7260SOL    HW133239   0.604   1.388   3.755 -2.0156  0.1331 -0.2596
 7260SOL    HW233240   0.607   1.527   3.703 -0.1493 -0.5782 -0.9178
 7261SOL     OW33241   3.870   2.395   0.201  0.3612  0.3912  0.0827
 7261SOL    HW133242   3.964   2.393   0.218  0.6028  2.8017 -1.0822
 7261SOL    HW233243   3.841   2.355   0.283 -1.0651  2.0214  0.3718
 7262SOL     OW33244   3.749   1.417   6.213  0.1279 -0.3562  0.3319
 7262SOL    HW133245   3.705   1.332   6.205  1.7296 -1.0463 -1.0917
 7262SOL    HW233246   3.842   1.397   6.222  0.0092 -1.1951 -0.2558
 7263SOL     OW33247   2.546   3.923  14.306 -0.0681  0.5803 -0.0069
 7263SOL    HW133248   2.623   3.905  14.252  0.6257  0.5777  0.9774
 7263SOL    HW233249   2.477   3.940  14.242 -1.6764 -2.8004  0.8260
 7264SOL     OW33250   0.650   3.381   5.695 -0.1311  0.3640 -0.2039
 7264SOL    HW133251   0.710   3.314   5.661 -2.3697 -1.9827  0.4852
 7264SOL    HW233252   0.666   3.454   5.634  1.0358  0.6182  0.4128
 7265SOL     OW33253   2.152   1.073  10.145 -0.1150  0.4536 -0.4533
 7265SOL    HW133254   2.073   1.019  10.136  0.3326 -0.3009  0.1745
 7265SOL    HW233255   2.122   1.149  10.195  2.0580  0.3044  1.0850
 7266SOL     OW33256   4.328   0.905   3.146 -0.4901 -0.3426 -0.2460
 7266SOL    HW133257   4.334   0.819   3.103  2.6372 -0.4309  0.3585
 7266SOL    HW233258   4.250   0.938   3.101 -1.5440 -1.8029  0.4973
 7267SOL     OW33259   2.796   1.173   3.775  0.3248 -0.3892  0.5591
 7267SOL    HW133260   2.764   1.215   3.855  0.3128 -0.5726  0.6512
 7267SOL    HW233261   2.731   1.211   3.716  0.2379 -1.3422  0.0292
 7268SOL     OW33262   1.430   2.185   8.705  0.2079 -0.5010  0.0093
 7268SOL    HW133263   1.366   2.115   8.717  0.2853 -0.6260 -0.3178
 7268SOL    HW233264   1.513   2.137   8.700  0.1952 -0.5064 -0.1471
 7269SOL     OW33265   3.514   1.152  17.135  0.2161  0.1113 -0.5428
 7269SOL    HW133266   3.492   1.244  17.120 -0.9218  0.1943  1.6517
 7269SOL    HW233267   3.489   1.108  17.054  1.1606  1.4970 -1.5722
 7270SOL     OW33268   3.655   2.139   3.928 -0.2570  0.2749 -0.1791
 7270SOL    HW133269   3.628   2.075   3.993  0.8030 -1.1173 -1.1153
 7270SOL    HW233270   3.721   2.081   3.891 -0.8795 -0.3831 -0.2485
 7271SOL     OW33271   0.470   3.953   0.808  0.9756  0.2447  0.2618
 7271SOL    HW133272   0.493   3.975   0.718 -0.0283  0.1380 -0.0205
 7271SOL    HW233273   0.466   3.858   0.815 -0.8702  0.2473 -0.9220
 7272SOL     OW33274   0.768   0.408   1.231 -0.1374 -0.9416 -0.1644
 7272SOL    HW133275   0.756   0.348   1.157  1.4026  0.9467 -1.9741
 7272SOL    HW233276   0.832   0.469   1.195 -1.4892  0.8493  0.5263
 7273SOL     OW33277   3.497   3.196   1.698  0.5336  0.2121  0.4211
 7273SOL    HW133278   3.462   3.254   1.766  3.3048 -0.3140  2.3144
 7273SOL    HW233279   3.416   3.160   1.665  0.5306 -1.5797  2.4102
 7274SOL     OW33280   0.068   4.664  16.229 -0.2817 -0.8029 -0.6457
 7274SOL    HW133281   0.120   4.588  16.200  3.6555  0.9149  1.9381
 7274SOL    HW233282   4.711   4.658  16.174 -0.7798 -1.3528  0.1182
 7275SOL     OW33283   1.234   2.427   6.114 -0.1705 -0.0122 -0.5308
 7275SOL    HW133284   1.244   2.521   6.103 -1.7957  0.0328 -1.6555
 7275SOL    HW233285   1.325   2.402   6.130  0.0734  1.3161  0.1761
 7276SOL     OW33286   4.310   3.218   2.701 -0.4494  0.2690 -0.2094
 7276SOL    HW133287   4.276   3.153   2.762  1.0489 -2.0715 -1.8413
 7276SOL    HW233288   4.225   3.257   2.683 -1.3905 -2.0162 -0.7320
 7277SOL     OW33289   4.304   0.276   4.540 -0.1482 -0.6229  0.0590
 7277SOL    HW133290   4.357   0.197   4.548  0.2634 -0.3001  0.5495
 7277SOL    HW233291   4.215   0.246   4.556 -1.2852  1.5087 -2.2340
 7278SOL     OW33292   3.018   1.579   1.874 -0.1280  0.0608 -0.5639
 7278SOL    HW133293   2.975   1.496   1.894  0.9777  0.2682  2.6722
 7278SOL    HW233294   2.947   1.642   1.878 -0.3335 -0.0344 -2.6195
 7279SOL     OW33295   0.893   1.013  10.422 -0.4376 -0.1392  0.2938
 7279SOL    HW133296   0.919   0.992  10.332 -3.5124  1.7718 -1.0133
 7279SOL    HW233297   0.901   1.108  10.415 -2.7006  0.1077  1.2295
 7280SOL     OW33298   3.482   2.230   3.265  0.1820  0.2958  0.3837
 7280SOL    HW133299   3.514   2.320   3.266 -3.0529  1.4619 -0.7960
 7280SOL    HW233300   3.485   2.202   3.174 -0.2639  1.2524  0.0703
 7281SOL     OW33301   1.244   1.742   0.897 -0.0041  0.0958  0.2047
 7281SOL    HW133302   1.302   1.795   0.951 -0.4229  0.3559  0.4004
 7281SOL    HW233303   1.285   1.658   0.916  0.8075  0.5959  0.6331
 7282SOL     OW33304   0.377   3.893   4.779 -0.1947 -0.5099  0.4662
 7282SOL    HW133305   0.328   3.975   4.783 -1.0069 -0.9785  0.2048
 7282SOL    HW233306   0.310   3.846   4.829 -1.3369 -0.0852 -0.6727
 7283SOL     OW33307   3.337   1.750   3.789 -0.4968 -0.0236 -0.0655
 7283SOL    HW133308   3.367   1.746   3.880 -0.4830 -0.3083 -0.0804
 7283SOL    HW233309   3.362   1.665   3.752 -0.5837  0.3615 -1.0003
 7284SOL     OW33310   2.065   0.358  11.073 -0.0497  0.1447 -0.0991
 7284SOL    HW133311   2.059   0.432  11.013  1.1738  2.6930  2.9507
 7284SOL    HW233312   2.154   0.324  11.066  0.6980  2.3663 -1.3438
 7285SOL     OW33313   4.067   3.759   6.889 -0.5385 -0.2917  0.2463
 7285SOL    HW133314   4.028   3.724   6.969 -0.6267 -0.3891  0.1599
 7285SOL    HW233315   4.020   3.842   6.899  0.3715  0.1379  1.0152
 7286SOL     OW33316   3.626   2.151   1.486 -0.7845 -0.0152  0.1155
 7286SOL    HW133317   3.651   2.148   1.579  0.7143  2.4042 -0.2211
 7286SOL    HW233318   3.549   2.206   1.500 -0.4160  0.2768  0.9866
 7287SOL     OW33319   4.162   1.016   9.340 -0.0487 -0.3423 -0.5625
 7287SOL    HW133320   4.255   1.030   9.324  0.0608 -1.5765 -0.9842
 7287SOL    HW233321   4.110   1.076   9.287 -1.3158 -1.1124 -0.2168
 7288SOL     OW33322   3.060   1.579   8.531  0.0235  0.1928 -0.6919
 7288SOL    HW133323   2.982   1.528   8.555 -0.8945  1.4928 -0.8849
 7288SOL    HW233324   3.075   1.625   8.613 -0.0119  1.9318 -1.6490
 7289SOL     OW33325   3.639   2.769   7.417  0.3502  0.5470 -0.5886
 7289SOL    HW133326   3.588   2.781   7.337  0.0745 -1.8811 -0.7894
 7289SOL    HW233327   3.567   2.784   7.479  0.7678 -1.1465  0.3258
 7290SOL     OW33328   4.374   4.592   2.235 -0.3664 -0.2438 -0.2268
 7290SOL    HW133329   4.337   4.654   2.298  1.1387 -0.7829  1.1898
 7290SOL    HW233330   4.453   4.560   2.277 -0.7825 -1.0526 -0.0444
 7291SOL     OW33331   0.698   1.957  12.543 -0.4101  0.4414  0.3356
 7291SOL    HW133332   0.728   1.900  12.614 -0.0252 -0.5220 -0.6016
 7291SOL    HW233333   0.704   1.899  12.467  0.8864  1.3567 -0.2617
 7292SOL     OW33334   3.303   0.925   6.210  0.3821  0.3015  0.1256
 7292SOL    HW133335   3.303   0.891   6.121  0.0160  1.2227 -0.2294
 7292SOL    HW233336   3.397   0.939   6.221  0.1525 -0.1414  2.6420
 7293SOL     OW33337   3.436   3.921  10.957  0.1205 -0.0927 -0.0124
 7293SOL    HW133338   3.522   3.889  10.931  0.9700  0.8948  1.5606
 7293SOL    HW233339   3.416   3.848  11.015 -0.1125 -1.8283 -2.2931
 7294SOL     OW33340   0.030   0.487   3.902  0.0305  0.0037 -0.4693
 7294SOL    HW133341   0.019   0.461   3.811 -0.2348  0.8196 -0.6708
 7294SOL    HW233342   0.101   0.430   3.933  0.2821 -1.7429 -4.3755
 7295SOL     OW33343   2.962   0.888   9.859  0.2705  0.1870  0.7418
 7295SOL    HW133344   2.986   0.812   9.912 -0.6675 -0.1221  0.7271
 7295SOL    HW233345   2.881   0.856   9.818  1.3025  0.6383 -1.6624
 7296SOL     OW33346   0.754   3.634   3.037  0.1712 -0.2172  0.0891
 7296SOL    HW133347   0.849   3.640   3.047 -0.0683  2.1952  0.8162
 7296SOL    HW233348   0.729   3.725   3.050 -0.3964 -0.4789  0.8257
 7297SOL     OW33349   0.117   3.569   8.022 -0.0884  0.5773  0.6359
 7297SOL    HW133350   0.133   3.625   8.098 -0.9282 -0.7244  1.7656
 7297SOL    HW233351   0.153   3.621   7.951  1.4777 -1.3849  0.0045
 7298SOL     OW33352   4.405   2.781   3.910  0.7966  0.7816 -0.0753
 7298SOL    HW133353   4.417   2.849   3.844  0.3318 -2.2634 -3.2925
 7298SOL    HW233354   4.498   2.756   3.914  0.0966 -2.3174 -3.2603
 7299SOL     OW33355   0.594   3.788  17.472 -0.0711 -0.0403  0.1090
 7299SOL    HW133356   0.549   3.859  17.426  0.7636  1.5337  1.7577
 7299SOL    HW233357   0.667   3.844  17.497 -2.7131  2.2542  2.6724
 7300SOL     OW33358   0.552   2.566  11.296  0.4285 -0.0335 -0.0309
 7300SOL    HW133359   0.625   2.539  11.241  0.4838 -3.6037  1.7693
 7300SOL    HW233360   0.489   2.600  11.232 -1.2066  0.2480  1.7569
 7301SOL     OW33361   0.889   1.272   6.371 -0.1188 -0.2381 -0.0355
 7301SOL    HW133362   0.847   1.214   6.434 -0.9188  2.0452  1.5383
 7301SOL    HW233363   0.912   1.210   6.302 -1.0499 -2.5405  1.7346
 7302SOL     OW33364   1.661   3.118  16.639 -0.6808 -0.0486  0.1396
 7302SOL    HW133365   1.662   3.071  16.722  0.5368  1.4708  0.9814
 7302SOL    HW233366   1.723   3.186  16.666 -0.3691 -0.1584 -0.3055
 7303SOL     OW33367   2.624   2.945   4.296  0.5024 -0.8399 -0.3206
 7303SOL    HW133368   2.605   2.978   4.209  2.2944 -0.5040 -0.5797
 7303SOL    HW233369   2.705   2.894   4.291  1.7276  1.1038 -0.1596
 7304SOL     OW33370   2.902   0.707   1.475 -0.3786 -0.0983  0.5121
 7304SOL    HW133371   2.956   0.776   1.515  1.0302 -2.1205  2.0933
 7304SOL    HW233372   2.816   0.749   1.480  0.5661  1.6928  1.7674
 7305SOL     OW33373   1.444   3.592   9.085 -0.3337 -0.1270  0.7627
 7305SOL    HW133374   1.373   3.628   9.033  0.5180  0.0875 -0.2465
 7305SOL    HW233375   1.469   3.672   9.132  0.5934 -0.6027  1.0871
 7306SOL     OW33376   0.313   2.868   5.713 -0.5731 -0.4840  0.6224
 7306SOL    HW133377   0.267   2.932   5.768  0.6940 -1.9263  3.3457
 7306SOL    HW233378   0.277   2.894   5.628 -1.3415  1.3467  1.5322
 7307SOL     OW33379   3.946   1.389   7.648  0.2246  0.0122 -0.2002
 7307SOL    HW133380   3.948   1.478   7.684 -0.1225  0.4833 -1.3429
 7307SOL    HW233381   3.881   1.353   7.708  0.9839 -2.1425 -0.6791
 7308SOL     OW33382   0.197   4.042  11.116 -0.0517 -0.3265  0.2452
 7308SOL    HW133383   0.225   3.966  11.065 -0.0524  0.4215 -0.8486
 7308SOL    HW233384   0.278   4.082  11.146 -0.2239 -0.7480  1.2770
 7309SOL     OW33385   3.874   1.892   8.652  0.2998  0.3468 -0.1126
 7309SOL    HW133386   3.877   1.798   8.671  2.3663  0.6588  1.0810
 7309SOL    HW233387   3.952   1.918   8.700  1.2724  0.7034 -1.9129
 7310SOL     OW33388   1.931   1.877  15.948  0.3576  0.8310  0.3911
 7310SOL    HW133389   1.860   1.939  15.966 -0.0112  0.4227  0.3258
 7310SOL    HW233390   1.972   1.914  15.870 -3.6627  0.4589 -1.8572
 7311SOL     OW33391   0.179   4.631   5.136 -0.2629 -0.3237 -0.1066
 7311SOL    HW133392   0.234   4.561   5.100 -0.0371 -0.7394  1.0616
 7311SOL    HW233393   0.165   4.596   5.224  0.2931 -0.6811 -0.1553
 7312SOL     OW33394   0.999   0.319  15.054  0.1525  0.0181 -0.4417
 7312SOL    HW133395   1.064   0.307  15.124 -0.1166  2.4901  0.2543
 7312SOL    HW233396   1.049   0.267  14.992  0.3323  1.4025 -1.4659
 7313SOL     OW33397   4.076   4.115   1.725  0.8706  0.4262  0.2835
 7313SOL    HW133398   4.105   4.193   1.677  0.2355  0.3637 -0.1892
 7313SOL    HW233399   4.024   4.160   1.792  1.8232  2.0272 -0.0358
 7314SOL     OW33400   4.023   2.556   2.564  0.2459 -0.2557 -0.0911
 7314SOL    HW133401   4.114   2.539   2.589  0.0872 -2.0618 -0.7534
 7314SOL    HW233402   4.021   2.487   2.497 -0.8094  0.0554 -0.3860
 7315SOL     OW33403   1.205   3.510   8.635  0.1040  0.2471 -0.1681
 7315SOL    HW133404   1.270   3.581   8.639 -0.1321  0.4882 -0.5973
 7315SOL    HW233405   1.254   3.453   8.694 -0.2241 -1.5977 -1.6960
 7316SOL     OW33406   0.849   0.296  14.628  0.8061  0.5056 -0.5416
 7316SOL    HW133407   0.760   0.321  14.603  0.2514 -0.9903 -0.0959
 7316SOL    HW233408   0.841   0.230  14.697  4.3716  2.0695  1.3852
 7317SOL     OW33409   0.326   0.244   4.215  0.0760  0.4799  0.1613
 7317SOL    HW133410   0.359   0.314   4.271  1.1265 -1.2127  1.6781
 7317SOL    HW233411   0.410   0.198   4.211  0.4617  1.2831 -0.8551
 7318SOL     OW33412   0.227   3.289  13.969  0.4441  0.2336 -0.2666
 7318SOL    HW133413   0.293   3.231  14.008  1.4004  0.4246 -1.5854
 7318SOL    HW233414   0.242   3.264  13.878 -0.2476 -2.2589  0.3153
 7319SOL     OW33415   1.543   3.163   7.374 -0.2294  0.2803 -0.7353
 7319SOL    HW133416   1.581   3.098   7.433 -0.6443 -0.7070 -1.5665
 7319SOL    HW233417   1.450   3.168   7.395 -0.3580  0.1423 -1.3027
 7320SOL     OW33418   2.223   3.870   7.242 -0.0296 -0.1561 -0.0639
 7320SOL    HW133419   2.318   3.884   7.240  0.3190 -2.0877  2.8780
 7320SOL    HW233420   2.194   3.855   7.152 -0.3231 -1.3616  0.2274
 7321SOL     OW33421   4.517   2.001   3.365  0.4858 -0.0508  0.4609
 7321SOL    HW133422   4.606   2.026   3.342 -0.2757  1.7905 -0.5162
 7321SOL    HW233423   4.468   2.036   3.290 -1.0108 -0.2200  1.3583
 7322SOL     OW33424   4.118   0.831   6.380  0.2171  0.0611 -0.1162
 7322SOL    HW133425   4.053   0.800   6.317  0.5297 -0.2514 -0.2917
 7322SOL    HW233426   4.172   0.887   6.324  1.2669 -1.5018 -0.6917
 7323SOL     OW33427   2.081   4.386   8.643  0.0697  0.2500 -0.3030
 7323SOL    HW133428   2.008   4.388   8.705 -0.6892 -0.0311 -1.1956
 7323SOL    HW233429   2.133   4.320   8.688 -0.9035 -0.2555  0.0823
 7324SOL     OW33430   0.334   1.892   2.594 -0.2881 -0.1265  0.2409
 7324SOL    HW133431   0.281   1.971   2.580 -0.3857 -0.4268 -1.1443
 7324SOL    HW233432   0.280   1.821   2.629  1.5688 -1.5828  0.1539
 7325SOL     OW33433   0.657   2.846   7.053  0.1576 -0.8960 -0.6832
 7325SOL    HW133434   0.591   2.899   7.098 -0.9395 -1.3394 -1.7553
 7325SOL    HW233435   0.729   2.850   7.115  1.4890  1.5326 -2.3683
 7326SOL     OW33436   3.431   4.418   4.168  0.2394 -0.0255 -0.8911
 7326SOL    HW133437   3.461   4.430   4.078  2.8215  1.1423  0.1234
 7326SOL    HW233438   3.352   4.369   4.146  0.9860 -1.3240 -0.7172
 7327SOL     OW33439   3.045   1.325   5.537  0.2597 -0.2808  0.2891
 7327SOL    HW133440   3.067   1.361   5.623  0.8663  0.1261 -0.0339
 7327SOL    HW233441   3.115   1.266   5.510  0.5703  0.0923  0.2758
 7328SOL     OW33442   3.425   2.984  14.588  0.1790 -0.7299  0.0629
 7328SOL    HW133443   3.449   3.000  14.679 -0.2788  0.4024 -0.0137
 7328SOL    HW233444   3.460   3.066  14.552  0.4375  0.6479  3.4573
 7329SOL     OW33445   1.618   3.875  11.053  0.4790 -0.1200 -0.0187
 7329SOL    HW133446   1.526   3.866  11.078  0.0180 -1.1347 -2.0234
 7329SOL    HW233447   1.664   3.844  11.132  3.1799  0.6075 -1.3209
 7330SOL     OW33448   2.493   1.011   1.601 -0.1891 -0.2106  0.1884
 7330SOL    HW133449   2.430   0.988   1.670  0.0609 -3.1312 -0.5348
 7330SOL    HW233450   2.537   1.083   1.646  0.0975  0.1652 -0.7023
 7331SOL     OW33451   3.766   4.597   3.560 -0.0024  0.4261 -0.6239
 7331SOL    HW133452   3.682   4.565   3.593  0.1483 -0.0385 -0.6889
 7331SOL    HW233453   3.823   4.526   3.591 -0.3037 -0.1100 -1.2884
 7332SOL     OW33454   3.322   1.893   5.880  0.3860 -0.1203  0.2136
 7332SOL    HW133455   3.282   1.879   5.794 -1.4810  2.0809  0.7038
 7332SOL    HW233456   3.282   1.970   5.920  0.4779  0.3235 -0.5305
 7333SOL     OW33457   2.241   2.675  10.859  0.3875 -0.2629  0.2315
 7333SOL    HW133458   2.291   2.721  10.792 -0.8162  1.9210  0.8353
 7333SOL    HW233459   2.284   2.715  10.934 -0.6957 -0.4677  0.9561
 7334SOL     OW33460   3.218   3.451   7.980 -0.1514  0.0673  0.0550
 7334SOL    HW133461   3.143   3.458   8.039 -0.8711  0.3273 -0.8825
 7334SOL    HW233462   3.221   3.362   7.944  1.1421 -1.1578  3.1573
 7335SOL     OW33463   4.510   1.772   5.979 -0.1888  0.7885 -0.1020
 7335SOL    HW133464   4.569   1.753   5.907  1.0358  0.4755  0.9800
 7335SOL    HW233465   4.469   1.686   5.985  0.3331  0.4074 -1.9679
 7336SOL     OW33466   3.801   0.661   8.335  0.6420  0.4274 -0.2090
 7336SOL    HW133467   3.822   0.620   8.251  0.2231 -1.5851  0.6681
 7336SOL    HW233468   3.720   0.707   8.313  0.2059  0.6971  1.9263
 7337SOL     OW33469   2.222   2.232  16.017  0.5318 -0.1443  0.4783
 7337SOL    HW133470   2.287   2.301  16.006 -2.7582  2.8923  0.3946
 7337SOL    HW233471   2.195   2.208  15.928  1.6551 -1.3724  0.4585
 7338SOL     OW33472   1.559   2.505   1.534  0.2571 -0.3418  0.2020
 7338SOL    HW133473   1.548   2.430   1.592  0.7876 -1.5839 -1.3221
 7338SOL    HW233474   1.654   2.520   1.530  0.3986 -0.2341  3.6706
 7339SOL     OW33475   2.684   0.649   8.612 -0.1686  0.6098 -0.1230
 7339SOL    HW133476   2.633   0.571   8.634 -0.6424  1.1932  0.8603
 7339SOL    HW233477   2.767   0.613   8.581 -0.7791 -1.1691  0.2702
 7340SOL     OW33478   3.514   0.156   0.458 -0.5830  0.1113 -0.1297
 7340SOL    HW133479   3.589   0.129   0.407 -0.7484  0.0124 -0.3177
 7340SOL    HW233480   3.549   0.215   0.525 -1.8019  0.1145  0.5213
 7341SOL     OW33481   2.150   0.627   0.786 -0.4560 -0.7153 -0.1096
 7341SOL    HW133482   2.206   0.558   0.748 -0.9828 -2.5558  2.4779
 7341SOL    HW233483   2.192   0.638   0.871 -1.3278 -0.9307  0.3476
 7342SOL     OW33484   2.882   4.433   2.578 -0.2943 -0.0519  0.0724
 7342SOL    HW133485   2.955   4.390   2.623 -0.3456  1.3108  1.4487
 7342SOL    HW233486   2.901   4.524   2.600 -1.0127 -0.0323  0.6171
 7343SOL     OW33487   2.899   2.895   7.363  0.4088 -0.2461  0.0068
 7343SOL    HW133488   2.913   2.811   7.407  2.2015 -0.3754 -0.8037
 7343SOL    HW233489   2.803   2.894   7.364  0.3612  0.3401 -2.9308
 7344SOL     OW33490   1.659   2.935   8.128 -0.0547  0.2556 -0.3012
 7344SOL    HW133491   1.628   2.969   8.212  1.3969  1.3829 -0.2302
 7344SOL    HW233492   1.578   2.945   8.078 -0.3559  0.3364  0.2068
 7345SOL     OW33493   2.150   0.743   5.449  0.5524  0.0835  0.2959
 7345SOL    HW133494   2.079   0.787   5.496 -0.4488 -3.6842  2.3200
 7345SOL    HW233495   2.191   0.828   5.435  1.2365 -0.5859 -1.7892
 7346SOL     OW33496   0.565   2.264  15.795  0.0385 -0.1262  0.5315
 7346SOL    HW133497   0.594   2.276  15.885  0.5523  0.0428  0.3403
 7346SOL    HW233498   0.527   2.349  15.774  2.2906  0.9149  0.7340
 7347SOL     OW33499   3.996   4.301   4.110  0.6299  0.2673  0.2069
 7347SOL    HW133500   3.950   4.274   4.190  0.4010  1.1865  0.3859
 7347SOL    HW233501   4.057   4.230   4.091 -1.2120 -0.7075 -2.0766
 7348SOL     OW33502   1.100   0.674   7.633  0.4671 -0.7302 -0.1932
 7348SOL    HW133503   1.026   0.735   7.636  2.0132  1.1434 -0.2927
 7348SOL    HW233504   1.170   0.737   7.613 -0.0844 -0.4322 -1.2056
 7349SOL     OW33505   0.236   0.016  10.793  0.1826 -0.0949 -0.3106
 7349SOL    HW133506   0.244   4.644  10.814  0.2277 -0.1057 -0.3772
 7349SOL    HW233507   0.161   0.050  10.843  1.2749  1.6149  0.1931
 7350SOL     OW33508   3.945   1.342   8.504  0.0185  0.1222  0.1954
 7350SOL    HW133509   4.031   1.323   8.542  0.4821  2.5845  0.3561
 7350SOL    HW233510   3.970   1.380   8.420 -0.1142 -1.5632 -0.6148
 7351SOL     OW33511   1.315   4.588   8.574  0.9981  0.9134  0.8551
 7351SOL    HW133512   1.318   4.501   8.614 -0.2403 -0.0262 -1.0865
 7351SOL    HW233513   1.339   4.566   8.484 -0.0435 -0.3646  0.8991
 7352SOL     OW33514   2.958   2.871   6.820  0.1638 -0.1964 -0.1090
 7352SOL    HW133515   3.020   2.938   6.790  0.7614 -1.3247 -1.3945
 7352SOL    HW233516   2.972   2.858   6.913  0.1832  1.6106  0.1374
 7353SOL     OW33517   3.203   4.174   3.839 -0.5097  0.1453  0.0302
 7353SOL    HW133518   3.113   4.158   3.811 -0.2383 -2.1752  0.4986
 7353SOL    HW233519   3.211   4.260   3.798 -0.7031  0.4726  0.6728
 7354SOL     OW33520   4.424   2.749  15.501 -0.0342  0.5518  0.2900
 7354SOL    HW133521   4.502   2.723  15.551 -0.2292  0.9019  0.7748
 7354SOL    HW233522   4.377   2.806  15.562 -1.2853 -0.7724  0.5739
 7355SOL     OW33523   1.310   0.318   7.916 -0.2027 -0.1247  0.2184
 7355SOL    HW133524   1.316   0.378   7.842  1.2702  0.4963  0.8514
 7355SOL    HW233525   1.244   0.369   7.963 -0.1812  1.5298 -1.5793
 7356SOL     OW33526   3.885   2.820   5.927  0.9730  0.2216  0.2401
 7356SOL    HW133527   3.912   2.838   5.837  0.2295  0.5795  0.0920
 7356SOL    HW233528   3.865   2.908   5.960 -0.1431  0.1541 -0.2644
 7357SOL     OW33529   2.829   2.672   6.299 -0.2447 -0.2712  0.0006
 7357SOL    HW133530   2.766   2.733   6.339  0.2653  2.3434 -3.1612
 7357SOL    HW233531   2.904   2.728   6.279 -0.3765  1.3412  4.0399
 7358SOL     OW33532   4.643   1.842  17.332  0.3120  0.3947 -0.0942
 7358SOL    HW133533   4.578   1.788  17.287 -0.3884  0.0215  1.3542
 7358SOL    HW233534   4.682   1.782  17.396 -0.1731 -0.8682 -0.9857
 7359SOL     OW33535   1.868   2.587   4.521 -0.1451  0.6303  0.5054
 7359SOL    HW133536   1.773   2.573   4.518 -0.0808  0.2001  0.5614
 7359SOL    HW233537   1.873   2.679   4.494 -0.8056  1.1772  2.1849
 7360SOL     OW33538   3.378   1.503   0.052 -0.1203 -0.0950  0.1566
 7360SOL    HW133539   3.438   1.521   0.125  1.4801 -1.5639 -0.8078
 7360SOL    HW233540   3.434   1.437   0.011 -2.1239  0.2607 -3.1387
 7361SOL     OW33541   1.078   0.440   1.001  0.8443 -0.2292 -0.0579
 7361SOL    HW133542   1.039   0.477   1.080 -1.9471  0.4577 -1.7746
 7361SOL    HW233543   1.046   0.504   0.938 -3.1552 -0.7705  1.4543
 7362SOL     OW33544   0.045   0.073  14.413  0.0635 -0.3052  0.2722
 7362SOL    HW133545   4.708   0.148  14.416 -0.7670 -0.8352 -3.3701
 7362SOL    HW233546   0.022   0.022  14.491 -0.2130 -1.3445 -0.4863
 7363SOL     OW33547   3.642   0.804  17.066  0.2283  0.1693  0.4971
 7363SOL    HW133548   3.546   0.802  17.068  0.0746  3.6029 -2.0387
 7363SOL    HW233549   3.660   0.795  17.159  1.0860  2.0363  0.5121
 7364SOL     OW33550   4.386   2.212   6.380 -0.0053  0.1881 -0.2739
 7364SOL    HW133551   4.314   2.272   6.362 -1.2093 -2.1032 -3.0328
 7364SOL    HW233552   4.424   2.249   6.460  0.2056  0.2711 -0.4104
 7365SOL     OW33553   4.108   3.982   2.717 -0.1782  0.1042 -0.0183
 7365SOL    HW133554   4.143   3.893   2.713 -0.6525 -0.1050  0.5314
 7365SOL    HW233555   4.031   3.968   2.662  1.3302 -0.6727 -1.9291
 7366SOL     OW33556   2.792   0.225   3.432  0.3459  0.4597 -0.3496
 7366SOL    HW133557   2.823   0.300   3.483  0.9070 -1.1088  1.6227
 7366SOL    HW233558   2.809   0.259   3.344 -0.1262  1.4597 -0.0659
 7367SOL     OW33559   1.304   0.370   8.542 -0.4547  0.0115  0.0676
 7367SOL    HW133560   1.296   0.281   8.575 -0.9691 -0.9900 -2.7787
 7367SOL    HW233561   1.378   0.365   8.481 -0.6944 -0.0068 -0.2242
 7368SOL     OW33562   3.496   3.280   0.214  0.1452  0.0826 -0.8407
 7368SOL    HW133563   3.491   3.275   0.118  1.9893 -0.0607 -0.9401
 7368SOL    HW233564   3.589   3.303   0.220  0.1215 -0.8723  2.7671
 7369SOL     OW33565   1.902   3.925  11.071 -0.0529  0.4441  0.3485
 7369SOL    HW133566   1.948   3.854  11.027 -1.8343 -1.3003  1.3014
 7369SOL    HW233567   1.817   3.904  11.032 -0.1150  2.7023 -0.7487
 7370SOL     OW33568   2.184   1.670   6.191 -0.0110  0.3629 -0.0460
 7370SOL    HW133569   2.131   1.748   6.209  0.6981  1.0393 -0.8753
 7370SOL    HW233570   2.163   1.643   6.101 -1.3653 -0.9308  0.6608
 7371SOL     OW33571   0.130   0.479   3.187  0.7089 -0.3525 -0.1285
 7371SOL    HW133572   0.210   0.527   3.161 -0.2970  1.4253  0.0375
 7371SOL    HW233573   0.062   0.539   3.155  1.0619  0.1179 -0.0093
 7372SOL     OW33574   3.868   3.935   5.098  0.0295  0.5110 -0.0866
 7372SOL    HW133575   3.872   4.018   5.146  0.5480  1.4998 -1.8769
 7372SOL    HW233576   3.881   3.971   5.011 -1.0357 -0.5669 -0.6861
 7373SOL     OW33577   2.176   0.209   1.186 -0.6234  0.4240 -0.1202
 7373SOL    HW133578   2.196   0.135   1.129 -0.9303  0.5017 -0.3306
 7373SOL    HW233579   2.117   0.259   1.129  1.1154  3.2751  0.6204
 7374SOL     OW33580   0.171   2.977   1.072  0.4661 -0.2532 -0.4210
 7374SOL    HW133581   0.116   3.042   1.114 -1.8147 -1.7756 -1.0479
 7374SOL    HW233582   0.124   2.897   1.096  1.4445  0.0589  2.4554
 7375SOL     OW33583   1.606   1.479   0.400 -0.0912 -0.5248 -0.0650
 7375SOL    HW133584   1.547   1.423   0.350 -1.2190  1.0106 -0.4740
 7375SOL    HW233585   1.596   1.564   0.356  0.3777 -0.6567 -0.4349
 7376SOL     OW33586   2.071   3.519   8.817  0.1120 -0.8412 -0.4944
 7376SOL    HW133587   1.992   3.572   8.804  0.9562  0.2424 -1.2051
 7376SOL    HW233588   2.033   3.432   8.806  0.8174 -1.1657 -0.3240
 7377SOL     OW33589   4.369   0.821   3.664  0.5707  0.0752  0.9383
 7377SOL    HW133590   4.444   0.772   3.629  1.1421  1.9141 -0.4611
 7377SOL    HW233591   4.364   0.789   3.754  0.2528  0.5250  1.0829
 7378SOL     OW33592   0.764   0.634  13.071 -0.0023  0.1940  0.2111
 7378SOL    HW133593   0.699   0.704  13.076 -0.2467 -0.0665  0.7016
 7378SOL    HW233594   0.792   0.638  12.980 -0.0002 -0.0050  0.2023
 7379SOL     OW33595   3.684   4.418   0.023 -0.1395  0.1782  0.0583
 7379SOL    HW133596   3.644   4.505   0.016  0.5365  0.5018  0.2659
 7379SOL    HW233597   3.686   4.413   0.119 -2.2346 -2.0712 -0.0037
 7380SOL     OW33598   4.618   3.480   5.711 -0.5434  0.4677  0.4598
 7380SOL    HW133599   4.689   3.422   5.683 -1.2078  0.3473 -0.9444
 7380SOL    HW233600   4.667   3.531   5.775 -0.0356  0.2772  0.2201
 7381SOL     OW33601   3.303   1.575  12.436 -0.1699  0.2924 -0.2005
 7381SOL    HW133602   3.325   1.604  12.525  0.1984  1.5587 -0.6971
 7381SOL    HW233603   3.211   1.598  12.427  0.2577  2.0878  0.0214
 7382SOL     OW33604   3.438   3.728   5.885  0.0317 -0.1738 -0.2837
 7382SOL    HW133605   3.421   3.634   5.874  1.4610 -0.2760 -1.4987
 7382SOL    HW233606   3.431   3.735   5.981  0.4217  1.7519 -0.4006
 7383SOL     OW33607   0.690   0.154   2.739  0.0586 -0.3717 -0.0138
 7383SOL    HW133608   0.711   0.246   2.725 -0.0709 -0.6240 -1.9500
 7383SOL    HW233609   0.766   0.106   2.704  0.4318 -0.2906  0.6835
 7384SOL     OW33610   3.180   0.974   3.109  0.3718  0.1380  0.3844
 7384SOL    HW133611   3.152   1.020   3.030 -1.1705 -0.7648  0.4106
 7384SOL    HW233612   3.261   1.024   3.123 -0.4761  1.7108 -0.3813
 7385SOL     OW33613   4.694   0.860   5.627 -0.6074  0.3405 -0.2226
 7385SOL    HW133614   0.058   0.880   5.666  1.0103 -1.2553 -2.8942
 7385SOL    HW233615   4.641   0.935   5.655  2.5615  2.1042  1.0131
 7386SOL     OW33616   4.165   0.291  13.794 -0.9067  0.3223  0.6984
 7386SOL    HW133617   4.122   0.349  13.731  2.4303 -1.3199 -3.1368
 7386SOL    HW233618   4.252   0.330  13.803 -0.2130 -0.8313 -0.9889
 7387SOL     OW33619   4.579   0.086   2.948  0.6333 -0.0110 -0.2534
 7387SOL    HW133620   4.568   4.713   2.958  0.6607  0.2699  2.5400
 7387SOL    HW233621   4.617   0.110   3.033 -1.0653 -3.3562  1.4353
 7388SOL     OW33622   3.525   2.582   4.835  0.3698  0.3128  0.1162
 7388SOL    HW133623   3.601   2.532   4.865 -0.6366  0.2244  2.5346
 7388SOL    HW233624   3.457   2.568   4.902 -0.5331  1.1724 -0.6317
 7389SOL     OW33625   3.249   2.309   0.651  0.3594 -0.2105  0.2811
 7389SOL    HW133626   3.215   2.298   0.563 -0.2963  0.6198  0.4344
 7389SOL    HW233627   3.170   2.332   0.700 -0.5423  0.5428 -1.5557
 7390SOL     OW33628   4.422   3.863   8.557 -0.1863 -0.4130  0.6278
 7390SOL    HW133629   4.496   3.806   8.576  1.9899  2.1029 -0.3221
 7390SOL    HW233630   4.368   3.799   8.511 -0.3168 -0.7403  1.2302
 7391SOL     OW33631   1.959   0.587   3.783  0.3353 -0.5300  0.2341
 7391SOL    HW133632   1.932   0.672   3.748  0.1527 -0.4733  0.5024
 7391SOL    HW233633   1.878   0.536   3.781 -0.4171  0.6408  0.6231
 7392SOL     OW33634   4.362   4.409   4.809  0.6627 -0.4312 -0.3808
 7392SOL    HW133635   4.420   4.476   4.774  0.9565  0.3226  1.5353
 7392SOL    HW233636   4.427   4.345   4.840 -1.4573 -1.4539  1.9891
 7393SOL     OW33637   1.024   1.228   5.306  0.3206 -0.1201  0.1248
 7393SOL    HW133638   0.980   1.155   5.348  0.8955 -0.4081  0.2231
 7393SOL    HW233639   0.964   1.251   5.236  0.3292  3.4771  1.2703
 7394SOL     OW33640   0.185   4.505   9.683  0.1435 -0.0864 -0.1621
 7394SOL    HW133641   0.273   4.511   9.721  0.0288 -2.3518  0.4233
 7394SOL    HW233642   0.195   4.556   9.602  0.6129 -1.5745 -1.0328
 7395SOL     OW33643   3.752   1.010   0.771  0.2193  0.5028  0.1654
 7395SOL    HW133644   3.696   0.954   0.824  0.2113  1.0239  0.7031
 7395SOL    HW233645   3.760   0.962   0.688  0.9374 -0.4120  0.7682
 7396SOL     OW33646   2.161   4.134   1.476 -0.1879  0.0192 -0.1324
 7396SOL    HW133647   2.138   4.042   1.463  0.8917 -0.2121 -0.3908
 7396SOL    HW233648   2.193   4.157   1.389 -0.2294 -0.0246 -0.1594
 7397SOL     OW33649   3.704   1.106   7.662 -0.7147 -0.6849 -0.1702
 7397SOL    HW133650   3.789   1.071   7.687  0.1900  2.2647  0.8652
 7397SOL    HW233651   3.724   1.170   7.594  1.6470  0.8931  2.0328
 7398SOL     OW33652   4.051   4.196   3.813 -0.4130 -0.0880  0.2821
 7398SOL    HW133653   4.114   4.205   3.742 -0.2118  1.4370  0.6544
 7398SOL    HW233654   3.989   4.268   3.800 -1.4187 -1.3366 -1.7827
 7399SOL     OW33655   4.502   4.211   5.325 -0.6388 -0.1812 -0.3947
 7399SOL    HW133656   4.442   4.188   5.254  0.2184  1.5452 -1.6717
 7399SOL    HW233657   4.454   4.288   5.357 -0.3815 -0.2471  0.1400
 7400SOL     OW33658   3.191   0.257   2.517  0.2628 -0.0525  0.3685
 7400SOL    HW133659   3.251   0.236   2.589  2.4813  0.4945 -1.3441
 7400SOL    HW233660   3.218   0.345   2.494 -0.5978  0.6886  2.1387
 7401SOL     OW33661   4.397   1.034   7.787  0.5640  0.7005  0.1409
 7401SOL    HW133662   4.430   1.005   7.872 -0.1782  0.6864  0.4316
 7401SOL    HW233663   4.304   1.008   7.789  1.1241 -1.1865  1.4558
 7402SOL     OW33664   3.815   1.841   6.767  0.4875  0.1799  0.4744
 7402SOL    HW133665   3.751   1.835   6.696  0.1208 -1.1029  0.8941
 7402SOL    HW233666   3.881   1.785   6.727 -0.9538 -1.3254  0.1722
 7403SOL     OW33667   0.554   1.345   4.719  0.2489  0.1891 -0.0440
 7403SOL    HW133668   0.545   1.282   4.790  1.2658 -0.4642 -0.4888
 7403SOL    HW233669   0.512   1.295   4.648 -0.9912  2.5741 -0.9749
 7404SOL     OW33670   3.924   2.556   8.291  0.5601 -0.3225 -0.4319
 7404SOL    HW133671   3.852   2.495   8.310 -1.4731  2.2691  0.0866
 7404SOL    HW233672   3.875   2.605   8.225 -0.2868 -2.4994 -1.4290
 7405SOL     OW33673   2.107   3.831   2.694  0.0365 -0.4596  0.2333
 7405SOL    HW133674   2.093   3.924   2.678  0.1873 -0.5258 -0.2807
 7405SOL    HW233675   2.018   3.810   2.666 -0.5751  0.9962  1.0730
 7406SOL     OW33676   1.673   0.500   9.116  0.0137 -0.5735 -0.3301
 7406SOL    HW133677   1.664   0.444   9.193 -0.2984 -0.0247  0.0340
 7406SOL    HW233678   1.617   0.576   9.136  1.2301  0.2622 -0.0909
 7407SOL     OW33679   1.524   3.121   5.980  0.1173  0.2141 -0.5768
 7407SOL    HW133680   1.617   3.128   6.000 -0.0245 -1.0774  0.5216
 7407SOL    HW233681   1.529   3.027   5.962  2.9638  0.6888 -2.1618
 7408SOL     OW33682   3.094   1.185   0.428 -0.7091  0.4552 -0.0876
 7408SOL    HW133683   3.114   1.106   0.378 -0.9096  0.4808 -0.2101
 7408SOL    HW233684   3.123   1.245   0.359  0.6085  0.2195  0.2694
 7409SOL     OW33685   2.392   4.391   7.660  0.1180 -0.2624 -0.1674
 7409SOL    HW133686   2.382   4.297   7.647  0.1067 -0.2632 -0.1525
 7409SOL    HW233687   2.314   4.436   7.626  0.0420  0.0124  0.3710
 7410SOL     OW33688   2.176   4.033   6.331  0.2359  0.4471  0.5921
 7410SOL    HW133689   2.137   3.946   6.345 -1.6820  1.1057 -0.5794
 7410SOL    HW233690   2.251   4.030   6.391  0.4312  0.7260  0.3578
 7411SOL     OW33691   1.784   1.667   4.084 -0.0799 -0.0067  0.2705
 7411SOL    HW133692   1.735   1.747   4.100  2.0641  1.0703  1.3738
 7411SOL    HW233693   1.736   1.622   4.014 -0.4910  2.5196 -1.0583
 7412SOL     OW33694   2.141   0.416   2.554 -0.1010  0.0053 -0.1841
 7412SOL    HW133695   2.121   0.373   2.471 -0.9642 -1.7284  0.9153
 7412SOL    HW233696   2.060   0.394   2.600  1.0563 -1.6569  1.0678
 7413SOL     OW33697   0.958   4.404   6.789 -0.2724 -0.1768  0.0535
 7413SOL    HW133698   0.886   4.426   6.729  2.2319  0.4268 -2.6889
 7413SOL    HW233699   0.958   4.309   6.789 -0.6284 -0.1810  0.3027
 7414SOL     OW33700   1.550   2.823   7.420  0.6133  0.1158  0.1887
 7414SOL    HW133701   1.556   2.900   7.477  2.1766 -0.0790  0.2820
 7414SOL    HW233702   1.520   2.759   7.485  0.6040  0.5929  0.6503
 7415SOL     OW33703   0.853   2.073  14.292  0.5598 -0.2014 -0.1601
 7415SOL    HW133704   0.938   2.045  14.258 -0.1768 -1.4525 -0.9823
 7415SOL    HW233705   0.797   1.995  14.295 -0.3231  0.4144 -0.6778
 7416SOL     OW33706   4.443   0.951   8.051 -0.0856  0.0272  0.3782
 7416SOL    HW133707   4.530   0.926   8.085  0.0457 -0.5016 -0.3269
 7416SOL    HW233708   4.391   0.874   8.074 -1.3561  1.0102  0.7606
 7417SOL     OW33709   4.601   3.475   4.289  0.2678  0.2051  0.1745
 7417SOL    HW133710   4.518   3.498   4.247  0.7991 -0.5141 -1.2442
 7417SOL    HW233711   4.575   3.393   4.331  1.0677 -0.9350 -1.5710
 7418SOL     OW33712   2.433   1.815   6.930  0.4012  0.2267  0.2636
 7418SOL    HW133713   2.402   1.886   6.875  2.4316 -0.0259 -1.1936
 7418SOL    HW233714   2.526   1.832   6.916  0.1257  1.3775 -0.1000
 7419SOL     OW33715   1.620   3.151  12.801 -0.3351 -0.3132 -0.2630
 7419SOL    HW133716   1.608   3.242  12.825 -0.5765 -0.2590 -0.5904
 7419SOL    HW233717   1.531   3.116  12.803 -1.0032  1.5668  1.5354
 7420SOL     OW33718   3.654   4.504  12.156 -0.1333  0.6397 -0.4366
 7420SOL    HW133719   3.722   4.504  12.088  0.7017  0.4778  0.4042
 7420SOL    HW233720   3.656   4.412  12.180  0.4947  0.7171 -0.1921
 7421SOL     OW33721   4.597   4.640   3.207  0.2044 -0.2505  0.2190
 7421SOL    HW133722   4.633   4.560   3.169 -2.1764 -1.2110  0.0378
 7421SOL    HW233723   4.575   4.628   3.299  0.6654  0.3864  0.4109
 7422SOL     OW33724   1.985   3.053   9.332  0.6632  0.1442 -0.2778
 7422SOL    HW133725   1.975   2.963   9.362 -0.1228  0.5104  0.5397
 7422SOL    HW233726   1.895   3.085   9.337 -0.0666 -1.8627 -0.6710
 7423SOL     OW33727   4.376   2.784   2.519 -0.8225  0.1693 -0.2724
 7423SOL    HW133728   4.414   2.871   2.505 -0.5469  0.3936  1.8750
 7423SOL    HW233729   4.311   2.798   2.450 -1.6358 -1.2712  0.1981
 7424SOL     OW33730   1.660   3.053  11.846 -0.0865 -0.6725  0.6246
 7424SOL    HW133731   1.599   3.081  11.778 -2.4486 -0.0048  3.0055
 7424SOL    HW233732   1.599   3.027  11.915  0.9050 -1.0606  1.3579
 7425SOL     OW33733   4.211   1.886   1.142 -0.1131 -1.1764 -0.0291
 7425SOL    HW133734   4.297   1.896   1.182 -0.5693 -0.1726  0.7349
 7425SOL    HW233735   4.222   1.930   1.057  0.2176 -0.6196  0.3015
 7426SOL     OW33736   1.410   1.999  13.194 -0.4903  0.1095 -0.2550
 7426SOL    HW133737   1.461   2.080  13.203 -1.6215  0.8649 -0.6516
 7426SOL    HW233738   1.419   1.970  13.284  0.0221 -2.3014 -1.0941
 7427SOL     OW33739   1.619   1.698   6.374  0.0207 -0.2963 -0.1902
 7427SOL    HW133740   1.645   1.670   6.462 -2.7277 -2.9034 -0.2382
 7427SOL    HW233741   1.531   1.729   6.393 -0.2602 -0.8638 -0.5963
 7428SOL     OW33742   1.438   1.020   2.034  0.9276 -0.2177  0.1232
 7428SOL    HW133743   1.479   1.058   1.956  0.1695  2.2301  0.8970
 7428SOL    HW233744   1.414   1.097   2.087 -1.7216 -0.0191 -1.3793
 7429SOL     OW33745   2.024   1.579  16.322  0.2051 -0.1114  0.3961
 7429SOL    HW133746   2.026   1.674  16.337  0.0365  0.3141 -2.2510
 7429SOL    HW233747   1.976   1.567  16.241  0.6225 -2.6150  0.5220
 7430SOL     OW33748   2.273   1.358  15.847  0.6527  0.3912  0.0517
 7430SOL    HW133749   2.308   1.383  15.761  2.0470  0.0892  0.5316
 7430SOL    HW233750   2.294   1.265  15.852 -1.7045 -0.2823 -2.4611
 7431SOL     OW33751   0.197   4.017  15.646 -0.1402  0.0062 -0.0724
 7431SOL    HW133752   0.111   3.978  15.666 -0.1902  1.2025  2.0348
 7431SOL    HW233753   0.254   3.948  15.612 -1.2428 -1.5116  1.1381
 7432SOL     OW33754   1.643   0.069   7.279 -0.4989 -0.4970  0.3917
 7432SOL    HW133755   1.701   0.021   7.337 -0.1316  1.5617  1.7359
 7432SOL    HW233756   1.697   0.079   7.201  0.5411 -2.4012  0.8960
 7433SOL     OW33757   3.454   3.551   2.092  0.2313  0.1161  0.6598
 7433SOL    HW133758   3.440   3.646   2.092  0.9374  0.2122 -0.8570
 7433SOL    HW233759   3.517   3.541   2.163 -0.0253  0.4757  0.9411
 7434SOL     OW33760   3.484   1.431   0.445 -0.2551 -0.3673  0.0762
 7434SOL    HW133761   3.518   1.485   0.373  1.7497 -1.0866  0.4863
 7434SOL    HW233762   3.503   1.342   0.415 -1.5756 -0.4670 -0.4603
 7435SOL     OW33763   0.371   4.531  14.389 -0.1164  0.0246  0.3001
 7435SOL    HW133764   0.287   4.545  14.345 -0.1403 -4.6400 -1.1146
 7435SOL    HW233765   0.364   4.441  14.420  2.8533 -0.3744 -0.2059
 7436SOL     OW33766   1.204   1.374   7.186 -0.3634 -0.5764 -0.7225
 7436SOL    HW133767   1.241   1.441   7.129  1.0042  0.2112  1.0944
 7436SOL    HW233768   1.270   1.360   7.253 -2.3814 -2.1267  0.9560
 7437SOL     OW33769   3.729   1.046  16.800  0.2148  0.2228  0.0460
 7437SOL    HW133770   3.706   1.127  16.846 -0.1851  0.7632 -1.0961
 7437SOL    HW233771   3.643   1.029  16.762  0.7000  1.8116 -1.7294
 7438SOL     OW33772   4.394   4.405   2.554  0.2093  1.0925 -0.2687
 7438SOL    HW133773   4.308   4.443   2.537 -1.1538 -1.5494  0.6125
 7438SOL    HW233774   4.380   4.347   2.629  0.1739  0.5159 -0.7165
 7439SOL     OW33775   4.366   0.117   3.505  0.4002 -0.0724  0.4598
 7439SOL    HW133776   4.376   0.023   3.517 -0.2225  0.0258  1.7427
 7439SOL    HW233777   4.272   0.125   3.517  0.8484  2.0672  2.4893
 7440SOL     OW33778   2.924   4.367   5.873  0.0780 -0.0287  0.2065
 7440SOL    HW133779   2.835   4.346   5.902 -0.7192 -0.3105 -2.4324
 7440SOL    HW233780   2.895   4.368   5.782 -1.2265  0.1436  0.6160
 7441SOL     OW33781   4.370   0.184  16.950  0.0752  0.0842  0.4001
 7441SOL    HW133782   4.420   0.121  17.002  5.2850  2.2061 -1.9419
 7441SOL    HW233783   4.296   0.128  16.928  0.3364 -0.7401  1.6199
 7442SOL     OW33784   4.539   2.316   6.592 -0.7303 -0.3508  0.6477
 7442SOL    HW133785   4.601   2.242   6.589  1.1680  1.1786  1.7269
 7442SOL    HW233786   4.497   2.304   6.677 -0.6163 -0.6705  0.6604
 7443SOL     OW33787   2.549   1.365   6.008  0.1840  0.4743 -0.2062
 7443SOL    HW133788   2.514   1.442   6.053  0.2370  0.3651  0.0193
 7443SOL    HW233789   2.495   1.363   5.929  0.4478 -1.0160 -0.3463
 7444SOL     OW33790   0.607   1.566  10.192  0.1001  0.0751  0.9512
 7444SOL    HW133791   0.695   1.595  10.170 -2.0035  4.5652 -1.4015
 7444SOL    HW233792   0.568   1.652  10.208 -0.4371 -0.4766  2.6520
 7445SOL     OW33793   3.472   4.502  11.382  0.1719  0.3635 -0.2430
 7445SOL    HW133794   3.548   4.534  11.430 -0.0156 -2.6544  2.0091
 7445SOL    HW233795   3.460   4.420  11.430 -1.3803  0.6088 -0.2063
 7446SOL     OW33796   0.934   3.501   8.145  0.1472 -0.0831 -0.0549
 7446SOL    HW133797   0.983   3.444   8.204 -0.0437 -0.4304 -0.2331
 7446SOL    HW233798   0.988   3.523   8.069 -2.1337  1.4894 -1.2329
 7447SOL     OW33799   2.326   3.690   2.554 -0.1506 -0.0065  0.8275
 7447SOL    HW133800   2.299   3.768   2.506 -0.9183 -1.3017 -0.8589
 7447SOL    HW233801   2.286   3.708   2.639  1.7019 -1.0182  1.9193
 7448SOL     OW33802   0.175   1.312   4.411  0.3216 -0.1052  0.0069
 7448SOL    HW133803   0.185   1.359   4.329 -2.2393 -0.1924 -0.3435
 7448SOL    HW233804   0.200   1.381   4.472 -3.3350 -0.0173  1.3723
 7449SOL     OW33805   3.270   0.854   4.766 -0.4632 -0.0579 -0.6350
 7449SOL    HW133806   3.204   0.912   4.804 -0.0833 -0.3165  0.4336
 7449SOL    HW233807   3.320   0.838   4.846  0.3992  0.0164 -1.1630
 7450SOL     OW33808   1.896   4.171   5.435  0.0843  0.0271 -0.1918
 7450SOL    HW133809   1.893   4.076   5.448 -0.1687  0.0027 -0.4462
 7450SOL    HW233810   1.804   4.196   5.443 -0.0916 -1.0817  1.1968
 7451SOL     OW33811   1.126   2.773   6.855  0.2089  0.0865 -0.1365
 7451SOL    HW133812   1.054   2.836   6.865  0.5794  0.6094 -0.7938
 7451SOL    HW233813   1.081   2.701   6.810 -0.3917  0.9941 -0.9708
 7452SOL     OW33814   3.950   2.118   1.851 -0.1474 -0.3931  0.5226
 7452SOL    HW133815   4.036   2.093   1.817 -0.2806  1.4555 -1.2328
 7452SOL    HW233816   3.901   2.036   1.844  0.6326 -0.6046 -2.7524
 7453SOL     OW33817   3.599   1.233   6.559  0.2476 -0.0833  0.2528
 7453SOL    HW133818   3.538   1.262   6.491 -0.8397 -2.4387  0.2149
 7453SOL    HW233819   3.672   1.292   6.541  0.8531 -1.7363 -2.7655
 7454SOL     OW33820   0.991   4.315   8.297 -0.4452 -0.4204  0.0583
 7454SOL    HW133821   0.982   4.323   8.202  0.5495 -0.9290 -0.0754
 7454SOL    HW233822   0.976   4.407   8.320 -0.1595 -0.3237 -0.1480
 7455SOL     OW33823   2.557   0.243   7.032 -0.2197 -0.2642  0.3381
 7455SOL    HW133824   2.613   0.250   6.955 -0.6852  0.9093  0.1073
 7455SOL    HW233825   2.495   0.173   7.011 -3.6085  2.2904  1.7423
 7456SOL     OW33826   3.389   2.016   5.286  0.4420  0.2556  0.2460
 7456SOL    HW133827   3.438   2.084   5.331 -0.3272  0.7016  0.4197
 7456SOL    HW233828   3.381   1.950   5.356  0.2031  0.6064  0.5502
 7457SOL     OW33829   3.777   4.537   0.330  0.8609 -0.6219  0.2316
 7457SOL    HW133830   3.819   4.583   0.403 -2.0828  0.0247  1.4735
 7457SOL    HW233831   3.684   4.539   0.352  1.3038  0.7526  2.0222
 7458SOL     OW33832   2.582   0.448   2.039  0.5996  0.0984 -0.1786
 7458SOL    HW133833   2.576   0.352   2.034  0.6493  0.1376 -0.9089
 7458SOL    HW233834   2.572   0.483   1.951 -1.6102  0.8405  0.3623
 7459SOL     OW33835   2.226   3.085   0.091  0.2775  0.4170 -0.4930
 7459SOL    HW133836   2.132   3.083   0.109  0.4151 -0.5603  0.1024
 7459SOL    HW233837   2.270   3.005   0.119  0.5637  0.0571 -1.9622
 7460SOL     OW33838   0.888   1.851  13.009  0.0974 -0.1194 -0.5880
 7460SOL    HW133839   0.853   1.939  13.022 -2.3115 -1.0599 -0.8676
 7460SOL    HW233840   0.938   1.836  13.089  1.6433  1.6635 -1.2050
 7461SOL     OW33841   4.420   4.294   6.882  0.4034  0.3795  0.6044
 7461SOL    HW133842   4.512   4.316   6.902  0.1760  0.6030  1.4216
 7461SOL    HW233843   4.392   4.289   6.974  1.5731 -1.2623  0.8724
 7462SOL     OW33844   3.163   1.707  11.868  0.2899 -0.3686 -0.7211
 7462SOL    HW133845   3.165   1.799  11.842 -0.1540  0.5122  2.3203
 7462SOL    HW233846   3.253   1.680  11.849  0.0219 -2.3213  0.7443
 7463SOL     OW33847   2.159   4.096   1.828 -0.3691 -0.3681  0.8401
 7463SOL    HW133848   2.110   4.159   1.880 -2.3206 -0.0096 -1.4193
 7463SOL    HW233849   2.194   4.142   1.752 -1.2288  0.8822  1.2053
 7464SOL     OW33850   0.091   3.068   6.938 -0.3340 -0.0337  0.3327
 7464SOL    HW133851   0.132   3.002   6.995 -0.9430 -1.6149 -1.0425
 7464SOL    HW233852   0.161   3.119   6.899  0.5862 -3.1453 -2.0978
 7465SOL     OW33853   3.087   1.373   9.964  0.3726 -0.0354  0.2311
 7465SOL    HW133854   3.059   1.416   9.883 -1.9842  1.6838  1.9725
 7465SOL    HW233855   3.114   1.443  10.023 -0.2895  2.6082 -2.5594
 7466SOL     OW33856   3.288   0.143   4.215 -0.2244  0.1821  0.7412
 7466SOL    HW133857   3.206   0.106   4.181  1.0247 -0.6789 -1.3167
 7466SOL    HW233858   3.271   0.237   4.218  0.8740  0.3811  0.8452
 7467SOL     OW33859   1.025   1.388  12.346 -0.6387  0.5378  0.5562
 7467SOL    HW133860   1.073   1.326  12.402  1.7681  1.4934 -0.4284
 7467SOL    HW233861   1.087   1.431  12.287 -0.3805  0.5071  0.8004
 7468SOL     OW33862   1.131   0.044   4.349 -1.3257 -0.3320 -0.6546
 7468SOL    HW133863   1.188   4.708   4.298  0.2921 -1.2573  2.1858
 7468SOL    HW233864   1.195   0.107   4.382 -0.3096 -0.6692 -1.9998
 7469SOL     OW33865   2.431   0.505   5.690  0.4121 -0.0831 -0.5213
 7469SOL    HW133866   2.486   0.452   5.747  0.5377  0.2016 -0.3781
 7469SOL    HW233867   2.494   0.556   5.639 -0.0499 -0.4347 -1.4572
 7470SOL     OW33868   3.353   1.073   7.878 -0.6155  0.2385 -0.2505
 7470SOL    HW133869   3.385   1.015   7.947 -0.3842  0.1344 -0.4452
 7470SOL    HW233870   3.404   1.036   7.806 -1.3229 -0.7895 -0.2408
 7471SOL     OW33871   4.012   0.738   9.536 -0.4367 -0.5323  0.1386
 7471SOL    HW133872   4.100   0.770   9.557 -0.4506 -1.0538  0.9812
 7471SOL    HW233873   3.961   0.749   9.616 -1.1049  0.8033 -0.4660
 7472SOL     OW33874   1.923   3.148   7.610  0.1063  0.2239 -0.1957
 7472SOL    HW133875   1.833   3.136   7.641 -0.3860 -0.5216 -1.9564
 7472SOL    HW233876   1.922   3.242   7.591  1.1080  0.3249  0.2729
 7473SOL     OW33877   0.122   2.245  12.856  0.1108 -0.0252 -0.5529
 7473SOL    HW133878   0.138   2.178  12.790  0.8683  0.3278 -0.7221
 7473SOL    HW233879   0.210   2.283  12.860 -0.1321  0.1820  3.3881
 7474SOL     OW33880   1.684   3.624   8.419 -0.3627 -0.0694  0.0156
 7474SOL    HW133881   1.747   3.695   8.411  1.1810 -1.3105  1.0840
 7474SOL    HW233882   1.703   3.572   8.498  1.4582  0.4365 -0.0970
 7475SOL     OW33883   1.044   3.378   3.454 -0.3276  0.3610 -0.3968
 7475SOL    HW133884   1.016   3.415   3.370  1.2326  1.4141 -0.4584
 7475SOL    HW233885   1.051   3.288   3.422 -0.6305  0.0766  0.3484
 7476SOL     OW33886   1.640   0.243  10.203 -0.5773  0.2897  0.0421
 7476SOL    HW133887   1.677   0.166  10.245  0.8875  0.2379 -1.3225
 7476SOL    HW233888   1.627   0.206  10.115 -0.3449 -0.0587  0.1575
 7477SOL     OW33889   4.119   1.353   5.728 -0.2736  0.6044 -0.0503
 7477SOL    HW133890   4.096   1.417   5.795 -4.1234 -0.8035  0.0043
 7477SOL    HW233891   4.214   1.358   5.716 -0.2479 -0.0831 -0.1373
 7478SOL     OW33892   4.306   1.384   6.269  0.2673 -0.0658  0.3123
 7478SOL    HW133893   4.364   1.389   6.344 -0.3740  1.7862  0.6587
 7478SOL    HW233894   4.266   1.297   6.275  0.1754  0.0329  1.1100
 7479SOL     OW33895   4.101   0.335   4.803 -0.3689 -0.2803 -0.3561
 7479SOL    HW133896   4.126   0.412   4.751  0.1456 -0.1104  0.1428
 7479SOL    HW233897   4.028   0.381   4.847  0.4515 -0.2014  0.9360
 7480SOL     OW33898   2.881   0.405  15.415 -0.1640 -0.2167  0.3426
 7480SOL    HW133899   2.828   0.481  15.442  0.3608  0.6282 -1.0433
 7480SOL    HW233900   2.819   0.340  15.381 -0.7223  1.1385 -1.2226
 7481SOL     OW33901   3.156   3.617   2.647 -0.1455  0.1639 -0.2338
 7481SOL    HW133902   3.109   3.563   2.710  0.0289  2.5604  1.9308
 7481SOL    HW233903   3.182   3.694   2.697  0.6807  0.6822 -1.4624
 7482SOL     OW33904   0.965   1.235  10.313  0.3233 -0.0592 -0.5942
 7482SOL    HW133905   0.907   1.307  10.337 -1.1487 -1.2764 -0.5030
 7482SOL    HW233906   0.933   1.226  10.223 -0.6693  0.8915 -0.3258
 7483SOL     OW33907   2.729   0.449   5.345  0.2111  0.0954  0.5760
 7483SOL    HW133908   2.671   0.490   5.409  0.9528 -0.7129  1.7507
 7483SOL    HW233909   2.789   0.523   5.336  0.1723  0.1517  0.7851
 7484SOL     OW33910   3.463   1.106  16.047  0.3958  0.3888 -0.2929
 7484SOL    HW133911   3.492   1.031  15.996 -0.3150 -0.2411  0.2340
 7484SOL    HW233912   3.465   1.181  15.987  2.6093  1.3328  0.9650
 7485SOL     OW33913   1.662   3.092   4.164  0.0486  0.1187 -0.1145
 7485SOL    HW133914   1.673   3.009   4.211 -0.3545  1.0864  1.6766
 7485SOL    HW233915   1.663   3.141   4.246 -0.0215 -1.5663  0.8999
 7486SOL     OW33916   2.495   4.291   5.504  0.1966 -0.0902  0.3795
 7486SOL    HW133917   2.506   4.197   5.492 -4.1463 -0.3262 -1.9861
 7486SOL    HW233918   2.430   4.304   5.435  1.3771  0.0524 -0.6990
 7487SOL     OW33919   4.514   2.198  10.777 -0.8923  0.0900 -0.8440
 7487SOL    HW133920   4.461   2.130  10.737  0.4685 -1.0598 -0.7057
 7487SOL    HW233921   4.581   2.147  10.823 -2.4571 -1.3933 -0.1812
 7488SOL     OW33922   1.400   3.916   4.449 -0.2938  0.1827 -0.3304
 7488SOL    HW133923   1.360   3.871   4.524  1.5419 -1.1880 -0.1981
 7488SOL    HW233924   1.388   3.846   4.385  0.7038 -1.7007  1.5607
 7489SOL     OW33925   0.645   0.067   0.954 -0.3154  0.1053 -0.4338
 7489SOL    HW133926   0.623   4.698   0.978  0.1361 -0.1104 -0.8281
 7489SOL    HW233927   0.719   0.070   0.894  0.5944  0.2627  0.7064
 7490SOL     OW33928   1.551   0.370  14.436  0.2210  0.0341 -0.0083
 7490SOL    HW133929   1.574   0.461  14.456  1.3809 -0.1826 -0.3507
 7490SOL    HW233930   1.484   0.358  14.503  1.0503 -1.7751  0.5037
 7491SOL     OW33931   3.010   0.067   4.788  0.5198 -0.2860 -0.1961
 7491SOL    HW133932   3.061   0.147   4.771  0.3073  0.0081  0.5335
 7491SOL    HW233933   2.999   0.038   4.698 -2.7478 -0.4193  0.2495
 7492SOL     OW33934   0.428   4.368   0.097  0.4043  0.0253  0.0862
 7492SOL    HW133935   0.404   4.280   0.067  1.8355 -1.2093  2.5498
 7492SOL    HW233936   0.387   4.416   0.025 -0.8841  0.7670  1.3305
 7493SOL     OW33937   0.128   1.693   8.093  0.5191 -0.2100 -0.3952
 7493SOL    HW133938   0.192   1.755   8.059 -0.7485  0.8746 -0.8236
 7493SOL    HW233939   0.088   1.740   8.166  0.5577  1.3257 -1.3660
 7494SOL     OW33940   0.581   1.950   5.017  0.2756  0.1769  0.1481
 7494SOL    HW133941   0.618   1.895   4.948 -1.0519 -0.2777 -0.2015
 7494SOL    HW233942   0.491   1.918   5.022 -0.0138  0.7848 -1.0912
 7495SOL     OW33943   4.542   4.406   4.368  0.4416 -0.4206 -0.6171
 7495SOL    HW133944   4.553   4.368   4.455 -0.6355  3.0110  1.0330
 7495SOL    HW233945   4.446   4.408   4.358  0.1569  1.1249  2.2557
 7496SOL     OW33946   0.081   1.750   3.467 -0.6347 -0.2618 -0.1347
 7496SOL    HW133947   0.115   1.695   3.538 -0.1078  0.6726  0.3383
 7496SOL    HW233948   0.148   1.816   3.451 -0.2148 -0.6300  0.1114
 7497SOL     OW33949   2.165   3.165   1.399  0.3257  0.0805  0.0950
 7497SOL    HW133950   2.250   3.164   1.356  0.5790 -1.0449  0.6449
 7497SOL    HW233951   2.170   3.241   1.457  1.3656 -0.1843  0.3448
 7498SOL     OW33952   0.310   4.417   4.962 -0.0135  0.4704  0.2164
 7498SOL    HW133953   0.334   4.489   4.905 -0.1416  0.4676  0.1583
 7498SOL    HW233954   0.394   4.371   4.961 -1.8348 -2.8182 -1.9240
 7499SOL     OW33955   4.067   0.467   5.819  0.4637  0.5723 -0.0642
 7499SOL    HW133956   4.133   0.398   5.817 -1.4397 -1.2134 -1.8709
 7499SOL    HW233957   4.059   0.467   5.723  1.6701  1.7816 -0.1578
 7500SOL     OW33958   2.456   0.432  15.205  0.2648 -0.4801 -0.5599
 7500SOL    HW133959   2.385   0.383  15.161 -2.3182  1.7490  1.1247
 7500SOL    HW233960   2.526   0.397  15.151  0.7371 -1.5579  0.7682
 7501SOL     OW33961   2.391   1.162  12.617  0.5507  0.4667 -0.3257
 7501SOL    HW133962   2.327   1.153  12.688  2.8670  0.2069  1.7459
 7501SOL    HW233963   2.348   1.130  12.538  2.5860  0.8143 -1.5651
 7502SOL     OW33964   2.426   1.113   4.438 -0.4852 -0.2079  0.3557
 7502SOL    HW133965   2.455   1.044   4.498 -1.9528 -1.1622 -0.0323
 7502SOL    HW233966   2.333   1.097   4.424 -0.1528 -1.7726 -0.0761
 7503SOL     OW33967   2.284   1.860  10.958  0.6145 -0.3010 -0.6706
 7503SOL    HW133968   2.358   1.919  10.946  0.8991 -0.8664 -1.6537
 7503SOL    HW233969   2.218   1.928  10.971  1.9622  0.9819 -0.6260
 7504SOL     OW33970   0.127   2.194  11.092  0.5532  0.3975 -0.0050
 7504SOL    HW133971   0.192   2.126  11.109 -1.0547 -1.5156 -1.5308
 7504SOL    HW233972   0.059   2.137  11.058  0.4531  0.9794 -0.7727
 7505SOL     OW33973   1.969   4.028   3.071 -0.0963  0.4957 -0.0155
 7505SOL    HW133974   2.064   4.017   3.058  0.0123 -1.7865  2.6429
 7505SOL    HW233975   1.932   3.941   3.055 -0.0013  0.6038 -0.8466
 7506SOL     OW33976   0.253   1.192   6.647  0.2511 -0.4300  0.3402
 7506SOL    HW133977   0.347   1.175   6.650 -0.0863 -2.3052  0.2782
 7506SOL    HW233978   0.235   1.208   6.740 -0.9870  0.4606 -0.0411
 7507SOL     OW33979   4.262   2.034   5.315 -0.9135 -0.0894  0.2201
 7507SOL    HW133980   4.343   2.077   5.340 -0.7437 -0.2473 -0.0496
 7507SOL    HW233981   4.227   2.021   5.403  1.6414 -2.8438  0.8492
 7508SOL     OW33982   2.331   4.201  17.121  0.0668 -0.5977 -0.0485
 7508SOL    HW133983   2.312   4.157  17.204 -1.5807  0.9277  0.3676
 7508SOL    HW233984   2.416   4.173  17.088  0.3305  0.2664 -0.1094
 7509SOL     OW33985   2.960   3.545   3.615  1.0519 -0.2018  0.2352
 7509SOL    HW133986   2.964   3.491   3.536 -1.7590 -2.6108  1.7231
 7509SOL    HW233987   3.001   3.493   3.685  1.1837  1.9264  1.7465
 7510SOL     OW33988   2.576   1.995   0.962 -0.0214  0.1210  0.1205
 7510SOL    HW133989   2.519   2.043   0.902 -1.2950 -1.8200 -0.2047
 7510SOL    HW233990   2.598   1.922   0.903  0.7223 -0.0210  0.5781
 7511SOL     OW33991   0.566   1.366  15.468  0.2891  0.4531 -0.3133
 7511SOL    HW133992   0.514   1.421  15.527 -0.6893 -0.7739 -0.0290
 7511SOL    HW233993   0.652   1.403  15.488  0.5290  0.2597 -0.9781
 7512SOL     OW33994   0.389   1.505   8.064  0.1470  0.0697 -0.0506
 7512SOL    HW133995   0.433   1.440   8.009  1.9241  1.4995 -0.3147
 7512SOL    HW233996   0.352   1.555   7.991 -0.7207 -2.2395 -1.2193
 7513SOL     OW33997   0.807   0.514  12.523  0.1314  0.0584  0.0675
 7513SOL    HW133998   0.786   0.606  12.508 -2.1011 -0.5600 -0.5520
 7513SOL    HW233999   0.899   0.524  12.549  0.3615 -1.9609  0.0146
 7514SOL     OW34000   4.606   4.549  15.809 -0.1400 -0.5793  0.3437
 7514SOL    HW134001   4.531   4.490  15.810 -1.1789  0.7313  0.3477
 7514SOL    HW234002   4.641   4.538  15.721 -0.2376 -0.1463  0.2469
 7515SOL     OW34003   2.862   4.038  13.017  0.0178  0.9214  0.3142
 7515SOL    HW134004   2.910   4.011  12.938 -0.8338  1.3324 -0.3504
 7515SOL    HW234005   2.870   3.963  13.075  0.7672 -0.7174 -1.9041
 7516SOL     OW34006   2.517   2.854   9.527 -0.5381 -0.0357  0.1995
 7516SOL    HW134007   2.543   2.766   9.553 -2.6503 -1.5036 -2.7046
 7516SOL    HW234008   2.512   2.891   9.616 -1.7336 -0.1820  0.1879
 7517SOL     OW34009   2.672   3.709   2.194  0.3602 -0.4267 -0.1548
 7517SOL    HW134010   2.736   3.686   2.262 -1.1220  0.1995  1.4478
 7517SOL    HW234011   2.724   3.689   2.116  1.7069 -1.2777  0.9565
 7518SOL     OW34012   4.303   4.639   5.206 -0.5287  0.6444  0.4434
 7518SOL    HW134013   4.272   4.669   5.121  0.0515  1.1889  0.4242
 7518SOL    HW234014   4.383   4.691   5.215  0.4756 -0.4961 -1.8899
 7519SOL     OW34015   0.420   3.304  16.418 -0.0069  0.1780  0.4543
 7519SOL    HW134016   0.441   3.229  16.362  1.9180  1.3993 -0.4982
 7519SOL    HW234017   0.327   3.289  16.434 -0.1100 -0.2270 -0.5212
 7520SOL     OW34018   1.091   2.210   9.919  0.5425  0.2044 -0.6758
 7520SOL    HW134019   1.040   2.284   9.953  0.3363  0.5366 -1.7131
 7520SOL    HW234020   1.177   2.215   9.961  0.3666  2.2169 -0.5319
 7521SOL     OW34021   0.674   0.700   2.791  0.1695  0.2044  0.1974
 7521SOL    HW134022   0.728   0.711   2.712 -2.1006 -0.9896 -1.5279
 7521SOL    HW234023   0.585   0.716   2.760 -0.1084  1.0605  1.4559
 7522SOL     OW34024   3.256   1.269   6.354  0.7167  0.1423  0.5282
 7522SOL    HW134025   3.162   1.290   6.358  0.7644  0.2149  1.4838
 7522SOL    HW234026   3.297   1.338   6.407 -0.6270  0.1236  1.6033
 7523SOL     OW34027   1.321   4.534   7.504 -0.2455  0.7849 -0.1583
 7523SOL    HW134028   1.342   4.625   7.484 -0.0445  0.2754 -2.2673
 7523SOL    HW234029   1.296   4.498   7.419  0.5002 -0.4062  0.1170
 7524SOL     OW34030   2.425   3.310   8.086  0.6131 -0.6529  0.1816
 7524SOL    HW134031   2.516   3.286   8.071  0.4391 -0.8671 -0.5653
 7524SOL    HW234032   2.415   3.237   8.146 -1.3116 -0.9204 -0.4654
 7525SOL     OW34033   0.685   3.000   5.735  0.2447  0.4159  0.2075
 7525SOL    HW134034   0.644   3.066   5.680  0.2723 -1.0355 -1.5360
 7525SOL    HW234035   0.648   2.915   5.713  2.2017  0.6556 -4.0230
 7526SOL     OW34036   1.379   3.586   7.112 -0.5832 -0.2777  0.4884
 7526SOL    HW134037   1.305   3.619   7.164  0.0725 -2.0874  2.5387
 7526SOL    HW234038   1.358   3.494   7.097  0.2825 -0.5154  0.7593
 7527SOL     OW34039   0.298   0.783   7.614  0.5609  0.0077 -0.6595
 7527SOL    HW134040   0.278   0.874   7.595  1.4380  0.8344  2.3277
 7527SOL    HW234041   0.226   0.769   7.676  0.8593  1.4594  0.0161
 7528SOL     OW34042   4.129   3.979  13.533  0.3357  0.1744 -0.4098
 7528SOL    HW134043   4.181   4.008  13.608  3.4288  0.0480 -2.4794
 7528SOL    HW234044   4.192   3.931  13.479  3.0588  4.0533 -0.7483
 7529SOL     OW34045   2.795   0.147   7.205 -0.4717  0.4492  0.1726
 7529SOL    HW134046   2.860   0.115   7.143 -2.3396  0.0072 -1.5688
 7529SOL    HW234047   2.722   0.158   7.144 -2.4156 -1.3521  2.1683
 7530SOL     OW34048   1.299   2.954  15.127 -0.1787 -0.4803 -0.0658
 7530SOL    HW134049   1.251   2.951  15.210  0.3073  0.0375  0.2355
 7530SOL    HW234050   1.300   3.047  15.104  2.9068 -0.0820  1.6928
 7531SOL     OW34051   3.371   2.840   2.913  0.3914  0.4937  0.3982
 7531SOL    HW134052   3.281   2.841   2.947  0.0265 -0.6913 -0.5469
 7531SOL    HW234053   3.366   2.913   2.851 -2.0673 -1.2151 -1.3910
 7532SOL     OW34054   4.212   2.369   6.989 -0.5390 -0.0941  0.6688
 7532SOL    HW134055   4.183   2.316   7.064  0.9710  0.4021  1.6192
 7532SOL    HW234056   4.187   2.456   7.019  0.8210  0.7786 -0.7901
 7533SOL     OW34057   4.514   4.338  17.004 -0.6960 -0.0649 -0.1042
 7533SOL    HW134058   4.518   4.417  16.949  0.8297 -0.2365 -0.2405
 7533SOL    HW234059   4.530   4.365  17.094  0.7503  0.8510 -0.6314
 7534SOL     OW34060   3.782   3.787  10.570 -0.1109 -0.0881  0.4227
 7534SOL    HW134061   3.786   3.855  10.502 -1.1586 -0.5677 -0.1212
 7534SOL    HW234062   3.872   3.767  10.598 -0.5390 -2.9096 -0.1403
 7535SOL     OW34063   3.671   4.666   3.060 -0.0709  0.1081  0.0533
 7535SOL    HW134064   3.701   0.024   3.105 -2.5673 -0.3636  2.4817
 7535SOL    HW234065   3.655   4.609   3.134 -1.4903 -0.3167 -0.5863
 7536SOL     OW34066   1.422   3.845  15.714  0.2315  0.6208  0.3587
 7536SOL    HW134067   1.338   3.850  15.759 -1.0049  0.3190 -1.9303
 7536SOL    HW234068   1.384   3.837  15.627  1.2542  1.7890 -0.2014
 7537SOL     OW34069   3.324   4.190   5.704 -0.8565 -0.5799 -0.1736
 7537SOL    HW134070   3.418   4.183   5.691 -0.4236 -1.0411  3.0525
 7537SOL    HW234071   3.288   4.263   5.654 -1.0885 -1.1171 -0.7873
 7538SOL     OW34072   0.067   1.671   1.599  0.3367 -0.0880 -0.0588
 7538SOL    HW134073   0.111   1.589   1.622 -0.5989 -0.6732 -0.3521
 7538SOL    HW234074   0.125   1.722   1.655  1.4670 -1.1109 -0.2970
 7539SOL     OW34075   4.527   2.501   3.891 -0.8933 -0.3114 -0.5051
 7539SOL    HW134076   4.486   2.519   3.807  1.0089  1.2540 -1.1074
 7539SOL    HW234077   4.579   2.580   3.904 -2.6439  0.8145 -0.3783
 7540SOL     OW34078   0.671   0.060   3.182 -0.3831 -0.5677  0.2307
 7540SOL    HW134079   0.749   0.082   3.132  0.0408 -0.7054  0.8326
 7540SOL    HW234080   0.614   0.006   3.128  0.5567  1.7365 -3.0442
 7541SOL     OW34081   4.074   3.974  15.377  0.2853  0.3465  0.1699
 7541SOL    HW134082   4.037   3.899  15.423 -0.8020 -0.3533 -1.8504
 7541SOL    HW234083   4.148   3.982  15.437  1.7647 -0.7787 -1.5323
 7542SOL     OW34084   4.514   3.493   8.459  0.7899  0.1381 -0.5090
 7542SOL    HW134085   4.436   3.547   8.465  1.2632  0.7986 -0.3409
 7542SOL    HW234086   4.544   3.493   8.368  0.1818  2.7892 -0.7093
 7543SOL     OW34087   1.618   1.661   0.198 -1.0767 -0.5159 -0.1216
 7543SOL    HW134088   1.524   1.663   0.179 -1.2760  0.9945  1.0070
 7543SOL    HW234089   1.645   1.702   0.116  0.2605  1.3188  1.2370
 7544SOL     OW34090   4.261   0.808  12.463  0.0742 -0.5399  0.7653
 7544SOL    HW134091   4.328   0.764  12.517 -0.3814 -2.1040  0.0388
 7544SOL    HW234092   4.310   0.890  12.458 -2.0407  0.5326 -2.4959
 7545SOL     OW34093   3.779   3.529   9.771 -0.3245 -0.4235  0.4939
 7545SOL    HW134094   3.873   3.548   9.778  0.0848 -1.4114 -2.3776
 7545SOL    HW234095   3.747   3.615   9.799 -1.9921 -1.6388  2.3152
 7546SOL     OW34096   4.336   0.346   3.027 -0.4123 -0.1737  0.6696
 7546SOL    HW134097   4.408   0.327   3.087  0.2481 -1.3697 -0.5022
 7546SOL    HW234098   4.356   0.439   3.014 -1.7943 -0.1132 -1.0125
 7547SOL     OW34099   1.742   1.368   8.054 -0.3415 -0.6764  0.5466
 7547SOL    HW134100   1.829   1.390   8.021 -1.0141 -0.7447 -1.2648
 7547SOL    HW234101   1.698   1.452   8.041 -1.9745 -1.5917  0.1495
 7548SOL     OW34102   3.007   0.295  17.165  0.5437 -0.3719  0.0520
 7548SOL    HW134103   3.024   0.255  17.079 -2.5298  1.0655 -1.2336
 7548SOL    HW234104   3.067   0.368  17.171 -1.1975  0.9411  1.4922
 7549SOL     OW34105   2.924   3.008  13.247 -0.5620  0.1745  0.3019
 7549SOL    HW134106   2.978   2.930  13.257 -2.2337 -1.5368 -3.8824
 7549SOL    HW234107   2.842   2.959  13.238 -1.2985  1.2822  0.9106
 7550SOL     OW34108   1.421   2.294  13.680  0.2027 -0.2488  0.0654
 7550SOL    HW134109   1.456   2.375  13.718 -1.5360  1.0612 -1.1307
 7550SOL    HW234110   1.492   2.272  13.619 -1.0527 -1.3335 -0.9816
 7551SOL     OW34111   4.567   3.601   5.018  0.3340  0.2040  0.1554
 7551SOL    HW134112   4.532   3.520   4.980  1.3759 -1.0031  1.7911
 7551SOL    HW234113   4.543   3.660   4.946 -0.1530 -0.9756 -0.6434
 7552SOL     OW34114   2.990   1.637  16.945  0.0567  0.2918 -0.0630
 7552SOL    HW134115   2.992   1.602  17.034 -0.2062 -1.7122 -0.8481
 7552SOL    HW234116   2.905   1.611  16.910  1.1833 -1.0644 -1.7702
 7553SOL     OW34117   0.625   2.466   7.363  0.3568 -0.3459 -0.1916
 7553SOL    HW134118   0.556   2.489   7.301  1.3805  0.5664 -0.9933
 7553SOL    HW234119   0.696   2.432   7.309  0.6208 -3.2913  2.0271
 7554SOL     OW34120   3.828   2.688   5.163 -0.1485 -0.7024  0.0733
 7554SOL    HW134121   3.735   2.689   5.139  0.1703  0.2015 -1.0719
 7554SOL    HW234122   3.872   2.664   5.082 -0.0089  0.0998 -0.0883
 7555SOL     OW34123   1.257   4.368   4.477  0.0999 -0.1670  0.0087
 7555SOL    HW134124   1.333   4.363   4.535  0.3144 -2.5150 -0.4476
 7555SOL    HW234125   1.282   4.317   4.399  1.8864  1.0470 -0.2225
 7556SOL     OW34126   4.452   1.249  11.327 -0.4187 -0.1707  0.1859
 7556SOL    HW134127   4.402   1.263  11.246 -1.1035  2.1439  1.0019
 7556SOL    HW234128   4.455   1.154  11.335  0.3872 -0.0040  1.8694
 7557SOL     OW34129   3.959   1.682   3.750 -0.2880  0.3275  0.0812
 7557SOL    HW134130   3.889   1.691   3.815 -1.4968 -0.7979 -1.0636
 7557SOL    HW234131   3.994   1.595   3.772  2.5051  1.6599  0.9127
 7558SOL     OW34132   4.134   1.020   0.491  0.2563 -0.2173  0.4206
 7558SOL    HW134133   4.222   1.056   0.479  0.0341  0.1768 -0.0475
 7558SOL    HW234134   4.097   1.075   0.560 -1.4573 -3.5065  2.1151
 7559SOL     OW34135   4.594   2.325   5.263  0.0026 -0.4182 -0.0531
 7559SOL    HW134136   4.547   2.324   5.180 -1.0742 -1.5862  0.5841
 7559SOL    HW234137   4.661   2.260   5.242  1.9927  1.5171  0.1954
 7560SOL     OW34138   1.428   3.075  17.378 -0.0570 -0.4266 -0.0501
 7560SOL    HW134139   1.441   2.981  17.370  0.3370 -0.6426  2.8394
 7560SOL    HW234140   1.510   3.099  17.422  0.1292  3.1138 -2.2717
 7561SOL     OW34141   4.393   3.359   7.542 -1.0678 -0.3218  0.0119
 7561SOL    HW134142   4.340   3.327   7.615  0.2909  0.7618  1.4439
 7561SOL    HW234143   4.381   3.454   7.554  1.6062  0.0494 -0.3016
 7562SOL     OW34144   0.176   0.633   5.842 -0.5362  0.2095  0.2780
 7562SOL    HW134145   0.150   0.721   5.870 -1.0920 -0.5721  2.2325
 7562SOL    HW234146   0.120   0.586   5.904  0.6095 -0.0211  1.1384
 7563SOL     OW34147   0.196   0.726   5.072 -0.5847  0.0763  0.6380
 7563SOL    HW134148   0.163   0.800   5.123 -0.3933 -0.7384  1.9522
 7563SOL    HW234149   0.280   0.721   5.117 -0.8185  0.2379  1.0884
 7564SOL     OW34150   4.508   0.690   7.847  0.3392  0.0478 -0.4640
 7564SOL    HW134151   4.436   0.654   7.794 -0.4973 -0.1534  0.8028
 7564SOL    HW234152   4.489   0.655   7.935 -0.9383 -0.2669 -0.8564
 7565SOL     OW34153   3.237   4.136  16.289  0.2800  0.2887 -0.0676
 7565SOL    HW134154   3.252   4.042  16.285  2.1992  0.5907  0.2858
 7565SOL    HW234155   3.323   4.166  16.261  1.5253 -3.8269 -0.5623
 7566SOL     OW34156   1.522   3.980  16.483 -0.2413 -0.8598  0.3089
 7566SOL    HW134157   1.427   3.968  16.488 -0.4992  1.4013  0.5459
 7566SOL    HW234158   1.563   3.936  16.558  0.0511 -0.4620  0.3809
 7567SOL     OW34159   0.386   1.036   5.919 -0.1271 -0.2946  0.2348
 7567SOL    HW134160   0.481   1.024   5.910 -0.3304 -1.3271 -0.5090
 7567SOL    HW234161   0.365   0.981   5.994 -0.1701  1.7543  1.7482
 7568SOL     OW34162   3.919   4.475  12.076  0.4185  0.2014 -0.1879
 7568SOL    HW134163   4.008   4.474  12.111  0.7141 -2.4998 -1.0662
 7568SOL    HW234164   3.901   4.567  12.097  1.0841 -0.0419  1.4835
 7569SOL     OW34165   1.717   3.091  14.807  0.3063 -0.5166  0.4370
 7569SOL    HW134166   1.773   3.115  14.881 -0.9462  3.0055  0.2723
 7569SOL    HW234167   1.769   3.123  14.734 -0.7952  0.7544  0.1919
 7570SOL     OW34168   3.716   1.275  10.333  0.5242 -0.1909 -0.3159
 7570SOL    HW134169   3.746   1.351  10.283 -2.3549  1.0135 -0.2051
 7570SOL    HW234170   3.805   1.247  10.358  0.3382  1.0064  1.6622
 7571SOL     OW34171   4.105   3.651  15.247 -0.2427 -0.2105 -0.0415
 7571SOL    HW134172   4.051   3.667  15.325 -0.3889  1.0643 -0.3982
 7571SOL    HW234173   4.050   3.599  15.189 -1.7832  1.0388  0.2760
 7572SOL     OW34174   0.467   2.838   7.912 -0.2124 -0.5448 -0.0935
 7572SOL    HW134175   0.462   2.811   8.004 -2.3843 -1.0215 -0.3424
 7572SOL    HW234176   0.492   2.757   7.868 -0.5782 -0.3755 -0.6179
 7573SOL     OW34177   0.628   3.376   2.620  0.1511  0.1232 -0.1409
 7573SOL    HW134178   0.712   3.422   2.614  1.0175 -1.6855 -2.1748
 7573SOL    HW234179   0.641   3.300   2.562 -1.4108 -1.2249  1.2651
 7574SOL     OW34180   0.734   1.258   2.792  0.0985 -0.0002  0.7865
 7574SOL    HW134181   0.721   1.352   2.802 -1.5811 -0.1838  0.3683
 7574SOL    HW234182   0.674   1.237   2.863 -2.5879  2.5422 -0.7186
 7575SOL     OW34183   3.365   3.521   1.144  0.1479  0.2765 -0.3932
 7575SOL    HW134184   3.348   3.475   1.062 -0.9134 -0.7515  0.4121
 7575SOL    HW234185   3.285   3.573   1.150  0.0673  0.1122 -0.0787
 7576SOL     OW34186   1.902   1.042   2.682 -0.2200 -0.8401 -0.5432
 7576SOL    HW134187   1.824   0.995   2.712 -0.6755  0.2917  0.0694
 7576SOL    HW234188   1.892   1.024   2.588  0.3359  2.5567 -1.2546
 7577SOL     OW34189   2.462   3.525   2.270  0.1824 -0.4719 -0.3735
 7577SOL    HW134190   2.512   3.602   2.243  2.0625 -1.9074 -0.9499
 7577SOL    HW234191   2.376   3.545   2.233  0.3063  0.7041 -0.0516
 7578SOL     OW34192   0.634   0.358  11.058  0.9604 -0.3884  0.0341
 7578SOL    HW134193   0.646   0.272  11.099 -2.8329  0.1102  2.1392
 7578SOL    HW234194   0.540   0.347  11.044  1.0436  2.2840 -2.6848
 7579SOL     OW34195   3.428   2.643   0.808 -0.6561  0.0614  0.7978
 7579SOL    HW134196   3.447   2.551   0.827  4.1836  0.5205 -1.7429
 7579SOL    HW234197   3.350   2.622   0.756 -2.0687  1.0152  2.5579
 7580SOL     OW34198   2.711   3.849   3.748  0.0600  0.5242 -0.4497
 7580SOL    HW134199   2.633   3.804   3.717  1.5341 -1.8535 -0.7467
 7580SOL    HW234200   2.705   3.843   3.844  0.4657  0.6293 -0.4163
 7581SOL     OW34201   3.452   0.149  16.294  0.3287 -0.5394 -0.2228
 7581SOL    HW134202   3.389   0.211  16.258 -1.1210 -1.4092  0.7945
 7581SOL    HW234203   3.473   0.207  16.367  0.8492  0.4686 -1.1881
 7582SOL     OW34204   1.317   0.713   2.036 -0.2765  0.4090 -0.1650
 7582SOL    HW134205   1.357   0.635   1.997  0.4413  0.8914 -0.3814
 7582SOL    HW234206   1.232   0.697   1.994 -0.3968 -0.7662  0.5235
 7583SOL     OW34207   3.050   1.113   9.342 -0.0810 -0.4542  0.1122
 7583SOL    HW134208   2.999   1.193   9.326 -0.8361 -1.0997 -0.7184
 7583SOL    HW234209   3.138   1.150   9.335 -1.1011  1.6837 -1.5816
 7584SOL     OW34210   4.073   0.107   6.648  0.1374 -0.1315 -0.0127
 7584SOL    HW134211   4.055   0.135   6.738 -0.1199  1.3478 -0.5306
 7584SOL    HW234212   4.095   0.192   6.610 -0.8003 -0.2451 -0.8096
 7585SOL     OW34213   0.054   2.960   8.422  0.0012 -0.1671  0.0482
 7585SOL    HW134214   0.096   2.999   8.345 -0.0846  0.9592  0.5744
 7585SOL    HW234215   4.709   2.903   8.383  1.5261  0.7216 -3.7888
 7586SOL     OW34216   2.692   3.116   4.553 -0.3708 -0.3223 -0.1330
 7586SOL    HW134217   2.605   3.127   4.593 -0.4688  2.0769 -0.9888
 7586SOL    HW234218   2.680   3.086   4.463  1.0283 -1.9114  0.2072
 7587SOL     OW34219   2.542   2.457   7.925 -0.4581 -1.2882 -0.1670
 7587SOL    HW134220   2.481   2.384   7.910 -0.3172 -1.0642 -1.7607
 7587SOL    HW234221   2.534   2.459   8.021  1.6527 -0.0926 -0.0120
 7588SOL     OW34222   0.237   3.603   5.823  0.4714  0.7197 -0.4499
 7588SOL    HW134223   0.257   3.571   5.911 -0.6139  3.0547  0.6517
 7588SOL    HW234224   0.288   3.538   5.775  0.3119 -0.4960  0.9860
 7589SOL     OW34225   2.643   4.406   2.674  0.3312  0.0263  0.2502
 7589SOL    HW134226   2.660   4.320   2.714  0.4459 -1.0359 -2.1289
 7589SOL    HW234227   2.727   4.432   2.637 -0.1246  1.1985  0.0592
 7590SOL     OW34228   4.640   1.270   8.074 -0.1307  0.0970 -0.4314
 7590SOL    HW134229   4.628   1.180   8.045 -1.3832  1.4365 -4.0512
 7590SOL    HW234230   0.010   1.274   8.103 -1.1979  3.6605  2.4063
 7591SOL     OW34231   4.051   4.132  13.183  0.1412  0.2545  0.1795
 7591SOL    HW134232   3.971   4.089  13.153 -1.4527  2.1983  1.6256
 7591SOL    HW234233   4.031   4.151  13.275  3.5515 -0.1693  1.0253
 7592SOL     OW34234   4.169   3.807   1.777  0.3226 -0.4262 -0.3394
 7592SOL    HW134235   4.211   3.804   1.863 -2.7772 -1.5715  1.1343
 7592SOL    HW234236   4.165   3.901   1.765 -1.3854 -0.6119 -1.2296
 7593SOL     OW34237   2.650   0.403   2.895  0.2629 -0.0882  0.0170
 7593SOL    HW134238   2.577   0.400   2.834  0.5191 -2.3512 -0.2156
 7593SOL    HW234239   2.725   0.419   2.838  2.0341 -1.3562  1.9713
 7594SOL     OW34240   4.037   3.288   5.309 -0.4557 -0.5665  0.3998
 7594SOL    HW134241   3.991   3.240   5.240 -0.5272 -2.2504  1.6029
 7594SOL    HW234242   4.085   3.354   5.259 -1.9418 -0.5907 -1.0455
 7595SOL     OW34243   3.232   0.607   7.935 -0.0246 -0.5236  0.3010
 7595SOL    HW134244   3.230   0.703   7.937  1.3720 -0.4592 -1.4487
 7595SOL    HW234245   3.240   0.599   8.031 -0.8413  0.4547  0.4531
 7596SOL     OW34246   1.029   2.774   3.780 -0.1502  0.1800 -0.0916
 7596SOL    HW134247   1.026   2.726   3.697  0.4831 -1.3491  0.7733
 7596SOL    HW234248   1.119   2.809   3.778  0.0520 -0.2952  0.6517
 7597SOL     OW34249   2.865   1.256  17.476  0.0262 -0.2968 -0.0897
 7597SOL    HW134250   2.790   1.289  17.526  0.9014 -2.1905  2.4565
 7597SOL    HW234251   2.883   1.185  17.537  0.9608  0.2683  0.2892
 7598SOL     OW34252   0.342   0.231   6.288  0.0562  0.3259  0.3280
 7598SOL    HW134253   0.364   0.143   6.258 -1.1746 -0.3788  1.4678
 7598SOL    HW234254   0.314   0.209   6.377  0.1633 -0.3663  0.1913
 7599SOL     OW34255   4.285   2.470  14.324 -0.0973 -0.1286  0.6054
 7599SOL    HW134256   4.262   2.537  14.388 -0.4582  0.1066  0.2321
 7599SOL    HW234257   4.205   2.447  14.276 -1.7829  2.0636  2.3484
 7600SOL     OW34258   2.835   1.886   3.256  0.1291 -0.0626 -0.1981
 7600SOL    HW134259   2.910   1.911   3.201 -0.0780 -1.6942 -1.2459
 7600SOL    HW234260   2.885   1.828   3.313  1.0042  0.1151 -0.7809
 7601SOL     OW34261   0.332   2.672  14.212 -0.2897 -0.2928 -0.0100
 7601SOL    HW134262   0.328   2.584  14.248  1.8570  0.5859  2.3722
 7601SOL    HW234263   0.241   2.682  14.183 -0.3815 -0.8879  0.0844
 7602SOL     OW34264   4.385   2.268  11.088 -0.0713 -0.1863 -0.3721
 7602SOL    HW134265   4.435   2.276  11.007  0.9597 -0.4456  0.2337
 7602SOL    HW234266   4.444   2.210  11.136 -0.9931 -0.2811  0.6288
 7603SOL     OW34267   1.455   0.971   5.253 -0.0638  0.4398  0.1535
 7603SOL    HW134268   1.465   0.931   5.167 -1.2152 -1.6960  0.9953
 7603SOL    HW234269   1.396   1.044   5.236 -0.8870 -0.0242  1.0230
 7604SOL     OW34270   3.413   4.539   7.208  0.5993 -0.1625  0.1170
 7604SOL    HW134271   3.396   4.595   7.284 -1.6051 -1.7069  0.7686
 7604SOL    HW234272   3.507   4.552   7.206  0.6185 -0.7757 -2.8956
 7605SOL     OW34273   2.442   4.263  10.554  0.2187 -0.0402 -0.1031
 7605SOL    HW134274   2.348   4.268  10.575 -0.0034 -0.5208 -0.9647
 7605SOL    HW234275   2.474   4.228  10.638 -0.8022  0.6760  0.5835
 7606SOL     OW34276   4.571   2.907   8.672  0.0177  0.1447 -0.0226
 7606SOL    HW134277   4.521   2.925   8.592 -0.8888  0.0293  0.5148
 7606SOL    HW234278   4.648   2.962   8.660  0.3850 -0.9394 -2.5653
 7607SOL     OW34279   0.626   0.012   6.608 -0.1643 -0.7657 -0.2076
 7607SOL    HW134280   0.631   4.720   6.703  0.2673  0.9431 -0.0089
 7607SOL    HW234281   0.700   4.677   6.582  1.8389  1.6977  0.1845
 7608SOL     OW34282   1.661   1.009   3.861  0.1776  0.2523  0.1535
 7608SOL    HW134283   1.581   1.050   3.893 -0.4817 -0.5241 -0.4754
 7608SOL    HW234284   1.716   1.063   3.917  0.0637 -0.8624  1.3396
 7609SOL     OW34285   1.319   2.612   6.381 -0.3316  0.0848  0.0851
 7609SOL    HW134286   1.321   2.629   6.287  1.1960 -0.5560  0.0005
 7609SOL    HW234287   1.350   2.523   6.392  0.5161  0.4507  0.6836
 7610SOL     OW34288   2.240   3.297  16.905 -0.3933  0.1503 -0.3654
 7610SOL    HW134289   2.184   3.370  16.878 -0.1701  0.0600 -1.0894
 7610SOL    HW234290   2.223   3.294  16.999 -2.0685  0.0324 -0.6802
 7611SOL     OW34291   2.454   2.521   9.750 -0.0151  0.2950 -0.7827
 7611SOL    HW134292   2.401   2.500   9.672 -1.0006  1.5555 -0.4525
 7611SOL    HW234293   2.540   2.492   9.722 -0.9965 -1.2279 -2.2315
 7612SOL     OW34294   4.168   1.410  14.804 -0.5185 -0.2116  0.0272
 7612SOL    HW134295   4.251   1.457  14.817 -2.0828  1.8982  2.5174
 7612SOL    HW234296   4.184   1.339  14.742 -1.1656 -1.0602  0.8517
 7613SOL     OW34297   1.779   0.925  13.714 -0.0661  0.0661 -0.0404
 7613SOL    HW134298   1.732   0.947  13.634  0.6554 -1.5197 -0.8949
 7613SOL    HW234299   1.746   0.988  13.779 -1.3035 -1.7130  1.0541
 7614SOL     OW34300   1.944   1.196   6.098 -0.3043 -0.2048  0.9042
 7614SOL    HW134301   1.983   1.229   6.017 -0.5801  0.9008  1.2197
 7614SOL    HW234302   1.854   1.226   6.084 -0.3295 -1.0457 -0.7193
 7615SOL     OW34303   1.641   1.153   1.007  0.4225 -0.1902 -0.2826
 7615SOL    HW134304   1.730   1.160   1.040 -0.2474  2.5379  0.9162
 7615SOL    HW234305   1.671   1.131   0.919  0.1683 -1.4332 -0.0514
 7616SOL     OW34306   1.205   0.294  15.226  0.0080 -0.2857  0.4720
 7616SOL    HW134307   1.219   0.297  15.320  0.7071  0.8321  0.3324
 7616SOL    HW234308   1.287   0.324  15.186 -0.0952 -1.3599 -0.5564
 7617SOL     OW34309   0.308   4.062  10.386 -0.0135  0.1393 -0.2722
 7617SOL    HW134310   0.289   4.098  10.473 -0.5603 -0.7139 -0.0409
 7617SOL    HW234311   0.382   4.003  10.394  0.4974  0.9422  0.8881
 7618SOL     OW34312   2.499   3.058  15.636 -0.3111  0.0012 -0.0059
 7618SOL    HW134313   2.565   3.078  15.569  0.6487 -2.0345  0.3326
 7618SOL    HW234314   2.414   3.047  15.594 -0.0846  0.6457 -0.6224
 7619SOL     OW34315   3.655   0.771   7.854  0.2238  0.0612  0.6010
 7619SOL    HW134316   3.719   0.741   7.789 -0.2636  1.2323 -0.4392
 7619SOL    HW234317   3.584   0.708   7.850  0.8680 -0.6388  0.1254
 7620SOL     OW34318   1.390   3.817   5.896 -0.4491  0.6076 -0.8323
 7620SOL    HW134319   1.447   3.839   5.821 -0.3581 -2.6636 -1.7225
 7620SOL    HW234320   1.406   3.898   5.945  1.5693  0.4298 -1.2186
 7621SOL     OW34321   3.229   3.284   8.663  0.0939  0.1779  0.1992
 7621SOL    HW134322   3.211   3.280   8.569 -0.5989 -1.6432  0.3951
 7621SOL    HW234323   3.286   3.207   8.662 -0.9554 -0.6126  1.7404
 7622SOL     OW34324   3.848   2.340  12.811  0.0603 -0.4602  0.1424
 7622SOL    HW134325   3.872   2.254  12.778  0.3511  0.0769 -1.0127
 7622SOL    HW234326   3.839   2.311  12.902 -0.5508 -0.7207  0.0019
 7623SOL     OW34327   3.676   3.246   8.843  0.6452  0.4488 -0.1474
 7623SOL    HW134328   3.698   3.180   8.909 -0.1168 -1.3493 -1.6978
 7623SOL    HW234329   3.660   3.317   8.905  1.3615  1.7284 -1.4425
 7624SOL     OW34330   1.218   4.462   0.529  0.2508 -0.3200 -0.2191
 7624SOL    HW134331   1.154   4.484   0.598  0.2508  1.0412 -0.6549
 7624SOL    HW234332   1.288   4.526   0.538  0.1576 -0.0021 -1.8624
 7625SOL     OW34333   3.939   3.630   7.467  0.1249  0.1925 -0.0871
 7625SOL    HW134334   3.862   3.576   7.483  0.6345  0.0244  1.7983
 7625SOL    HW234335   3.920   3.710   7.516  2.1378  0.8477 -0.3827
 7626SOL     OW34336   3.030   2.173  17.473 -0.2587 -0.0578 -0.4373
 7626SOL    HW134337   2.946   2.199  17.435  0.0820  0.3335 -0.9178
 7626SOL    HW234338   3.064   2.259  17.498 -0.0793 -0.5754  1.1114
 7627SOL     OW34339   1.744   2.126   3.874  0.2941 -0.1743 -0.1251
 7627SOL    HW134340   1.815   2.170   3.920  1.2157  0.4857 -2.1918
 7627SOL    HW234341   1.673   2.189   3.881  1.5557  1.2365 -0.0912
 7628SOL     OW34342   0.339   0.544   6.601  0.2427 -0.1866  0.5496
 7628SOL    HW134343   0.348   0.486   6.525  0.9779  0.5761  0.0428
 7628SOL    HW234344   0.306   0.624   6.560  2.3645 -0.4264 -1.6203
 7629SOL     OW34345   0.782   2.499   4.562 -0.2718  0.4927  0.0756
 7629SOL    HW134346   0.720   2.478   4.492  0.9249 -1.0018 -0.5191
 7629SOL    HW234347   0.836   2.420   4.558 -0.0345  0.6682 -0.1593
 7630SOL     OW34348   0.758   4.083  14.894 -0.2472 -0.1917  0.0438
 7630SOL    HW134349   0.781   3.992  14.874  2.2619  0.0153  1.9777
 7630SOL    HW234350   0.841   4.127  14.876 -0.5038 -0.0015 -0.6991
 7631SOL     OW34351   3.570   0.149  15.602  0.0701 -0.7291 -0.3379
 7631SOL    HW134352   3.566   0.102  15.519  1.5638  0.8985 -1.3388
 7631SOL    HW234353   3.492   0.108  15.639  0.6372 -2.7256 -1.3387
 7632SOL     OW34354   4.465   4.401   1.486  0.5636 -0.0260  0.3961
 7632SOL    HW134355   4.477   4.307   1.481 -1.3866 -0.2621 -0.1125
 7632SOL    HW234356   4.548   4.431   1.522  1.5419 -1.4784 -0.6545
 7633SOL     OW34357   0.343   2.798   1.948 -0.3216 -0.5937  0.0442
 7633SOL    HW134358   0.434   2.775   1.931 -1.4478 -4.5230 -0.4879
 7633SOL    HW234359   0.319   2.792   1.856  0.9075  3.0000 -0.5205
 7634SOL     OW34360   3.964   1.340   5.519  0.3960  0.2803  0.2408
 7634SOL    HW134361   4.012   1.318   5.598 -1.2036  0.5565  1.2974
 7634SOL    HW234362   4.024   1.310   5.451 -0.2853  0.6796 -0.5488
 7635SOL     OW34363   2.429   0.462   3.470  0.5370 -0.2210  0.2886
 7635SOL    HW134364   2.422   0.556   3.456 -0.2578 -0.5454 -1.4804
 7635SOL    HW234365   2.358   0.454   3.533 -0.0011 -2.3448 -0.5780
 7636SOL     OW34366   4.514   2.004  12.239 -0.4392 -0.2183 -0.1406
 7636SOL    HW134367   4.461   1.981  12.163 -1.8926 -1.0434  1.1293
 7636SOL    HW234368   4.557   1.923  12.267  2.0129  0.7792 -1.0150
 7637SOL     OW34369   2.411   2.851  14.410 -0.2069 -0.2139 -0.1766
 7637SOL    HW134370   2.382   2.910  14.341  0.9919  0.8688  0.2420
 7637SOL    HW234371   2.495   2.825  14.373 -1.5477 -0.4167 -3.0868
 7638SOL     OW34372   1.553   2.232  14.968  0.5534  0.3727 -0.4858
 7638SOL    HW134373   1.573   2.308  14.913  1.9681 -1.4937 -2.5738
 7638SOL    HW234374   1.462   2.253  14.987  0.2808  0.0946 -1.4927
 7639SOL     OW34375   3.932   1.156   3.642 -0.5238 -0.0216  0.1548
 7639SOL    HW134376   3.897   1.117   3.722  0.3455 -1.3016 -0.0902
 7639SOL    HW234377   3.851   1.179   3.596  1.0535  0.5538 -2.3460
 7640SOL     OW34378   1.898   3.956   4.133  0.1827  0.5188 -0.7198
 7640SOL    HW134379   1.905   3.924   4.042  0.8342 -0.9298 -0.1679
 7640SOL    HW234380   1.820   3.910   4.164  0.1904 -2.3698 -4.9406
 7641SOL     OW34381   0.319   1.135  16.762 -0.2655  0.2778 -0.0924
 7641SOL    HW134382   0.228   1.106  16.756 -0.7171  1.7247 -0.2864
 7641SOL    HW234383   0.307   1.230  16.761  0.9120  0.4458  0.5750
 7642SOL     OW34384   3.517   2.916   5.294 -0.5945 -0.1167  0.1205
 7642SOL    HW134385   3.598   2.949   5.333 -0.1777 -2.9517  1.7058
 7642SOL    HW234386   3.551   2.857   5.226 -1.8861  0.7111 -1.2251
 7643SOL     OW34387   2.884   0.322   4.028  0.9117  0.7945  0.8190
 7643SOL    HW134388   2.845   0.392   4.079  0.6777  1.0603  0.2745
 7643SOL    HW234389   2.910   0.357   3.943  0.7154 -1.5938 -0.2450
 7644SOL     OW34390   1.237   2.162   9.062  0.2983  0.4482  0.5785
 7644SOL    HW134391   1.315   2.215   9.044  0.7603 -0.5971 -0.5471
 7644SOL    HW234392   1.186   2.228   9.109  0.1290  0.2230  0.7097
 7645SOL     OW34393   4.251   0.638   4.308 -0.5458  0.0030  0.4720
 7645SOL    HW134394   4.298   0.718   4.331  0.6923  0.0785 -2.3460
 7645SOL    HW234395   4.299   0.597   4.236 -1.4176 -1.4307  0.6995
 7646SOL     OW34396   4.645   2.014  14.333 -0.2800 -0.2687 -0.0402
 7646SOL    HW134397   0.004   2.038  14.380  0.1235 -0.2224 -0.7564
 7646SOL    HW234398   4.684   1.965  14.260 -1.1037  1.5790 -1.7009
 7647SOL     OW34399   0.456   1.726  11.380  0.0499  0.4925 -0.0196
 7647SOL    HW134400   0.390   1.769  11.434  2.0562  1.1898  1.8563
 7647SOL    HW234401   0.503   1.671  11.443 -0.8478 -1.7042 -1.2606
 7648SOL     OW34402   0.771   2.874   2.530  0.1178  0.2705  0.5572
 7648SOL    HW134403   0.819   2.837   2.603 -1.1942  0.6375  1.5966
 7648SOL    HW234404   0.722   2.803   2.488 -1.4519  2.0774 -0.7060
 7649SOL     OW34405   2.861   2.431   3.738  0.3366  0.2258 -0.2175
 7649SOL    HW134406   2.824   2.412   3.652  1.0856  1.6612 -0.8695
 7649SOL    HW234407   2.954   2.419   3.719  0.3502 -1.3927  0.9225
 7650SOL     OW34408   2.316   2.489   8.936  0.0702 -0.2852 -0.3307
 7650SOL    HW134409   2.240   2.462   8.885  1.1581  1.9372 -3.0889
 7650SOL    HW234410   2.367   2.408   8.939 -0.3926 -0.5519  0.3359
 7651SOL     OW34411   1.859   0.213  13.256  0.5393 -0.0524  0.3865
 7651SOL    HW134412   1.858   0.165  13.173 -1.8997 -0.3143  0.5774
 7651SOL    HW234413   1.881   0.142  13.317 -1.0062 -0.8064  0.0586
 7652SOL     OW34414   3.491   0.496  13.467  0.6376  0.0761 -0.8207
 7652SOL    HW134415   3.452   0.446  13.394 -0.9892  1.9553 -1.2385
 7652SOL    HW234416   3.546   0.424  13.498 -0.0054 -0.7512 -1.5824
 7653SOL     OW34417   3.066   0.509  12.314  0.7387 -0.0641  0.1146
 7653SOL    HW134418   3.011   0.587  12.320  1.9517  0.6349  2.3846
 7653SOL    HW234419   3.045   0.462  12.233  0.3512 -0.9474  0.7286
 7654SOL     OW34420   2.346   2.702   6.896  0.3686  0.0826 -0.1084
 7654SOL    HW134421   2.424   2.723   6.846 -0.1245  0.1877 -0.8360
 7654SOL    HW234422   2.372   2.633   6.957 -1.1046  0.4950  0.9949
 7655SOL     OW34423   0.946   0.592  14.511  0.3897 -0.4627 -0.5633
 7655SOL    HW134424   0.950   0.601  14.416 -0.1064  3.3889 -0.2219
 7655SOL    HW234425   0.926   0.500  14.526 -3.6835  0.5019 -0.1017
 7656SOL     OW34426   3.432   3.003  14.852 -0.0065 -0.2498  0.1654
 7656SOL    HW134427   3.382   3.077  14.885 -0.2508 -1.1827  1.9100
 7656SOL    HW234428   3.443   2.958  14.936 -0.6940 -3.4071 -1.3983
 7657SOL     OW34429   2.010   3.829   9.119 -0.0670 -0.3165  0.3251
 7657SOL    HW134430   2.074   3.763   9.090  1.7230  2.6839 -2.5490
 7657SOL    HW234431   2.026   3.818   9.213 -1.5980 -3.1100  0.2609
 7658SOL     OW34432   0.428   0.658   5.192  0.2461  0.2712  0.5488
 7658SOL    HW134433   0.434   0.689   5.283  3.5215 -0.6770  0.6579
 7658SOL    HW234434   0.443   0.564   5.208 -1.1620  0.1248  1.0684
 7659SOL     OW34435   1.350   1.918   9.207 -0.2740  0.3174  0.1982
 7659SOL    HW134436   1.322   1.916   9.298 -0.9746 -0.1326 -0.0249
 7659SOL    HW234437   1.312   2.001   9.178  0.6669  1.2325  1.5984
 7660SOL     OW34438   4.393   4.649   6.207 -0.1547  0.2146  0.5180
 7660SOL    HW134439   4.358   4.580   6.263 -1.5667 -2.1497 -3.3070
 7660SOL    HW234440   4.386   4.609   6.121  0.3142  0.2342  0.4705
 7661SOL     OW34441   2.546   0.697   7.758  0.4523 -0.0033  0.3135
 7661SOL    HW134442   2.599   0.620   7.738  0.4884  0.1343 -0.1290
 7661SOL    HW234443   2.615   0.759   7.785 -1.6801  1.5994  2.0470
 7662SOL     OW34444   4.215   3.191   6.869  0.0511  0.6706 -0.4593
 7662SOL    HW134445   4.148   3.259   6.879 -0.5662 -0.3572  2.3767
 7662SOL    HW234446   4.235   3.176   6.962  1.1701  1.6036 -0.5352
 7663SOL     OW34447   3.687   0.210   3.198 -0.1092 -0.0437 -0.0547
 7663SOL    HW134448   3.721   0.171   3.278  0.4137  2.7519  1.0523
 7663SOL    HW234449   3.744   0.285   3.183 -0.1693  0.0328  0.1053
 7664SOL     OW34450   2.519   2.318   4.690 -0.1723 -0.5598 -0.6307
 7664SOL    HW134451   2.487   2.407   4.707 -1.4779 -1.3107  0.8249
 7664SOL    HW234452   2.608   2.351   4.693 -0.3430 -0.3845  1.8408
 7665SOL     OW34453   0.223   3.970   2.733 -0.1521  0.4147 -0.6951
 7665SOL    HW134454   0.249   3.990   2.823  0.1126 -2.7340 -0.0841
 7665SOL    HW234455   0.236   3.875   2.737  2.0418  0.7961  0.9462
 7666SOL     OW34456   3.586   4.258   3.136  0.3454 -0.8016  0.0325
 7666SOL    HW134457   3.535   4.294   3.064  1.8867 -2.7506 -2.0544
 7666SOL    HW234458   3.623   4.335   3.179  0.0135 -1.8118  2.1045
 7667SOL     OW34459   4.102   3.972   3.532 -0.0599 -0.0194  0.2915
 7667SOL    HW134460   4.026   3.950   3.586 -1.2438  1.0431 -0.9583
 7667SOL    HW234461   4.105   3.896   3.473 -0.2143  0.5391 -0.4284
 7668SOL     OW34462   1.142   1.606   6.903 -0.2760 -0.0777 -0.4306
 7668SOL    HW134463   1.087   1.683   6.915 -0.7371 -0.5722  0.6395
 7668SOL    HW234464   1.100   1.550   6.837  0.7009  0.0851 -1.1943
 7669SOL     OW34465   1.963   2.748   2.209  0.0108  0.6096  0.0026
 7669SOL    HW134466   1.958   2.744   2.304  0.8263 -0.8034 -0.0147
 7669SOL    HW234467   1.882   2.798   2.195 -0.6632 -0.3960  0.2856
 7670SOL     OW34468   3.153   4.664   2.653  0.2214  0.1446  0.4822
 7670SOL    HW134469   3.209   0.018   2.675  0.4797  0.2522 -0.5529
 7670SOL    HW234470   3.216   4.609   2.607 -1.6653 -1.3382 -0.3091
 7671SOL     OW34471   3.133   2.392   3.698 -0.7510  0.6226 -0.0320
 7671SOL    HW134472   3.093   2.305   3.703  0.0795  0.2940  0.8662
 7671SOL    HW234473   3.147   2.404   3.792  2.5092 -0.6247 -0.3786
 7672SOL     OW34474   0.876   2.236  12.333 -0.0702 -0.1365  0.0334
 7672SOL    HW134475   0.815   2.203  12.267  0.0816 -1.7955  0.7147
 7672SOL    HW234476   0.939   2.164  12.322 -0.5880 -0.3880 -1.3751
 7673SOL     OW34477   0.999   3.219  13.464 -0.4063 -0.2054 -0.3729
 7673SOL    HW134478   1.049   3.292  13.501 -0.7528  0.5211 -1.3301
 7673SOL    HW234479   1.064   3.151  13.480  0.0762  0.2238 -0.5172
 7674SOL     OW34480   2.023   3.224   1.659 -0.0681  0.3644 -0.1203
 7674SOL    HW134481   2.027   3.214   1.755 -1.6418  0.1479 -0.0849
 7674SOL    HW234482   2.069   3.147   1.625  1.0730 -0.2106  2.7099
 7675SOL     OW34483   0.779   4.700   9.505 -0.2418 -0.6348 -0.6226
 7675SOL    HW134484   0.697   0.019   9.534  0.1391  0.1653 -0.6512
 7675SOL    HW234485   0.839   0.041   9.546 -0.7083  0.1618 -1.1336
 7676SOL     OW34486   2.654   3.444   3.314 -0.1268  0.6029 -0.9364
 7676SOL    HW134487   2.632   3.463   3.405  1.2655  1.3951 -0.7730
 7676SOL    HW234488   2.569   3.405   3.291 -0.1695 -0.5237  1.1472
 7677SOL     OW34489   4.160   0.261   8.130 -0.6311 -0.2939 -0.2123
 7677SOL    HW134490   4.181   0.201   8.201 -0.0776 -2.8047 -2.4766
 7677SOL    HW234491   4.237   0.319   8.136 -0.8050 -0.0342 -0.4720
 7678SOL     OW34492   4.062   0.147   2.190  0.2403  0.0022  0.6611
 7678SOL    HW134493   4.039   0.233   2.153 -2.6568 -0.9276  0.3476
 7678SOL    HW234494   4.152   0.172   2.213  0.0980  0.2363  0.9678
 7679SOL     OW34495   1.403   2.215   2.931 -0.4566 -0.6103  0.4245
 7679SOL    HW134496   1.451   2.161   2.993  0.6269  0.9954  0.9963
 7679SOL    HW234497   1.467   2.235   2.862 -0.0548  0.2538  1.0472
 7680SOL     OW34498   4.480   1.507  14.659  0.2038 -0.1059  0.0218
 7680SOL    HW134499   4.412   1.573  14.646 -1.3738 -1.4757  1.2127
 7680SOL    HW234500   4.502   1.473  14.572  1.0476  0.0913  0.1580
 7681SOL     OW34501   2.378   2.093  13.003  0.0824  0.2826 -0.1596
 7681SOL    HW134502   2.385   2.009  13.049  0.5659  0.2619 -0.2724
 7681SOL    HW234503   2.411   2.071  12.916 -1.6729  0.5518 -0.8939
 7682SOL     OW34504   2.342   3.288   0.205  0.2025  0.4284 -0.0163
 7682SOL    HW134505   2.275   3.318   0.266  0.2494  1.7879 -0.6172
 7682SOL    HW234506   2.292   3.214   0.169  2.0270 -0.9233  0.2554
 7683SOL     OW34507   0.673   3.173   4.124 -0.4213  0.1347 -0.0264
 7683SOL    HW134508   0.753   3.128   4.147 -0.0141  0.3133 -1.1181
 7683SOL    HW234509   0.689   3.200   4.034  1.7541 -1.9005 -0.2398
 7684SOL     OW34510   1.970   3.926   1.208 -0.0361  0.3778 -0.1403
 7684SOL    HW134511   2.026   3.896   1.280 -0.6236 -0.8403 -0.1873
 7684SOL    HW234512   1.916   3.989   1.257  1.0072  0.2033  1.2403
 7685SOL     OW34513   2.343   3.753  12.099 -0.1132 -0.5533 -0.1183
 7685SOL    HW134514   2.403   3.802  12.156 -0.5217  0.9803 -1.0110
 7685SOL    HW234515   2.369   3.663  12.120 -0.9485 -0.7907 -0.0990
 7686SOL     OW34516   3.842   2.341   1.736 -0.1980  0.1359  0.3513
 7686SOL    HW134517   3.841   2.342   1.641  0.1849  0.0903  0.3457
 7686SOL    HW234518   3.859   2.251   1.764 -0.1198  0.0605  0.0597
 7687SOL     OW34519   0.363   2.477  14.862 -0.0786  0.4959  0.1003
 7687SOL    HW134520   0.272   2.447  14.858  0.0258 -0.0647  1.6611
 7687SOL    HW234521   0.363   2.499  14.956  1.1289  2.1150 -0.2912
 7688SOL     OW34522   2.070   4.074  15.998  0.3564 -0.4218  0.5785
 7688SOL    HW134523   2.018   3.997  15.976 -0.3615  0.5173 -1.1099
 7688SOL    HW234524   1.998   4.127  16.032  0.4634 -0.3564  0.7030
 7689SOL     OW34525   3.832   0.542   1.229  0.7191 -0.1269  0.2784
 7689SOL    HW134526   3.846   0.598   1.306 -0.4193 -0.5416  0.7945
 7689SOL    HW234527   3.915   0.553   1.184  0.0676 -1.9223 -1.3672
 7690SOL     OW34528   0.527   2.759  14.439 -0.1415  0.1985 -0.4968
 7690SOL    HW134529   0.477   2.684  14.407  1.8116 -0.8128 -1.2234
 7690SOL    HW234530   0.471   2.835  14.450  1.4989  1.2367  0.6663
 7691SOL     OW34531   0.472   4.021  17.075 -0.1222 -0.1162 -0.2817
 7691SOL    HW134532   0.405   3.970  17.029  1.8352 -1.8292 -1.2141
 7691SOL    HW234533   0.541   4.019  17.009  0.9457 -2.7376  0.9053
 7692SOL     OW34534   3.441   4.268   4.552  0.2161 -0.0141  0.4109
 7692SOL    HW134535   3.505   4.292   4.484  0.5654 -0.9548  0.4001
 7692SOL    HW234536   3.399   4.350   4.578  0.8804 -0.3022  2.3715
 7693SOL     OW34537   0.451   1.356  12.348  0.6628 -0.2599 -0.1255
 7693SOL    HW134538   0.415   1.365  12.436  1.4099  0.2352  0.1358
 7693SOL    HW234539   0.485   1.268  12.335  1.0672 -0.4229  2.0662
 7694SOL     OW34540   0.658   0.321   2.972  0.6778  0.1555 -0.5830
 7694SOL    HW134541   0.727   0.323   3.038 -1.7784 -0.3760  2.0099
 7694SOL    HW234542   0.635   0.229   2.962 -0.7456  0.5725 -1.1292
 7695SOL     OW34543   4.584   0.611  14.156 -0.0884 -0.0502 -0.3658
 7695SOL    HW134544   4.651   0.594  14.090  1.5391 -1.8012  1.7360
 7695SOL    HW234545   4.514   0.638  14.098 -0.3104  1.8279  0.7533
 7696SOL     OW34546   1.273   0.235  11.669  0.6834 -0.1074 -0.3327
 7696SOL    HW134547   1.285   0.228  11.574 -1.0960  1.6018 -0.6931
 7696SOL    HW234548   1.310   0.320  11.693 -0.9948  1.1171 -2.0761
 7697SOL     OW34549   1.318   1.499  17.000 -0.2581  0.2292 -0.2006
 7697SOL    HW134550   1.223   1.510  17.000 -0.2851  0.0023  0.5340
 7697SOL    HW234551   1.317   1.405  16.982 -1.4482  0.3567 -0.7887
 7698SOL     OW34552   1.726   0.172  14.438  0.5270  0.5763 -0.5674
 7698SOL    HW134553   1.669   0.117  14.383  0.3665  0.7995 -0.6219
 7698SOL    HW234554   1.673   0.251  14.442 -1.1131 -0.5267 -0.6298
 7699SOL     OW34555   2.672   3.566   9.988  0.6198  0.1428  0.2623
 7699SOL    HW134556   2.655   3.648   9.941  1.5316 -0.3542 -0.9260
 7699SOL    HW234557   2.700   3.513   9.914 -2.9491  0.9975 -1.7008
 7700SOL     OW34558   2.218   1.381   8.132 -0.2743  0.3191  0.2644
 7700SOL    HW134559   2.285   1.424   8.185  0.3345  1.0209 -1.0982
 7700SOL    HW234560   2.260   1.387   8.047  0.3990  1.6230  0.6853
 7701SOL     OW34561   1.327   0.854   9.776 -0.2371  0.2772 -0.2733
 7701SOL    HW134562   1.235   0.831   9.761 -0.3738  0.1123  0.7913
 7701SOL    HW234563   1.345   0.902   9.696  0.4695  2.4162  1.1822
 7702SOL     OW34564   0.869   2.547   8.342 -0.1998 -0.0674  0.4656
 7702SOL    HW134565   0.939   2.593   8.389 -1.2795  1.0071  1.0307
 7702SOL    HW234566   0.903   2.458   8.337  0.7960  0.3130  0.5864
 7703SOL     OW34567   4.235   4.301  13.202 -0.0457 -0.3176  0.5125
 7703SOL    HW134568   4.161   4.242  13.192  0.9768 -1.2551 -1.6257
 7703SOL    HW234569   4.263   4.286  13.292  0.3897  0.6388  0.5434
 7704SOL     OW34570   4.297   3.448   0.429  0.1322 -0.3583  0.3807
 7704SOL    HW134571   4.294   3.543   0.414  1.1103 -0.4147 -0.1659
 7704SOL    HW234572   4.294   3.447   0.525 -0.1824  1.7248  0.3907
 7705SOL     OW34573   3.414   0.429   9.490  0.1913  0.1348 -0.2599
 7705SOL    HW134574   3.372   0.474   9.563  0.1067  1.1401 -0.9205
 7705SOL    HW234575   3.487   0.392   9.539  1.4188  0.0573 -2.1462
 7706SOL     OW34576   1.685   1.131   7.961  0.2599 -0.0556 -0.2107
 7706SOL    HW134577   1.734   1.112   7.881 -0.4892  2.0911 -1.1894
 7706SOL    HW234578   1.716   1.217   7.989  1.7956 -0.7287  0.1715
 7707SOL     OW34579   0.343   0.130   5.152  0.7504 -0.5215  0.3614
 7707SOL    HW134580   0.406   0.091   5.213 -2.7283 -1.7146  3.2137
 7707SOL    HW234581   0.271   0.067   5.163 -1.1359  1.7961  1.2231
 7708SOL     OW34582   3.800   1.682  17.517 -0.8754  0.4025 -0.4785
 7708SOL    HW134583   3.863   1.664  17.588 -2.5644 -1.5063  0.5288
 7708SOL    HW234584   3.764   1.765  17.548 -0.1949  0.5133  0.0293
 7709SOL     OW34585   0.780   2.038   1.890  0.1705  0.1233  0.2693
 7709SOL    HW134586   0.727   2.067   1.964 -0.2027  1.3327 -0.4780
 7709SOL    HW234587   0.731   1.956   1.880 -1.8233  1.2285  0.9667
 7710SOL     OW34588   2.837   4.362   7.476  0.3134  0.6804 -0.0007
 7710SOL    HW134589   2.769   4.426   7.455  0.5194  1.6508  2.2700
 7710SOL    HW234590   2.784   4.284   7.494  0.8502  0.2067 -0.4355
 7711SOL     OW34591   3.921   4.310   9.280 -0.2124 -0.8935 -0.0868
 7711SOL    HW134592   3.919   4.289   9.373 -0.0439  0.0643  0.1296
 7711SOL    HW234593   3.910   4.405   9.275  0.2913 -0.8507 -0.3639
 7712SOL     OW34594   4.709   1.482   7.590  0.0963  0.3807  0.0009
 7712SOL    HW134595   0.048   1.551   7.618  1.5214 -1.0749  0.5947
 7712SOL    HW234596   4.709   1.438   7.675 -2.3904  2.0018  0.8389
 7713SOL     OW34597   2.988   4.087   8.814  0.6495  0.0093  0.2033
 7713SOL    HW134598   3.058   4.044   8.863  0.0265  1.6001  2.4895
 7713SOL    HW234599   2.951   4.152   8.875 -0.5044 -2.3865  2.0714
 7714SOL     OW34600   2.581   1.484   0.569 -0.0480  0.6086 -0.1308
 7714SOL    HW134601   2.589   1.532   0.487 -1.4499 -1.0910 -1.2597
 7714SOL    HW234602   2.638   1.410   0.551 -0.0724  0.3534  0.8220
 7715SOL     OW34603   3.038   1.248   6.865  0.7917 -0.3044  0.2311
 7715SOL    HW134604   3.050   1.243   6.770  0.9025 -0.4411  0.2520
 7715SOL    HW234605   3.070   1.337   6.879  1.6021 -0.6795  0.7427
 7716SOL     OW34606   0.763   3.038  12.410 -0.2475 -0.0011  0.3965
 7716SOL    HW134607   0.764   3.014  12.503 -1.1323 -1.4606  0.0371
 7716SOL    HW234608   0.699   2.973  12.380  1.5066 -2.7205  2.5792
 7717SOL     OW34609   2.735   1.558   1.742  0.5442  0.2104  0.0180
 7717SOL    HW134610   2.781   1.641   1.754 -0.5089  0.7845  0.1342
 7717SOL    HW234611   2.646   1.592   1.726  1.4165  1.1410 -2.9146
 7718SOL     OW34612   1.773   4.404   4.783  0.1334 -0.1707  0.0446
 7718SOL    HW134613   1.850   4.420   4.729 -0.3814  0.5853 -0.4694
 7718SOL    HW234614   1.752   4.496   4.799  1.0325 -0.1867  1.3531
 7719SOL     OW34615   4.275   0.128   1.964  0.0381 -0.0902 -0.2931
 7719SOL    HW134616   4.234   0.058   1.914  0.0738  0.6887 -1.4136
 7719SOL    HW234617   4.369   0.111   1.972 -0.2998 -0.8233  2.3450
 7720SOL     OW34618   0.699   1.703  11.234 -0.2429 -0.3176  0.2201
 7720SOL    HW134619   0.688   1.679  11.326 -1.1519 -0.0634  0.1763
 7720SOL    HW234620   0.637   1.774  11.216 -0.6270 -0.3808  1.2562
 7721SOL     OW34621   4.327   4.265   7.182 -0.4042  0.2054 -0.5433
 7721SOL    HW134622   4.262   4.260   7.112  0.1352 -0.2388 -1.0121
 7721SOL    HW234623   4.312   4.354   7.214 -0.0256 -0.0411  0.3054
 7722SOL     OW34624   2.380   1.060  13.276 -0.4153  0.5876  0.2016
 7722SOL    HW134625   2.371   1.138  13.331 -0.0485  1.5554 -1.1070
 7722SOL    HW234626   2.411   1.003  13.346  1.0259  1.1777  0.0457
 7723SOL     OW34627   0.816   3.483  13.152 -0.2843  0.2884  0.3027
 7723SOL    HW134628   0.874   3.433  13.093  0.3133 -0.2315  1.3315
 7723SOL    HW234629   0.730   3.454  13.123  1.3660 -3.0953 -1.2545
 7724SOL     OW34630   3.346   0.383   2.726 -0.3213 -0.4673 -0.4340
 7724SOL    HW134631   3.418   0.445   2.742  0.1997 -1.1621 -0.0909
 7724SOL    HW234632   3.271   0.439   2.750 -0.6862 -1.4493  0.7221
 7725SOL     OW34633   2.978   3.554   1.335  0.0165  0.1971 -0.6083
 7725SOL    HW134634   2.903   3.590   1.382 -0.3910 -0.9215 -0.3904
 7725SOL    HW234635   2.993   3.477   1.391  0.6176  1.0935  0.4745
 7726SOL     OW34636   0.262   2.952   3.486  0.9280  0.0130 -0.1170
 7726SOL    HW134637   0.320   2.892   3.438  1.0174  0.7567 -0.9426
 7726SOL    HW234638   0.238   3.014   3.417 -2.6948 -1.2760  0.0098
 7727SOL     OW34639   2.049   4.640   1.527 -0.0414  0.4344 -0.3067
 7727SOL    HW134640   2.100   4.559   1.530 -1.2091 -0.2741  0.5196
 7727SOL    HW234641   1.993   4.634   1.449  1.0695 -1.0100 -1.0018
 7728SOL     OW34642   3.048   1.390   0.621 -0.0523  0.2455  0.0877
 7728SOL    HW134643   3.084   1.320   0.567 -0.3219  0.9168 -0.9718
 7728SOL    HW234644   3.111   1.462   0.620 -0.0311  0.2045 -2.7690
 7729SOL     OW34645   0.151   0.371   2.921  0.2132 -0.0348  0.0418
 7729SOL    HW134646   0.084   0.436   2.901  1.2842  1.0242 -0.0538
 7729SOL    HW234647   0.178   0.396   3.009 -1.7145  0.8537  0.3734
 7730SOL     OW34648   1.193   1.354   4.058  0.4371 -0.0724 -0.0453
 7730SOL    HW134649   1.180   1.336   3.964 -0.0065  2.9821 -0.5606
 7730SOL    HW234650   1.124   1.301   4.099 -1.1822  0.1840 -2.4129
 7731SOL     OW34651   3.265   0.421   6.570 -0.1615 -0.2468 -0.4591
 7731SOL    HW134652   3.193   0.367   6.603  0.9559 -2.0685 -1.0202
 7731SOL    HW234653   3.338   0.399   6.627  0.2295  2.4812  0.0869
 7732SOL     OW34654   3.344   0.358  15.712  0.0100  0.1012 -0.2304
 7732SOL    HW134655   3.250   0.367  15.727  0.1805 -0.9170  1.4598
 7732SOL    HW234656   3.351   0.365  15.617  0.8685 -6.5430 -0.6112
 7733SOL     OW34657   2.810   1.844   4.062  0.0038  0.3590  0.7832
 7733SOL    HW134658   2.830   1.794   3.983  1.1316  0.8374  0.7696
 7733SOL    HW234659   2.748   1.784   4.104  0.3871 -1.4953 -1.3022
 7734SOL     OW34660   2.351   3.754  14.521  0.1081  0.0678  0.3095
 7734SOL    HW134661   2.257   3.768  14.521  0.0202 -0.5037 -1.8744
 7734SOL    HW234662   2.383   3.809  14.449  0.9620  0.2499  0.8265
 7735SOL     OW34663   2.412   3.376   3.206  0.1418 -0.2402  0.1256
 7735SOL    HW134664   2.462   3.382   3.125  0.0141 -0.6659  0.0172
 7735SOL    HW234665   2.352   3.302   3.199 -0.0645 -0.0178 -0.4967
 7736SOL     OW34666   3.848   3.341   8.470  0.5597  0.1282 -0.2624
 7736SOL    HW134667   3.935   3.377   8.488  0.4281 -0.8883  2.3289
 7736SOL    HW234668   3.791   3.418   8.475  1.1128  0.3058  3.4935
 7737SOL     OW34669   3.786   3.399   0.182  0.5134 -0.3079  0.0016
 7737SOL    HW134670   3.865   3.433   0.224  0.8137 -1.7410  0.6283
 7737SOL    HW234671   3.824   3.379   0.097  0.2560 -0.1765 -0.1451
 7738SOL     OW34672   3.554   1.149   5.961  0.2278 -0.2313  0.0413
 7738SOL    HW134673   3.468   1.173   5.997  1.1860  2.2351  0.7262
 7738SOL    HW234674   3.543   1.181   5.871 -0.0669 -1.0356 -0.2085
 7739SOL     OW34675   0.784   0.952  13.604  0.2096  0.8366 -0.5073
 7739SOL    HW134676   0.733   0.905  13.537 -0.3329  0.1784  0.3746
 7739SOL    HW234677   0.746   1.039  13.590 -1.9233 -0.0212 -0.1301
 7740SOL     OW34678   4.246   4.682   8.554 -0.6287  0.6447 -0.7353
 7740SOL    HW134679   4.212   4.596   8.579  4.6016 -0.6137  1.8974
 7740SOL    HW234680   4.264   4.664   8.462 -0.2392  0.7853 -0.6850
 7741SOL     OW34681   3.804   0.035   5.043 -0.3336  0.0650  0.0847
 7741SOL    HW134682   3.835   0.043   4.953 -0.3197 -2.4653 -0.1361
 7741SOL    HW234683   3.869   0.082   5.095  1.9688 -1.5076 -1.3529
 7742SOL     OW34684   3.178   3.139   5.792  0.0517 -0.0314  0.2528
 7742SOL    HW134685   3.121   3.208   5.826 -0.3871  0.2533 -1.0695
 7742SOL    HW234686   3.206   3.186   5.713  0.2120  0.0123  0.3365
 7743SOL     OW34687   1.187   0.887  17.087 -0.0663 -0.0195 -0.2011
 7743SOL    HW134688   1.119   0.954  17.075 -0.1698  0.2683  2.0149
 7743SOL    HW234689   1.186   0.848  17.000  0.4965  0.4300 -0.4120
 7744SOL     OW34690   2.402   2.452   7.083 -0.4251 -0.0302  0.2069
 7744SOL    HW134691   2.431   2.373   7.036 -2.0244  1.0666 -2.6524
 7744SOL    HW234692   2.314   2.422   7.103 -0.9191  2.3713  1.6050
 7745SOL     OW34693   2.904   0.942   3.694  0.1773 -0.5860  0.4633
 7745SOL    HW134694   2.854   0.886   3.753  2.3165 -1.4653  1.4725
 7745SOL    HW234695   2.871   1.030   3.715 -0.8110  0.0695 -3.8673
 7746SOL     OW34696   4.431   3.965   7.541  0.0540  0.1016 -0.2417
 7746SOL    HW134697   4.352   3.999   7.500  0.5648  0.6751 -0.7475
 7746SOL    HW234698   4.436   4.012   7.624 -2.6699 -0.7343  0.3863
 7747SOL     OW34699   4.635   4.205   4.597  0.6014  0.0208  0.1936
 7747SOL    HW134700   4.711   4.173   4.548  0.8061 -2.1917  1.9004
 7747SOL    HW234701   4.650   4.150   4.675 -0.0024  1.4832  1.3435
 7748SOL     OW34702   3.507   4.088   3.869 -0.3940  0.2775 -0.3423
 7748SOL    HW134703   3.458   4.066   3.790 -0.2199  0.1474 -0.4136
 7748SOL    HW234704   3.501   4.009   3.922 -0.0253 -1.1423 -2.4412
 7749SOL     OW34705   4.676   2.730   3.884  0.3096 -0.7021  0.2100
 7749SOL    HW134706   0.028   2.694   3.834 -0.5781  1.1798 -2.4299
 7749SOL    HW234707   4.717   2.802   3.934  0.1868 -0.3698 -0.1707
 7750SOL     OW34708   4.237   1.617   1.209 -0.3623 -0.2733 -0.3053
 7750SOL    HW134709   4.240   1.713   1.208 -1.3652 -0.2530 -1.2441
 7750SOL    HW234710   4.161   1.608   1.152 -0.7834  2.4510 -0.1766
 7751SOL     OW34711   3.670   1.497   1.994  0.0893 -0.5754 -0.4298
 7751SOL    HW134712   3.672   1.591   2.011  0.2130 -1.0496  2.1588
 7751SOL    HW234713   3.762   1.473   1.988  0.3650  0.2269  0.5147
 7752SOL     OW34714   3.795   1.996   0.596  0.1493 -0.0129 -0.0190
 7752SOL    HW134715   3.736   2.053   0.548 -1.6377 -2.3507 -0.5823
 7752SOL    HW234716   3.800   1.929   0.529 -1.1412  0.6708 -0.7898
 7753SOL     OW34717   1.091   4.580  15.921  0.2262 -0.2462 -0.0572
 7753SOL    HW134718   1.058   4.519  15.987 -1.4706  0.7251 -0.0156
 7753SOL    HW234719   1.031   4.580  15.847 -0.8809  2.8640  0.8596
 7754SOL     OW34720   2.604   0.260   6.019 -0.2660  0.4373 -0.1415
 7754SOL    HW134721   2.672   0.199   6.048 -1.0706  1.0192  3.0518
 7754SOL    HW234722   2.650   0.312   5.954  0.8284 -1.2608 -0.7186
 7755SOL     OW34723   3.721   2.988   4.277 -0.5196  0.2026 -0.1064
 7755SOL    HW134724   3.724   3.079   4.306 -1.2387  0.2959 -0.3080
 7755SOL    HW234725   3.766   2.948   4.350 -0.1630 -1.8871 -1.4882
 7756SOL     OW34726   2.423   2.496  16.339  1.0589 -0.4926  0.4249
 7756SOL    HW134727   2.463   2.409  16.343  0.3465 -0.7541  1.9632
 7756SOL    HW234728   2.491   2.558  16.368  0.6934  0.4196 -0.6846
 7757SOL     OW34729   3.957   2.242   3.728 -0.0432 -0.0163 -0.0814
 7757SOL    HW134730   4.036   2.192   3.707 -1.8142 -2.5701 -0.5898
 7757SOL    HW234731   3.902   2.220   3.653  0.5653 -0.7554 -0.3142
 7758SOL     OW34732   0.187   1.318   8.076 -0.0850 -0.2419 -0.1862
 7758SOL    HW134733   0.239   1.398   8.090  0.3947 -0.2436 -1.9505
 7758SOL    HW234734   0.247   1.264   8.025 -2.2938 -1.9520 -0.9429
 7759SOL     OW34735   2.548   3.259  11.137  0.5770  0.1140 -0.2097
 7759SOL    HW134736   2.592   3.271  11.052 -0.2976  0.9229 -0.5384
 7759SOL    HW234737   2.475   3.207  11.104 -0.7150  1.0714  1.1771
 7760SOL     OW34738   0.635   4.256  16.489  0.1094  0.1976  0.1525
 7760SOL    HW134739   0.614   4.164  16.473 -0.2426  0.8018 -2.7350
 7760SOL    HW234740   0.632   4.249  16.585 -1.2208  0.5329  0.1458
 7761SOL     OW34741   0.270   3.681   0.903 -0.2462 -0.4765 -0.2603
 7761SOL    HW134742   0.340   3.658   0.842 -1.5931  0.0330 -2.0324
 7761SOL    HW234743   0.205   3.723   0.845  0.7681  1.5006  0.0336
 7762SOL     OW34744   1.936   0.905   5.497  0.6505 -0.3857  0.1342
 7762SOL    HW134745   1.846   0.908   5.530  0.3692 -0.6544 -0.6094
 7762SOL    HW234746   1.925   0.956   5.416 -1.1637 -1.5039 -0.3243
 7763SOL     OW34747   0.437   0.721   0.372  0.2168 -0.8179 -0.1956
 7763SOL    HW134748   0.457   0.782   0.301  0.0596  0.1560  0.5879
 7763SOL    HW234749   0.341   0.725   0.376  0.2711  0.8016 -0.2978
 7764SOL     OW34750   4.566   2.692  16.516 -0.1803 -0.0233 -0.5679
 7764SOL    HW134751   4.538   2.609  16.478  0.6080  0.4202 -2.1405
 7764SOL    HW234752   4.660   2.679  16.513 -0.4943 -2.1986 -0.6620
 7765SOL     OW34753   3.008   0.464   3.318  0.1284  0.4247  0.0021
 7765SOL    HW134754   3.073   0.532   3.333 -0.9440  1.2132  1.0881
 7765SOL    HW234755   2.960   0.450   3.399  1.9831 -0.8939  0.8553
 7766SOL     OW34756   0.504   1.555   4.863  0.3701  0.8530 -0.1220
 7766SOL    HW134757   0.409   1.564   4.871  0.2765  0.3606 -0.6160
 7766SOL    HW234758   0.517   1.475   4.812 -2.2906  0.6841 -0.5222
 7767SOL     OW34759   0.591   3.419   3.030 -0.4788  0.0327 -0.2781
 7767SOL    HW134760   0.622   3.510   3.036 -0.2557  0.1814 -3.6694
 7767SOL    HW234761   0.592   3.397   3.123  1.9538  1.4279  0.0336
 7768SOL     OW34762   3.568   1.519   1.719 -0.1492 -0.5945  0.1445
 7768SOL    HW134763   3.538   1.477   1.799  0.6852 -0.4055  0.5524
 7768SOL    HW234764   3.636   1.457   1.694 -0.7996  0.0402 -3.2750
 7769SOL     OW34765   0.875   0.533   6.469 -0.0482 -0.5836  0.4990
 7769SOL    HW134766   0.864   0.615   6.517  1.5746  0.2785 -0.5779
 7769SOL    HW234767   0.957   0.556   6.425  0.8317 -0.0024  2.4321
 7770SOL     OW34768   3.111   1.987  11.991  0.0877 -0.0324  0.2529
 7770SOL    HW134769   3.125   1.915  12.054 -2.4176 -0.9725 -0.2831
 7770SOL    HW234770   3.091   2.059  12.050  1.4985  0.2578  0.3909
 7771SOL     OW34771   1.360   4.165  11.038  0.3872 -0.2390  0.3206
 7771SOL    HW134772   1.307   4.110  11.096 -0.7816  0.4606 -0.0814
 7771SOL    HW234773   1.384   4.227  11.106  2.2741  0.4897 -1.0211
 7772SOL     OW34774   3.116   2.822  13.274  0.2537 -0.0858 -0.6705
 7772SOL    HW134775   3.124   2.865  13.359 -0.6943  2.3388 -1.8349
 7772SOL    HW234776   3.180   2.752  13.288  1.1372  1.7328  4.4242
 7773SOL     OW34777   1.261   1.024  10.840  0.2325  0.0002  0.0224
 7773SOL    HW134778   1.176   1.024  10.884 -0.6086 -0.3121 -1.5840
 7773SOL    HW234779   1.322   0.985  10.901 -0.2763 -1.2308 -0.2593
 7774SOL     OW34780   1.024   1.364   0.855 -0.0003 -0.0899  0.2567
 7774SOL    HW134781   1.068   1.375   0.939  0.3642 -3.2491  0.4702
 7774SOL    HW234782   0.951   1.425   0.863  0.6753  0.8817 -0.9665
 7775SOL     OW34783   1.491   1.189   4.000  0.5391  0.1328 -0.5322
 7775SOL    HW134784   1.406   1.224   3.971  0.7690 -1.5156 -3.1663
 7775SOL    HW234785   1.481   1.176   4.094 -0.7491 -1.5522 -0.9023
 7776SOL     OW34786   3.196   1.085   9.793 -0.3674 -0.1256 -0.5867
 7776SOL    HW134787   3.224   1.159   9.740  2.5176 -0.2263  0.8156
 7776SOL    HW234788   3.101   1.096   9.797 -0.4615 -1.8372  1.7712
 7777SOL     OW34789   0.437   4.108  17.637 -0.2760 -0.6417 -0.1784
 7777SOL    HW134790   0.501   4.039  17.651  0.2195 -0.9548 -3.8442
 7777SOL    HW234791   0.380   4.089   0.025 -0.1605 -1.8466 -0.4010
 7778SOL     OW34792   1.086   0.391  14.693 -0.0501 -0.1998 -0.7216
 7778SOL    HW134793   1.129   0.317  14.736 -2.2254 -0.5699  0.8780
 7778SOL    HW234794   0.994   0.362  14.695 -1.1360  3.2841  1.0564
 7779SOL     OW34795   2.889   4.231   4.526  0.0717 -0.0504 -0.0318
 7779SOL    HW134796   2.805   4.276   4.518 -0.8560 -1.9244 -0.7412
 7779SOL    HW234797   2.906   4.230   4.432 -1.4218 -4.3797 -0.2565
 7780SOL     OW34798   3.454   2.836  12.007  0.8353  0.1671 -0.0256
 7780SOL    HW134799   3.517   2.781  12.053  0.0479 -0.2805  0.5250
 7780SOL    HW234800   3.396   2.769  11.971  0.0103  0.0938  1.4367
 7781SOL     OW34801   1.712   3.990   3.752 -0.1503 -0.0192 -0.0573
 7781SOL    HW134802   1.643   4.033   3.802 -1.7301 -1.6105 -0.8821
 7781SOL    HW234803   1.781   4.054   3.767  0.1030 -0.1057 -0.8359
 7782SOL     OW34804   1.275   1.177   5.191  0.1105  0.5574  0.0542
 7782SOL    HW134805   1.253   1.164   5.098  1.7388  1.4870 -0.4640
 7782SOL    HW234806   1.182   1.181   5.212  0.2171 -0.0234  0.6228
 7783SOL     OW34807   0.961   0.718   4.619 -0.2078  0.5830  0.0872
 7783SOL    HW134808   0.925   0.780   4.555  1.2790 -0.7288 -2.0224
 7783SOL    HW234809   1.042   0.695   4.574  0.3686 -0.8124  1.8495
 7784SOL     OW34810   0.459   2.165   7.636 -0.8560 -0.7946  0.1022
 7784SOL    HW134811   0.441   2.259   7.633 -0.7490 -0.7384  1.1080
 7784SOL    HW234812   0.548   2.168   7.671 -0.2524 -2.6686 -1.3017
 7785SOL     OW34813   3.774   1.933   3.811  0.1564  0.5834 -0.4879
 7785SOL    HW134814   3.784   1.869   3.881 -0.0835  1.3982  0.2905
 7785SOL    HW234815   3.693   1.916   3.762  0.3228  0.7927 -0.8381
 7786SOL     OW34816   0.495   2.973   8.617 -0.0839 -0.6218 -0.0037
 7786SOL    HW134817   0.451   3.053   8.645  1.7138  0.6453 -0.7802
 7786SOL    HW234818   0.481   2.905   8.683 -4.4688  0.5477  0.2170
 7787SOL     OW34819   2.777   0.302   8.610  0.5094  0.4105  0.2322
 7787SOL    HW134820   2.767   0.213   8.576 -2.0661  1.0104 -0.5638
 7787SOL    HW234821   2.686   0.325   8.625  0.4061  0.1229  0.0386
 7788SOL     OW34822   4.708   3.109   1.223 -0.3260  0.2397  0.3201
 7788SOL    HW134823   4.694   3.156   1.305 -0.8596  0.4323  0.1222
 7788SOL    HW234824   4.661   3.027   1.239  1.1561 -0.7837 -0.6329
 7789SOL     OW34825   0.894   3.579   6.805  0.4446  0.6848 -0.0200
 7789SOL    HW134826   0.840   3.575   6.727  0.8052 -0.0571 -0.2254
 7789SOL    HW234827   0.979   3.567   6.762  0.3821 -0.7648  0.2864
 7790SOL     OW34828   1.834   1.875   1.846 -0.0332 -0.6411  0.4930
 7790SOL    HW134829   1.807   1.805   1.906  1.3324 -1.4803  0.1219
 7790SOL    HW234830   1.923   1.848   1.825 -0.2996  0.0335 -1.4703
 7791SOL     OW34831   2.052   2.039   6.986  0.2054  0.1019  0.2555
 7791SOL    HW134832   1.992   2.019   7.058 -1.3075 -0.3355 -1.1071
 7791SOL    HW234833   2.075   2.130   7.003  0.7754  0.2964 -1.5572
 7792SOL     OW34834   0.178   4.686   3.848  0.1486 -0.1863 -0.0968
 7792SOL    HW134835   0.197   0.051   3.812 -2.2515 -0.0590 -1.0999
 7792SOL    HW234836   0.083   4.701   3.851  0.0405 -1.2664  2.1108
 7793SOL     OW34837   4.075   0.514   3.520  0.1035  0.4798 -0.1909
 7793SOL    HW134838   4.164   0.526   3.489  0.2810 -1.0981 -0.2478
 7793SOL    HW234839   4.080   0.423   3.547 -1.2711  0.5477  0.3163
 7794SOL     OW34840   0.528   0.298   0.850 -0.7933  0.2211  0.0972
 7794SOL    HW134841   0.609   0.345   0.831 -1.1895  0.7538 -0.2668
 7794SOL    HW234842   0.558   0.218   0.806 -3.8774  0.5603 -2.6169
 7795SOL     OW34843   2.309   0.270   3.923  0.3606 -0.3147  0.3532
 7795SOL    HW134844   2.401   0.287   3.943  0.0848  2.1111 -0.5342
 7795SOL    HW234845   2.305   0.252   3.829 -0.7399  1.6862  0.0364
 7796SOL     OW34846   3.742   1.495   2.443 -0.5275 -0.0524  0.3537
 7796SOL    HW134847   3.765   1.430   2.510  2.4049  0.1635 -0.4366
 7796SOL    HW234848   3.753   1.575   2.493  0.4256  1.4098 -2.2095
 7797SOL     OW34849   1.715   2.944   6.555  0.1200  0.3758 -0.0230
 7797SOL    HW134850   1.780   2.883   6.521  1.1406  1.3604  0.2072
 7797SOL    HW234851   1.630   2.899   6.548  1.2039 -2.0843  2.4787
 7798SOL     OW34852   0.956   0.688  14.243  0.1042 -0.4570  0.1035
 7798SOL    HW134853   0.967   0.778  14.274  1.4044 -1.2009  1.7966
 7798SOL    HW234854   1.016   0.682  14.169 -1.4846  2.4202 -1.4341
 7799SOL     OW34855   0.379   3.949   5.897  0.0426 -0.0841  0.4960
 7799SOL    HW134856   0.457   4.003   5.894  0.0562 -0.1642 -0.6896
 7799SOL    HW234857   0.415   3.870   5.855  0.4772 -0.1084  0.9180
 7800SOL     OW34858   1.652   0.291   2.920 -0.2036 -0.0714  0.6844
 7800SOL    HW134859   1.663   0.295   2.825  0.3068 -1.4648  0.6726
 7800SOL    HW234860   1.670   0.381   2.948 -0.7715 -0.4199  2.1945
 7801SOL     OW34861   2.134   1.106   6.398 -0.5442 -0.8835  0.3134
 7801SOL    HW134862   2.060   1.100   6.338 -1.3096  1.8016  0.9574
 7801SOL    HW234863   2.209   1.077   6.347  0.2731 -1.6895  1.9809
 7802SOL     OW34864   0.526   2.724   2.444 -0.7581 -0.5316  0.4479
 7802SOL    HW134865   0.516   2.767   2.359  0.7372 -0.4369  0.3204
 7802SOL    HW234866   0.539   2.630   2.430  0.3278 -0.3108 -0.0315
 7803SOL     OW34867   2.560   2.727  16.110 -0.3567 -0.2320 -0.2992
 7803SOL    HW134868   2.469   2.696  16.112 -1.1763  2.1867  0.0937
 7803SOL    HW234869   2.545   2.817  16.138 -0.4596 -0.7006  1.1339
 7804SOL     OW34870   1.311   0.753   4.424 -0.5802  0.3111 -0.4078
 7804SOL    HW134871   1.367   0.828   4.444  2.6238 -1.4581 -2.7786
 7804SOL    HW234872   1.265   0.792   4.350 -0.6898  0.2631 -0.3645
 7805SOL     OW34873   2.318   3.938   8.041  0.3793  0.0028  0.5106
 7805SOL    HW134874   2.331   4.023   7.999  2.4747  0.0810  1.3301
 7805SOL    HW234875   2.222   3.936   8.037  0.4651  0.1228 -2.0710
 7806SOL     OW34876   0.667   3.055   9.649 -0.4514 -0.4138 -0.2713
 7806SOL    HW134877   0.759   3.050   9.624 -0.4336  0.3813 -0.3479
 7806SOL    HW234878   0.622   3.065   9.564 -1.1712  0.0003  0.1589
 7807SOL     OW34879   0.091   2.587  11.315 -0.6276 -0.3851  0.4171
 7807SOL    HW134880   0.101   2.630  11.229 -0.6202 -0.0464  0.5861
 7807SOL    HW234881   0.049   2.505  11.289 -1.3217 -0.0302  0.4019
 7808SOL     OW34882   0.823   3.918   2.990  0.3829 -0.0811 -0.0132
 7808SOL    HW134883   0.841   3.965   2.908 -1.7601 -0.3785 -0.6575
 7808SOL    HW234884   0.827   3.992   3.050 -1.9590 -1.2821  1.6431
 7809SOL     OW34885   1.414   4.564   5.677 -0.0994 -0.1604 -0.2367
 7809SOL    HW134886   1.389   4.656   5.672 -1.6397 -0.8012 -4.2507
 7809SOL    HW234887   1.368   4.534   5.599 -0.7590  0.7022 -0.1810
 7810SOL     OW34888   2.341   2.044   0.805  0.1578 -0.0502  0.4926
 7810SOL    HW134889   2.308   2.101   0.735 -1.6647  0.9906  2.2017
 7810SOL    HW234890   2.275   2.054   0.874  0.2301  1.4144  0.3557
 7811SOL     OW34891   3.512   3.785  14.888  0.3533  0.0317 -0.4365
 7811SOL    HW134892   3.586   3.836  14.920  0.5681 -0.0193 -0.8383
 7811SOL    HW234893   3.555   3.747  14.811 -0.5043  0.7707 -1.2783
 7812SOL     OW34894   2.254   2.518   2.063  0.3093  0.7637  0.6645
 7812SOL    HW134895   2.327   2.457   2.071  0.5370  1.1653  1.6854
 7812SOL    HW234896   2.196   2.495   2.136  1.4131 -0.4712  1.1523
 7813SOL     OW34897   4.639   2.104   9.490 -0.1091  0.0373  0.2056
 7813SOL    HW134898   4.674   2.193   9.490  2.6921 -1.0807 -0.3682
 7813SOL    HW234899   4.573   2.120   9.557  0.0571  0.8291  0.1837
 7814SOL     OW34900   3.561   3.272   4.654 -0.0790 -0.1572 -0.3399
 7814SOL    HW134901   3.644   3.302   4.691  0.1999  0.4386 -1.4392
 7814SOL    HW234902   3.586   3.182   4.677 -2.5206 -0.6397  0.3880
 7815SOL     OW34903   1.370   3.387   8.820  0.1524 -0.0287  0.1337
 7815SOL    HW134904   1.411   3.472   8.835  1.6643 -1.1513  2.2660
 7815SOL    HW234905   1.312   3.384   8.896  1.7467  1.3029  1.3920
 7816SOL     OW34906   4.391   4.350   3.361  0.0890 -0.5123 -0.6014
 7816SOL    HW134907   4.383   4.255   3.355 -2.7724 -0.1459 -2.1538
 7816SOL    HW234908   4.422   4.364   3.272  1.2917 -1.9004 -0.4067
 7817SOL     OW34909   3.227   1.291   2.029 -0.2822 -0.1538 -0.1021
 7817SOL    HW134910   3.133   1.299   2.012 -0.3203  1.5834  0.9340
 7817SOL    HW234911   3.256   1.379   2.050  2.1873 -0.5175 -1.8785
 7818SOL     OW34912   0.994   2.200   1.845 -0.4682 -0.8331  0.3891
 7818SOL    HW134913   1.060   2.137   1.815  0.1344  1.6071 -3.3588
 7818SOL    HW234914   0.916   2.145   1.859 -1.0519 -0.6427 -2.1208
 7819SOL     OW34915   1.823   1.292   6.357 -0.0907 -0.3866  0.3239
 7819SOL    HW134916   1.816   1.284   6.261  0.5072  1.0108  0.1706
 7819SOL    HW234917   1.874   1.370   6.376  0.5235 -0.8834  0.7112
 7820SOL     OW34918   1.594   2.378   6.733  0.8617  0.1036  0.2470
 7820SOL    HW134919   1.538   2.451   6.757 -2.8635 -2.4935 -0.5407
 7820SOL    HW234920   1.565   2.317   6.800  1.9455  0.1715  0.7788
 7821SOL     OW34921   3.197   2.392   5.182  0.0596 -0.3342  0.1669
 7821SOL    HW134922   3.151   2.416   5.262 -1.0280  0.8878 -0.8303
 7821SOL    HW234923   3.272   2.341   5.213 -1.6843 -0.6678  3.7887
 7822SOL     OW34924   2.808   3.709   3.333 -0.4125 -0.1340 -0.2815
 7822SOL    HW134925   2.749   3.764   3.385  0.7674  2.5084 -1.6943
 7822SOL    HW234926   2.758   3.630   3.314  0.3388 -0.4457 -0.9435
 7823SOL     OW34927   0.769   1.128   7.857 -0.7167 -0.7000  0.8164
 7823SOL    HW134928   0.800   1.037   7.857  2.6349  0.4415  0.2196
 7823SOL    HW234929   0.853   1.167   7.831 -1.3514 -0.2265 -0.5148
 7824SOL     OW34930   2.135   2.465   2.552  0.1708  0.1435 -0.0486
 7824SOL    HW134931   2.213   2.479   2.498 -1.0049  2.2229 -1.2156
 7824SOL    HW234932   2.123   2.373   2.531 -1.0970 -0.1609  1.9851
 7825SOL     OW34933   1.856   4.691  14.815  0.3714 -0.7269 -0.2673
 7825SOL    HW134934   1.883   4.646  14.895  1.5736 -0.6582 -0.6337
 7825SOL    HW234935   1.763   4.674  14.824  0.1283 -0.1674 -1.7930
 7826SOL     OW34936   1.589   1.499   8.650  0.2867  0.3972  0.3293
 7826SOL    HW134937   1.665   1.509   8.592  0.1651  1.4384  0.3506
 7826SOL    HW234938   1.517   1.511   8.589  1.5820  1.1879 -1.0358
 7827SOL     OW34939   3.098   4.066  17.135 -0.4070 -0.0985 -0.7713
 7827SOL    HW134940   3.157   3.997  17.107  0.0431 -0.5380  1.3323
 7827SOL    HW234941   3.168   4.132  17.138 -0.4008 -0.3023  3.0250
 7828SOL     OW34942   1.099   2.643   1.862 -0.0708 -0.1255 -0.0596
 7828SOL    HW134943   1.088   2.696   1.783  1.7857 -0.5489 -0.6013
 7828SOL    HW234944   1.157   2.700   1.912 -1.3096  0.8278  0.2751
 7829SOL     OW34945   4.123   4.631   3.525 -0.1788 -0.4029 -0.3098
 7829SOL    HW134946   4.114   4.607   3.617 -0.1072  1.1746  0.1066
 7829SOL    HW234947   4.074   4.563   3.479  0.1264 -1.3379  0.7505
 7830SOL     OW34948   2.695   2.577  16.304 -0.0000 -0.0748  0.0625
 7830SOL    HW134949   2.664   2.635  16.235  1.6641  0.5428 -0.1644
 7830SOL    HW234950   2.723   2.639  16.371  0.6003  0.5718 -0.7845
 7831SOL     OW34951   4.227   1.214   1.695  0.7399 -0.4591 -0.1205
 7831SOL    HW134952   4.186   1.168   1.623 -1.6696 -1.5621  1.9676
 7831SOL    HW234953   4.317   1.225   1.664  1.1807 -2.6355  0.4477
 7832SOL     OW34954   3.868   2.449   6.580 -0.0494  0.3990 -0.0836
 7832SOL    HW134955   3.947   2.417   6.623 -0.5088  1.2156  1.3570
 7832SOL    HW234956   3.828   2.508   6.643 -2.8953  0.1477 -1.6213
 7833SOL     OW34957   0.881   3.873  14.759 -0.0272  0.3076  0.2395
 7833SOL    HW134958   0.838   3.885  14.675  1.1571 -0.4374 -0.4768
 7833SOL    HW234959   0.960   3.926  14.744 -0.4136  0.8273  0.0463
 7834SOL     OW34960   2.803   0.360   9.284 -0.1174  0.2206  0.0859
 7834SOL    HW134961   2.825   0.437   9.335  1.8070  0.5520 -1.2706
 7834SOL    HW234962   2.834   0.289   9.339  0.1537 -1.3749 -2.1093
 7835SOL     OW34963   2.344   1.794   3.078  0.1704  0.0685  0.8705
 7835SOL    HW134964   2.418   1.770   3.134  1.3035  0.1291 -0.5912
 7835SOL    HW234965   2.299   1.861   3.129  1.2470  1.1059  0.4534
 7836SOL     OW34966   3.464   2.646   2.211  0.0286 -0.1755  0.5379
 7836SOL    HW134967   3.552   2.639   2.172 -0.0603  2.3727 -0.1633
 7836SOL    HW234968   3.454   2.741   2.215 -0.5646 -0.1003 -2.4041
 7837SOL     OW34969   4.608   0.586   5.680 -0.6492 -0.0394  0.2146
 7837SOL    HW134970   4.688   0.540   5.706 -1.0032 -1.3262 -1.0059
 7837SOL    HW234971   4.645   0.675   5.678  3.2019 -1.5958  1.6607
 7838SOL     OW34972   3.155   4.371  11.902  0.3629  0.1807  0.7994
 7838SOL    HW134973   3.197   4.453  11.926  1.8781 -0.5547  0.6525
 7838SOL    HW234974   3.062   4.394  11.903 -0.2010 -2.0413  1.2738
 7839SOL     OW34975   4.617   3.369  15.347  0.1934  0.3160  0.1392
 7839SOL    HW134976   4.664   3.305  15.400 -2.0415 -0.7713  0.8115
 7839SOL    HW234977   4.670   3.377  15.268  1.0876  1.5675  0.8656
 7840SOL     OW34978   3.196   4.430   5.792 -0.3326  0.0489 -0.3092
 7840SOL    HW134979   3.170   4.430   5.700 -0.2313 -0.7584 -0.3371
 7840SOL    HW234980   3.120   4.392   5.835 -1.1815 -0.7332 -2.4920
 7841SOL     OW34981   2.177   2.435  10.041 -0.3124  0.1337  0.3894
 7841SOL    HW134982   2.198   2.371   9.972  0.7973  1.5734 -0.6032
 7841SOL    HW234983   2.264   2.473  10.047  0.3786 -1.6660  1.8211
 7842SOL     OW34984   1.408   1.697  13.670  0.2824  0.6068  0.2144
 7842SOL    HW134985   1.378   1.608  13.652 -1.0572  0.9039  0.9881
 7842SOL    HW234986   1.346   1.724  13.738  0.0009 -1.7611  0.8902
 7843SOL     OW34987   0.473   2.290   3.718  0.1729  0.2343  0.4170
 7843SOL    HW134988   0.552   2.251   3.755 -0.1289  0.3551  1.1746
 7843SOL    HW234989   0.512   2.377   3.715 -1.1148  0.8121  0.2081
 7844SOL     OW34990   1.213   4.494  13.081 -0.0892  0.2841  0.9588
 7844SOL    HW134991   1.282   4.439  13.119  1.0035  1.1372  0.2090
 7844SOL    HW234992   1.258   4.532  13.005 -2.2512 -2.8583 -1.8954
 7845SOL     OW34993   0.688   0.649   3.607 -0.0991 -0.4200  0.6859
 7845SOL    HW134994   0.695   0.705   3.530 -1.4430  1.1633  1.7097
 7845SOL    HW234995   0.707   0.561   3.574  0.5625  0.3246 -0.8814
 7846SOL     OW34996   1.730   1.595  10.184  0.2541  0.0711 -0.3647
 7846SOL    HW134997   1.774   1.662  10.133  1.8388 -0.3034  0.5067
 7846SOL    HW234998   1.640   1.628  10.193 -0.1772 -0.5833 -2.4404
 7847SOL     OW34999   3.657   1.080   5.616 -0.0903  0.4621 -0.3614
 7847SOL    HW135000   3.737   1.101   5.664  0.3852 -0.1274 -0.8877
 7847SOL    HW235001   3.594   1.151   5.628  0.8468  1.4301 -1.1773
 7848SOL     OW35002   3.407   1.585   2.861  0.4265 -0.3417  0.3293
 7848SOL    HW135003   3.440   1.675   2.854  0.7555 -0.6105 -1.4403
 7848SOL    HW235004   3.333   1.605   2.919  1.6109 -1.3093  2.1584
 7849SOL     OW35005   1.514   2.507  13.805 -0.0893 -0.1525 -0.0408
 7849SOL    HW135006   1.480   2.478  13.890 -2.7877  1.0732 -0.6959
 7849SOL    HW235007   1.608   2.496  13.820 -0.1432  0.4010  0.7187
 7850SOL     OW35008   3.996   1.235  10.355 -0.7329  0.3730 -0.7061
 7850SOL    HW135009   4.024   1.222  10.264 -1.0801 -1.5605 -0.5397
 7850SOL    HW235010   4.063   1.202  10.415 -1.7029 -1.5633 -0.6727
 7851SOL     OW35011   3.523   0.324   8.883  0.3568  0.0153  0.1595
 7851SOL    HW135012   3.499   0.384   8.953  0.2903 -1.5470  1.4714
 7851SOL    HW235013   3.617   0.337   8.890  0.7495 -2.3810 -0.6163
 7852SOL     OW35014   1.379   0.917   0.020  0.5151  0.3405  0.0936
 7852SOL    HW135015   1.430   0.901   0.099  3.9091 -3.1030 -2.8023
 7852SOL    HW235016   1.355   1.009   0.033  0.7140  0.6989 -2.0021
 7853SOL     OW35017   0.240   4.336   4.543 -0.2413  0.1841  0.4281
 7853SOL    HW135018   0.269   4.266   4.484 -1.0826  0.2226 -0.0321
 7853SOL    HW235019   0.247   4.409   4.482 -1.0159  0.1657  0.3118
 7854SOL     OW35020   0.845   4.058  16.680 -0.8179  0.6924 -0.6557
 7854SOL    HW135021   0.805   3.971  16.678  0.1476  0.2124  0.7534
 7854SOL    HW235022   0.936   4.038  16.699 -0.8484  1.8776  0.7065
 7855SOL     OW35023   3.480   4.460   1.760 -0.3778  1.0709  0.0171
 7855SOL    HW135024   3.503   4.429   1.673 -1.1202  1.8938 -0.4702
 7855SOL    HW235025   3.398   4.414   1.776  0.9518 -1.1546  0.4667
 7856SOL     OW35026   2.718   4.449   0.242  0.4248  0.0987 -0.1149
 7856SOL    HW135027   2.626   4.469   0.228  0.7301  1.9724  0.6081
 7856SOL    HW235028   2.718   4.353   0.236 -1.3802  0.1371 -0.5941
 7857SOL     OW35029   4.623   3.437   8.995 -0.2281 -0.9974 -0.2926
 7857SOL    HW135030   4.547   3.493   8.987 -1.9668 -3.0629  1.6668
 7857SOL    HW235031   4.617   3.377   8.921 -1.4844 -0.8426 -0.3089
 7858SOL     OW35032   4.638   4.521   2.773  0.0396  0.1549 -0.1645
 7858SOL    HW135033   4.699   4.591   2.748  1.6423 -0.9067  0.7084
 7858SOL    HW235034   4.683   4.442   2.743 -1.0019 -0.2476 -0.6654
 7859SOL     OW35035   1.908   2.771   6.390 -0.1418  0.6046  0.0166
 7859SOL    HW135036   1.954   2.727   6.461  1.4645 -0.0337 -1.4227
 7859SOL    HW235037   1.845   2.706   6.358  0.4453 -0.5165  1.1342
 7860SOL     OW35038   3.214   4.064   7.106  0.8512 -0.2406  0.1666
 7860SOL    HW135039   3.214   4.069   7.010 -0.7721 -2.3321  0.0625
 7860SOL    HW235040   3.258   4.146   7.127  1.2620 -0.6977  1.1086
 7861SOL     OW35041   1.626   3.402  12.910 -0.0135 -0.2859 -0.5975
 7861SOL    HW135042   1.612   3.377  13.001  1.4382  1.4618  0.0918
 7861SOL    HW235043   1.620   3.498  12.911 -0.8193 -0.3359 -0.2481
 7862SOL     OW35044   3.630   0.611  15.733  0.3641 -0.6824 -0.5772
 7862SOL    HW135045   3.679   0.681  15.689  0.4764  0.7302  1.8067
 7862SOL    HW235046   3.547   0.631  15.689 -0.7262 -0.1179  1.7358
 7863SOL     OW35047   4.436   1.730   8.549 -0.3105 -0.2931 -0.6632
 7863SOL    HW135048   4.481   1.758   8.628 -1.3977  1.0754 -0.5223
 7863SOL    HW235049   4.438   1.814   8.504 -1.6360  0.7295  1.1972
 7864SOL     OW35050   4.309   4.158   5.079  0.2102  0.5104 -0.1710
 7864SOL    HW135051   4.259   4.077   5.079  1.7427 -0.4345 -2.8161
 7864SOL    HW235052   4.243   4.218   5.114  0.2048  0.4356 -0.0502
 7865SOL     OW35053   2.827   1.772   1.878 -0.2652  0.4066  0.6422
 7865SOL    HW135054   2.767   1.843   1.854 -1.7069 -1.2401 -0.6891
 7865SOL    HW235055   2.896   1.837   1.890  0.4979 -0.0382 -1.3097
 7866SOL     OW35056   0.058   3.794   5.728  0.4107  0.4319 -0.8975
 7866SOL    HW135057   0.141   3.774   5.771  0.6214  1.8662 -0.6339
 7866SOL    HW235058   0.061   3.744   5.646 -2.5378 -1.7705  0.3599
 7867SOL     OW35059   4.041   1.038   4.784  0.1526  0.3820  0.1542
 7867SOL    HW135060   3.948   1.023   4.767  0.3589 -1.3962  0.5910
 7867SOL    HW235061   4.068   1.103   4.718  1.0675  0.1455  0.2900
 7868SOL     OW35062   0.759   4.625  13.004 -0.0064 -0.0827 -0.2109
 7868SOL    HW135063   0.851   4.645  12.984  0.1811 -0.1541  0.5854
 7868SOL    HW235064   0.752   4.548  12.948 -0.6560  0.7489 -1.2691
 7869SOL     OW35065   1.902   0.231   0.035  0.5098  0.3091  0.1390
 7869SOL    HW135066   1.829   0.183  17.682  0.9383  0.8282 -1.2822
 7869SOL    HW235067   1.861   0.317   0.050  2.2258  1.3262 -1.0417
 7870SOL     OW35068   4.100   2.788  14.758  0.1354 -0.1202  0.2918
 7870SOL    HW135069   4.096   2.801  14.852 -2.0824 -1.4058  0.3874
 7870SOL    HW235070   4.150   2.867  14.735 -0.2348 -0.1070 -0.4810
 7871SOL     OW35071   1.793   2.862   4.467  0.0984 -0.6186  0.3946
 7871SOL    HW135072   1.723   2.819   4.418 -1.5748  0.7122  1.5931
 7871SOL    HW235073   1.838   2.915   4.401  1.3384 -1.4355  0.5816
 7872SOL     OW35074   1.850   4.347  13.200  0.1192  0.5218  0.5878
 7872SOL    HW135075   1.870   4.269  13.147  0.9968  0.8422  0.4533
 7872SOL    HW235076   1.769   4.370  13.155  0.8846  0.5636 -0.7813
 7873SOL     OW35077   3.570   0.495   7.372 -0.5030  0.0087  0.2183
 7873SOL    HW135078   3.602   0.580   7.404 -1.9507  0.6543 -0.0763
 7873SOL    HW235079   3.643   0.475   7.313 -1.8047 -0.6650 -1.1541
 7874SOL     OW35080   1.287   1.293  10.865  0.4889 -0.1015  0.1756
 7874SOL    HW135081   1.262   1.326  10.778 -1.7625  2.0545  1.6629
 7874SOL    HW235082   1.257   1.202  10.858 -2.7823  1.0212 -0.2439
 7875SOL     OW35083   3.232   4.152   6.849 -0.4546 -0.2599 -0.2266
 7875SOL    HW135084   3.326   4.146   6.829 -0.0808  1.7286  0.8866
 7875SOL    HW235085   3.201   4.235   6.814  2.5128  1.1882  0.5467
 7876SOL     OW35086   3.470   4.623   0.597  0.3231  0.5379  0.1428
 7876SOL    HW135087   3.468   4.572   0.516  1.6838 -1.1315  1.1489
 7876SOL    HW235088   3.428   4.704   0.569 -1.1165 -0.3716 -0.3130
 7877SOL     OW35089   3.508   2.655   1.549  0.4124 -0.2632  0.0086
 7877SOL    HW135090   3.474   2.734   1.592 -0.6220  0.8717 -2.8610
 7877SOL    HW235091   3.566   2.694   1.484 -1.7796  1.2443 -1.0497
 7878SOL     OW35092   2.797   1.673   2.633 -0.0713  0.0520 -0.1949
 7878SOL    HW135093   2.828   1.583   2.627 -1.6804 -0.4702 -0.6929
 7878SOL    HW235094   2.783   1.688   2.727  1.5923 -0.2704  0.1032
 7879SOL     OW35095   3.139   3.012  10.313 -0.5207  0.0114 -0.1755
 7879SOL    HW135096   3.136   2.974  10.401 -1.3242 -0.6107 -0.4652
 7879SOL    HW235097   3.185   3.092  10.335 -0.1553 -0.0875 -0.5788
 7880SOL     OW35098   1.123   1.581   9.388  0.1092 -0.1207 -0.3893
 7880SOL    HW135099   1.030   1.556   9.389 -0.3141  1.3913 -1.4890
 7880SOL    HW235100   1.128   1.652   9.452 -1.1071 -0.7647  0.4415
 7881SOL     OW35101   0.832   2.670  17.129 -0.0220  0.0489 -0.4496
 7881SOL    HW135102   0.813   2.682  17.036 -2.5922 -0.6255 -0.0011
 7881SOL    HW235103   0.921   2.633  17.129 -1.3559 -3.1969  2.5624
 7882SOL     OW35104   0.384   2.631  11.085 -0.4396  0.2306 -0.0030
 7882SOL    HW135105   0.294   2.658  11.065 -0.0013  0.2549 -1.9590
 7882SOL    HW235106   0.436   2.706  11.056  0.1014 -0.0106  0.3339
 7883SOL     OW35107   2.922   3.325   2.467  0.0843  0.1865  1.1042
 7883SOL    HW135108   2.848   3.280   2.507  0.1666 -2.1999 -1.3784
 7883SOL    HW235109   2.940   3.279   2.384 -2.0072  0.8000  0.3175
 7884SOL     OW35110   4.330   1.054   4.330 -0.4211  0.4911  0.6201
 7884SOL    HW135111   4.399   1.112   4.364 -0.0181 -0.1075  0.8236
 7884SOL    HW235112   4.334   1.072   4.236 -0.8598  2.0462  0.9013
 7885SOL     OW35113   1.684   0.853  12.456 -0.2204 -0.3425  0.9128
 7885SOL    HW135114   1.628   0.826  12.383 -1.9078  0.3465  1.9310
 7885SOL    HW235115   1.749   0.783  12.457  0.1244 -0.0369 -2.1195
 7886SOL     OW35116   1.284   2.389   9.692 -0.8106 -0.3131  0.1227
 7886SOL    HW135117   1.193   2.369   9.717 -0.9419  1.0286  0.7416
 7886SOL    HW235118   1.324   2.413   9.776  0.3874  1.0695 -0.8526
 7887SOL     OW35119   0.566   2.511   2.756 -0.3493 -0.0818  0.0733
 7887SOL    HW135120   0.623   2.492   2.681 -2.1824 -0.0503 -1.3156
 7887SOL    HW235121   0.629   2.555   2.812 -1.1236 -0.8303  1.5262
 7888SOL     OW35122   4.307   3.650   5.183 -0.1043  0.3418 -0.4367
 7888SOL    HW135123   4.211   3.656   5.177 -0.2564 -0.9306  0.7415
 7888SOL    HW235124   4.328   3.593   5.110  0.8455  1.1442 -0.7969
 7889SOL     OW35125   2.794   1.604   5.980  0.4496  0.2751  0.3312
 7889SOL    HW135126   2.845   1.665   5.927 -0.6987  1.7544  0.9280
 7889SOL    HW235127   2.726   1.663   6.014 -1.0835 -0.3365 -1.6484
 7890SOL     OW35128   1.201   4.529   2.683  0.4479 -0.5081 -0.0236
 7890SOL    HW135129   1.284   4.576   2.691 -0.0111  0.1724  0.7003
 7890SOL    HW235130   1.176   4.560   2.596 -1.4562 -0.0145  0.7154
 7891SOL     OW35131   3.626   0.944   8.595  0.4875 -0.2267  0.7838
 7891SOL    HW135132   3.684   0.975   8.526  0.0508 -0.5578  0.2588
 7891SOL    HW235133   3.682   0.872   8.624 -0.4496 -0.8063  1.1811
 7892SOL     OW35134   1.654   4.324  14.389  0.1471  0.2219  0.5564
 7892SOL    HW135135   1.742   4.312  14.423 -1.0067 -3.2576  2.2497
 7892SOL    HW235136   1.654   4.415  14.359 -3.6184  0.2716  0.6610
 7893SOL     OW35137   2.753   0.893   1.154 -0.2978  0.1678  0.5296
 7893SOL    HW135138   2.728   0.921   1.067 -0.0176 -1.3230 -0.0287
 7893SOL    HW235139   2.671   0.866   1.195  0.0243 -1.4912  0.0787
 7894SOL     OW35140   4.514   2.955   1.332  0.2170 -0.1245 -0.7377
 7894SOL    HW135141   4.532   2.883   1.392  1.7224 -0.2346 -1.3277
 7894SOL    HW235142   4.429   2.987   1.363  0.3706 -0.7884  0.3585
 7895SOL     OW35143   4.209   0.581  12.768 -1.0399 -0.2588 -0.0010
 7895SOL    HW135144   4.272   0.618  12.831  0.1659 -2.1758 -0.0906
 7895SOL    HW235145   4.195   0.497  12.811 -0.5796 -0.3757 -0.0764
 7896SOL     OW35146   3.007   1.870  10.839 -0.5000 -0.0101  0.5669
 7896SOL    HW135147   3.039   1.880  10.929  1.4043 -1.4146  0.0498
 7896SOL    HW235148   2.946   1.797  10.847 -0.3392 -0.2159 -0.1217
 7897SOL     OW35149   3.020   4.021   6.361  0.2645 -0.1667  0.5668
 7897SOL    HW135150   2.998   4.002   6.453 -0.5525 -2.5523 -0.1242
 7897SOL    HW235151   3.112   4.041   6.376  0.4425  0.9352 -2.0621
 7898SOL     OW35152   2.964   0.601  16.649  0.5144 -0.1100 -0.0180
 7898SOL    HW135153   2.898   0.661  16.684  1.2005  0.6669 -0.0525
 7898SOL    HW235154   3.030   0.581  16.715 -1.4061 -1.9035  1.3601
 7899SOL     OW35155   3.400   1.395   9.935 -0.0117  0.0003 -0.3265
 7899SOL    HW135156   3.324   1.372   9.989 -0.6810  4.0990  0.4732
 7899SOL    HW235157   3.425   1.478   9.974 -1.9813  0.9171 -1.0060
 7900SOL     OW35158   0.490   2.903  11.669 -0.3642  0.0104  0.2615
 7900SOL    HW135159   0.455   2.817  11.645  0.8428 -1.0097  2.1794
 7900SOL    HW235160   0.573   2.896  11.621 -0.0671 -1.0692  0.9416
 7901SOL     OW35161   3.172   2.502  15.263  0.1207 -0.4426 -0.3084
 7901SOL    HW135162   3.201   2.451  15.339 -0.2098 -3.0681 -1.9346
 7901SOL    HW235163   3.169   2.592  15.297  1.2589 -1.1758  1.7392
 7902SOL     OW35164   3.265   0.357  11.815 -0.2335  0.5884  0.4825
 7902SOL    HW135165   3.350   0.316  11.794 -0.0386  1.5574 -0.5758
 7902SOL    HW235166   3.250   0.417  11.742 -2.8455 -1.6598 -0.8300
 7903SOL     OW35167   2.150   1.894   7.402 -0.0397 -0.5383 -0.4848
 7903SOL    HW135168   2.143   1.935   7.488  0.0943 -1.3467 -0.0844
 7903SOL    HW235169   2.057   1.895   7.380  0.1164 -0.2143 -1.1374
 7904SOL     OW35170   0.484   0.245   6.582 -0.1803 -0.3096 -0.3595
 7904SOL    HW135171   0.519   0.159   6.560  1.1899 -0.1253  1.1220
 7904SOL    HW235172   0.562   0.300   6.578 -0.9478  0.8801  0.9344
 7905SOL     OW35173   3.203   3.573  10.356 -0.0491  0.8008 -0.5895
 7905SOL    HW135174   3.107   3.579  10.357 -0.1019 -0.4148  1.6816
 7905SOL    HW235175   3.223   3.501  10.296  0.3942 -0.6059  1.2778
 7906SOL     OW35176   3.453   3.786   9.341  0.6109 -0.4514 -0.1647
 7906SOL    HW135177   3.489   3.836   9.414  0.5214 -1.9138  0.8740
 7906SOL    HW235178   3.485   3.835   9.265  2.3138 -0.6196  0.4374
 7907SOL     OW35179   3.754   2.248  15.440  0.6144 -0.1220 -0.4376
 7907SOL    HW135180   3.764   2.305  15.516 -0.0346  0.3931 -0.7395
 7907SOL    HW235181   3.724   2.305  15.369 -0.2670 -2.1272 -1.7135
 7908SOL     OW35182   3.536   1.376   2.959  0.3896  0.0455 -0.5128
 7908SOL    HW135183   3.616   1.427   2.975 -1.1279  1.6921  1.9242
 7908SOL    HW235184   3.482   1.442   2.914  2.9315  1.2810 -1.7881
 7909SOL     OW35185   3.168   3.895   8.880  0.5677 -0.2166  0.7592
 7909SOL    HW135186   3.264   3.901   8.889  0.6068 -0.2421  0.3668
 7909SOL    HW235187   3.169   3.887   8.784  1.4950  0.2255  0.7277
 7910SOL     OW35188   4.298   3.157   0.737 -0.3808 -0.0804  0.0562
 7910SOL    HW135189   4.320   3.250   0.739  0.0870 -0.1863 -0.0133
 7910SOL    HW235190   4.318   3.143   0.829 -1.5783 -0.3371  0.2724
 7911SOL     OW35191   2.042   3.542   8.076 -0.0552 -0.7273 -0.1830
 7911SOL    HW135192   1.962   3.521   8.126  0.7430  0.3881  1.5622
 7911SOL    HW235193   2.095   3.580   8.147 -1.4853  0.8950  0.0285
 7912SOL     OW35194   3.705   1.945   3.457  0.1161 -0.2916  0.4494
 7912SOL    HW135195   3.718   2.029   3.501  1.4422  0.2448 -0.9369
 7912SOL    HW235196   3.786   1.897   3.473  0.3841 -0.2551 -0.7950
 7913SOL     OW35197   3.243   1.248  10.281  0.2781 -0.2486 -0.4537
 7913SOL    HW135198   3.211   1.195  10.353  0.5264 -0.1565 -0.2743
 7913SOL    HW235199   3.174   1.234  10.217  1.4280 -0.1150 -1.7332
 7914SOL     OW35200   3.797   3.463  16.244 -0.3751 -0.0685 -0.1612
 7914SOL    HW135201   3.726   3.461  16.308 -1.2637 -2.0555 -1.2184
 7914SOL    HW235202   3.877   3.470  16.296  0.1063 -0.3056 -0.8815
 7915SOL     OW35203   3.721   1.182   4.588  0.3804  0.0603  0.1636
 7915SOL    HW135204   3.779   1.175   4.513  0.4631  0.2884  0.2090
 7915SOL    HW235205   3.752   1.256   4.639 -1.1161  0.3024  0.7314
 7916SOL     OW35206   0.159   0.714   3.958 -0.0237 -0.2634 -0.1940
 7916SOL    HW135207   0.111   0.632   3.945  1.3588 -0.8959 -1.2971
 7916SOL    HW235208   0.250   0.685   3.960 -0.9121 -3.1328 -0.3951
 7917SOL     OW35209   1.147   2.812  12.362 -0.1338  0.5678 -0.1632
 7917SOL    HW135210   1.109   2.897  12.384  1.4283  1.0825  0.5104
 7917SOL    HW235211   1.088   2.784  12.293  1.8427 -1.4050 -1.0473
 7918SOL     OW35212   3.742   2.851   3.369 -0.6685  0.8826 -0.4679
 7918SOL    HW135213   3.799   2.802   3.428 -0.4886  0.9573 -0.5778
 7918SOL    HW235214   3.769   2.815   3.285 -0.3205  1.4225 -0.5902
 7919SOL     OW35215   3.829   4.657  13.239  0.4085  0.7907 -0.2605
 7919SOL    HW135216   3.901   4.619  13.189 -0.0458 -2.1061  1.3253
 7919SOL    HW235217   3.756   4.604  13.207  1.6766 -1.5738  0.8035
 7920SOL     OW35218   1.343   1.354   7.414 -0.5862 -0.3788 -0.3002
 7920SOL    HW135219   1.400   1.288   7.454  3.1267  1.7405 -2.1243
 7920SOL    HW235220   1.261   1.375   7.459  0.3835  2.8155 -0.0028
 7921SOL     OW35221   0.839   2.507   2.285 -0.2854  0.3404 -0.5228
 7921SOL    HW135222   0.854   2.582   2.228  0.0160 -0.4898 -1.5276
 7921SOL    HW235223   0.915   2.452   2.264 -1.4470 -1.4503 -0.0618
 7922SOL     OW35224   2.097   1.599   6.573 -0.2836  0.1472  0.4900
 7922SOL    HW135225   2.191   1.580   6.578 -0.1178  0.7253 -0.3761
 7922SOL    HW235226   2.083   1.578   6.480 -0.4560  0.0781  0.5308
 7923SOL     OW35227   2.730   1.207  16.457 -0.0192  0.5384 -0.0520
 7923SOL    HW135228   2.722   1.112  16.459 -1.2295  0.6035 -1.9005
 7923SOL    HW235229   2.715   1.235  16.367  0.3264 -1.4463 -0.7264
 7924SOL     OW35230   0.697   3.844   8.905  0.3078 -0.0257  0.1212
 7924SOL    HW135231   0.612   3.887   8.916 -0.8204 -1.4986 -2.6027
 7924SOL    HW235232   0.703   3.843   8.809 -1.8434  0.3083 -0.0183
 7925SOL     OW35233   2.809   1.407   1.987 -0.1867  0.2685  0.5886
 7925SOL    HW135234   2.789   1.409   2.081  1.9812  0.8175  1.0482
 7925SOL    HW235235   2.726   1.442   1.955 -0.3584 -1.2327 -0.5908
 7926SOL     OW35236   1.141   3.444  13.647 -0.2146 -0.7384  0.3206
 7926SOL    HW135237   1.202   3.510  13.680 -2.4142  1.7317 -0.5853
 7926SOL    HW235238   1.090   3.416  13.723 -0.6519 -1.6062 -0.2853
 7927SOL     OW35239   1.910   4.424   5.297 -0.0858 -0.3330 -0.6523
 7927SOL    HW135240   1.916   4.330   5.308  2.7816 -0.4227 -2.7431
 7927SOL    HW235241   2.000   4.456   5.288 -0.6047  1.5847  1.0417
 7928SOL     OW35242   0.584   0.299   4.599  0.0267 -0.2619  0.1764
 7928SOL    HW135243   0.668   0.258   4.575 -0.4688  0.4022 -2.5886
 7928SOL    HW235244   0.524   0.225   4.590 -1.4056  0.6006  2.8675
 7929SOL     OW35245   4.078   3.960   5.862 -0.6841  0.2962  0.5024
 7929SOL    HW135246   4.020   4.025   5.901 -2.2386 -1.3423  0.9205
 7929SOL    HW235247   4.036   3.887   5.907 -1.9776  2.6887  3.1691
 7930SOL     OW35248   0.317   1.767   5.052 -0.1086 -0.0860 -0.2242
 7930SOL    HW135249   0.315   1.823   4.975 -0.3581  0.2763  0.0439
 7930SOL    HW235250   0.225   1.748   5.070 -0.1611  0.6591  0.3044
 7931SOL     OW35251   4.652   2.761   1.631  0.0887  0.3444 -0.4812
 7931SOL    HW135252   4.698   2.697   1.685  0.9455  1.3959  0.0407
 7931SOL    HW235253   4.596   2.807   1.693  0.9573 -1.6942  1.8075
 7932SOL     OW35254   3.266   2.839   4.581  0.1174 -0.7714 -0.0559
 7932SOL    HW135255   3.290   2.747   4.590 -0.5718 -0.8971  0.4548
 7932SOL    HW235256   3.321   2.868   4.507 -0.3170 -0.1614 -0.1384
 7933SOL     OW35257   0.841   1.685   2.596 -0.2384  0.2555  0.2305
 7933SOL    HW135258   0.835   1.593   2.569  1.5557 -0.2501  1.5721
 7933SOL    HW235259   0.918   1.721   2.551 -0.5122  0.9611  0.3372
 7934SOL     OW35260   4.295   1.170   8.026 -0.5002  0.3121 -0.2293
 7934SOL    HW135261   4.294   1.135   7.936  2.7021  2.4185 -1.0804
 7934SOL    HW235262   4.351   1.108   8.072 -0.5246  0.0710 -0.5173
 7935SOL     OW35263   2.877   1.467   3.804  0.5182 -0.0516 -0.5553
 7935SOL    HW135264   2.812   1.429   3.864  0.7781  0.5516  0.1050
 7935SOL    HW235265   2.951   1.409   3.820 -0.7959 -1.2102  1.3732
 7936SOL     OW35266   0.696   1.011   4.125  0.2231  0.4145  0.4245
 7936SOL    HW135267   0.780   0.977   4.157 -1.7521 -2.6478  2.2898
 7936SOL    HW235268   0.642   0.947   4.170  0.8644  1.3559  2.5525
 7937SOL     OW35269   1.692   1.338   6.626  0.2372 -0.2248  0.5016
 7937SOL    HW135270   1.733   1.330   6.540 -1.4813 -1.0715 -0.2494
 7937SOL    HW235271   1.738   1.277   6.683  1.8149  0.9849  0.4920
 7938SOL     OW35272   0.030   1.560  12.237 -0.1484 -0.3480 -0.1040
 7938SOL    HW135273   0.076   1.576  12.155 -0.2018  3.2425  0.5639
 7938SOL    HW235274   0.067   1.473  12.254  2.6548  0.6116 -1.2119
 7939SOL     OW35275   2.272   4.455   0.806  0.2804  0.3991 -0.3473
 7939SOL    HW135276   2.237   4.459   0.895  1.3352  0.6156  0.0593
 7939SOL    HW235277   2.241   4.541   0.775  0.2851  0.4201 -0.2936
 7940SOL     OW35278   4.279   1.038  15.075 -0.1376 -0.4639  0.8478
 7940SOL    HW135279   4.298   0.965  15.016 -1.8367 -0.3478  0.1515
 7940SOL    HW235280   4.367   1.076  15.081 -1.3107  2.0432  1.9927
 7941SOL     OW35281   0.251   4.261   5.558 -0.0116 -0.4763 -0.1568
 7941SOL    HW135282   0.228   4.179   5.514  1.1645  0.7444 -3.0673
 7941SOL    HW235283   0.165   4.304   5.557  0.7901  1.1149 -0.7924
 7942SOL     OW35284   1.378   0.437  17.260 -0.1332 -0.0115 -0.7024
 7942SOL    HW135285   1.413   0.427  17.349 -0.9823 -2.7705 -0.6820
 7942SOL    HW235286   1.402   0.528  17.243 -0.9708  0.7444  2.0601
 7943SOL     OW35287   3.808   3.361   2.322  0.2691 -0.2354  0.2893
 7943SOL    HW135288   3.836   3.286   2.373  0.6451 -1.4236 -1.7012
 7943SOL    HW235289   3.834   3.332   2.235 -1.8257  0.4322 -0.5643
 7944SOL     OW35290   2.547   1.129   3.292  0.0696  0.0403  0.3048
 7944SOL    HW135291   2.529   1.038   3.271 -1.8435  0.2963  0.8349
 7944SOL    HW235292   2.464   1.172   3.270 -0.2263 -0.8499 -0.3174
 7945SOL     OW35293   3.563   1.126   2.867  0.4808 -0.0548  0.5197
 7945SOL    HW135294   3.541   1.206   2.916  1.2487  0.5026 -0.0546
 7945SOL    HW235295   3.569   1.169   2.782  1.2094 -0.4094  0.3976
 7946SOL     OW35296   4.575   0.032  15.112 -0.3984  0.4022  0.0980
 7946SOL    HW135297   4.612   0.101  15.167 -2.3997  0.0348  1.9106
 7946SOL    HW235298   4.531   4.696  15.175  0.8770 -0.3753  0.2746
 7947SOL     OW35299   1.097   3.768   4.159 -0.0837 -0.8166 -0.1479
 7947SOL    HW135300   1.094   3.755   4.064 -0.9769  1.6224 -0.4340
 7947SOL    HW235301   1.046   3.698   4.201  0.2347 -1.2626 -0.4958
 7948SOL     OW35302   3.458   3.797   1.200 -0.5592  0.2593  0.4833
 7948SOL    HW135303   3.377   3.814   1.154 -0.7397 -1.2746  0.2344
 7948SOL    HW235304   3.457   3.702   1.206 -2.3680  0.3596  1.5176
 7949SOL     OW35305   3.241   4.106   4.384 -0.4651  0.3780  0.1768
 7949SOL    HW135306   3.312   4.158   4.421 -1.9884  0.5410  2.8549
 7949SOL    HW235307   3.204   4.170   4.323 -1.7405 -1.2870 -0.8056
 7950SOL     OW35308   1.716   3.025   0.064  0.4731  0.5235  0.0384
 7950SOL    HW135309   1.681   3.066   0.143  0.1684 -0.2443  0.2994
 7950SOL    HW235310   1.635   2.995   0.022  1.2713 -1.6040  0.0527
 7951SOL     OW35311   1.466   4.547   3.079 -0.2973  0.3035  0.0274
 7951SOL    HW135312   1.389   4.562   3.024 -1.1975 -0.3411  1.1154
 7951SOL    HW235313   1.533   4.601   3.038 -0.9664  0.7076 -0.5286
 7952SOL     OW35314   3.419   1.055   8.261 -0.1524 -0.4110 -0.0627
 7952SOL    HW135315   3.466   1.017   8.187  0.2010  0.1571 -0.1305
 7952SOL    HW235316   3.439   1.146   8.240 -1.5115 -0.2186 -0.4807
 7953SOL     OW35317   2.099   4.091   9.099  0.0125 -0.1893  0.2121
 7953SOL    HW135318   2.079   4.014   9.153 -1.5714 -0.3391 -0.6017
 7953SOL    HW235319   2.194   4.100   9.102 -0.0103  1.0786 -2.7862
 7954SOL     OW35320   2.239   2.229   3.256 -0.3331  0.9267  0.3535
 7954SOL    HW135321   2.297   2.277   3.197  0.4805  3.2669  3.1239
 7954SOL    HW235322   2.188   2.303   3.288 -0.1285  0.9893  0.5353
 7955SOL     OW35323   3.696   1.187  12.858  0.3855  0.1894  0.0719
 7955SOL    HW135324   3.637   1.112  12.855  1.3164 -0.5036 -1.1323
 7955SOL    HW235325   3.763   1.145  12.804 -1.6653 -1.5662 -1.0726
 7956SOL     OW35326   1.083   2.850   4.926  0.1491 -0.2861  0.2729
 7956SOL    HW135327   1.146   2.792   4.969  2.1142  0.2079 -1.9041
 7956SOL    HW235328   1.012   2.788   4.912 -1.6673  1.7329  0.5849
 7957SOL     OW35329   2.567   2.725  13.718  0.4599 -0.3399  0.0370
 7957SOL    HW135330   2.522   2.806  13.742 -1.1850 -1.4763  0.8450
 7957SOL    HW235331   2.644   2.728  13.775  0.4463 -0.3373  0.0552
 7958SOL     OW35332   3.812   3.827   9.166  0.3025 -0.4894 -0.4458
 7958SOL    HW135333   3.796   3.771   9.090  1.1017 -0.3028 -0.7485
 7958SOL    HW235334   3.775   3.909   9.134 -0.0945  0.5891  2.7157
 7959SOL     OW35335   3.970   3.684  16.175 -0.2714 -0.0774  0.1058
 7959SOL    HW135336   4.006   3.642  16.097 -1.3725 -1.2322  0.2155
 7959SOL    HW235337   3.901   3.622  16.200 -0.6250  1.0290  1.8919
 7960SOL     OW35338   1.649   4.294   4.299  0.5554  0.5602  0.0199
 7960SOL    HW135339   1.641   4.218   4.241 -1.5423  0.7212  0.1022
 7960SOL    HW235340   1.576   4.344   4.264  1.4867  1.3555 -0.7587
 7961SOL     OW35341   0.348   4.527   3.665 -0.2852  0.5547 -0.4589
 7961SOL    HW135342   0.315   4.554   3.750 -1.1922  0.5076 -0.7976
 7961SOL    HW235343   0.282   4.569   3.610 -0.3955 -1.6112 -1.9682
 7962SOL     OW35344   4.237   2.238  12.511 -0.0701  0.2093  0.3837
 7962SOL    HW135345   4.329   2.217  12.500 -0.8177 -1.6984 -2.3658
 7962SOL    HW235346   4.212   2.245  12.419  1.9020  2.4863  0.0321
 7963SOL     OW35347   1.351   1.387   0.282 -0.2199  0.3764  0.1871
 7963SOL    HW135348   1.295   1.400   0.358 -1.1986  1.8541 -0.7878
 7963SOL    HW235349   1.364   1.475   0.246 -0.3693 -0.1855 -1.2621
 7964SOL     OW35350   3.024   1.095   1.534 -0.4600  0.5737  0.0340
 7964SOL    HW135351   3.067   1.010   1.543  0.4685  1.0060 -0.3324
 7964SOL    HW235352   2.976   1.084   1.451  1.6903  0.7877 -1.2260
 7965SOL     OW35353   1.398   2.278   8.069 -0.1327 -0.2372 -0.4940
 7965SOL    HW135354   1.425   2.345   8.131  0.2860 -0.0886 -0.8349
 7965SOL    HW235355   1.323   2.243   8.118  2.0207 -2.0350  1.4659
 7966SOL     OW35356   0.964   2.007  14.868  0.1118 -0.4596  0.1600
 7966SOL    HW135357   1.044   1.979  14.913  0.6318 -2.3987 -1.9713
 7966SOL    HW235358   0.997   2.005  14.778 -0.2088 -4.9805  0.1296
 7967SOL     OW35359   3.441   3.847   8.613 -0.0215  0.2362  0.6022
 7967SOL    HW135360   3.471   3.923   8.664 -1.5505  1.2846 -0.0586
 7967SOL    HW235361   3.499   3.778   8.647  0.4499  1.1270  1.6254
 7968SOL     OW35362   2.063   0.583   3.360 -0.3704 -0.0438  0.6486
 7968SOL    HW135363   2.125   0.519   3.325 -1.7548 -0.3191 -1.2631
 7968SOL    HW235364   2.119   0.660   3.367  1.5344 -1.4044  0.2822
 7969SOL     OW35365   1.430   2.966   2.433 -0.5729 -0.2418  0.3232
 7969SOL    HW135366   1.380   2.998   2.507 -1.4307 -0.2052 -0.2709
 7969SOL    HW235367   1.356   2.950   2.375 -2.7601 -1.1486  3.3629
 7970SOL     OW35368   3.767   2.212   7.599  0.5874 -0.2173 -0.0334
 7970SOL    HW135369   3.733   2.294   7.634 -1.3924 -1.4777  1.0185
 7970SOL    HW235370   3.836   2.200   7.665  0.6418  1.8112  0.2886
 7971SOL     OW35371   4.149   3.932   5.091  0.3992  0.2475  0.3187
 7971SOL    HW135372   4.062   3.923   5.054 -0.0461 -0.2943  1.4851
 7971SOL    HW235373   4.138   3.927   5.186  2.8766 -0.6385  0.5654
 7972SOL     OW35374   3.000   0.180   8.373 -0.3024  0.4353 -0.0065
 7972SOL    HW135375   2.934   0.246   8.394 -0.8365 -0.1185  0.0549
 7972SOL    HW235376   3.010   0.208   8.282 -1.1963  0.0671 -0.2134
 7973SOL     OW35377   2.808   4.307   5.584  0.3625 -0.4520 -0.3654
 7973SOL    HW135378   2.754   4.230   5.566  2.1110 -1.5304 -1.0174
 7973SOL    HW235379   2.747   4.369   5.544  1.7096  0.4156 -1.0984
 7974SOL     OW35380   0.182   1.743   2.774 -0.3665  0.2041 -0.0634
 7974SOL    HW135381   0.089   1.766   2.771 -0.3794  0.2317  0.7528
 7974SOL    HW235382   0.185   1.653   2.806 -1.3746  0.4470  0.6977
 7975SOL     OW35383   3.516   2.804   8.075  0.2240  0.0296 -0.4297
 7975SOL    HW135384   3.498   2.896   8.092  0.1602 -0.0743  0.0473
 7975SOL    HW235385   3.437   2.764   8.111  0.5989  0.6041  1.0124
 7976SOL     OW35386   3.526   2.376   9.330 -0.5777 -0.1360 -0.3817
 7976SOL    HW135387   3.570   2.450   9.289  2.2148 -1.4244  0.3353
 7976SOL    HW235388   3.532   2.310   9.261  0.3455 -2.8056  2.2685
 7977SOL     OW35389   2.357   4.573  14.503  0.6986 -0.6555 -0.4146
 7977SOL    HW135390   2.390   4.568  14.593  1.1793 -0.4062 -0.5748
 7977SOL    HW235391   2.382   4.483  14.483 -1.2684 -1.1351 -0.6357
 7978SOL     OW35392   3.686   3.269  16.961  0.4366 -0.1751  0.4174
 7978SOL    HW135393   3.749   3.255  16.890 -0.7570 -0.1618 -0.6261
 7978SOL    HW235394   3.608   3.273  16.907 -0.4817  0.1528  1.7714
 7979SOL     OW35395   0.682   0.890   6.949  0.1492  0.4113  0.2034
 7979SOL    HW135396   0.625   0.921   6.879  0.9250  0.0497 -0.5906
 7979SOL    HW235397   0.686   0.974   6.995  0.8315 -0.4548  1.7539
 7980SOL     OW35398   2.615   2.210   4.452  0.5131 -0.2131  0.5482
 7980SOL    HW135399   2.652   2.290   4.414  1.1894 -0.4804  0.6595
 7980SOL    HW235400   2.593   2.237   4.541  1.9073  0.2047  0.7535
 7981SOL     OW35401   0.155   4.690   5.727  0.5204 -0.1231 -0.4426
 7981SOL    HW135402   0.067   0.005   5.736  0.7503  0.3684 -0.1660
 7981SOL    HW235403   0.210   0.047   5.724 -1.6345  1.5004  1.5711
 7982SOL     OW35404   4.166   0.827   3.488 -0.2576 -0.1392 -0.1866
 7982SOL    HW135405   4.259   0.839   3.468 -0.0031 -3.6711 -1.1530
 7982SOL    HW235406   4.170   0.825   3.584 -0.7310  0.3134 -0.1586
 7983SOL     OW35407   3.171   3.477   4.398  0.3126  0.2377  0.6078
 7983SOL    HW135408   3.197   3.568   4.412  1.3389  0.0418  0.0183
 7983SOL    HW235409   3.259   3.439   4.400  0.8260  1.4112  0.3187
 7984SOL     OW35410   1.901   2.840  14.859 -0.3195 -0.0147  0.2069
 7984SOL    HW135411   1.870   2.930  14.872 -0.5815  0.1412 -1.5113
 7984SOL    HW235412   1.824   2.784  14.851 -1.5012  1.4487  1.4136
 7985SOL     OW35413   1.296   3.322   7.149  0.0502 -0.1140  0.0614
 7985SOL    HW135414   1.271   3.289   7.236  1.0152 -1.1896 -0.0625
 7985SOL    HW235415   1.209   3.327   7.111 -0.2678  1.0112  0.9399
 7986SOL     OW35416   1.998   4.124   7.049  0.1823  0.5595 -0.3302
 7986SOL    HW135417   1.911   4.100   7.017  0.7016 -1.1349 -0.4591
 7986SOL    HW235418   1.985   4.146   7.141 -0.4031  0.8762 -0.4843
 7987SOL     OW35419   1.051   1.050   8.086  0.4126  0.1504 -1.0718
 7987SOL    HW135420   1.076   0.961   8.108  0.4809  0.5830  0.6249
 7987SOL    HW235421   0.995   1.026   8.012 -2.2425  3.2570 -0.1158
 7988SOL     OW35422   3.476   3.898   2.972  0.1692 -0.1492  0.2862
 7988SOL    HW135423   3.465   3.971   2.910 -2.1686  1.0395  2.0950
 7988SOL    HW235424   3.399   3.906   3.028 -0.5837 -2.8961 -0.3593
 7989SOL     OW35425   4.509   0.905   9.426  0.1136  0.0810 -0.2500
 7989SOL    HW135426   4.570   0.962   9.378  1.6380 -1.3238  0.0117
 7989SOL    HW235427   4.500   0.850   9.348  0.2539  0.1944 -0.3461
 7990SOL     OW35428   3.281   4.530   5.232  0.4924  0.1279 -0.7463
 7990SOL    HW135429   3.205   4.477   5.207  0.8826 -0.8350  0.1750
 7990SOL    HW235430   3.252   4.612   5.190 -0.1179  0.6286  0.6372
 7991SOL     OW35431   1.069   0.654   3.139 -0.5153 -0.0474  0.1984
 7991SOL    HW135432   0.979   0.674   3.113 -0.6485 -2.4760 -1.2674
 7991SOL    HW235433   1.120   0.699   3.072 -0.8244  0.8932  0.5896
 7992SOL     OW35434   3.371   3.095  10.502  0.1642  0.7958 -0.7958
 7992SOL    HW135435   3.390   3.027  10.566 -0.8756 -0.0975 -1.4516
 7992SOL    HW235436   3.446   3.100  10.442 -1.3270  1.7359 -2.6145
 7993SOL     OW35437   1.204   3.445   9.330 -0.1716  0.0618  0.2250
 7993SOL    HW135438   1.239   3.356   9.319  2.1545  0.7914  1.6768
 7993SOL    HW235439   1.131   3.442   9.392 -0.1439  1.0045  0.3022
 7994SOL     OW35440   4.278   1.842  11.582  0.3155 -0.1329  0.1036
 7994SOL    HW135441   4.282   1.887  11.666  0.2322  0.5811 -0.2749
 7994SOL    HW235442   4.296   1.751  11.606  2.7271  0.2942 -0.0555
 7995SOL     OW35443   0.472   2.411   4.445 -0.4744 -0.2271  0.4599
 7995SOL    HW135444   0.411   2.467   4.398 -3.7546 -1.3196  3.4843
 7995SOL    HW235445   0.428   2.391   4.527  0.4839 -0.6745  0.8718
 7996SOL     OW35446   1.089   0.049  13.578  0.1980 -0.2736  0.0034
 7996SOL    HW135447   1.123   0.064  13.489 -1.3826  0.5002 -0.4636
 7996SOL    HW235448   0.997   0.063  13.557  0.9569  0.9443 -2.5821
 7997SOL     OW35449   2.639   0.684  13.599  0.2225 -0.3147  0.1144
 7997SOL    HW135450   2.730   0.709  13.614 -0.7011  2.9887  0.1972
 7997SOL    HW235451   2.584   0.701  13.676 -0.4092  0.9978 -0.6331
 7998SOL     OW35452   3.787   2.728   3.100 -0.6886  0.1234 -0.5582
 7998SOL    HW135453   3.869   2.778   3.092 -2.0998  2.1648 -2.2662
 7998SOL    HW235454   3.721   2.795   3.083 -1.5449 -0.1454  1.7954
 7999SOL     OW35455   3.138   1.959   6.424  0.5529  0.9880  0.3392
 7999SOL    HW135456   3.148   2.049   6.393  1.4157 -0.0058 -2.2379
 7999SOL    HW235457   3.075   1.969   6.496  0.0446 -1.2883  0.2014
 8000SOL     OW35458   0.873   4.651   5.439 -0.2671 -0.0107 -0.1618
 8000SOL    HW135459   0.863   4.701   5.358  1.3164  0.4307 -0.0856
 8000SOL    HW235460   0.886   4.558   5.420 -1.7836 -0.4603  0.9831
 8001SOL     OW35461   1.301   2.330  14.952  0.0375 -0.2262  0.6378
 8001SOL    HW135462   1.234   2.270  14.920 -0.2187  0.6267 -0.4434
 8001SOL    HW235463   1.268   2.355  15.038 -0.8902  0.6452  0.0354
 8002SOL     OW35464   4.113   0.513   8.788  0.1870 -0.1185  0.0948
 8002SOL    HW135465   4.042   0.536   8.847  0.2491 -0.5824  0.3522
 8002SOL    HW235466   4.096   0.421   8.767 -1.5980  0.0258  0.9113
 8003SOL     OW35467   0.033   0.372   7.765 -0.3600  0.1729  0.1095
 8003SOL    HW135468   0.019   0.283   7.796  1.6922  0.1878  1.0839
 8003SOL    HW235469   0.082   0.416   7.834 -1.7683 -1.1807  1.9703
 8004SOL     OW35470   2.018   1.420   2.983 -0.6332  0.0258  0.2077
 8004SOL    HW135471   2.091   1.482   2.978 -0.6497  0.1370  1.3682
 8004SOL    HW235472   1.941   1.473   3.004  0.1237  0.4884  1.7762
 8005SOL     OW35473   3.092   1.791   5.501  0.4609  0.4375 -0.4547
 8005SOL    HW135474   3.001   1.768   5.521 -0.5422  2.3653 -2.8172
 8005SOL    HW235475   3.089   1.881   5.532 -2.2514  0.3605 -0.4983
 8006SOL     OW35476   4.596   1.067   2.394 -0.5898 -0.2509 -0.4307
 8006SOL    HW135477   4.622   1.113   2.314 -0.3276  1.5347  0.6673
 8006SOL    HW235478   4.663   0.999   2.391 -0.7094 -0.3528 -0.7751
 8007SOL     OW35479   3.815   1.375   5.048 -0.2313  0.4636 -0.0063
 8007SOL    HW135480   3.744   1.440   5.045 -0.2283  0.4510 -0.3125
 8007SOL    HW235481   3.798   1.334   5.133 -2.9443  0.2951 -0.6291
 8008SOL     OW35482   4.689   0.520   6.011  0.0849  0.2634 -0.2131
 8008SOL    HW135483   4.605   0.498   5.971  0.3171  0.1227 -0.6220
 8008SOL    HW235484   4.715   0.441   6.058 -0.7291  1.2823  1.9425
 8009SOL     OW35485   4.245   1.267   3.368  0.5568 -0.4617 -1.0543
 8009SOL    HW135486   4.251   1.342   3.309 -0.2773  0.4175 -0.0321
 8009SOL    HW235487   4.174   1.297   3.425 -0.8782 -1.7061 -2.1806
 8010SOL     OW35488   2.878   0.419   7.735  0.4827  0.5849 -0.1741
 8010SOL    HW135489   2.792   0.402   7.774  0.4708 -2.8286 -1.6874
 8010SOL    HW235490   2.938   0.391   7.804  0.9078 -1.2770 -1.2955
 8011SOL     OW35491   0.939   2.300   2.648 -0.6656  0.4434  0.6833
 8011SOL    HW135492   0.991   2.367   2.693  1.0572  0.4443 -1.3482
 8011SOL    HW235493   0.958   2.223   2.701 -1.4285  1.0765  1.8767
 8012SOL     OW35494   2.949   3.579   7.718  0.0019 -0.0215 -0.6094
 8012SOL    HW135495   3.018   3.639   7.745  0.7186 -0.1481 -2.1949
 8012SOL    HW235496   2.882   3.595   7.785  1.9592 -1.2156  1.6100
 8013SOL     OW35497   3.167   1.710   4.261  0.5681 -0.2910  0.1501
 8013SOL    HW135498   3.216   1.652   4.320 -1.5901 -1.6737  0.5873
 8013SOL    HW235499   3.093   1.655   4.236 -0.6284  2.2988 -1.9464
 8014SOL     OW35500   2.189   2.062   8.976 -0.2430  0.2449 -0.1193
 8014SOL    HW135501   2.268   2.050   9.029 -0.5648 -2.7695 -0.3157
 8014SOL    HW235502   2.166   1.969   8.971 -0.2864  0.3117 -1.0959
 8015SOL     OW35503   2.616   3.628   2.539  0.4959 -0.4462 -0.0243
 8015SOL    HW135504   2.539   3.637   2.483  0.1906 -2.4713  0.0820
 8015SOL    HW235505   2.625   3.723   2.541  1.7929 -0.5545 -0.5667
 8016SOL     OW35506   1.262   4.640   4.132 -0.2002 -0.2207 -0.0750
 8016SOL    HW135507   1.354   4.615   4.142  0.4988  2.1565 -0.4784
 8016SOL    HW235508   1.272   4.711   4.068  2.2545 -0.2268  0.3156
 8017SOL     OW35509   0.102   2.435  10.263 -0.0267 -0.0912  0.6677
 8017SOL    HW135510   0.018   2.426  10.309  0.0738 -2.6604  0.3519
 8017SOL    HW235511   0.116   2.530  10.257 -0.5291 -0.1453 -1.3003
 8018SOL     OW35512   2.508   1.979   3.428 -0.5926  0.7545 -0.4399
 8018SOL    HW135513   2.517   2.073   3.416  0.0301  0.7489 -0.0087
 8018SOL    HW235514   2.414   1.968   3.437 -0.3167  0.2011  1.6780
 8019SOL     OW35515   4.159   2.176   5.897  0.0893 -0.1701 -0.1308
 8019SOL    HW135516   4.197   2.220   5.973 -0.9897 -0.9090  0.8426
 8019SOL    HW235517   4.138   2.087   5.926  1.0088  0.1669  1.5431
 8020SOL     OW35518   0.563   1.236   5.394 -0.0646  0.7554 -0.0892
 8020SOL    HW135519   0.591   1.297   5.462  0.8311 -0.0823  0.2828
 8020SOL    HW235520   0.616   1.254   5.317  0.4613 -1.3662 -0.2004
 8021SOL     OW35521   1.072   2.282   3.953 -0.3294  0.6530 -0.4807
 8021SOL    HW135522   1.106   2.351   3.896  0.3736  1.4265  0.8752
 8021SOL    HW235523   1.113   2.203   3.918 -1.6547 -0.8647  1.3927
 8022SOL     OW35524   0.426   0.636   7.845  0.4033  0.5236  0.2812
 8022SOL    HW135525   0.487   0.641   7.771 -1.1858  0.0592 -1.0366
 8022SOL    HW235526   0.426   0.720   7.892 -2.9289  0.3763  0.5505
 8023SOL     OW35527   3.712   4.155   4.995  0.0729  0.2767  0.2642
 8023SOL    HW135528   3.779   4.214   5.029 -0.5225  0.2664  1.4268
 8023SOL    HW235529   3.681   4.203   4.918  0.1370 -1.0164 -0.5683
 8024SOL     OW35530   3.179   1.872   3.358  0.2340 -0.1306 -0.1135
 8024SOL    HW135531   3.091   1.856   3.391  0.3573  2.9117  1.6992
 8024SOL    HW235532   3.239   1.804   3.388  1.6310  1.1750  0.0967
 8025SOL     OW35533   3.166   1.347  16.257  0.1658  0.0231  0.1289
 8025SOL    HW135534   3.157   1.427  16.309 -1.2082  1.6137 -2.5275
 8025SOL    HW235535   3.077   1.342  16.221  1.7400 -0.6061 -3.6895
 8026SOL     OW35536   4.695   0.245  17.153 -0.2465  0.0843 -0.3245
 8026SOL    HW135537   0.046   0.300  17.184  1.3339 -3.8043  2.8129
 8026SOL    HW235538   4.642   0.308  17.103 -0.4763  0.2122  0.0857
 8027SOL     OW35539   2.875   3.856   9.891 -0.5564 -0.1378 -0.6672
 8027SOL    HW135540   2.881   3.806   9.972  1.2451  0.9995 -0.1115
 8027SOL    HW235541   2.825   3.934   9.913 -1.3210 -0.3854 -1.5164
 8028SOL     OW35542   3.304   0.967   4.511  0.4254 -0.0979  0.3526
 8028SOL    HW135543   3.303   0.912   4.589 -0.4016 -1.2511 -0.4690
 8028SOL    HW235544   3.319   1.057   4.541 -2.7096  0.9060 -1.0672
 8029SOL     OW35545   4.150   3.794   6.115 -0.6841  0.3727  0.1531
 8029SOL    HW135546   4.123   3.707   6.084 -1.4107  1.0833 -1.1915
 8029SOL    HW235547   4.245   3.792   6.107 -0.6820 -1.3485  0.4658
 8030SOL     OW35548   4.072   1.914   3.913 -0.1714  0.2925  0.2694
 8030SOL    HW135549   4.090   1.987   3.854 -1.9240 -0.0353 -0.6639
 8030SOL    HW235550   4.036   1.847   3.854 -1.9717 -0.5313  2.2908
 8031SOL     OW35551   4.222   2.588   5.780 -0.5430  0.0118 -0.4497
 8031SOL    HW135552   4.186   2.618   5.864 -0.3482  0.2955 -0.4694
 8031SOL    HW235553   4.305   2.634   5.792 -1.5401  1.5656  0.4649
 8032SOL     OW35554   2.625   0.124   2.079 -0.2333  0.4267  0.5356
 8032SOL    HW135555   2.612   0.133   1.985  0.8076  0.5170  0.3966
 8032SOL    HW235556   2.638   0.029   2.083 -3.1780  0.0466  1.0172
 8033SOL     OW35557   1.834   4.137  11.212 -0.1139 -0.1279  0.6828
 8033SOL    HW135558   1.850   4.050  11.176 -3.2674 -0.2298 -0.4628
 8033SOL    HW235559   1.749   4.153  11.172 -0.2830  0.7625  1.4011
 8034SOL     OW35560   0.840   2.784   4.529  0.4734  0.1220  0.7970
 8034SOL    HW135561   0.762   2.827   4.494  0.8800 -0.3454 -0.6709
 8034SOL    HW235562   0.805   2.700   4.559 -1.9121  0.7699 -0.1973
 8035SOL     OW35563   0.059   4.376   0.426 -0.2243 -0.3746  0.3731
 8035SOL    HW135564   0.042   4.284   0.404 -0.4309 -0.4703  0.9288
 8035SOL    HW235565   0.154   4.377   0.420 -0.1776 -0.5939  1.0549
 8036SOL     OW35566   0.767   0.272  12.647 -0.2868 -0.0864 -0.1471
 8036SOL    HW135567   0.681   0.244  12.616 -0.1483 -0.4231 -0.2218
 8036SOL    HW235568   0.779   0.351  12.594  2.0083 -1.7461 -2.0649
 8037SOL     OW35569   2.807   1.931   7.062  0.3860  0.2074 -0.2763
 8037SOL    HW135570   2.867   1.901   7.130  1.0764 -0.0766 -1.0142
 8037SOL    HW235571   2.747   1.988   7.110 -1.9095 -1.0210 -1.6806
 8038SOL     OW35572   4.621   0.691   9.546 -0.2415  0.2784 -0.5666
 8038SOL    HW135573   4.620   0.741   9.628  0.2652 -0.1375 -0.3075
 8038SOL    HW235574   4.585   0.761   9.492  1.2144  1.9714  0.6723
 8039SOL     OW35575   2.567   3.358  10.381 -0.0658  0.1129  0.1862
 8039SOL    HW135576   2.633   3.415  10.342 -0.8424  1.2071  0.4904
 8039SOL    HW235577   2.559   3.289  10.315 -0.0587  0.5478 -0.2731
 8040SOL     OW35578   1.111   1.872   1.892 -0.4632  0.2829 -0.2778
 8040SOL    HW135579   1.141   1.939   1.830  0.0057 -0.4924 -0.8971
 8040SOL    HW235580   1.197   1.832   1.905 -1.1552 -0.7717  1.0754
 8041SOL     OW35581   1.867   4.026   0.990  0.5269  0.6106 -0.1479
 8041SOL    HW135582   1.887   3.990   1.076 -0.4381  0.1100 -0.1273
 8041SOL    HW235583   1.840   4.113   1.019 -0.8844  0.7800 -1.9055
 8042SOL     OW35584   4.117   0.993  11.521  0.6652  0.7358 -0.0389
 8042SOL    HW135585   4.148   1.072  11.477 -0.0923  1.2259  0.2956
 8042SOL    HW235586   4.176   0.934  11.476  1.5764 -0.2893  2.4817
 8043SOL     OW35587   0.766   1.909   2.359 -0.2985 -1.0282 -0.0147
 8043SOL    HW135588   0.796   1.910   2.268  1.0823  0.7861  0.4490
 8043SOL    HW235589   0.839   1.854   2.387  0.2491  0.7257  2.0252
 8044SOL     OW35590   0.809   2.890  14.712 -0.3375  0.0264  0.1066
 8044SOL    HW135591   0.860   2.811  14.691 -0.7392  0.3226 -1.9667
 8044SOL    HW235592   0.748   2.879  14.639  0.8161  1.1891 -1.0201
 8045SOL     OW35593   4.194   1.917  14.426  0.0542 -0.0072  0.0400
 8045SOL    HW135594   4.202   1.822  14.433  4.5538  0.5486  2.3118
 8045SOL    HW235595   4.100   1.935  14.424 -0.4571 -2.4115  1.7314
 8046SOL     OW35596   3.359   3.587  10.960 -0.1687  0.2606  0.1549
 8046SOL    HW135597   3.350   3.656  11.026  1.6359  1.2148 -0.6179
 8046SOL    HW235598   3.450   3.596  10.935 -0.0499 -1.1157  0.0556
 8047SOL     OW35599   3.799   3.606   2.615  0.0425 -0.2022 -0.1116
 8047SOL    HW135600   3.752   3.555   2.682 -1.5043 -0.9995 -1.7708
 8047SOL    HW235601   3.726   3.661   2.585  0.5425  0.6201  0.1953
 8048SOL     OW35602   3.721   2.859   2.316 -0.4909  0.1374 -0.4694
 8048SOL    HW135603   3.804   2.828   2.353 -1.0694 -0.0934  0.6518
 8048SOL    HW235604   3.666   2.872   2.393  2.2513 -0.7021  1.6492
 8049SOL     OW35605   4.501   2.596   1.275  0.0734 -0.5100 -0.4496
 8049SOL    HW135606   4.538   2.531   1.335  0.0100  0.4974  0.6599
 8049SOL    HW235607   4.422   2.622   1.321 -0.0430  0.7535 -1.3807
 8050SOL     OW35608   3.078   3.056   1.872 -1.1168 -0.3194 -0.5106
 8050SOL    HW135609   3.068   3.126   1.937 -2.9717 -1.4684  0.4294
 8050SOL    HW235610   2.993   3.013   1.877 -0.9914 -0.5039 -0.0454
 8051SOL     OW35611   3.266   3.641   0.349 -0.0376  0.2201  0.0021
 8051SOL    HW135612   3.270   3.734   0.371 -0.1431  0.2960 -0.3117
 8051SOL    HW235613   3.269   3.607   0.439 -0.3891  1.8456  0.6269
 8052SOL     OW35614   3.944   4.000   4.596 -0.2407  0.0847  0.1533
 8052SOL    HW135615   3.905   4.081   4.564 -1.3700 -0.3586  0.3896
 8052SOL    HW235616   3.891   3.929   4.559 -0.8535  0.3519  0.5019
 8053SOL     OW35617   2.362   4.085   1.267 -0.3497  0.4777 -0.3015
 8053SOL    HW135618   2.384   4.021   1.335  0.6254 -0.8898 -1.8808
 8053SOL    HW235619   2.387   4.164   1.313  0.9735 -0.5366  0.7283
 8054SOL     OW35620   2.747   2.960   7.592 -0.8633 -0.0818 -0.0734
 8054SOL    HW135621   2.751   2.865   7.583  4.5136  0.1279  0.1121
 8054SOL    HW235622   2.837   2.980   7.566 -1.3267  1.0972 -0.7649
 8055SOL     OW35623   4.114   3.010   1.196 -0.1294 -0.1427 -0.2525
 8055SOL    HW135624   4.122   2.923   1.159  1.2252 -0.0270 -0.2186
 8055SOL    HW235625   4.174   3.016   1.270 -1.2371  0.3887  0.6129
 8056SOL     OW35626   0.456   2.877   2.208  0.1987  0.2735  0.0365
 8056SOL    HW135627   0.393   2.836   2.149  1.9181  0.4315 -1.9379
 8056SOL    HW235628   0.485   2.944   2.146 -0.4247  0.6461  0.1452
 8057SOL     OW35629   0.265   1.846   2.023  0.2030  0.1229 -0.0700
 8057SOL    HW135630   0.325   1.808   2.087 -0.9957  1.0565  1.6089
 8057SOL    HW235631   0.292   1.937   2.017  0.1835  0.1305 -0.0453
 8058SOL     OW35632   3.403   2.188  13.368 -0.3182 -0.1542 -0.3318
 8058SOL    HW135633   3.432   2.220  13.453 -2.1569 -1.1873  0.6731
 8058SOL    HW235634   3.395   2.095  13.389 -0.5179  0.1025  0.7234
 8059SOL     OW35635   0.355   1.193  17.099  0.5761  0.0765  0.7322
 8059SOL    HW135636   0.415   1.119  17.112 -1.0630 -1.4492 -0.5940
 8059SOL    HW235637   0.412   1.253  17.051 -0.8958  0.0285 -1.0644
 8060SOL     OW35638   3.169   4.720   7.825  0.4220 -0.7746  0.1116
 8060SOL    HW135639   3.172   4.624   7.835  1.6273 -0.7595 -0.0557
 8060SOL    HW235640   3.082   0.007   7.863 -0.8231 -2.7682 -2.2895
 8061SOL     OW35641   0.567   2.723   5.714  0.1784  0.7889 -0.2842
 8061SOL    HW135642   0.489   2.767   5.748 -0.9747 -0.3337 -1.4729
 8061SOL    HW235643   0.568   2.755   5.623 -0.9109  1.0953 -0.1890
 8062SOL     OW35644   1.765   1.793  15.127 -0.0189  0.1177  0.0359
 8062SOL    HW135645   1.777   1.879  15.167 -1.1436  0.0452  0.5332
 8062SOL    HW235646   1.762   1.820  15.035 -3.2695  1.6114  0.5710
 8063SOL     OW35647   4.351   0.688   8.092 -0.2580  0.3685  0.0872
 8063SOL    HW135648   4.370   0.599   8.122  0.1111  0.0111 -1.1919
 8063SOL    HW235649   4.322   0.719   8.177  0.0645  1.0401 -0.0443
 8064SOL     OW35650   3.275   4.388  10.672  0.5254 -0.6559 -0.3292
 8064SOL    HW135651   3.304   4.386  10.581 -2.8250 -0.2859 -1.4018
 8064SOL    HW235652   3.248   4.297  10.681  0.7639 -0.7389 -0.4626
 8065SOL     OW35653   2.488   1.510   3.540 -0.0646  0.2642  0.1317
 8065SOL    HW135654   2.541   1.587   3.518 -0.8871  0.4158 -1.3522
 8065SOL    HW235655   2.398   1.540   3.552 -0.0837 -0.1012  0.8992
 8066SOL     OW35656   3.408   1.948   1.961  0.1550  0.3187  0.2544
 8066SOL    HW135657   3.366   1.924   1.878  0.1301 -0.1310  0.3978
 8066SOL    HW235658   3.378   2.039   1.964 -1.2534 -0.1689  0.8545
 8067SOL     OW35659   0.999   0.824  11.748  0.2176  0.5723 -0.5590
 8067SOL    HW135660   1.077   0.819  11.804 -0.8524  1.3851  1.0059
 8067SOL    HW235661   0.992   0.918  11.733  0.8983  0.8135  0.5543
 8068SOL     OW35662   4.361   3.484   8.033  0.5150 -0.5528  0.2485
 8068SOL    HW135663   4.436   3.501   8.091  0.4919 -1.0876  0.4359
 8068SOL    HW235664   4.388   3.516   7.947 -1.3365 -1.1752 -0.5563
 8069SOL     OW35665   2.232   3.675   8.968 -0.0310  0.4046 -0.3577
 8069SOL    HW135666   2.207   3.592   8.928  0.1671 -0.0040  0.3737
 8069SOL    HW235667   2.327   3.692   8.969 -0.6863  4.2449 -1.7944
 8070SOL     OW35668   1.679   1.574   6.977 -0.1912 -0.0298 -0.5109
 8070SOL    HW135669   1.620   1.614   7.040 -0.3459 -0.8826 -0.1064
 8070SOL    HW235670   1.763   1.610   7.006 -1.0089  0.7403  0.8905
 8071SOL     OW35671   3.087   2.034   0.279  0.0181  0.4860 -0.0865
 8071SOL    HW135672   3.032   2.054   0.203  0.2146 -2.4578 -1.0089
 8071SOL    HW235673   3.168   2.006   0.235  0.9264 -0.6390  2.3397
 8072SOL     OW35674   2.297   1.207   7.665 -0.3830 -0.0853  0.1932
 8072SOL    HW135675   2.288   1.234   7.574  1.6912  0.2012  0.0875
 8072SOL    HW235676   2.364   1.139   7.656 -0.0767 -0.0426  2.1712
 8073SOL     OW35677   2.566   2.739   6.167  0.3346 -0.2644 -0.7259
 8073SOL    HW135678   2.652   2.761   6.131  0.1087  0.9399 -0.5359
 8073SOL    HW235679   2.545   2.669   6.105 -0.3302  1.2558 -2.2449
 8074SOL     OW35680   2.631   1.657   0.304 -0.2504 -0.1979  0.1187
 8074SOL    HW135681   2.541   1.650   0.272  0.4121 -0.1614 -1.7286
 8074SOL    HW235682   2.675   1.587   0.257 -0.3613 -1.5618  2.0672
 8075SOL     OW35683   0.753   2.186   7.630  0.6538 -0.1170  0.0808
 8075SOL    HW135684   0.783   2.150   7.546 -0.9077 -0.1728 -0.4409
 8075SOL    HW235685   0.801   2.122   7.682 -0.9087 -0.8544  0.5849
 8076SOL     OW35686   3.431   2.847   1.734  0.0915  0.6625  0.3304
 8076SOL    HW135687   3.394   2.838   1.821  1.4409  0.0547  0.8467
 8076SOL    HW235688   3.365   2.895   1.683 -0.8344 -1.1146 -0.1653
 8077SOL     OW35689   2.530   4.708   3.668  0.4828 -0.1726  0.0604
 8077SOL    HW135690   2.465   4.638   3.676 -1.6928  1.8886  0.5069
 8077SOL    HW235691   2.479   0.054   3.622  0.1650 -1.7788 -1.9381
 8078SOL     OW35692   3.416   3.689   3.214 -0.4438 -0.0621 -0.0220
 8078SOL    HW135693   3.492   3.659   3.264 -0.2611  2.3480  1.1395
 8078SOL    HW235694   3.354   3.697   3.286 -1.1968  0.5213 -0.7400
 8079SOL     OW35695   1.949   2.066   7.233  0.0675 -0.1847 -0.1267
 8079SOL    HW135696   2.028   2.114   7.261 -0.2954 -0.3841  1.2567
 8079SOL    HW235697   1.904   2.051   7.316  0.2119 -0.1534 -0.0413
 8080SOL     OW35698   1.011   0.318   3.532  0.5339 -0.9722  0.0123
 8080SOL    HW135699   1.021   0.228   3.563 -1.2313 -0.4926  1.9377
 8080SOL    HW235700   1.085   0.308   3.473  0.7515  0.1098  0.0984
 8081SOL     OW35701   4.696   3.153   1.600 -0.1920 -0.1545  0.5027
 8081SOL    HW135702   0.022   3.229   1.633  2.0715 -1.9128  1.3033
 8081SOL    HW235703   4.641   3.200   1.538 -2.8743 -0.7982  2.3947
 8082SOL     OW35704   3.644   3.790  10.819  0.2742 -0.1452 -0.6816
 8082SOL    HW135705   3.688   3.717  10.863 -0.3392  0.5761  1.1317
 8082SOL    HW235706   3.698   3.809  10.742 -1.6028  0.9665 -1.7256
 8083SOL     OW35707   1.966   4.685  11.462 -0.0280 -0.5825  0.1758
 8083SOL    HW135708   1.993   4.676  11.554 -3.4151  1.2154  1.3277
 8083SOL    HW235709   1.887   0.017  11.466 -0.0280 -0.4502 -1.4150
 8084SOL     OW35710   0.663   0.715   5.928 -0.3232  0.0620  0.6700
 8084SOL    HW135711   0.658   0.626   5.894 -2.6623 -0.1477  1.5409
 8084SOL    HW235712   0.569   0.733   5.937 -1.0020 -3.0719 -0.0642
 8085SOL     OW35713   2.343   2.139   2.787 -0.3640  0.2537 -0.2421
 8085SOL    HW135714   2.398   2.076   2.741  1.4348  0.4166  1.6545
 8085SOL    HW235715   2.268   2.083   2.808  0.2209 -0.0533  1.0801
 8086SOL     OW35716   0.506   3.276   7.340  0.0008  0.4018  0.2873
 8086SOL    HW135717   0.476   3.202   7.288 -0.6024  1.8461 -1.4488
 8086SOL    HW235718   0.523   3.236   7.425  1.4928 -2.3235 -1.3214
 8087SOL     OW35719   1.644   3.739  10.765  0.3259 -0.0616  0.0859
 8087SOL    HW135720   1.692   3.807  10.717 -1.2764  0.5211 -0.6620
 8087SOL    HW235721   1.655   3.781  10.851  0.6613 -1.6513  0.8219
 8088SOL     OW35722   1.101   2.119   5.041  0.3106  0.3259 -0.0053
 8088SOL    HW135723   1.111   2.024   5.042  0.4465  0.3030 -2.6909
 8088SOL    HW235724   1.071   2.134   4.951 -0.9538  0.2208  0.3977
 8089SOL     OW35725   3.729   2.641  12.852 -0.3234 -0.4262 -0.0698
 8089SOL    HW135726   3.654   2.603  12.898 -1.1150  0.5292 -0.5612
 8089SOL    HW235727   3.803   2.640  12.913 -0.8480  1.4018  0.6161
 8090SOL     OW35728   2.159   2.269   8.779 -0.0931 -0.0767 -0.6426
 8090SOL    HW135729   2.109   2.197   8.741  0.0857 -0.7410  0.4053
 8090SOL    HW235730   2.215   2.225   8.843 -0.4104 -1.0106 -1.0107
 8091SOL     OW35731   2.064   1.489   8.339  0.2780  0.1126 -0.0684
 8091SOL    HW135732   2.047   1.453   8.252 -0.7506 -2.1132  1.0495
 8091SOL    HW235733   2.102   1.575   8.320 -1.7726  0.8966 -0.5751
 8092SOL     OW35734   4.612   2.950   5.036  0.7781  0.5059  0.1862
 8092SOL    HW135735   4.642   2.888   5.103 -0.0766  0.1722  0.2502
 8092SOL    HW235736   4.576   3.017   5.094  0.9913 -0.0720  0.9981
 8093SOL     OW35737   3.848   4.287  17.081 -0.2777 -0.9817 -0.4463
 8093SOL    HW135738   3.920   4.261  17.137 -0.8398 -2.7269 -0.5289
 8093SOL    HW235739   3.799   4.346  17.138 -0.2861  1.0864 -2.5691
 8094SOL     OW35740   4.057   4.642  10.489  1.1183 -0.1772 -0.3203
 8094SOL    HW135741   4.147   4.617  10.510  1.3125 -0.4473 -1.4867
 8094SOL    HW235742   4.034   4.701  10.560 -1.0005  0.5300 -1.5878
 8095SOL     OW35743   3.753   2.318   0.418 -0.0565 -0.6370 -0.3487
 8095SOL    HW135744   3.740   2.385   0.485 -1.2953 -0.1878 -1.0490
 8095SOL    HW235745   3.699   2.246   0.450  0.6275 -1.9473 -2.1705
 8096SOL     OW35746   3.776   0.882  10.920 -0.6863  0.5044 -0.6589
 8096SOL    HW135747   3.827   0.807  10.889  1.1547  0.8635  1.5033
 8096SOL    HW235748   3.773   0.864  11.014  0.9042  2.7872 -0.1768
 8097SOL     OW35749   2.401   3.875   6.906 -0.1529  0.1633  0.3377
 8097SOL    HW135750   2.354   3.948   6.947 -3.0073 -3.0517  2.8535
 8097SOL    HW235751   2.345   3.864   6.829 -1.1897  1.5056  0.8961
 8098SOL     OW35752   1.670   3.109   2.590 -0.4337  0.4748 -0.5912
 8098SOL    HW135753   1.581   3.075   2.581  0.5247 -2.3411  0.3224
 8098SOL    HW235754   1.715   3.053   2.653  1.4016  0.7387 -1.6508
 8099SOL     OW35755   4.546   2.102  11.231 -0.1976  0.1728  0.4710
 8099SOL    HW135756   4.467   2.074  11.277 -0.6245  1.7101  0.6946
 8099SOL    HW235757   4.620   2.044  11.247 -1.4333 -1.5027  0.0399
 8100SOL     OW35758   1.886   0.246   6.461  0.0043  0.0932  0.5251
 8100SOL    HW135759   1.929   0.324   6.496  0.0680  0.2018  0.2111
 8100SOL    HW235760   1.967   0.200   6.440  0.4834  0.5063  1.5269
 8101SOL     OW35761   1.328   4.284   6.229  0.2555  0.2002 -0.3871
 8101SOL    HW135762   1.297   4.300   6.140  0.6594  0.0621 -0.5550
 8101SOL    HW235763   1.422   4.285   6.211  0.2238 -3.0225 -0.6708
 8102SOL     OW35764   3.957   0.073   1.767  0.0314 -0.0294 -0.3766
 8102SOL    HW135765   4.038   0.041   1.805 -0.2683 -0.4857 -0.1268
 8102SOL    HW235766   3.971   0.077   1.673  1.2522 -1.3462 -0.2360
 8103SOL     OW35767   0.650   2.262   5.263  0.3405  0.1208  0.4771
 8103SOL    HW135768   0.666   2.321   5.336  0.3323  0.0717  0.5191
 8103SOL    HW235769   0.740   2.233   5.248 -0.3887 -1.0096 -1.7456
 8104SOL     OW35770   0.125   0.905  13.983  0.5694 -0.1699 -0.5911
 8104SOL    HW135771   0.149   0.966  14.053  1.7955  0.1529 -1.2965
 8104SOL    HW235772   0.088   0.962  13.915  0.3213 -0.3061 -0.5715
 8105SOL     OW35773   2.350   4.071  16.069 -0.2593 -0.1917  0.3083
 8105SOL    HW135774   2.263   4.101  16.044 -0.1134 -0.5525 -0.6517
 8105SOL    HW235775   2.340   4.083  16.163  1.2502  1.3777  0.2752
 8106SOL     OW35776   1.151   3.569   7.969  0.2835 -0.3102 -0.2134
 8106SOL    HW135777   1.219   3.579   8.035 -1.1271  1.2355  0.9980
 8106SOL    HW235778   1.185   3.619   7.895  0.7224 -1.0509 -0.5183
 8107SOL     OW35779   2.182   0.541  16.290 -0.0386  0.4431  0.0240
 8107SOL    HW135780   2.088   0.549  16.274  0.3072  1.4072 -1.5557
 8107SOL    HW235781   2.195   0.498  16.375 -0.2738  0.2324 -0.0485
 8108SOL     OW35782   4.350   0.522  13.118 -0.2302  0.7360 -0.6353
 8108SOL    HW135783   4.349   0.589  13.049  0.4564  1.1494 -0.2443
 8108SOL    HW235784   4.404   0.568  13.183 -0.3397  0.9928 -0.7234
 8109SOL     OW35785   3.748   4.366   7.886  0.2916 -0.0377  0.2630
 8109SOL    HW135786   3.817   4.317   7.841 -1.1244 -2.4625  0.7423
 8109SOL    HW235787   3.747   4.322   7.971 -0.0397  1.5384  1.0790
 8110SOL     OW35788   1.002   1.338  14.344 -0.3061 -0.0592  0.3148
 8110SOL    HW135789   0.933   1.402  14.327  0.4090  0.4395 -0.7031
 8110SOL    HW235790   1.077   1.389  14.375 -0.6799  1.4020 -1.1999
 8111SOL     OW35791   1.955   3.007   3.652 -0.2442 -0.3521 -0.4565
 8111SOL    HW135792   2.003   2.998   3.570 -1.7396  0.7875 -1.4550
 8111SOL    HW235793   2.016   2.973   3.717 -1.2994 -2.7802 -0.7511
 8112SOL     OW35794   4.655   3.122   7.866 -0.3041 -0.5402  0.1555
 8112SOL    HW135795   4.634   3.198   7.813 -1.9199 -1.2853 -0.2881
 8112SOL    HW235796   4.595   3.120   7.941  1.8065 -1.1302  1.8208
 8113SOL     OW35797   3.322   1.474   5.704  0.5620 -0.2832 -0.4811
 8113SOL    HW135798   3.312   1.545   5.767 -1.0352 -1.6248  0.8070
 8113SOL    HW235799   3.247   1.425   5.738  0.0832 -0.2540 -1.4921
 8114SOL     OW35800   3.992   0.189   2.957 -0.1417  0.1950 -0.3481
 8114SOL    HW135801   4.014   0.139   3.036 -1.6554  0.6371  0.3337
 8114SOL    HW235802   4.067   0.175   2.898  2.0180  2.1779  1.9193
 8115SOL     OW35803   2.230   3.384   8.433 -0.0041 -0.3947  0.9502
 8115SOL    HW135804   2.306   3.334   8.404 -1.5239 -1.7599 -0.6937
 8115SOL    HW235805   2.271   3.418   8.512 -0.1414 -2.9777  2.1495
 8116SOL     OW35806   2.033   3.861   2.317 -0.1671  0.9425 -0.1510
 8116SOL    HW135807   2.031   3.926   2.387  0.0146 -0.7316  1.3821
 8116SOL    HW235808   2.015   3.921   2.244  2.4427  1.4144 -0.4057
 8117SOL     OW35809   0.514   0.499   3.735 -0.4201 -0.1446  0.3804
 8117SOL    HW135810   0.578   0.555   3.692 -0.4807 -0.6938 -0.4155
 8117SOL    HW235811   0.574   0.428   3.758 -2.7544 -2.8051 -1.8989
 8118SOL     OW35812   0.013   0.723   8.396  0.2751  0.5065 -0.7105
 8118SOL    HW135813   0.073   0.796   8.413 -1.4142  1.8502 -0.5836
 8118SOL    HW235814   0.074   0.666   8.350 -0.6197  0.2779 -1.6226
 8119SOL     OW35815   1.974   4.596   0.869 -0.3796  0.6030 -0.3967
 8119SOL    HW135816   1.996   4.648   0.791  0.9104 -0.1618 -0.5545
 8119SOL    HW235817   1.966   4.514   0.820 -0.4183  1.1816 -1.3657
 8120SOL     OW35818   2.550   4.508   1.065 -0.6940  0.1624 -0.1780
 8120SOL    HW135819   2.632   4.506   1.114 -0.6467 -1.7581 -0.3065
 8120SOL    HW235820   2.553   4.413   1.050  1.1883  0.2709 -0.4857
 8121SOL     OW35821   0.422   3.567   7.138  0.1447 -0.1871 -0.2411
 8121SOL    HW135822   0.417   3.539   7.229 -3.3181  2.0713  0.2287
 8121SOL    HW235823   0.331   3.578   7.114  1.0384  0.2746 -3.3932
 8122SOL     OW35824   0.760   0.391   3.525 -0.3329 -0.3789  0.1507
 8122SOL    HW135825   0.849   0.362   3.542 -0.5192 -0.4287  1.0192
 8122SOL    HW235826   0.730   0.305   3.495 -2.1510  0.8386 -1.5600
 8123SOL     OW35827   3.713   4.375   2.211 -0.2800  0.1948  0.2175
 8123SOL    HW135828   3.771   4.404   2.140  0.1858 -0.6244  0.2626
 8123SOL    HW235829   3.775   4.324   2.262 -0.1626  0.2202  0.1024
 8124SOL     OW35830   1.205   4.506   6.363 -0.2771 -0.8791 -0.2793
 8124SOL    HW135831   1.132   4.462   6.406 -0.0887  0.9009  1.8708
 8124SOL    HW235832   1.233   4.451   6.290  0.5794 -1.7076  0.6802
 8125SOL     OW35833   1.185   4.567   6.721  0.1186 -0.0015  0.1286
 8125SOL    HW135834   1.091   4.580   6.731  0.2597  1.6446 -0.7032
 8125SOL    HW235835   1.184   4.474   6.700  0.8679 -0.1925  0.9450
 8126SOL     OW35836   1.718   1.897   6.860  0.0791  0.4616 -0.9629
 8126SOL    HW135837   1.667   1.817   6.845  2.8381 -1.4108 -0.1876
 8126SOL    HW235838   1.765   1.878   6.941 -1.3119  0.6597 -0.0998
 8127SOL     OW35839   1.591   2.356   5.818  0.2205 -0.7309 -0.3826
 8127SOL    HW135840   1.669   2.338   5.765  0.8393  0.4840  0.1237
 8127SOL    HW235841   1.610   2.282   5.876  1.8179  0.0427  0.0887
 8128SOL     OW35842   2.835   3.755   8.420 -0.1569 -0.0099 -0.0742
 8128SOL    HW135843   2.891   3.820   8.378 -1.1428  0.6527 -0.3593
 8128SOL    HW235844   2.827   3.789   8.509  0.0774 -1.4902  0.5246
 8129SOL     OW35845   1.352   3.294  13.609  0.3342  0.1603  0.4025
 8129SOL    HW135846   1.308   3.210  13.606 -0.2306  0.4633  0.0705
 8129SOL    HW235847   1.283   3.360  13.599 -1.1958 -1.0431  3.1253
 8130SOL     OW35848   2.383   2.492   3.615  0.4213 -0.0292  0.2748
 8130SOL    HW135849   2.421   2.487   3.527 -0.4225 -1.3660 -0.0118
 8130SOL    HW235850   2.452   2.451   3.666  0.4212 -0.4289 -0.0470
 8131SOL     OW35851   1.416   1.473   6.491 -0.5166 -0.6565 -0.2291
 8131SOL    HW135852   1.349   1.541   6.502  1.8747  1.3598  1.9153
 8131SOL    HW235853   1.427   1.433   6.578 -2.2290  0.7282  0.6354
 8132SOL     OW35854   4.523   2.289  11.488 -0.2985  0.2082  0.0323
 8132SOL    HW135855   4.532   2.197  11.516 -1.6455 -1.3241 -4.6099
 8132SOL    HW235856   4.598   2.299  11.430  0.1457  1.8130  0.8811
 8133SOL     OW35857   2.584   0.630   6.973  0.2105 -0.3598 -0.1165
 8133SOL    HW135858   2.671   0.591   6.971  0.9671  1.3386 -0.2171
 8133SOL    HW235859   2.602   0.722   6.953  0.0810 -0.5114 -0.9635
 8134SOL     OW35860   4.003   4.566   7.863  0.2837  0.2231  0.2804
 8134SOL    HW135861   4.085   4.523   7.888 -0.4968 -0.5013  1.5756
 8134SOL    HW235862   3.937   4.506   7.897  0.4073  0.1177  0.3325
 8135SOL     OW35863   1.933   4.179   3.743 -0.4004 -0.2391  0.5097
 8135SOL    HW135864   1.975   4.235   3.808 -1.6479  1.4072 -0.1128
 8135SOL    HW235865   1.971   4.210   3.662 -1.1382  1.4499  0.8222
 8136SOL     OW35866   4.166   2.590  14.549  0.3176 -0.1927 -0.1706
 8136SOL    HW135867   4.070   2.590  14.552  0.4255 -1.0645  2.7634
 8136SOL    HW235868   4.175   2.665  14.608  3.7707 -0.2200 -0.6273
 8137SOL     OW35869   2.324   1.665  11.892 -0.3648 -0.0525  0.6945
 8137SOL    HW135870   2.276   1.695  11.815 -0.5104  1.9417  1.5688
 8137SOL    HW235871   2.320   1.570  11.885 -2.0750  0.0073  0.7942
 8138SOL     OW35872   3.855   1.300  17.146  0.1712  0.1483  0.1851
 8138SOL    HW135873   3.914   1.373  17.162  0.8781 -0.8593  2.2102
 8138SOL    HW235874   3.811   1.289  17.230  1.3581  1.4967  0.9824
 8139SOL     OW35875   3.495   3.789   0.615  0.8191 -0.3622  0.7938
 8139SOL    HW135876   3.407   3.754   0.604  0.5060  0.5005  0.5650
 8139SOL    HW235877   3.478   3.880   0.590 -1.2437 -0.4870  1.7651
 8140SOL     OW35878   3.112   3.867   9.719  0.8627 -0.1644 -0.0889
 8140SOL    HW135879   3.029   3.868   9.767  0.6627  1.2720 -0.4608
 8140SOL    HW235880   3.141   3.957   9.735  0.2655  0.3065 -1.6708
 8141SOL     OW35881   0.543   4.066   2.794 -0.0339  0.6599 -0.5011
 8141SOL    HW135882   0.528   3.971   2.790 -0.3756  0.6489  1.4597
 8141SOL    HW235883   0.625   4.072   2.744  1.3661  0.6587  1.8262
 8142SOL     OW35884   0.234   4.313  15.399 -0.1580 -0.3165 -0.1786
 8142SOL    HW135885   0.225   4.225  15.362 -1.5646  0.1858 -1.0612
 8142SOL    HW235886   0.245   4.362  15.318  0.1005 -1.5296 -0.8790
 8143SOL     OW35887   0.126   0.743   2.627  0.0735  0.2425 -0.3467
 8143SOL    HW135888   0.185   0.672   2.602  0.0770  0.0821  0.1212
 8143SOL    HW235889   0.120   0.788   2.543 -1.3248 -1.2183 -1.0244
 8144SOL     OW35890   0.878   4.705   4.262  0.9612 -0.1573 -0.1531
 8144SOL    HW135891   0.969   0.002   4.283  1.0910  0.6461 -1.4445
 8144SOL    HW235892   0.859   4.650   4.338  2.1131  0.2444  0.4231
 8145SOL     OW35893   1.509   0.580  17.679  0.2321 -0.3242 -0.3275
 8145SOL    HW135894   1.576   0.626   0.043 -1.6926 -0.5062  2.3853
 8145SOL    HW235895   1.488   0.650  17.618  1.1921  0.9058  0.7463
 8146SOL     OW35896   2.100   2.749  14.666  0.7508  0.4215  0.5412
 8146SOL    HW135897   2.155   2.692  14.720  0.3603 -1.3833 -0.9674
 8146SOL    HW235898   2.016   2.738  14.711 -0.7181  2.7049 -1.5998
 8147SOL     OW35899   3.871   4.570   4.160  0.0196  0.2146  0.1133
 8147SOL    HW135900   3.864   4.475   4.169 -0.2355  0.0826 -1.5647
 8147SOL    HW235901   3.961   4.588   4.187 -0.0823  0.3447  0.3674
 8148SOL     OW35902   1.945   0.351   8.239  0.2427  0.5751 -0.9829
 8148SOL    HW135903   1.917   0.321   8.152 -1.4127 -1.8338  0.3849
 8148SOL    HW235904   2.019   0.293   8.257  1.2701  2.0563 -0.4232
 8149SOL     OW35905   0.043   1.766   8.352  0.0858  0.7028 -0.3868
 8149SOL    HW135906   0.091   1.840   8.388 -0.3463  0.4466  0.7145
 8149SOL    HW235907   4.674   1.789   8.375  0.7684  2.2399  0.7293
 8150SOL     OW35908   3.720   1.489   0.993 -0.2184  0.0814  0.1392
 8150SOL    HW135909   3.627   1.474   1.010 -0.1440  0.2897  0.7011
 8150SOL    HW235910   3.719   1.446   0.907 -1.2612  0.7653 -0.1849
 8151SOL     OW35911   4.611   2.307  13.049  0.2796  0.2636  0.1172
 8151SOL    HW135912   4.555   2.363  12.995  0.0634 -1.5611 -1.5633
 8151SOL    HW235913   4.565   2.295  13.132  2.2856 -2.6941  0.8128
 8152SOL     OW35914   4.692   3.289  10.223 -0.0620  0.1399 -0.4483
 8152SOL    HW135915   4.646   3.367  10.254 -1.4864 -0.5923 -0.6955
 8152SOL    HW235916   4.706   3.251  10.310  0.6546  1.6488  0.0921
 8153SOL     OW35917   0.838   4.105   7.791 -0.7803  0.1915 -0.1596
 8153SOL    HW135918   0.770   4.128   7.728 -1.6570 -2.7604 -0.3053
 8153SOL    HW235919   0.867   4.023   7.751 -0.4464 -0.1914  0.8664
 8154SOL     OW35920   3.755   2.080   5.628  0.0195 -0.3118 -0.1402
 8154SOL    HW135921   3.815   2.005   5.635 -1.9584 -1.8189  0.5597
 8154SOL    HW235922   3.785   2.114   5.544  1.3675 -1.8494 -0.2995
 8155SOL     OW35923   0.571   4.293   8.441  0.3601  0.1339  0.3956
 8155SOL    HW135924   0.587   4.290   8.536  1.2415  2.1672  0.3111
 8155SOL    HW235925   0.613   4.212   8.411  0.9809  0.3189  0.7668
 8156SOL     OW35926   1.412   1.621   8.837 -0.1729  0.1145  0.0435
 8156SOL    HW135927   1.352   1.547   8.829 -1.5432  1.2185  0.0693
 8156SOL    HW235928   1.492   1.581   8.802  0.6873  0.8760  1.1322
 8157SOL     OW35929   2.917   1.521  15.692 -0.1650  1.0440 -0.3125
 8157SOL    HW135930   2.960   1.574  15.759  1.6676 -0.5502 -0.2226
 8157SOL    HW235931   2.961   1.438  15.677 -1.9258  0.1231 -0.3794
 8158SOL     OW35932   1.678   3.768   4.205  0.0503  0.5539  0.3053
 8158SOL    HW135933   1.592   3.728   4.200  0.1570  0.1390  1.5569
 8158SOL    HW235934   1.703   3.767   4.298  0.9857  1.9072  0.0689
 8159SOL     OW35935   3.114   3.558   3.281  0.0093  0.3289 -0.0687
 8159SOL    HW135936   3.085   3.648   3.265 -2.1855 -0.5335 -0.9676
 8159SOL    HW235937   3.063   3.513   3.214 -0.9936  0.3402  0.6873
 8160SOL     OW35938   1.202   2.680   2.514  0.0668  0.2546  0.2041
 8160SOL    HW135939   1.289   2.692   2.550  0.6260 -1.4307 -0.5979
 8160SOL    HW235940   1.158   2.636   2.587  1.5733 -1.5223  0.0399
 8161SOL     OW35941   0.897   3.100   9.290  0.0725 -0.1496 -0.0768
 8161SOL    HW135942   0.807   3.130   9.307 -0.0476  0.1729 -1.2920
 8161SOL    HW235943   0.925   3.172   9.234  0.9856  0.5275  1.2461
 8162SOL     OW35944   1.600   2.374   5.215 -0.2266 -0.7513  0.2062
 8162SOL    HW135945   1.533   2.319   5.174  0.4086 -1.5633  0.2533
 8162SOL    HW235946   1.678   2.342   5.171 -0.9299 -2.2655  0.0528
 8163SOL     OW35947   3.089   4.476   9.067  0.4233 -0.2574  0.2897
 8163SOL    HW135948   3.028   4.549   9.064 -1.2206 -1.5806  1.5450
 8163SOL    HW235949   3.171   4.525   9.061 -0.4601  1.0744 -0.9005
 8164SOL     OW35950   2.625   1.314   1.429  0.2335 -0.8527 -0.2983
 8164SOL    HW135951   2.556   1.261   1.389 -0.3255 -0.4095  0.0779
 8164SOL    HW235952   2.700   1.284   1.378  1.9159  1.5671  0.7036
 8165SOL     OW35953   4.163   3.458   5.006  0.4199  0.4846  0.1288
 8165SOL    HW135954   4.095   3.391   4.994  0.3338  0.8754 -1.6400
 8165SOL    HW235955   4.108   3.521   4.958  0.8294  1.1738  0.5689
 8166SOL     OW35956   2.660   2.725  14.629  0.2373  0.7067  0.0054
 8166SOL    HW135957   2.726   2.787  14.599 -0.6617  1.3501 -0.6595
 8166SOL    HW235958   2.585   2.766  14.586 -0.9716 -1.7316 -0.2184
 8167SOL     OW35959   2.222   1.955   3.247  0.2058 -0.7390 -0.5065
 8167SOL    HW135960   2.233   1.971   3.341 -0.8515  0.2070 -0.5413
 8167SOL    HW235961   2.221   2.048   3.223 -0.7119 -0.5762  0.1454
 8168SOL     OW35962   2.974   2.242   5.801 -0.2795  0.2817 -0.1257
 8168SOL    HW135963   3.054   2.293   5.788  0.3202 -0.9304 -1.2172
 8168SOL    HW235964   2.914   2.311   5.831  1.0354  1.1219  0.5608
 8169SOL     OW35965   3.813   1.678   9.007 -0.2246  0.3316  0.1836
 8169SOL    HW135966   3.782   1.589   9.023  0.8702 -0.1701 -0.4609
 8169SOL    HW235967   3.800   1.689   8.912  1.3694 -0.1777 -0.0867
 8170SOL     OW35968   2.491   2.999   4.932  0.1591  0.3521  0.0373
 8170SOL    HW135969   2.506   2.957   4.848 -1.0275 -2.0245  0.9920
 8170SOL    HW235970   2.407   3.044   4.920 -0.1484 -0.0235  0.7464
 8171SOL     OW35971   2.882   1.510   7.536 -0.2908 -0.0436 -0.0366
 8171SOL    HW135972   2.819   1.456   7.583  2.8774 -2.0237  1.9101
 8171SOL    HW235973   2.969   1.485   7.567 -0.6246 -2.8579 -1.4050
 8172SOL     OW35974   4.333   3.452   0.715  0.2864  0.3469 -0.4333
 8172SOL    HW135975   4.427   3.436   0.712  0.0845 -0.5620 -1.6875
 8172SOL    HW235976   4.321   3.516   0.786  1.0981 -2.0918  1.9191
 8173SOL     OW35977   2.905   3.452   8.683  0.2953 -0.4339 -0.0790
 8173SOL    HW135978   2.899   3.414   8.596 -2.6188 -2.5692  1.0280
 8173SOL    HW235979   2.937   3.375   8.730  1.3253  0.8608  1.3528
 8174SOL     OW35980   0.787   2.227   8.022  0.2134 -0.1430  0.2210
 8174SOL    HW135981   0.747   2.197   8.104 -1.4566 -1.4476 -1.0866
 8174SOL    HW235982   0.727   2.300   8.001 -0.6417 -0.5285  1.3047
 8175SOL     OW35983   4.284   0.468   6.737 -0.0769  0.1453  0.1201
 8175SOL    HW135984   4.273   0.422   6.654 -0.4412 -0.2036  0.3653
 8175SOL    HW235985   4.223   0.542   6.728 -0.7962 -0.5040 -0.2756
 8176SOL     OW35986   1.823   4.224  16.040 -0.6067  0.3621  0.4313
 8176SOL    HW135987   1.838   4.317  16.024 -1.0479  1.0718  4.0865
 8176SOL    HW235988   1.787   4.187  15.960 -0.7638 -0.5761  0.9375
 8177SOL     OW35989   2.115   3.668   0.394 -0.2632 -0.0440  0.0465
 8177SOL    HW135990   2.064   3.609   0.449  0.8125  0.0720  1.1790
 8177SOL    HW235991   2.201   3.625   0.397 -0.1216  0.2497  0.2837
 8178SOL     OW35992   3.092   1.477  11.729  0.2858  0.2319 -0.7902
 8178SOL    HW135993   3.000   1.455  11.709 -0.2789  2.1003 -0.2806
 8178SOL    HW235994   3.097   1.572  11.737  1.7146  0.0097  0.7819
 8179SOL     OW35995   3.851   0.296   2.026 -0.0323 -0.3622 -0.2742
 8179SOL    HW135996   3.843   0.371   1.968 -1.9517  0.4082  0.9941
 8179SOL    HW235997   3.807   0.311   2.109  1.3779 -0.5416  0.5035
 8180SOL     OW35998   4.484   0.065   8.150  0.2198 -0.0537 -0.1959
 8180SOL    HW135999   4.564   0.108   8.181  1.2130 -1.8071 -0.3466
 8180SOL    HW236000   4.414   0.115   8.192  0.7478  0.0216  0.5844
 8181SOL     OW36001   1.095   3.338  15.131  0.8510 -0.0657 -0.3207
 8181SOL    HW136002   1.054   3.258  15.162 -0.1436 -0.3251 -2.3161
 8181SOL    HW236003   1.017   3.393  15.127  0.3058 -0.8439 -0.1458
 8182SOL     OW36004   1.797   4.023   0.464  0.0551  0.2274 -0.0474
 8182SOL    HW136005   1.782   3.939   0.506 -0.5374  1.4826  2.2765
 8182SOL    HW236006   1.870   3.996   0.409 -0.0264 -3.0715  1.4892
 8183SOL     OW36007   0.394   3.013  14.632 -0.8300  0.1607  0.0537
 8183SOL    HW136008   0.330   2.975  14.572 -3.0059  2.1609  1.1491
 8183SOL    HW236009   0.385   2.954  14.707  0.4143  1.1700  0.9767
 8184SOL     OW36010   3.397   0.501  13.110  0.0913 -0.6015  0.0740
 8184SOL    HW136011   3.335   0.471  13.044 -1.6659  0.5555  1.1908
 8184SOL    HW236012   3.380   0.447  13.188 -0.2490  0.1646  0.5277
 8185SOL     OW36013   2.711   2.145   2.612  0.0615 -0.5000 -0.5015
 8185SOL    HW136014   2.793   2.121   2.570 -0.4340 -3.7808  0.4054
 8185SOL    HW236015   2.750   2.198   2.682  2.1071 -1.8160 -0.6432
 8186SOL     OW36016   2.788   1.166   5.550  0.0106 -0.0819  0.2912
 8186SOL    HW136017   2.809   1.149   5.458  1.3125  2.8915  0.0333
 8186SOL    HW236018   2.872   1.208   5.571 -0.8329  2.3729 -1.2329
 8187SOL     OW36019   1.835   3.602   5.141 -0.2196 -0.1782 -0.4199
 8187SOL    HW136020   1.883   3.658   5.080  0.1704  0.4748  0.4861
 8187SOL    HW236021   1.886   3.522   5.136 -0.6750 -0.3661 -2.4114
 8188SOL     OW36022   2.134   1.044  11.289 -0.1922 -0.1464 -0.0605
 8188SOL    HW136023   2.205   0.980  11.296  1.7310  1.9228 -0.4985
 8188SOL    HW236024   2.154   1.100  11.364  0.6015  1.1018 -1.1999
 8189SOL     OW36025   2.488   3.285   6.577  0.3161 -0.1832  0.3807
 8189SOL    HW136026   2.418   3.245   6.525 -0.3725  2.4376 -0.6897
 8189SOL    HW236027   2.513   3.216   6.638 -0.2635  0.4175  1.2819
 8190SOL     OW36028   4.261   1.144  11.972  0.3272  0.0376 -1.0567
 8190SOL    HW136029   4.312   1.134  12.052 -2.0003 -1.5496  0.2192
 8190SOL    HW236030   4.217   1.060  11.969  1.4769 -0.5387 -2.0048
 8191SOL     OW36031   3.626   1.824  13.381 -0.2895 -0.7738 -0.1720
 8191SOL    HW136032   3.642   1.866  13.466  1.6369  0.4722 -1.1493
 8191SOL    HW236033   3.545   1.871  13.364 -0.1904  0.1805  1.9934
 8192SOL     OW36034   4.269   2.234   0.665  0.6060  0.0008  0.0877
 8192SOL    HW136035   4.209   2.309   0.666 -0.2951 -0.7587  1.8681
 8192SOL    HW236036   4.211   2.161   0.644  2.0385 -0.8019 -1.1117
 8193SOL     OW36037   4.432   4.071   3.346 -0.0526  0.1266 -0.1797
 8193SOL    HW136038   4.452   3.994   3.292 -0.3872 -1.0340  1.3412
 8193SOL    HW236039   4.416   4.030   3.431 -0.3486 -2.6816 -1.5752
 8194SOL     OW36040   3.998   4.434  16.614 -0.2211  0.0600 -0.5382
 8194SOL    HW136041   3.969   4.354  16.570 -0.0679 -0.1067 -0.3341
 8194SOL    HW236042   3.921   4.488  16.596 -0.7799  0.0857  2.0219
 8195SOL     OW36043   4.187   1.603   4.108  0.3357  0.2013 -0.1515
 8195SOL    HW136044   4.266   1.656   4.111 -0.5080  1.4288  0.0089
 8195SOL    HW236045   4.193   1.561   4.194  1.0953  3.5393  1.3990
 8196SOL     OW36046   0.411   1.723  15.433  0.2638  0.0414  0.3515
 8196SOL    HW136047   0.386   1.659  15.367 -1.6841  1.7466 -0.5626
 8196SOL    HW236048   0.505   1.727  15.416  0.1551 -0.3134 -0.3362
 8197SOL     OW36049   0.415   3.301   9.523 -0.3623  0.0795 -0.2273
 8197SOL    HW136050   0.404   3.390   9.557 -0.3095 -0.1935  0.5060
 8197SOL    HW236051   0.381   3.243   9.591 -0.5221 -0.9000 -1.1518
 8198SOL     OW36052   0.677   2.995  17.486 -0.2111 -0.5750 -0.3912
 8198SOL    HW136053   0.661   2.913  17.441  0.3830 -1.4143  0.9362
 8198SOL    HW236054   0.751   2.970  17.542 -0.3000  1.5168  0.6996
 8199SOL     OW36055   4.113   1.897   4.430  0.7385 -0.3778  0.1967
 8199SOL    HW136056   4.102   1.842   4.352  1.0626 -0.0511 -0.0822
 8199SOL    HW236057   4.185   1.846   4.469  0.1573 -2.0487 -0.8834
 8200SOL     OW36058   0.727   0.878   6.242  0.2815  0.0050  0.2430
 8200SOL    HW136059   0.754   0.797   6.198  0.7915 -1.4886  3.2709
 8200SOL    HW236060   0.671   0.842   6.311 -1.8678 -0.0813 -1.5543
 8201SOL     OW36061   2.588   0.167   4.043 -0.1613 -0.1082 -0.5769
 8201SOL    HW136062   2.581   0.227   3.969  1.2626  0.0111 -0.5998
 8201SOL    HW236063   2.570   0.084   3.998  1.2096 -0.8232  0.1987
 8202SOL     OW36064   2.663   1.957   1.816 -0.4677  0.1137 -0.8634
 8202SOL    HW136065   2.668   2.008   1.735  1.8905 -0.2622 -0.9538
 8202SOL    HW236066   2.583   1.905   1.803  0.8037 -2.4366  1.4920
 8203SOL     OW36067   3.594   1.551  16.874 -0.0501 -0.2557 -0.0619
 8203SOL    HW136068   3.516   1.585  16.829 -0.5462 -0.6879  0.4673
 8203SOL    HW236069   3.562   1.565  16.964  1.2168  3.7712 -0.2153
 8204SOL     OW36070   4.203   0.007   0.547 -0.6051  0.8055 -0.8500
 8204SOL    HW136071   4.225   0.096   0.577 -2.7202  1.7979 -2.1929
 8204SOL    HW236072   4.289   4.696   0.518  1.1929  3.0169  2.0866
 8205SOL     OW36073   2.082   3.790  10.893  0.2506  0.5712 -0.2665
 8205SOL    HW136074   2.101   3.734  10.817 -1.4578 -1.5144  0.8562
 8205SOL    HW236075   2.157   3.773  10.951 -1.3023  1.0449  1.8576
 8206SOL     OW36076   1.290   1.962   3.452 -0.2382 -0.7728  0.2974
 8206SOL    HW136077   1.353   1.934   3.518 -0.8831  1.5199  1.9113
 8206SOL    HW236078   1.274   2.053   3.480  1.1109 -0.8212  1.2404
 8207SOL     OW36079   0.590   2.862   4.443 -0.3627 -0.0070  0.3465
 8207SOL    HW136080   0.520   2.797   4.434  1.6637 -1.9526 -1.3138
 8207SOL    HW236081   0.565   2.906   4.362  2.7173  1.9872  0.5011
 8208SOL     OW36082   2.297   1.180   6.687  0.3023 -0.0317 -0.8055
 8208SOL    HW136083   2.206   1.151   6.693  0.5129 -0.6796 -0.7718
 8208SOL    HW236084   2.294   1.256   6.628  1.5585  0.1814 -0.5751
 8209SOL     OW36085   4.089   1.037  10.904 -0.0341  0.4024  0.4981
 8209SOL    HW136086   4.107   0.948  10.934 -2.6343 -0.1073  0.4779
 8209SOL    HW236087   4.058   1.072  10.987 -1.8868  2.0385 -0.8989
 8210SOL     OW36088   2.499   2.153   4.083  0.3307 -0.0932  0.3994
 8210SOL    HW136089   2.457   2.100   4.150  0.6520 -2.1843 -1.0358
 8210SOL    HW236090   2.591   2.130   4.100 -0.0126 -0.7214  1.3826
 8211SOL     OW36091   3.775   3.159   7.232 -0.5170 -0.0639  0.1879
 8211SOL    HW136092   3.861   3.134   7.266  0.8767  1.2919 -2.4017
 8211SOL    HW236093   3.769   3.106   7.152 -0.9953  0.5479 -0.1775
 8212SOL     OW36094   4.289   0.174   8.355 -0.2734 -0.1868  0.2630
 8212SOL    HW136095   4.302   0.263   8.388  0.6165  0.4567 -1.8112
 8212SOL    HW236096   4.207   0.138   8.389 -0.5658 -0.4096 -0.6799
 8213SOL     OW36097   1.796   4.691  13.361  0.2772 -0.1047 -0.2157
 8213SOL    HW136098   1.787   4.604  13.400 -0.9231 -0.5362 -1.4357
 8213SOL    HW236099   1.726   0.023  13.399 -1.6231 -1.6362 -1.5517
 8214SOL     OW36100   1.306   1.166   0.146  0.1008 -0.0131 -0.3185
 8214SOL    HW136101   1.221   1.185   0.107  0.1097 -0.1725 -0.4147
 8214SOL    HW236102   1.315   1.241   0.206  0.3215 -0.5436  0.3082
 8215SOL     OW36103   1.080   0.574  11.649 -0.1373  0.8601 -0.3607
 8215SOL    HW136104   1.104   0.629  11.574  2.3408  1.5690  0.9465
 8215SOL    HW236105   1.036   0.644  11.696  0.1824  0.2009  0.9035
 8216SOL     OW36106   0.052   2.771   2.034 -0.7458  0.3222 -0.0507
 8216SOL    HW136107   0.011   2.853   2.006 -2.0051 -0.0085  0.8076
 8216SOL    HW236108   0.086   2.791   2.122 -1.2896  3.1018 -0.4529
 8217SOL     OW36109   1.624   4.274   8.061  0.1115 -0.0022  0.4913
 8217SOL    HW136110   1.596   4.213   8.129 -0.9534 -2.2078 -1.9484
 8217SOL    HW236111   1.630   4.217   7.984 -0.8369  0.5569 -0.0045
 8218SOL     OW36112   2.631   2.121   7.213 -0.1470 -0.3406 -0.2427
 8218SOL    HW136113   2.680   2.202   7.201  0.3179 -0.2770  2.0708
 8218SOL    HW236114   2.542   2.150   7.190 -0.3166 -0.0657  0.7483
 8219SOL     OW36115   3.974   1.764  13.640  0.1546  0.1222 -0.7555
 8219SOL    HW136116   3.980   1.789  13.732 -0.7788 -1.0885 -0.3610
 8219SOL    HW236117   3.912   1.696  13.666 -0.0182 -0.2729 -2.1702
 8220SOL     OW36118   1.945   1.122   5.017  0.5151 -0.6624  0.4886
 8220SOL    HW136119   1.909   1.037   5.041 -1.3412 -0.1317 -0.4236
 8220SOL    HW236120   1.863   1.167   5.000 -0.0388 -2.3797 -1.4000
 8221SOL     OW36121   1.622   0.628   6.303 -0.0583 -0.5146 -0.0513
 8221SOL    HW136122   1.607   0.703   6.360  1.4026 -0.7417  0.6392
 8221SOL    HW236123   1.539   0.611   6.259  0.6504 -0.4213 -1.4362
 8222SOL     OW36124   1.501   4.313   2.718  0.3189  0.0190 -0.1990
 8222SOL    HW136125   1.418   4.286   2.679  0.0991  1.1504 -0.4982
 8222SOL    HW236126   1.532   4.377   2.654  0.5184 -0.8009 -0.9181
 8223SOL     OW36127   0.549   2.247  14.964 -0.0072 -0.7001 -0.3251
 8223SOL    HW136128   0.601   2.181  14.918  2.6660  1.1164  0.1448
 8223SOL    HW236129   0.489   2.271  14.893 -0.6077  2.7519  1.3878
 8224SOL     OW36130   1.974   3.643   4.066 -0.0929 -0.5192 -0.3898
 8224SOL    HW136131   1.984   3.639   4.161 -0.8891  1.4203 -0.2080
 8224SOL    HW236132   2.051   3.593   4.042 -0.3949  0.5834 -3.6519
 8225SOL     OW36133   3.380   2.010   7.669  0.3880 -0.1652  0.4405
 8225SOL    HW136134   3.376   2.103   7.647 -1.4904 -0.7278 -1.5007
 8225SOL    HW236135   3.473   2.000   7.647 -0.2627 -0.4429 -2.1687
 8226SOL     OW36136   2.894   4.163   2.964 -0.6457  0.1915  0.2906
 8226SOL    HW136137   2.872   4.106   3.038  2.6383  0.0825  1.2138
 8226SOL    HW236138   2.987   4.188   2.962 -0.5095 -0.2913  0.4938
 8227SOL     OW36139   0.477   2.672  17.221  0.1754 -0.6052  0.3450
 8227SOL    HW136140   0.409   2.738  17.237 -0.8744 -1.8812  1.2236
 8227SOL    HW236141   0.450   2.643  17.134  0.7867  1.1832 -0.4449
 8228SOL     OW36142   3.705   0.345   9.315  0.0026  0.2998  0.5230
 8228SOL    HW136143   3.752   0.313   9.392  1.9433  1.5048 -0.1677
 8228SOL    HW236144   3.779   0.349   9.255 -0.0983  0.0149  0.3812
 8229SOL     OW36145   1.147   4.059  11.200  0.0432 -1.0235  0.2162
 8229SOL    HW136146   1.163   4.113  11.277 -2.3810 -0.1291  0.1014
 8229SOL    HW236147   1.095   4.117  11.145  0.0883  0.7940  2.0906
 8230SOL     OW36148   1.854   0.357  13.576  0.1315  0.1624 -0.5512
 8230SOL    HW136149   1.901   0.273  13.572  1.1220  0.7033 -0.2935
 8230SOL    HW236150   1.902   0.395  13.649 -2.0609  0.3266  0.7999
 8231SOL     OW36151   2.068   3.210   3.300 -0.3236  0.0879 -0.0584
 8231SOL    HW136152   2.055   3.257   3.218 -0.5336  0.8799  0.4254
 8231SOL    HW236153   2.098   3.276   3.363 -0.2443  1.3736 -1.4522
 8232SOL     OW36154   1.058   1.555   6.344 -0.0354 -0.2672 -0.6606
 8232SOL    HW136155   0.975   1.520   6.311  0.0228 -1.2313  0.2068
 8232SOL    HW236156   1.075   1.485   6.407  1.7377 -0.5330 -1.4137
 8233SOL     OW36157   3.795   0.740   5.632 -0.1186 -0.1914  0.1527
 8233SOL    HW136158   3.767   0.829   5.653 -2.5772 -1.3177  1.7091
 8233SOL    HW236159   3.718   0.691   5.660 -1.9949  2.2678 -0.7722
 8234SOL     OW36160   4.396   1.397   5.667  0.2316 -0.3691 -0.3148
 8234SOL    HW136161   4.434   1.484   5.663 -0.6836 -0.0384 -2.4059
 8234SOL    HW236162   4.456   1.350   5.609 -1.0483 -2.2832 -0.0794
 8235SOL     OW36163   1.429   0.708   7.942 -0.4172  0.0605  0.5644
 8235SOL    HW136164   1.519   0.731   7.917 -0.6627 -0.7928 -1.1532
 8235SOL    HW236165   1.396   0.791   7.976  0.0072  0.4871 -0.0569
 8236SOL     OW36166   2.414   2.967  10.268 -0.2198 -0.0238  0.1257
 8236SOL    HW136167   2.503   2.950  10.299  0.0982  1.2410 -0.0748
 8236SOL    HW236168   2.363   2.901  10.314 -1.4454  1.2834  0.6391
 8237SOL     OW36169   3.186   0.874  15.668 -0.1457 -0.3222  0.0420
 8237SOL    HW136170   3.200   0.934  15.595  1.8462  1.0233  1.4920
 8237SOL    HW236171   3.092   0.874  15.685 -0.5208  2.6445 -1.8663
 8238SOL     OW36172   0.709   1.493   0.617 -0.2549  0.1573 -0.2185
 8238SOL    HW136173   0.801   1.469   0.607 -0.6195 -1.1505 -0.4143
 8238SOL    HW236174   0.678   1.473   0.529 -0.4790 -3.9492  0.7973
 8239SOL     OW36175   4.294   4.207   2.041 -0.5480 -0.4541 -0.4791
 8239SOL    HW136176   4.344   4.223   2.121 -1.1310  0.3737 -0.2800
 8239SOL    HW236177   4.213   4.176   2.081  0.0130  0.4276  1.3403
 8240SOL     OW36178   4.027   4.580   0.681  0.0147 -0.4541  0.0806
 8240SOL    HW136179   4.083   4.637   0.629 -0.6230  1.1586  1.1602
 8240SOL    HW236180   3.943   4.588   0.637  0.7391 -1.9866 -1.6062
 8241SOL     OW36181   4.454   2.375   1.914 -0.0577  0.2267  0.2278
 8241SOL    HW136182   4.376   2.400   1.864 -0.5366 -0.6216  0.5532
 8241SOL    HW236183   4.460   2.284   1.884 -1.6531  0.0012  0.5933
 8242SOL     OW36184   2.897   3.902   3.123 -0.2817 -0.2213  0.2205
 8242SOL    HW136185   2.875   3.847   3.198 -1.6138 -0.2331 -0.1854
 8242SOL    HW236186   2.993   3.904   3.131 -0.1741  0.6432 -1.2391
 8243SOL     OW36187   3.072   2.070   3.179  0.4497  0.2294 -0.2863
 8243SOL    HW136188   3.113   2.006   3.238 -1.0198 -0.0536  0.4095
 8243SOL    HW236189   3.153   2.104   3.140  0.9245 -1.8932 -1.1900
 8244SOL     OW36190   0.082   0.874   5.956 -0.2824 -0.2150 -0.2079
 8244SOL    HW136191   0.129   0.922   6.024 -1.2563  1.0802 -0.4443
 8244SOL    HW236192   0.015   0.838   6.013 -1.5309 -0.1452 -1.6290
 8245SOL     OW36193   3.426   3.909   5.668 -0.1897  0.5123  0.5614
 8245SOL    HW136194   3.351   3.967   5.656 -0.3843  0.0783 -0.3526
 8245SOL    HW236195   3.409   3.860   5.748 -0.3924 -0.0502  0.1756
 8246SOL     OW36196   4.485   4.067  15.098 -0.6108  0.1548  0.0073
 8246SOL    HW136197   4.434   4.108  15.168  0.5749 -2.4132  2.3779
 8246SOL    HW236198   4.430   3.988  15.086  0.6163 -0.6982  0.0276
 8247SOL     OW36199   3.400   0.648   8.434 -0.7314  0.1148 -0.6739
 8247SOL    HW136200   3.383   0.583   8.502 -0.5394  1.3539  0.5637
 8247SOL    HW236201   3.485   0.688   8.452 -0.0516 -1.9619  0.6696
 8248SOL     OW36202   2.448   2.499  10.029 -0.0690 -0.5034 -0.2397
 8248SOL    HW136203   2.429   2.535   9.943  0.2849  0.3972  0.0507
 8248SOL    HW236204   2.534   2.470   9.999  0.7742  1.3218  0.3579
 8249SOL     OW36205   0.214   0.224   1.413  0.6232 -1.0776 -0.1223
 8249SOL    HW136206   0.295   0.189   1.451  1.2581  2.0860  1.4864
 8249SOL    HW236207   0.143   0.178   1.458 -0.2619 -0.0796 -0.5036
 8250SOL     OW36208   3.556   0.916   5.391  0.5373 -0.6010  0.6410
 8250SOL    HW136209   3.601   0.947   5.470 -1.1400 -0.1553  1.4252
 8250SOL    HW236210   3.566   0.821   5.400  1.3288 -0.6539 -0.7699
 8251SOL     OW36211   0.559   4.138  12.152  0.0468  0.1103 -0.1567
 8251SOL    HW136212   0.526   4.214  12.201  0.6726 -0.0722  0.5650
 8251SOL    HW236213   0.654   4.142  12.168  0.0669  3.1875 -0.9126
 8252SOL     OW36214   2.483   3.681   7.220 -0.0948 -0.0373 -0.1524
 8252SOL    HW136215   2.567   3.656   7.258 -1.0826 -3.0050  0.0670
 8252SOL    HW236216   2.488   3.649   7.130  1.2876  0.0759 -0.1116
 8253SOL     OW36217   0.055   4.151   5.213  0.0828 -0.1050 -0.0226
 8253SOL    HW136218   0.066   4.058   5.234 -1.4693 -0.0891  0.8674
 8253SOL    HW236219   4.691   4.182   5.242  1.0478  1.1163  1.4955
 8254SOL     OW36220   4.551   3.756   6.869 -0.0277 -0.0349 -0.7401
 8254SOL    HW136221   4.646   3.753   6.856 -0.1596  1.1619 -2.0175
 8254SOL    HW236222   4.538   3.795   6.955  1.8199 -1.3354  0.1216
 8255SOL     OW36223   0.219   3.146   7.875 -0.5578 -0.4184  0.7310
 8255SOL    HW136224   0.238   3.223   7.821 -0.4942 -0.4981  0.6383
 8255SOL    HW236225   0.125   3.143   7.892 -0.8073  2.0700 -0.1876
 8256SOL     OW36226   2.579   1.371  12.650 -0.0626 -0.4183 -0.2134
 8256SOL    HW136227   2.528   1.441  12.610  1.3821  0.9645  0.3622
 8256SOL    HW236228   2.505   1.319  12.679 -1.5625  2.4752  1.1219
 8257SOL     OW36229   2.193   0.534   9.355  0.2637  0.1255 -0.3762
 8257SOL    HW136230   2.247   0.573   9.423 -0.8582 -0.0075  0.5882
 8257SOL    HW236231   2.191   0.604   9.291 -1.9500 -0.4766 -0.9629
 8258SOL     OW36232   1.642   2.604   4.920  0.7696 -0.6585 -0.0875
 8258SOL    HW136233   1.572   2.540   4.913  0.6830 -0.8273  2.2188
 8258SOL    HW236234   1.708   2.569   4.980  0.9788 -1.9288 -1.0643
 8259SOL     OW36235   2.130   2.499   2.841 -0.1837 -0.0367  0.5149
 8259SOL    HW136236   2.075   2.428   2.873  1.2597  0.0013  3.0794
 8259SOL    HW236237   2.132   2.495   2.745  1.0131 -1.7384  0.6021
 8260SOL     OW36238   2.966   3.738  10.124 -0.6889 -0.6527 -0.9403
 8260SOL    HW136239   2.911   3.730  10.201  2.2919  0.5307  1.3175
 8260SOL    HW236240   2.977   3.649  10.089  1.9713 -1.0545  0.9024
 8261SOL     OW36241   1.269   2.763   2.997  0.0704  0.2454 -0.2995
 8261SOL    HW136242   1.356   2.724   3.010  0.3442  0.7622 -0.5894
 8261SOL    HW236243   1.284   2.814   2.917  3.5444 -1.4927 -0.7719
 8262SOL     OW36244   4.014   1.365   6.197  0.2990 -0.4586  0.6804
 8262SOL    HW136245   4.027   1.371   6.292  0.4647 -1.0941  0.6952
 8262SOL    HW236246   4.097   1.390   6.158  0.8152 -0.2252  1.9082
 8263SOL     OW36247   0.636   3.098   6.028  0.5555  0.2810 -0.1669
 8263SOL    HW136248   0.618   3.087   5.934 -2.4198 -1.6247  0.6665
 8263SOL    HW236249   0.696   3.024   6.043 -1.0128 -1.0460 -0.4936
 8264SOL     OW36250   4.431   1.879  12.025  0.2038 -0.1671 -0.3470
 8264SOL    HW136251   4.379   1.854  11.949  1.2046  0.8467 -1.3684
 8264SOL    HW236252   4.458   1.791  12.053  0.1984 -0.1286 -0.2220
 8265SOL     OW36253   2.989   3.940   8.312  0.0983 -0.2988 -0.4258
 8265SOL    HW136254   3.072   3.983   8.329  0.4510 -1.2582  0.2790
 8265SOL    HW236255   3.021   3.880   8.245  0.0719  1.1489 -1.7344
 8266SOL     OW36256   4.205   1.694  12.316 -0.4620 -0.4057  0.6515
 8266SOL    HW136257   4.137   1.673  12.252  0.6465 -1.2113 -0.2619
 8266SOL    HW236258   4.289   1.700  12.269  0.2710 -1.7093  1.8058
 8267SOL     OW36259   3.467   2.567   7.265  0.1671  0.3213 -0.0922
 8267SOL    HW136260   3.449   2.505   7.194  0.8866 -1.8764  1.6643
 8267SOL    HW236261   3.530   2.526   7.324  2.3187 -1.1901 -3.4455
 8268SOL     OW36262   0.065   3.277   3.778 -0.5726 -0.3017  0.4724
 8268SOL    HW136263   0.056   3.313   3.866 -0.2419 -0.4771  0.5776
 8268SOL    HW236264   4.700   3.306   3.749  0.1817  0.2313 -1.2360
 8269SOL     OW36265   0.238   4.163   1.593  0.1298  0.0317  0.2940
 8269SOL    HW136266   0.184   4.190   1.520  1.0885 -2.5946 -1.3822
 8269SOL    HW236267   0.177   4.103   1.636 -1.3623  1.5474  0.2829
 8270SOL     OW36268   1.042   0.773  13.984  0.4402  0.3924  0.2439
 8270SOL    HW136269   1.024   0.864  14.007 -0.9074  0.2422 -0.1955
 8270SOL    HW236270   0.980   0.759  13.912  1.3204 -0.2241 -0.4031
 8271SOL     OW36271   0.862   4.113  10.270  0.1030  0.0691  0.0544
 8271SOL    HW136272   0.810   4.192  10.284 -2.6442 -1.4856 -1.2157
 8271SOL    HW236273   0.948   4.154  10.267  0.3364 -0.3318  1.3226
 8272SOL     OW36274   0.073   1.521   1.060 -0.0254 -0.2979 -0.1899
 8272SOL    HW136275   0.034   1.535   0.974 -1.8304 -0.5513  0.5700
 8272SOL    HW236276   0.165   1.540   1.048 -0.0114  0.0742  0.5129
 8273SOL     OW36277   2.146   2.011   3.763  0.1272 -0.2616  0.0786
 8273SOL    HW136278   2.194   1.929   3.768  1.3132  0.4525  0.4064
 8273SOL    HW236279   2.213   2.072   3.794  0.3635 -0.3868 -0.1814
 8274SOL     OW36280   2.920   2.510   9.649  0.1762 -0.0118 -0.4280
 8274SOL    HW136281   2.935   2.588   9.596  0.4949  0.7440  0.7635
 8274SOL    HW236282   2.865   2.546   9.719 -1.5459 -0.4562 -1.5589
 8275SOL     OW36283   1.371   2.821   5.842  0.0033 -0.2261 -0.4874
 8275SOL    HW136284   1.331   2.901   5.808  0.9453  0.5865  0.2909
 8275SOL    HW236285   1.459   2.859   5.853 -0.9093  2.0700 -1.1974
 8276SOL     OW36286   2.599   2.542   2.644  0.0686 -0.3102 -0.1243
 8276SOL    HW136287   2.691   2.517   2.658  0.4516  2.3536  2.0271
 8276SOL    HW236288   2.549   2.483   2.700 -1.1340 -0.3148 -1.1901
 8277SOL     OW36289   0.167   0.683   6.170  0.1834 -0.6654 -0.2286
 8277SOL    HW136290   0.108   0.736   6.224 -0.4363 -1.1604 -0.4199
 8277SOL    HW236291   0.097   0.647   6.116 -2.0892  0.9887  1.5833
 8278SOL     OW36292   3.734   3.932  16.898  0.6862  0.1634  0.5095
 8278SOL    HW136293   3.820   3.937  16.940  0.2733  0.1613  1.3538
 8278SOL    HW236294   3.748   3.857  16.841  0.1908 -0.0226  0.6293
 8279SOL     OW36295   0.067   0.046   8.101 -0.2363 -0.0151  0.1069
 8279SOL    HW136296   0.162   0.049   8.113 -0.1465 -2.2702  0.0155
 8279SOL    HW236297   0.043   0.008   8.186 -2.3010 -1.1726 -1.0147
 8280SOL     OW36298   2.475   3.846   6.431  0.1705 -0.1046  0.1028
 8280SOL    HW136299   2.569   3.841   6.445  0.2021 -2.7416 -0.8865
 8280SOL    HW236300   2.458   3.788   6.356  1.6668 -0.7227  0.2348
 8281SOL     OW36301   3.192   0.873   7.985 -0.2760 -0.4195  0.3498
 8281SOL    HW136302   3.232   0.941   7.931  0.0874 -0.0755  1.0500
 8281SOL    HW236303   3.136   0.931   8.036 -0.9232 -0.4303 -0.3610
 8282SOL     OW36304   1.974   0.804   3.607 -0.3304 -0.2723  0.2785
 8282SOL    HW136305   1.906   0.767   3.551  0.8971 -0.1519 -1.3108
 8282SOL    HW236306   1.925   0.879   3.641 -0.3900  0.1719 -0.7808
 8283SOL     OW36307   2.072   2.552   5.524  0.1678 -0.4847  0.4917
 8283SOL    HW136308   2.066   2.459   5.504 -1.5779 -0.1496 -0.6043
 8283SOL    HW236309   2.054   2.564   5.617 -1.4441  1.1011 -0.0119
 8284SOL     OW36310   2.105   3.853   1.448  0.1475 -0.0588  0.5024
 8284SOL    HW136311   2.146   3.860   1.535 -3.9033 -1.6397  2.5192
 8284SOL    HW236312   2.059   3.772   1.470 -0.1275 -0.6049 -2.0834
 8285SOL     OW36313   1.219   4.646   5.079 -0.2547  0.0259  0.6656
 8285SOL    HW136314   1.213   0.020   5.085 -0.6256  0.0895 -0.8439
 8285SOL    HW236315   1.236   4.636   4.986 -0.4146 -0.3164  0.6747
 8286SOL     OW36316   3.025   3.448   9.106  0.4895  0.0022  0.2645
 8286SOL    HW136317   2.930   3.459   9.114  0.3896 -0.7368  0.1192
 8286SOL    HW236318   3.031   3.413   9.017 -2.7720 -1.9447  0.7836
 8287SOL     OW36319   2.845   0.311   5.142 -0.2240  0.0699 -0.3026
 8287SOL    HW136320   2.789   0.342   5.213  0.2879  0.1545  0.0647
 8287SOL    HW236321   2.900   0.388   5.127 -1.6266  0.9064 -1.0947
 8288SOL     OW36322   2.339   1.005   6.277 -0.3512 -0.1690 -0.6343
 8288SOL    HW136323   2.319   0.915   6.299 -0.2356 -0.5814 -2.1889
 8288SOL    HW236324   2.375   0.993   6.189  0.2037  0.3225 -0.4786
 8289SOL     OW36325   3.952   1.017   6.092  0.1936 -0.4366  0.0696
 8289SOL    HW136326   4.028   0.960   6.106  0.2140 -0.4224  0.0194
 8289SOL    HW236327   3.975   1.066   6.013  0.1462  0.1891  0.4407
 8290SOL     OW36328   2.472   2.209   6.961 -0.1106 -1.2153  0.3553
 8290SOL    HW136329   2.415   2.154   6.908  1.3640  1.7051 -4.2578
 8290SOL    HW236330   2.519   2.253   6.891 -3.1530 -1.7220 -2.0012
 8291SOL     OW36331   0.723   0.034   4.741  0.1388  0.0540 -0.2305
 8291SOL    HW136332   0.741   0.048   4.648  1.5053  0.6888  0.1350
 8291SOL    HW236333   0.628   0.021   4.749  0.1932 -0.2531 -0.1018
 8292SOL     OW36334   0.175   1.372   2.504 -0.4870 -0.4812  0.2337
 8292SOL    HW136335   0.212   1.333   2.426 -0.5185  4.1386 -2.1123
 8292SOL    HW236336   0.143   1.300   2.559  0.2997  1.0163  2.6910
 8293SOL     OW36337   1.918   0.773   7.981 -0.0757 -0.2784 -0.3590
 8293SOL    HW136338   1.880   0.712   8.045  1.0146 -0.3759  0.1823
 8293SOL    HW236339   1.950   0.837   8.045 -1.4427  0.7643 -0.7182
 8294SOL     OW36340   0.857   0.934   3.228 -0.0181  0.1098  0.4719
 8294SOL    HW136341   0.866   0.864   3.164  1.3214  0.7070 -0.0036
 8294SOL    HW236342   0.814   0.893   3.303 -0.1120 -0.2183  0.2358
 8295SOL     OW36343   3.292   4.719   6.255 -0.2813  0.4104  0.1118
 8295SOL    HW136344   3.352   0.065   6.289 -1.9448  0.7279  2.4534
 8295SOL    HW236345   3.228   0.003   6.327 -1.0533 -2.1915 -0.3946
 8296SOL     OW36346   1.623   0.754   3.826 -0.1242 -0.7021  0.3426
 8296SOL    HW136347   1.668   0.838   3.838  0.2736 -1.0912  1.5568
 8296SOL    HW236348   1.558   0.765   3.896 -0.4876 -0.2638 -0.0652
 8297SOL     OW36349   2.327   2.035   5.613 -0.0824  0.2046 -0.1074
 8297SOL    HW136350   2.398   2.060   5.554 -0.0815 -0.0018 -0.1948
 8297SOL    HW236351   2.254   2.080   5.571 -0.5009 -2.0566 -1.8427
 8298SOL     OW36352   4.136   0.013  16.938 -0.3789  0.0611 -0.0603
 8298SOL    HW136353   4.132   4.645  16.903 -0.5459 -0.5304  1.4460
 8298SOL    HW236354   4.067   0.059  16.891 -2.2175 -0.8380  1.7838
 8299SOL     OW36355   0.928   3.418   2.721  0.6111  0.8872  1.0415
 8299SOL    HW136356   1.016   3.419   2.758  1.0978 -0.9666 -0.1324
 8299SOL    HW236357   0.917   3.513   2.730  1.4063  1.1230 -0.6186
 8300SOL     OW36358   0.212   4.576   8.927  0.5515  0.2960 -0.0166
 8300SOL    HW136359   0.237   4.484   8.930 -1.5632 -0.2176  1.3173
 8300SOL    HW236360   0.184   4.582   9.018 -2.3113 -1.2298 -0.8288
 8301SOL     OW36361   1.964   0.484   4.816  0.1057  0.1127 -0.5127
 8301SOL    HW136362   2.041   0.442   4.853 -0.4147 -1.7557 -1.5469
 8301SOL    HW236363   1.981   0.456   4.726  0.6842  1.1597 -0.7271
 8302SOL     OW36364   1.296   2.429   2.104 -0.3472 -0.0703  0.1923
 8302SOL    HW136365   1.317   2.494   2.172 -0.3658  0.1727 -0.0328
 8302SOL    HW236366   1.379   2.409   2.060 -0.6500 -0.6913 -0.0967
 8303SOL     OW36367   1.860   0.914  12.841 -1.0547  0.5559 -0.0900
 8303SOL    HW136368   1.845   0.962  12.923  1.3840  3.1746 -1.1917
 8303SOL    HW236369   1.915   0.842  12.871 -0.6216  0.8537 -0.1817
 8304SOL     OW36370   3.046   2.830   7.088 -0.2280 -1.2838 -0.5276
 8304SOL    HW136371   3.050   2.875   7.172  0.2581  1.3171 -1.9244
 8304SOL    HW236372   3.014   2.742   7.106  1.1784 -1.2726  1.9660
 8305SOL     OW36373   2.032   1.439  15.649 -0.1921 -0.3096 -0.0813
 8305SOL    HW136374   2.060   1.355  15.614  1.1781  0.1994 -0.2263
 8305SOL    HW236375   1.964   1.468  15.588 -1.5296 -1.5195  0.8560
 8306SOL     OW36376   4.369   0.031  17.251 -0.1660 -0.2944  0.5728
 8306SOL    HW136377   4.401   4.701  17.326 -0.0019 -1.1428 -0.0726
 8306SOL    HW236378   4.300   0.089  17.283 -0.7707 -0.5978 -0.1898
 8307SOL     OW36379   4.664   3.310  13.996 -0.2425  0.2304  0.0755
 8307SOL    HW136380   0.035   3.286  13.989 -0.4201 -1.0126  1.8410
 8307SOL    HW236381   4.652   3.352  13.911 -2.6081 -0.4448  0.0740
 8308SOL     OW36382   4.060   0.800  16.230 -0.4034 -0.5409 -0.2254
 8308SOL    HW136383   4.066   0.842  16.144  1.3949  0.0820  0.1842
 8308SOL    HW236384   4.060   0.880  16.282 -2.4255 -0.5184 -0.2615
 8309SOL     OW36385   4.391   4.695   3.905 -0.0573  0.1886 -0.3971
 8309SOL    HW136386   4.402   4.692   3.810 -0.7314 -2.4735 -0.3976
 8309SOL    HW236387   4.363   4.607   3.929  2.1254 -0.7039 -1.1270
 8310SOL     OW36388   2.322   4.030  17.330 -0.3760  0.2114 -0.6159
 8310SOL    HW136389   2.418   4.031  17.330 -0.3447 -1.6940  0.5491
 8310SOL    HW236390   2.303   3.972  17.404 -0.3306  0.9308 -0.0284
 8311SOL     OW36391   0.803   0.865   5.631 -0.0758  0.4713  0.0509
 8311SOL    HW136392   0.892   0.837   5.611 -1.1196 -0.8986 -2.5801
 8311SOL    HW236393   0.752   0.785   5.628  0.2446  0.2614  0.2137
 8312SOL     OW36394   1.212   2.407  12.134  0.1975  0.5975  0.3017
 8312SOL    HW136395   1.259   2.390  12.215  1.2379  3.0958  0.2333
 8312SOL    HW236396   1.281   2.390  12.070 -0.0224 -0.7702  0.4167
 8313SOL     OW36397   3.110   2.534   7.835 -0.9323  0.2476 -0.3344
 8313SOL    HW136398   3.086   2.443   7.855  0.1496 -0.4957 -2.3711
 8313SOL    HW236399   3.029   2.580   7.853 -1.4372 -0.4115 -0.9248
 8314SOL     OW36400   3.341   0.240   3.260 -0.2313 -0.2002  0.3539
 8314SOL    HW136401   3.355   0.333   3.281 -1.4035 -0.5303  2.6335
 8314SOL    HW236402   3.384   0.198   3.334  3.3299  1.1467 -0.9379
 8315SOL     OW36403   3.107   1.170  11.759 -0.0849  0.4966  0.2433
 8315SOL    HW136404   3.131   1.175  11.667  1.7471 -0.6166  0.6606
 8315SOL    HW236405   3.196   1.172  11.793 -0.2186 -2.0166  0.7508
 8316SOL     OW36406   4.269   0.649   7.487 -0.4537  0.1766 -0.3692
 8316SOL    HW136407   4.353   0.633   7.442 -1.2614 -0.9115 -1.4923
 8316SOL    HW236408   4.205   0.610   7.427  0.0944 -0.2401 -0.6893
 8317SOL     OW36409   1.589   3.748   3.742 -0.2798 -0.4340  0.2195
 8317SOL    HW136410   1.650   3.820   3.758 -1.1121  0.5532 -1.0387
 8317SOL    HW236411   1.637   3.666   3.751 -2.5006 -1.9646 -1.7284
 8318SOL     OW36412   0.339   0.318  11.693  0.1081  0.3788 -0.0350
 8318SOL    HW136413   0.433   0.333  11.697  0.4381 -1.4306 -1.1674
 8318SOL    HW236414   0.316   0.323  11.786 -0.9427  2.8276 -0.4079
 8319SOL     OW36415   0.129   1.242  14.054  0.0931  0.1849 -0.6938
 8319SOL    HW136416   0.068   1.226  13.982  1.1216 -0.7413 -1.3605
 8319SOL    HW236417   0.202   1.295  14.023  0.2260 -0.9578 -2.3071
 8320SOL     OW36418   0.160   2.408  13.132  0.0689  0.1345  0.3163
 8320SOL    HW136419   0.107   2.377  13.058 -0.1780 -1.0153  0.9788
 8320SOL    HW236420   0.176   2.326  13.178  0.9211 -0.0690 -0.3452
 8321SOL     OW36421   3.506   3.114   3.626 -0.2935 -0.1165 -0.2224
 8321SOL    HW136422   3.498   3.040   3.686 -3.2579 -0.5296 -1.1551
 8321SOL    HW236423   3.415   3.110   3.598 -0.0523  1.2836 -1.2313
 8322SOL     OW36424   3.375   1.861   5.529  0.6400 -0.4193 -0.1554
 8322SOL    HW136425   3.442   1.792   5.528  0.4522 -0.6123  0.3881
 8322SOL    HW236426   3.300   1.801   5.534  1.3417 -1.1456  1.4890
 8323SOL     OW36427   1.611   2.274  16.095  0.0455 -0.1557  0.3292
 8323SOL    HW136428   1.627   2.362  16.129 -1.4239 -0.3883  1.6180
 8323SOL    HW236429   1.517   2.258  16.093  0.5403 -3.1708  1.5244
 8324SOL     OW36430   4.643   2.589  16.767  0.5495  0.0175  0.3953
 8324SOL    HW136431   4.692   2.526  16.715 -0.3532 -0.5981  0.2987
 8324SOL    HW236432   4.602   2.647  16.702  1.3331  0.1175 -0.0085
 8325SOL     OW36433   0.910   1.014  10.154  0.2910  1.0182  0.7989
 8325SOL    HW136434   0.990   1.059  10.129 -0.2169  1.0747 -0.7384
 8325SOL    HW236435   0.903   0.949  10.084  0.9277 -0.3969  2.0465
 8326SOL     OW36436   3.225   0.081   2.294 -0.3050 -0.0064 -0.6498
 8326SOL    HW136437   3.142   0.068   2.340  0.6117  0.9418  1.2910
 8326SOL    HW236438   3.243   0.175   2.302  0.3460  0.0077 -2.3202
 8327SOL     OW36439   1.907   2.587   3.194 -0.7363  0.0998 -0.2657
 8327SOL    HW136440   1.991   2.588   3.240 -0.3183  0.3993 -1.0207
 8327SOL    HW236441   1.890   2.681   3.200 -0.7590  0.0220  0.8969
 8328SOL     OW36442   2.070   3.212   5.461  0.0752 -0.4501 -0.2560
 8328SOL    HW136443   2.027   3.175   5.383  0.6424  1.5279 -1.5125
 8328SOL    HW236444   2.017   3.173   5.530 -0.3944 -0.3202 -0.5372
 8329SOL     OW36445   3.825   4.210   4.470  0.0859  0.1417  0.0854
 8329SOL    HW136446   3.783   4.136   4.427 -1.2677  1.5579 -1.0637
 8329SOL    HW236447   3.768   4.282   4.441  0.6774  1.0497  1.1922
 8330SOL     OW36448   4.106   2.673   6.059 -0.2701 -0.3610  0.4639
 8330SOL    HW136449   4.012   2.682   6.045  0.1446 -0.1545 -2.2831
 8330SOL    HW236450   4.132   2.764   6.070  0.0117 -0.3556 -0.2296
 8331SOL     OW36451   1.679   2.575  16.338  0.2276  0.5788 -0.1684
 8331SOL    HW136452   1.593   2.582  16.298  0.8928  2.1851 -1.3551
 8331SOL    HW236453   1.731   2.537  16.267 -1.8159  0.5127 -1.6110
 8332SOL     OW36454   3.696   0.296   4.782 -0.3327  0.1050 -0.5397
 8332SOL    HW136455   3.767   0.280   4.720 -1.1168 -2.5474 -0.7306
 8332SOL    HW236456   3.619   0.281   4.726 -1.1231 -1.7968  1.0571
 8333SOL     OW36457   4.525   3.302   3.666 -0.1916  0.0286 -0.0153
 8333SOL    HW136458   4.434   3.330   3.678  0.7143  3.0319 -0.0728
 8333SOL    HW236459   4.546   3.357   3.591 -0.9519  0.8914  0.3957
 8334SOL     OW36460   0.982   1.171   2.582 -0.5471 -0.2984 -0.1784
 8334SOL    HW136461   0.977   1.086   2.626  2.1224 -0.1948  0.2974
 8334SOL    HW236462   1.034   1.130   2.513  0.9652  1.9905 -0.4272
 8335SOL     OW36463   2.545   2.039   4.755  0.4106  0.6884  0.4851
 8335SOL    HW136464   2.542   2.120   4.704  2.6506  1.6357  1.8622
 8335SOL    HW236465   2.530   2.079   4.841  1.0977  1.6821  0.1475
 8336SOL     OW36466   3.344   1.828   1.703  0.0649 -0.5603 -0.2674
 8336SOL    HW136467   3.271   1.891   1.705 -0.1296 -0.7825 -0.3767
 8336SOL    HW236468   3.326   1.780   1.622 -2.7468 -0.2183  0.1587
 8337SOL     OW36469   2.021   1.944   4.254  0.1859  0.6844  0.0069
 8337SOL    HW136470   2.071   2.022   4.277  1.9191 -1.1681  2.4713
 8337SOL    HW236471   1.932   1.979   4.248 -0.4396 -1.0550 -0.9929
 8338SOL     OW36472   0.876   2.464   3.790 -0.0437 -0.0219 -0.2389
 8338SOL    HW136473   0.971   2.468   3.776 -0.2624  2.1033 -1.1857
 8338SOL    HW236474   0.879   2.475   3.885  1.2866 -2.1387 -0.0343
 8339SOL     OW36475   2.110   0.796   7.716  0.2038 -0.2557 -0.5567
 8339SOL    HW136476   2.059   0.866   7.675  2.3100  1.8140  0.3490
 8339SOL    HW236477   2.066   0.793   7.801 -0.8508 -0.0970 -1.0916
 8340SOL     OW36478   4.659   1.360   6.346  0.3219 -0.7336 -0.3423
 8340SOL    HW136479   0.012   1.374   6.405 -0.4452 -0.3916  0.5480
 8340SOL    HW236480   4.694   1.412   6.274  1.4713 -1.6758 -0.4691
 8341SOL     OW36481   3.002   3.933  12.236  0.1951  0.4741  0.1539
 8341SOL    HW136482   2.969   4.003  12.180 -0.4209 -0.3552 -0.5126
 8341SOL    HW236483   3.077   3.982  12.268  1.2679  0.1386 -1.8297
 8342SOL     OW36484   0.952   4.599   8.343  0.0636  0.0150  0.3390
 8342SOL    HW136485   0.972   4.563   8.429 -1.0711 -1.6904 -0.1078
 8342SOL    HW236486   1.005   4.679   8.344  0.1322 -0.0052 -1.3081
 8343SOL     OW36487   1.079   1.211   6.046 -0.3923  0.0795 -0.5573
 8343SOL    HW136488   1.021   1.163   6.104 -2.3724  0.4583 -2.2490
 8343SOL    HW236489   1.154   1.191   6.101  0.5680  0.2835 -1.7756
 8344SOL     OW36490   2.953   2.224   7.087  0.1789  0.8159  0.3698
 8344SOL    HW136491   3.005   2.165   7.142  0.8421  0.6258 -0.4624
 8344SOL    HW236492   2.913   2.284   7.150  0.5699  2.8851 -1.3474
 8345SOL     OW36493   0.806   1.002   4.705 -0.3783  0.7501  0.1115
 8345SOL    HW136494   0.819   0.980   4.797  0.9161  1.1381  0.0146
 8345SOL    HW236495   0.724   0.960   4.678  0.4577 -0.5530 -0.4248
 8346SOL     OW36496   4.309   4.499  12.741  0.0577  0.1948  0.5867
 8346SOL    HW136497   4.335   4.587  12.769 -1.4491  1.9255 -3.4698
 8346SOL    HW236498   4.356   4.438  12.798 -0.6693 -0.2820  0.6699
 8347SOL     OW36499   2.141   1.012  15.121 -0.0213 -0.0504  0.1610
 8347SOL    HW136500   2.225   1.049  15.094  0.5426  0.5688  2.7135
 8347SOL    HW236501   2.146   0.928  15.074  4.0956  0.0637  0.3764
 8348SOL     OW36502   1.547   2.041   6.607 -0.1798  0.3913  0.7291
 8348SOL    HW136503   1.540   2.099   6.683 -1.9337 -0.8543  1.5375
 8348SOL    HW236504   1.455   2.020   6.592  0.0252 -0.3935  0.5408
 8349SOL     OW36505   1.095   4.465   0.194 -0.4038 -0.0303 -0.2793
 8349SOL    HW136506   1.130   4.393   0.247  1.1496  2.0347  1.5276
 8349SOL    HW236507   1.139   4.532   0.247  1.6084 -0.7230 -1.0524
 8350SOL     OW36508   3.422   4.205  11.239  0.0505  0.0697 -0.0317
 8350SOL    HW136509   3.488   4.233  11.302 -0.3119  0.8971 -0.0157
 8350SOL    HW236510   3.442   4.248  11.156 -2.1322 -0.7947 -0.9866
 8351SOL     OW36511   1.132   3.087   3.208  0.6592 -0.1832 -0.0637
 8351SOL    HW136512   1.076   3.087   3.131  1.1166  0.1744 -0.3980
 8351SOL    HW236513   1.164   3.177   3.207 -0.4093  0.1838 -0.5545
 8352SOL     OW36514   2.763   2.071   6.435 -0.2545  0.1009  0.3048
 8352SOL    HW136515   2.802   2.024   6.509 -0.1730  1.1907  0.9639
 8352SOL    HW236516   2.680   2.105   6.470  0.8782  2.8270  0.3687
 8353SOL     OW36517   4.111   1.678   8.531 -0.8877 -0.5146 -0.4043
 8353SOL    HW136518   4.123   1.734   8.609 -4.3941  0.0652 -0.2852
 8353SOL    HW236519   4.200   1.682   8.497 -0.6512 -0.3467  0.2170
 8354SOL     OW36520   3.666   2.410   2.085  0.3229  1.0490 -0.0313
 8354SOL    HW136521   3.688   2.500   2.063 -2.3106  1.5147 -0.7055
 8354SOL    HW236522   3.615   2.407   2.166  2.6996 -1.4555  1.4222
 8355SOL     OW36523   3.173   3.828   2.826  0.2459 -0.7124  0.1479
 8355SOL    HW136524   3.223   3.810   2.905 -0.6667 -1.7076  0.5075
 8355SOL    HW236525   3.112   3.900   2.841  1.6790  0.2300  1.3953
 8356SOL     OW36526   2.714   2.322   7.532  0.2092 -0.2296  0.7774
 8356SOL    HW136527   2.804   2.304   7.507  0.6260  0.3383  1.8867
 8356SOL    HW236528   2.666   2.243   7.509 -1.1872  0.9733 -0.4400
 8357SOL     OW36529   0.496   1.092  12.243 -0.2074 -0.6405 -0.1353
 8357SOL    HW136530   0.522   1.048  12.162 -0.9708 -0.7156 -0.3401
 8357SOL    HW236531   0.480   1.013  12.296 -1.4878 -0.1666  0.1751
 8358SOL     OW36532   3.057   3.283  14.924  0.2105  0.1933 -0.0383
 8358SOL    HW136533   2.966   3.255  14.931  0.6265 -1.2551 -0.2380
 8358SOL    HW236534   3.066   3.320  15.012 -2.4164 -0.4614  0.4977
 8359SOL     OW36535   1.496   4.331   3.256  0.2342 -0.3314  0.5998
 8359SOL    HW136536   1.509   4.419   3.220 -1.5144 -0.3769 -0.1509
 8359SOL    HW236537   1.415   4.307   3.211 -0.1147  0.8333  0.5995
 8360SOL     OW36538   3.488   2.947   3.327 -0.2416  0.2864  0.4010
 8360SOL    HW136539   3.579   2.919   3.338  0.6009  1.7923 -2.9173
 8360SOL    HW236540   3.446   2.864   3.351  0.9486 -0.9934 -1.8578
 8361SOL     OW36541   0.554   1.340   7.872 -0.4591  0.1928  0.0138
 8361SOL    HW136542   0.595   1.261   7.838 -0.2939  0.4579 -0.4008
 8361SOL    HW236543   0.634   1.376   7.910 -0.2932  0.5060 -0.6485
 8362SOL     OW36544   4.558   0.454   7.115 -0.2548  0.1651 -0.0357
 8362SOL    HW136545   4.548   0.389   7.045 -1.5635 -0.1172  0.4171
 8362SOL    HW236546   4.648   0.440   7.144 -0.2596  0.9111  0.3513
 8363SOL     OW36547   2.245   1.581   2.955  0.2309  0.3388 -0.2602
 8363SOL    HW136548   2.269   1.647   3.020 -1.0229 -0.6742  1.2301
 8363SOL    HW236549   2.275   1.628   2.877 -3.5563  3.7604  0.3654
 8364SOL     OW36550   0.514   3.443   8.814  0.2189  0.2033  0.3725
 8364SOL    HW136551   0.561   3.408   8.738  0.3668 -0.8776  0.9609
 8364SOL    HW236552   0.429   3.460   8.773  0.2836  0.5163  0.3669
 8365SOL     OW36553   0.519   4.637   4.828  0.2115 -0.3892  0.4802
 8365SOL    HW136554   0.427   4.660   4.840  0.6670  2.1932 -0.8791
 8365SOL    HW236555   0.551   4.641   4.918 -1.9853  0.7513  1.2079
 8366SOL     OW36556   0.142   1.372   1.276  0.8973 -0.3058  0.8630
 8366SOL    HW136557   0.094   1.404   1.200  0.4799 -0.7193  0.9492
 8366SOL    HW236558   0.206   1.442   1.285  0.9153 -0.1379 -0.6784
 8367SOL     OW36559   2.314   1.849   2.499  0.2415  1.1015  0.5526
 8367SOL    HW136560   2.384   1.907   2.471  1.4925 -0.3302  0.7043
 8367SOL    HW236561   2.277   1.882   2.580 -0.6331  1.5641 -0.0373
 8368SOL     OW36562   1.559   4.211  13.128 -0.5079 -0.5106  0.1978
 8368SOL    HW136563   1.476   4.226  13.175 -0.6776  0.2833 -0.3589
 8368SOL    HW236564   1.592   4.300  13.117 -3.8459  0.5979 -0.9044
 8369SOL     OW36565   0.289   1.936   3.452 -0.6031 -0.3084 -0.3850
 8369SOL    HW136566   0.350   1.981   3.394 -1.6453  2.1293  0.4115
 8369SOL    HW236567   0.353   1.911   3.519 -2.5411 -0.3514  1.4436
 8370SOL     OW36568   0.253   4.274   2.855 -0.4573  0.3025 -0.2319
 8370SOL    HW136569   0.298   4.358   2.840  1.0293 -0.6868 -1.2607
 8370SOL    HW236570   0.187   4.291   2.788 -0.2381 -2.1551 -1.0657
 8371SOL     OW36571   1.601   1.899   3.344 -0.6716 -0.3581  0.0592
 8371SOL    HW136572   1.642   1.832   3.399 -0.3630  0.0862  0.3714
 8371SOL    HW236573   1.560   1.849   3.274 -0.5859 -1.3957  0.7544
 8372SOL     OW36574   4.132   0.306   3.947  0.0843 -0.5099  0.2050
 8372SOL    HW136575   4.208   0.298   4.004  0.6322 -0.8713 -0.5836
 8372SOL    HW236576   4.075   0.241   3.989 -2.5355  2.0389  0.6386
 8373SOL     OW36577   3.533   1.248   9.561  0.4177 -0.0150 -0.2276
 8373SOL    HW136578   3.459   1.248   9.622  0.4151 -0.8850 -0.2371
 8373SOL    HW236579   3.562   1.336   9.585  0.1156 -0.0237  0.1564
 8374SOL     OW36580   2.154   1.783   6.915 -0.0717 -0.0122 -0.6086
 8374SOL    HW136581   2.106   1.858   6.950 -2.2809 -1.3590 -0.7645
 8374SOL    HW236582   2.245   1.807   6.936  0.1386 -1.4007  0.1623
 8375SOL     OW36583   0.566   3.824   8.593 -0.0044  0.1201 -0.6455
 8375SOL    HW136584   0.493   3.863   8.641  0.4706 -0.6856  0.7426
 8375SOL    HW236585   0.577   3.900   8.536  0.6174  0.5579  0.0498
 8376SOL     OW36586   1.679   1.628   2.612  0.2981  0.4718  0.3139
 8376SOL    HW136587   1.630   1.710   2.623  0.6482  0.5676  1.1609
 8376SOL    HW236588   1.693   1.597   2.701 -0.2795  1.8921  0.9087
 8377SOL     OW36589   3.829   1.654   4.231 -0.3756  0.3165 -1.0506
 8377SOL    HW136590   3.864   1.566   4.239  0.9112  0.9757  0.4474
 8377SOL    HW236591   3.901   1.706   4.196 -0.3054  0.6638 -0.3846
 8378SOL     OW36592   1.834   3.383   4.171 -0.0821 -0.1741 -0.1800
 8378SOL    HW136593   1.825   3.323   4.246  0.9775 -0.4477 -0.2756
 8378SOL    HW236594   1.819   3.464   4.220  1.0867 -0.3516  0.4810
 8379SOL     OW36595   1.385   2.597  14.861  0.0636 -0.1335 -0.2602
 8379SOL    HW136596   1.374   2.502  14.871 -0.6835 -0.0511 -0.2985
 8379SOL    HW236597   1.391   2.592  14.765  1.3378 -1.1707 -0.1334
 8380SOL     OW36598   4.109   2.783  12.165  0.5018 -0.2179 -0.5003
 8380SOL    HW136599   4.143   2.738  12.087  2.6563  3.3979 -1.6650
 8380SOL    HW236600   4.187   2.824  12.202  0.2265  0.3700 -0.5702
 8381SOL     OW36601   1.254   1.780   2.277 -0.2800 -0.9306 -0.1685
 8381SOL    HW136602   1.287   1.739   2.357  0.5489 -0.5573 -0.3201
 8381SOL    HW236603   1.317   1.741   2.216  0.4773  0.7065 -0.4341
 8382SOL     OW36604   2.281   1.479  12.193  0.2160  0.6733 -0.1983
 8382SOL    HW136605   2.224   1.545  12.154  0.1480  0.6163 -0.1934
 8382SOL    HW236606   2.352   1.525  12.239  0.3752  0.1587  0.0683
 8383SOL     OW36607   0.786   3.577  17.663  0.3717  0.2234  0.4580
 8383SOL    HW136608   0.853   3.530   0.025  0.8476  3.1116  2.6199
 8383SOL    HW236609   0.703   3.547   0.015 -0.2019  1.8547  0.5114
 8384SOL     OW36610   4.130   2.547   2.906  0.0166  0.1251  0.0602
 8384SOL    HW136611   4.053   2.598   2.879 -1.1614  0.3680  3.8223
 8384SOL    HW236612   4.098   2.457   2.897 -1.7318  0.7781 -0.1637
 8385SOL     OW36613   2.008   0.708  15.363 -0.4812  0.2875 -0.1052
 8385SOL    HW136614   2.032   0.620  15.336  1.1307  1.2980 -1.9979
 8385SOL    HW236615   1.946   0.735  15.295 -0.0215 -0.5402 -0.8529
 8386SOL     OW36616   2.795   0.413   8.893 -0.7606  0.0277  0.1173
 8386SOL    HW136617   2.724   0.477   8.891  0.4098  1.2909 -1.2895
 8386SOL    HW236618   2.792   0.378   8.804  0.0747 -0.0170  0.1077
 8387SOL     OW36619   1.132   1.867   8.075 -0.2370 -0.3156  0.0407
 8387SOL    HW136620   1.092   1.825   8.151 -0.6894  1.7964  0.9607
 8387SOL    HW236621   1.067   1.932   8.049  0.8398  0.9204  0.4560
 8388SOL     OW36622   2.960   0.707   5.868 -0.0175 -0.2372  0.4721
 8388SOL    HW136623   3.041   0.754   5.846  0.3492 -0.2823  1.7581
 8388SOL    HW236624   2.991   0.616   5.873 -1.4969 -0.7591  0.1198
 8389SOL     OW36625   2.243   2.810   2.251  0.7427  0.1527 -0.0536
 8389SOL    HW136626   2.154   2.787   2.275  0.3120 -1.3042 -3.0772
 8389SOL    HW236627   2.241   2.901   2.222 -1.4715 -0.5958 -2.1750
 8390SOL     OW36628   4.684   0.641   4.949  0.3841  0.2929  0.3376
 8390SOL    HW136629   0.025   0.688   5.005 -1.1797 -1.0422  3.2070
 8390SOL    HW236630   4.613   0.635   5.012  0.8711 -0.7864  0.7895
 8391SOL     OW36631   3.595   0.182   2.124 -0.3866  0.3613 -0.2772
 8391SOL    HW136632   3.643   0.192   2.206 -0.3310 -1.4998 -0.0996
 8391SOL    HW236633   3.519   0.232   2.155 -0.6999 -2.2299  3.0584
 8392SOL     OW36634   4.627   2.835  12.496 -0.3095 -0.0700  0.0905
 8392SOL    HW136635   0.001   2.827  12.485 -0.1896  2.8212 -0.8170
 8392SOL    HW236636   4.609   2.744  12.522  1.6953 -0.8546 -1.2349
 8393SOL     OW36637   2.299   1.243   1.755 -0.3553 -0.1456 -0.0649
 8393SOL    HW136638   2.241   1.319   1.765  0.3140  0.3867 -0.2114
 8393SOL    HW236639   2.381   1.286   1.778 -0.7215 -1.3123  3.3627
 8394SOL     OW36640   1.986   0.404  13.815 -0.4903 -0.0755 -0.7119
 8394SOL    HW136641   2.060   0.413  13.876 -1.8875 -2.4352  1.3125
 8394SOL    HW236642   1.958   0.495  13.811  0.7656  0.2045 -3.2224
 8395SOL     OW36643   4.693   1.807  16.773  0.0343 -0.8605 -0.4298
 8395SOL    HW136644   4.634   1.870  16.815  1.5966  0.7759 -0.6970
 8395SOL    HW236645   0.054   1.852  16.754 -0.6462  0.1978 -0.9185
 8396SOL     OW36646   1.572   3.828   9.406 -0.3815  0.0199 -0.3567
 8396SOL    HW136647   1.587   3.855   9.496 -0.1885 -1.9072  0.1692
 8396SOL    HW236648   1.583   3.734   9.396  2.2082  0.2782  0.0793
 8397SOL     OW36649   1.441   1.260   1.561 -0.2238 -0.2720 -0.2818
 8397SOL    HW136650   1.426   1.178   1.513 -1.8408  0.0431 -0.3255
 8397SOL    HW236651   1.365   1.264   1.619 -0.1530  1.8822 -0.3590
 8398SOL     OW36652   1.154   3.057  11.641  0.0993 -0.0856  0.1560
 8398SOL    HW136653   1.118   3.144  11.629 -1.4027 -0.4424  1.9954
 8398SOL    HW236654   1.098   3.025  11.570  0.0898 -0.5441  0.3656
 8399SOL     OW36655   1.952   1.409   4.717  0.0495 -0.0993  0.0090
 8399SOL    HW136656   1.865   1.412   4.756 -1.0397  2.3261 -2.5995
 8399SOL    HW236657   1.991   1.491   4.747  2.1832 -0.1027 -2.7284
 8400SOL     OW36658   0.334   3.196   2.727  0.0263 -0.3958 -0.1019
 8400SOL    HW136659   0.353   3.275   2.677 -4.9964  2.1700  2.0103
 8400SOL    HW236660   0.410   3.140   2.714 -0.5882 -0.6732 -2.4862
 8401SOL     OW36661   3.673   2.770   3.969  0.0599 -0.2961 -0.7613
 8401SOL    HW136662   3.747   2.753   3.911  0.1265  1.7849 -1.2787
 8401SOL    HW236663   3.698   2.709   4.038  0.3700 -0.6585 -1.1910
 8402SOL     OW36664   1.197   3.631   3.063 -0.4554  0.2288  0.3205
 8402SOL    HW136665   1.158   3.717   3.079  1.2654  0.6391  2.2236
 8402SOL    HW236666   1.276   3.651   3.013  0.4454 -0.1531  1.5867
 8403SOL     OW36667   1.143   4.604   6.067  0.3174  0.1318  0.3385
 8403SOL    HW136668   1.099   4.682   6.031 -0.5902 -1.0368 -1.1069
 8403SOL    HW236669   1.127   4.538   5.999 -0.7288  1.3495 -0.6109
 8404SOL     OW36670   3.038   0.019   1.067 -0.2045  0.7620 -0.2853
 8404SOL    HW136671   3.128   0.043   1.046  0.0208  1.3837  1.3957
 8404SOL    HW236672   2.987   0.075   1.008 -2.0031 -1.0539 -0.4732
 8405SOL     OW36673   0.349   0.055   2.085  1.4268 -0.0241 -0.4983
 8405SOL    HW136674   0.347   0.058   1.989  0.1563  1.1483 -0.4390
 8405SOL    HW236675   0.434   0.012   2.094  0.3405 -1.7026  1.7918
 8406SOL     OW36676   1.541   1.064   6.200 -0.5975  0.5248  0.3706
 8406SOL    HW136677   1.543   1.142   6.144  2.9166  2.2017  2.8216
 8406SOL    HW236678   1.590   1.096   6.276 -0.1012  2.3317 -0.7027
 8407SOL     OW36679   2.626   3.101   4.072 -0.1770 -0.2291 -0.3636
 8407SOL    HW136680   2.705   3.109   4.019 -1.6998  0.0990 -2.5588
 8407SOL    HW236681   2.559   3.113   4.005 -1.1454 -1.6718  0.3495
 8408SOL     OW36682   2.747   1.806   0.510 -0.3230  0.1565  0.3383
 8408SOL    HW136683   2.839   1.782   0.521 -0.9055 -3.0671 -1.6361
 8408SOL    HW236684   2.729   1.745   0.438  2.7062 -0.0433 -0.2693
 8409SOL     OW36685   0.391   0.857   8.009  0.6029  0.4332 -0.2113
 8409SOL    HW136686   0.321   0.839   8.071  1.6283  0.2222  0.8843
 8409SOL    HW236687   0.474   0.844   8.055 -0.7980 -1.7719  1.7062
 8410SOL     OW36688   1.060   1.385   9.782  0.3301 -0.0262 -0.3030
 8410SOL    HW136689   1.068   1.291   9.764  0.8031 -0.5263  2.5325
 8410SOL    HW236690   0.965   1.381   9.768  0.0756 -1.3446  1.7763
 8411SOL     OW36691   0.867   2.928   8.779 -0.3842  0.7290 -0.3863
 8411SOL    HW136692   0.827   2.916   8.693  1.3833 -1.0446 -0.9538
 8411SOL    HW236693   0.824   3.004   8.819  0.4771  1.2531 -0.4509
 8412SOL     OW36694   0.168   4.519   7.021  0.3669 -0.1051  0.0631
 8412SOL    HW136695   0.241   4.563   6.976 -0.3317 -1.1006 -2.0283
 8412SOL    HW236696   0.222   4.481   7.091 -0.0575 -0.5148  0.1688
 8413SOL     OW36697   4.225   2.438   1.755 -0.4180  0.5093  0.4684
 8413SOL    HW136698   4.237   2.344   1.741  1.8364  0.6087  1.8339
 8413SOL    HW236699   4.144   2.444   1.704 -0.1048 -0.8718 -0.1913
 8414SOL     OW36700   0.559   2.233   5.013  0.2284 -0.0946  0.2279
 8414SOL    HW136701   0.591   2.143   5.003  0.7984 -0.0416  1.6557
 8414SOL    HW236702   0.582   2.249   5.104  0.2962 -0.6763  0.3148
 8415SOL     OW36703   2.398   1.315  14.854 -0.5012 -0.0607  0.0223
 8415SOL    HW136704   2.397   1.293  14.760  0.0860  2.8126 -0.6661
 8415SOL    HW236705   2.447   1.397  14.854 -0.9781  0.2287 -0.9792
 8416SOL     OW36706   0.191   2.712  17.519 -0.0088 -0.0101  0.3354
 8416SOL    HW136707   0.151   2.642  17.570  1.2106 -0.2196  1.0036
 8416SOL    HW236708   0.214   2.779  17.584 -0.6267 -0.2058  0.7546
 8417SOL     OW36709   1.828   3.449   2.337  0.5051 -0.4099  0.0643
 8417SOL    HW136710   1.908   3.500   2.337  1.4308 -1.8392 -1.0537
 8417SOL    HW236711   1.854   3.392   2.410  0.3775 -1.7267 -0.9092
 8418SOL     OW36712   1.040   0.824   4.890 -0.1188  0.1859  0.0828
 8418SOL    HW136713   0.998   0.772   4.821  0.8462  0.9237 -1.0797
 8418SOL    HW236714   1.016   0.783   4.972  1.6525  0.1825  0.6127
 8419SOL     OW36715   4.425   3.367   4.942 -0.3997  0.0707 -0.1837
 8419SOL    HW136716   4.414   3.299   4.875 -0.4753 -1.3529  1.2896
 8419SOL    HW236717   4.334   3.395   4.958  0.4703  2.5883  0.3958
 8420SOL     OW36718   1.370   4.341   3.576  0.0581  0.3854 -0.2409
 8420SOL    HW136719   1.369   4.267   3.515  1.2949  0.2829 -0.1483
 8420SOL    HW236720   1.386   4.415   3.518  2.4682 -0.9157 -1.2801
 8421SOL     OW36721   3.507   3.812   4.793 -0.0775 -0.7258 -0.2128
 8421SOL    HW136722   3.479   3.834   4.704 -1.6341 -0.5952  0.3021
 8421SOL    HW236723   3.427   3.776   4.830  0.2595  0.6450  1.8831
 8422SOL     OW36724   0.234   3.269  15.296 -0.0002  0.6130  0.6312
 8422SOL    HW136725   0.296   3.338  15.318 -0.8084  1.4778  0.1821
 8422SOL    HW236726   0.185   3.292  15.217  0.4924 -0.9081 -0.1308
 8423SOL     OW36727   1.166   2.048   3.847 -0.0546 -0.9871  0.1150
 8423SOL    HW136728   1.104   1.981   3.818 -2.3071  0.9192  0.5371
 8423SOL    HW236729   1.229   1.995   3.896  1.4566  0.5277 -0.2199
 8424SOL     OW36730   3.337   2.466   7.018  0.4066  0.0348 -0.2144
 8424SOL    HW136731   3.250   2.429   7.002  0.3783  1.3687 -3.2387
 8424SOL    HW236732   3.324   2.559   7.001 -1.8982 -0.5201 -1.5534
 8425SOL     OW36733   4.159   2.376   6.503 -0.6760  0.3533  0.4299
 8425SOL    HW136734   4.188   2.467   6.507 -1.9451  0.8623 -2.0792
 8425SOL    HW236735   4.144   2.350   6.594 -0.3224 -3.1347 -0.5304
 8426SOL     OW36736   0.915   4.512   5.081 -0.3228 -0.4824 -0.4522
 8426SOL    HW136737   0.939   4.595   5.041  4.7653 -2.3909 -1.4035
 8426SOL    HW236738   0.994   4.499   5.133  0.9432 -2.1821 -2.7983
 8427SOL     OW36739   4.523   4.199   4.912 -0.4668  0.1425  0.2501
 8427SOL    HW136740   4.438   4.178   4.950 -0.9778  1.0291 -0.3805
 8427SOL    HW236741   4.571   4.119   4.931  0.4381  0.5277 -0.4340
 8428SOL     OW36742   3.779   2.272   3.081 -0.8852  0.1454  0.4570
 8428SOL    HW136743   3.786   2.323   3.162  1.6402 -1.7744  1.4802
 8428SOL    HW236744   3.839   2.203   3.110 -0.4224 -0.6536 -2.4099
 8429SOL     OW36745   0.401   3.025  14.266  0.0661 -0.5853 -0.1522
 8429SOL    HW136746   0.312   3.011  14.298 -0.7652  1.3234 -1.6437
 8429SOL    HW236747   0.391   3.087  14.194  1.7042  3.3369  3.0114
 8430SOL     OW36748   3.318   0.447   3.061  0.4448 -0.0791  0.1120
 8430SOL    HW136749   3.289   0.360   3.088  1.4529 -0.4562 -0.0107
 8430SOL    HW236750   3.237   0.496   3.067 -0.7082 -1.5590 -3.7533
 8431SOL     OW36751   3.891   0.929   8.455 -0.3696 -0.4416 -0.0238
 8431SOL    HW136752   3.986   0.940   8.457 -0.2787 -1.2642  0.4544
 8431SOL    HW236753   3.877   0.836   8.434 -1.1497 -0.5545  1.0112
 8432SOL     OW36754   0.742   0.610   5.321  0.0150  0.4336 -0.9298
 8432SOL    HW136755   0.798   0.536   5.295  0.8516  0.7861 -0.0844
 8432SOL    HW236756   0.696   0.579   5.399  0.3278 -1.7594 -1.6182
 8433SOL     OW36757   3.410   3.500  16.460  1.0724 -0.1924  0.5924
 8433SOL    HW136758   3.478   3.433  16.461  0.5921 -0.7238 -1.4320
 8433SOL    HW236759   3.455   3.567  16.409  0.2676 -2.2755 -2.8778
 8434SOL     OW36760   3.504   1.245   7.400  0.5842 -0.0571 -0.2085
 8434SOL    HW136761   3.593   1.239   7.435  0.2585  0.9989  0.7779
 8434SOL    HW236762   3.457   1.290   7.470  0.8592 -0.2016  0.0685
 8435SOL     OW36763   3.002   0.638   9.958 -0.3218 -0.7462  0.5468
 8435SOL    HW136764   3.038   0.549   9.951 -2.1188 -1.3320 -1.0948
 8435SOL    HW236765   2.997   0.646  10.054 -1.8575  3.9806  0.0647
 8436SOL     OW36766   3.708   3.652   0.293  0.3429  0.3441 -0.8339
 8436SOL    HW136767   3.743   3.565   0.274  0.2240  0.4692 -1.6276
 8436SOL    HW236768   3.772   3.698   0.239  0.7989 -2.5698 -2.7445
 8437SOL     OW36769   1.199   1.156   6.712  0.2997 -0.5218  0.3069
 8437SOL    HW136770   1.112   1.118   6.707  1.3169 -2.5687 -1.9826
 8437SOL    HW236771   1.226   1.144   6.803  1.5852  0.8362  0.1126
 8438SOL     OW36772   1.860   0.140   3.072 -0.1358  0.0252 -0.0380
 8438SOL    HW136773   1.820   0.207   3.017 -2.8503 -1.7235 -0.1689
 8438SOL    HW236774   1.923   0.196   3.117 -0.4880  1.0948 -0.8897
 8439SOL     OW36775   1.755   0.248  17.437  0.0881 -0.4393  0.6376
 8439SOL    HW136776   1.849   0.229  17.437  0.5681  1.9753  0.4290
 8439SOL    HW236777   1.744   0.238  17.343  0.5868  0.4738  0.4806
 8440SOL     OW36778   1.060   4.175   4.033  0.1618  0.2747  1.0917
 8440SOL    HW136779   1.149   4.158   4.063  0.6593  1.4908  0.3249
 8440SOL    HW236780   1.017   4.141   4.111 -0.5622  1.9428  1.4189
 8441SOL     OW36781   3.009   0.474   8.056 -0.1467 -0.3193 -0.2631
 8441SOL    HW136782   3.090   0.505   8.015 -0.4764 -0.0528 -0.7196
 8441SOL    HW236783   2.951   0.545   8.028 -0.9436 -0.7781  0.2180
 8442SOL     OW36784   2.853   4.343  10.843  0.3077  0.2995 -0.1487
 8442SOL    HW136785   2.841   4.438  10.848  0.3738  0.2987  0.0359
 8442SOL    HW236786   2.824   4.322  10.755  0.4283 -0.4011 -0.0206
 8443SOL     OW36787   3.611   0.860   5.016 -0.5007 -0.3069 -0.0805
 8443SOL    HW136788   3.677   0.904   5.069  0.8096 -1.1061 -1.0184
 8443SOL    HW236789   3.550   0.933   5.020  0.3992  0.4369 -0.0510
 8444SOL     OW36790   2.721   3.685   9.694 -0.2581  0.1975  0.1152
 8444SOL    HW136791   2.787   3.739   9.738  0.3524  3.3599 -4.6600
 8444SOL    HW236792   2.640   3.709   9.740  1.8951  1.3525  3.3270
 8445SOL     OW36793   2.459   0.873   5.129 -0.1453 -0.6059  0.2008
 8445SOL    HW136794   2.375   0.905   5.094  0.5527  1.4984  0.4728
 8445SOL    HW236795   2.500   0.955   5.152 -1.0331 -0.6737  2.0313
 8446SOL     OW36796   1.748   1.243   2.526  0.1366  0.4578 -0.1055
 8446SOL    HW136797   1.816   1.271   2.587  0.5569 -1.1195  0.1471
 8446SOL    HW236798   1.807   1.221   2.454  2.2112  0.1404  1.6908
 8447SOL     OW36799   2.188   2.262   7.964  0.3886 -0.3633 -0.3017
 8447SOL    HW136800   2.263   2.238   7.909  1.9854 -0.3104  1.8362
 8447SOL    HW236801   2.111   2.228   7.920  0.0649 -1.9713  1.5478
 8448SOL     OW36802   4.156   1.771   5.750 -0.2177 -0.1347 -0.8931
 8448SOL    HW136803   4.169   1.702   5.685 -0.3467  1.8278 -3.0023
 8448SOL    HW236804   4.234   1.824   5.737  0.7027 -1.0228  1.0869
 8449SOL     OW36805   4.715   1.765   5.571 -0.0268  0.2797  0.1114
 8449SOL    HW136806   0.070   1.784   5.626  0.5078 -2.1899  0.1985
 8449SOL    HW236807   4.710   1.857   5.544 -0.8842  0.6656  1.5967
 8450SOL     OW36808   0.101   3.758   3.796 -0.5484  0.3070  0.2691
 8450SOL    HW136809   0.192   3.782   3.776 -0.6526  0.0823 -0.4721
 8450SOL    HW236810   0.096   3.736   3.889  1.2131 -2.1936 -0.2262
 8451SOL     OW36811   4.127   2.428   3.330  0.1056  0.4113 -0.1035
 8451SOL    HW136812   4.212   2.465   3.306  0.3130 -0.5800 -0.8752
 8451SOL    HW236813   4.123   2.465   3.419  0.3685 -0.1144  0.1261
 8452SOL     OW36814   3.820   1.539  13.690  0.0978  0.1384  0.4388
 8452SOL    HW136815   3.800   1.450  13.718 -2.4395  0.4413 -0.4841
 8452SOL    HW236816   3.893   1.516  13.632  0.1721 -0.0592  0.6088
 8453SOL     OW36817   4.515   0.525   0.778  0.0505  0.0169 -0.3523
 8453SOL    HW136818   4.586   0.465   0.757 -0.2907 -0.7156  0.6130
 8453SOL    HW236819   4.520   0.505   0.871 -0.3109 -2.7736 -0.9271
 8454SOL     OW36820   0.181   3.524  10.834  0.1100 -0.6375 -0.4615
 8454SOL    HW136821   0.189   3.540  10.740  1.4387 -0.5877 -0.3489
 8454SOL    HW236822   0.183   3.428  10.837  0.5283 -0.6604 -1.3221
 8455SOL     OW36823   3.335   2.256   7.619  0.2483 -0.7520  0.0126
 8455SOL    HW136824   3.316   2.245   7.526 -0.5977  0.0593  0.0953
 8455SOL    HW236825   3.405   2.321   7.614 -1.5858  1.0924 -1.3989
 8456SOL     OW36826   1.381   0.196   4.418  0.1979 -0.3858  0.3054
 8456SOL    HW136827   1.437   0.257   4.466  0.5879 -1.0306  0.6705
 8456SOL    HW236828   1.432   0.115   4.428  0.2731 -0.2826  0.7645
 8457SOL     OW36829   1.441   3.281   6.317  0.1036  0.1615  0.4307
 8457SOL    HW136830   1.447   3.329   6.234 -1.0670 -0.3366  0.0449
 8457SOL    HW236831   1.471   3.193   6.297  0.3737  1.2065 -3.7950
 8458SOL     OW36832   0.482   2.761   7.286 -0.0818 -0.6130 -0.0497
 8458SOL    HW136833   0.416   2.826   7.313 -0.4639 -0.9771 -0.1014
 8458SOL    HW236834   0.552   2.785   7.347 -2.1714 -0.1950  2.1989
 8459SOL     OW36835   1.123   3.554   6.273 -0.0478 -0.5218 -0.4336
 8459SOL    HW136836   1.183   3.613   6.226  0.6868 -0.7306  0.2315
 8459SOL    HW236837   1.121   3.474   6.221 -2.4281 -0.1651 -0.8790
 8460SOL     OW36838   4.025   2.631   5.347  0.1620  0.6480  0.6986
 8460SOL    HW136839   4.018   2.536   5.350 -0.1894  0.5976 -1.6239
 8460SOL    HW236840   3.955   2.645   5.283 -0.6877 -0.6026  1.3622
 8461SOL     OW36841   0.933   1.052   6.221 -0.1545 -0.2913  0.7634
 8461SOL    HW136842   0.858   0.992   6.218  0.6118 -1.1781 -0.4649
 8461SOL    HW236843   0.985   1.012   6.292  0.2798 -1.0721  0.0036
 8462SOL     OW36844   3.742   4.230   8.142  0.5887  0.1332 -0.4358
 8462SOL    HW136845   3.698   4.157   8.098 -1.4022  1.3903 -0.5525
 8462SOL    HW236846   3.691   4.232   8.223  1.2958 -1.0084  0.0418
 8463SOL     OW36847   2.811   1.351   6.347 -0.2557  0.4862  0.1826
 8463SOL    HW136848   2.813   1.342   6.252 -0.0231  2.1232  0.0328
 8463SOL    HW236849   2.895   1.391   6.367  1.6589 -2.4530 -1.9407
 8464SOL     OW36850   2.602   3.362   6.210 -0.0175  0.1439  1.3105
 8464SOL    HW136851   2.650   3.379   6.290  1.3484 -0.2946  0.5830
 8464SOL    HW236852   2.652   3.427   6.162 -0.4713 -0.7513 -0.3808
 8465SOL     OW36853   3.869   0.857   7.387 -0.5208 -0.7520 -0.0128
 8465SOL    HW136854   3.894   0.774   7.346  1.9468 -0.2999  0.5709
 8465SOL    HW236855   3.899   0.914   7.316 -2.6677  1.6382  0.9967
 8466SOL     OW36856   0.204   1.807  15.829 -0.2255  0.2477  0.2445
 8466SOL    HW136857   0.131   1.746  15.819  1.7621 -2.0524 -0.2462
 8466SOL    HW236858   0.267   1.756  15.777 -0.5064 -1.1639  1.2813
 8467SOL     OW36859   0.416   0.182   3.399 -0.3822 -0.2633  0.5212
 8467SOL    HW136860   0.400   0.273   3.425 -0.5902 -0.5348  1.3514
 8467SOL    HW236861   0.503   0.179   3.360 -0.2340 -3.1586  1.0960
 8468SOL     OW36862   1.002   4.591   8.875 -0.4622 -0.1899  0.3812
 8468SOL    HW136863   1.060   4.517   8.857  0.4414  0.8380 -0.9347
 8468SOL    HW236864   1.033   4.631   8.957 -0.5897  0.8537 -0.0743
 8469SOL     OW36865   3.708   2.347   2.407  0.0857  0.1639 -0.4677
 8469SOL    HW136866   3.782   2.383   2.359 -0.9809 -0.2377 -2.4000
 8469SOL    HW236867   3.704   2.258   2.373  0.2704 -0.8727  2.2382
 8470SOL     OW36868   4.353   3.153   7.156  0.1709 -0.4339  0.4609
 8470SOL    HW136869   4.291   3.223   7.176 -1.0124 -0.9803 -1.2977
 8470SOL    HW236870   4.416   3.172   7.226  1.3425  0.5112 -0.8408
 8471SOL     OW36871   3.168   0.732  15.305 -0.2173 -0.5157  0.5044
 8471SOL    HW136872   3.201   0.694  15.224  2.1825  0.0082  1.2311
 8471SOL    HW236873   3.176   0.656  15.362 -0.2128 -1.9805 -1.4292
 8472SOL     OW36874   0.711   0.613  13.967 -0.1036 -0.2337  0.0015
 8472SOL    HW136875   0.649   0.672  14.012 -2.8069 -1.7757 -1.7444
 8472SOL    HW236876   0.753   0.669  13.901 -1.3139 -0.1659 -0.7119
 8473SOL     OW36877   1.530   4.083   8.256 -0.2312 -0.2466 -0.2046
 8473SOL    HW136878   1.443   4.116   8.277 -1.5131 -2.1524 -2.5916
 8473SOL    HW236879   1.550   4.064   8.348  0.5387 -1.0555 -0.5279
 8474SOL     OW36880   2.272   2.896   4.622  0.9835 -0.2127  0.6635
 8474SOL    HW136881   2.361   2.867   4.641  0.8429  0.3354  2.1362
 8474SOL    HW236882   2.276   2.951   4.544  1.5887  0.7001  1.3464
 8475SOL     OW36883   4.127   1.696   7.336 -0.5561  0.1529  0.0479
 8475SOL    HW136884   4.160   1.727   7.252  2.0531  0.9232  1.3521
 8475SOL    HW236885   4.105   1.780   7.377  0.8000  0.1430  0.8252
 8476SOL     OW36886   0.242   4.449   8.173  0.2606  0.6199 -0.2865
 8476SOL    HW136887   0.267   4.526   8.224  1.5678 -0.3908  0.5804
 8476SOL    HW236888   0.266   4.383   8.237 -0.2456  1.2857  0.5874
 8477SOL     OW36889   0.473   4.010  17.340 -0.2859 -0.5408 -1.0387
 8477SOL    HW136890   0.481   3.985  17.248 -0.1290 -0.1367 -1.1336
 8477SOL    HW236891   0.377   4.007  17.351 -0.3705  2.8743 -0.8366
 8478SOL     OW36892   3.723   2.924   3.692  0.3099  0.2855 -0.1646
 8478SOL    HW136893   3.773   2.874   3.626  0.3740  0.6659 -0.4008
 8478SOL    HW236894   3.645   2.869   3.684  1.6317 -1.5855 -0.2454
 8479SOL     OW36895   0.309   2.088   5.569 -0.2266  0.0848 -0.0363
 8479SOL    HW136896   0.240   2.144   5.534 -0.2010  0.2098  0.1144
 8479SOL    HW236897   0.360   2.149   5.621  2.5130 -2.4045  0.1814
 8480SOL     OW36898   1.451   4.631  14.371 -0.3887  0.0811  0.5744
 8480SOL    HW136899   1.532   4.600  14.331  0.5584  0.4185  2.2400
 8480SOL    HW236900   1.482   4.714  14.407  0.4269  1.3097 -2.9424
 8481SOL     OW36901   2.564   0.459  11.886 -0.7985 -0.4639 -0.9442
 8481SOL    HW136902   2.615   0.392  11.841 -0.0778  0.2092 -1.1483
 8481SOL    HW236903   2.514   0.407  11.949 -0.9347 -0.1781 -0.8140
 8482SOL     OW36904   0.636   3.291   3.370 -0.1954  0.0582  0.3880
 8482SOL    HW136905   0.660   3.219   3.428  2.3288  0.0727 -0.6346
 8482SOL    HW236906   0.701   3.291   3.300  0.1249  0.1677  0.6826
 8483SOL     OW36907   3.537   3.712  16.331 -0.2093 -0.4874 -0.1240
 8483SOL    HW136908   3.554   3.803  16.356 -0.4355 -0.3595 -0.4296
 8483SOL    HW236909   3.572   3.716  16.242  0.3681  1.6236  0.1930
 8484SOL     OW36910   4.414   2.761   8.866 -0.2363  0.1948 -0.0591
 8484SOL    HW136911   4.475   2.798   8.802  1.7254  2.0026  2.8309
 8484SOL    HW236912   4.345   2.728   8.809 -0.1083 -0.3193  0.0848
 8485SOL     OW36913   0.549   4.232   2.281 -0.7335  0.1131 -0.0151
 8485SOL    HW136914   0.561   4.137   2.281  1.5971  0.4057  2.9178
 8485SOL    HW236915   0.571   4.253   2.371  0.9790 -3.6008  0.4546
 8486SOL     OW36916   3.558   3.428  11.828  0.3931  0.2360  0.3213
 8486SOL    HW136917   3.649   3.435  11.800 -0.3209 -0.5360 -2.2024
 8486SOL    HW236918   3.558   3.378  11.909  2.4308 -0.3027 -0.0312
 8487SOL     OW36919   4.300   3.151   4.147  0.4671  0.3098 -0.0861
 8487SOL    HW136920   4.221   3.144   4.094  0.1440 -0.0627  0.4420
 8487SOL    HW236921   4.305   3.062   4.183 -2.6684  0.6792  1.2538
 8488SOL     OW36922   4.615   3.126   9.393 -0.2525  0.2781  0.0821
 8488SOL    HW136923   4.608   3.032   9.377  2.3879 -0.4359  3.1375
 8488SOL    HW236924   4.539   3.150   9.340  0.9730  1.9320 -0.9112
 8489SOL     OW36925   0.751   1.967   7.028  0.7156  0.1267 -0.1942
 8489SOL    HW136926   0.655   1.975   7.025  0.5920 -0.5328  2.0207
 8489SOL    HW236927   0.765   1.963   7.122  0.1021  0.3258 -0.0936
 8490SOL     OW36928   2.846   0.382   8.306  0.2738 -0.0877  0.0281
 8490SOL    HW136929   2.755   0.396   8.281  0.4188  1.5781  0.4072
 8490SOL    HW236930   2.891   0.415   8.228 -0.1903 -0.3664 -0.3587
 8491SOL     OW36931   0.527   1.323   8.509 -0.3418  0.3153  0.4257
 8491SOL    HW136932   0.451   1.364   8.551 -1.2697 -1.5148  0.5770
 8491SOL    HW236933   0.488   1.315   8.421  0.9760  1.1949 -0.2331
 8492SOL     OW36934   2.072   2.949   7.465 -0.2165 -0.3028 -0.2764
 8492SOL    HW136935   2.043   2.987   7.382  0.1649 -1.2788 -0.8614
 8492SOL    HW236936   2.022   3.000   7.529 -1.0556  0.0622 -1.2346
 8493SOL     OW36937   3.742   4.178  13.885 -0.3467 -0.0141  0.3006
 8493SOL    HW136938   3.763   4.092  13.848  0.4798  0.4415 -0.2950
 8493SOL    HW236939   3.743   4.230  13.804 -0.1547 -0.7976 -0.2027
 8494SOL     OW36940   1.934   3.095  14.974  0.3960  0.5350  0.0132
 8494SOL    HW136941   1.926   3.137  15.060  2.4664 -0.0988  0.5154
 8494SOL    HW236942   2.005   3.147  14.937 -0.0495  0.9810 -0.2058
 8495SOL     OW36943   3.121   1.619  16.719 -0.3862  0.2413  0.5087
 8495SOL    HW136944   3.089   1.629  16.808 -0.9783  0.3410  0.2814
 8495SOL    HW236945   3.092   1.705  16.688  1.3623  1.5531  2.5680
 8496SOL     OW36946   0.797   0.159   8.409  0.1434  0.3718  1.0126
 8496SOL    HW136947   0.830   0.185   8.324 -0.5466 -0.1918  0.5761
 8496SOL    HW236948   0.776   0.066   8.403  0.0499  0.5462 -1.1204
 8497SOL     OW36949   3.071   1.506   4.845 -0.2557 -0.2218  0.1217
 8497SOL    HW136950   2.980   1.522   4.818 -0.5422  0.7217  1.5764
 8497SOL    HW236951   3.100   1.597   4.841 -0.1740 -0.3988 -3.1128
 8498SOL     OW36952   2.183   0.197   0.888  0.0511  0.1966 -0.3141
 8498SOL    HW136953   2.270   0.231   0.906 -0.1352  0.7157 -0.3905
 8498SOL    HW236954   2.157   0.260   0.821  1.6109  0.5237 -0.6136
 8499SOL     OW36955   1.768   0.181  14.071 -0.1677 -0.6076 -0.3512
 8499SOL    HW136956   1.821   0.145  14.000 -0.7270  0.5115 -1.3435
 8499SOL    HW236957   1.796   0.119  14.138 -1.3243  0.9287  1.5387
 8500SOL     OW36958   2.874   4.262   6.767  0.4696  0.0543  0.1939
 8500SOL    HW136959   2.896   4.252   6.859 -3.0223 -1.5592  0.8713
 8500SOL    HW236960   2.778   4.260   6.768  0.4335  1.3879 -0.6706
 8501SOL     OW36961   4.470   3.672   2.577 -0.0644  0.5540 -0.3165
 8501SOL    HW136962   4.472   3.759   2.538 -0.5925  0.8037  0.2023
 8501SOL    HW236963   4.401   3.690   2.641  0.2451 -2.3375  0.8409
 8502SOL     OW36964   3.347   2.253   2.039  0.2567 -0.1928 -0.2538
 8502SOL    HW136965   3.420   2.285   2.093 -1.9128  2.6129  0.9805
 8502SOL    HW236966   3.274   2.299   2.080 -0.2736  0.2669 -1.7193
 8503SOL     OW36967   1.880   2.656   8.803 -0.5040  0.0654  0.3398
 8503SOL    HW136968   1.956   2.610   8.767 -0.8366  0.2952 -0.6677
 8503SOL    HW236969   1.828   2.659   8.722 -0.0180 -0.5329  0.0104
 8504SOL     OW36970   3.312   1.211   9.387  0.4867 -0.4432  0.2845
 8504SOL    HW136971   3.350   1.210   9.475 -1.1064 -1.9092  0.9594
 8504SOL    HW236972   3.338   1.299   9.360  0.0142 -0.3114  0.2543
 8505SOL     OW36973   2.500   4.452  15.078 -0.0186 -0.4367 -0.1770
 8505SOL    HW136974   2.412   4.417  15.059 -0.7422  0.4671  1.5153
 8505SOL    HW236975   2.480   4.527  15.134  0.1343 -0.7065  0.2370
 8506SOL     OW36976   1.690   4.450   7.441  0.3556 -0.4775 -0.1593
 8506SOL    HW136977   1.626   4.438   7.511 -1.1576 -0.7114 -1.5732
 8506SOL    HW236978   1.655   4.402   7.366 -1.4898 -1.7920  1.5401
 8507SOL     OW36979   2.019   1.065   5.304  0.3946 -0.4202 -0.4108
 8507SOL    HW136980   2.100   1.020   5.280 -1.4452 -2.6042 -2.4944
 8507SOL    HW236981   1.963   1.030   5.236  0.1785  0.5104 -0.7133
 8508SOL     OW36982   1.631   3.673  12.991 -0.6422 -0.5448  0.2495
 8508SOL    HW136983   1.614   3.754  13.041  0.4475  0.9969 -1.8710
 8508SOL    HW236984   1.714   3.699  12.951 -0.6472 -0.4588  0.2933
 8509SOL     OW36985   4.368   2.995   6.727 -0.0940  0.2425  0.4205
 8509SOL    HW136986   4.373   3.050   6.649 -1.1696 -1.0201 -0.5492
 8509SOL    HW236987   4.322   3.051   6.790 -0.8672 -1.2629  1.1862
 8510SOL     OW36988   0.578   0.424  11.699 -0.3342  0.6813  0.3581
 8510SOL    HW136989   0.614   0.401  11.784 -1.4436  0.5387  0.7896
 8510SOL    HW236990   0.627   0.506  11.698 -0.0536  0.4947 -1.7279
 8511SOL     OW36991   1.892   4.124  13.032 -0.2336  0.0003  0.0498
 8511SOL    HW136992   1.979   4.129  12.992 -0.4662 -1.6797 -0.6271
 8511SOL    HW236993   1.880   4.032  13.053  1.3124  0.0182  1.0256
 8512SOL     OW36994   2.633   0.780   3.740 -0.4769  0.1913 -0.0035
 8512SOL    HW136995   2.598   0.693   3.719 -0.0081  0.7339 -2.9287
 8512SOL    HW236996   2.645   0.776   3.835 -1.8282 -1.0055  0.1277
 8513SOL     OW36997   1.430   0.043  13.069  0.9327  0.0350 -0.7861
 8513SOL    HW136998   1.337   0.063  13.072  0.8995 -0.2183 -0.1532
 8513SOL    HW236999   1.454   0.130  13.099  2.4877 -0.8870  0.6217
 8514SOL     OW37000   1.205   0.950   4.239 -0.1100 -0.1376  0.0050
 8514SOL    HW137001   1.286   0.971   4.192  0.0676  1.7367  1.1737
 8514SOL    HW237002   1.224   1.000   4.318 -1.2699  0.3350 -0.0258
 8515SOL     OW37003   3.575   4.243   5.360 -0.3026 -0.3440  0.5730
 8515SOL    HW137004   3.655   4.213   5.316  0.1384 -1.9858  2.5372
 8515SOL    HW237005   3.585   4.204   5.446 -1.9440  0.1440  0.9808
 8516SOL     OW37006   3.476   2.487   7.574  0.4258  0.7457 -0.5765
 8516SOL    HW137007   3.429   2.538   7.641  2.2352  1.3390  0.2419
 8516SOL    HW237008   3.563   2.492   7.612  0.6955  1.1188 -1.2541
 8517SOL     OW37009   3.126   3.076   7.646  0.0085  0.2620 -0.4307
 8517SOL    HW137010   3.178   3.079   7.565  0.2589  0.5152 -0.2579
 8517SOL    HW237011   3.060   3.144   7.633 -1.6895 -1.5640 -1.4261
 8518SOL     OW37012   0.187   2.829   6.129 -0.2581 -0.4823 -0.4737
 8518SOL    HW137013   0.279   2.819   6.152  0.2673 -1.5638 -3.0931
 8518SOL    HW237014   0.162   2.740   6.107 -1.0675 -0.2685 -0.4173
 8519SOL     OW37015   2.469   4.126   1.842  0.4232  0.4768  0.1539
 8519SOL    HW137016   2.451   4.208   1.797  0.2401 -0.0612 -0.7460
 8519SOL    HW237017   2.430   4.051   1.798  3.1087 -0.7366 -0.1585
 8520SOL     OW37018   2.295   4.647   1.138 -0.2533  0.6326  0.0178
 8520SOL    HW137019   2.381   4.608   1.122 -0.3733  1.0542 -1.6405
 8520SOL    HW237020   2.312   4.678   1.227 -1.1039  2.0351 -0.3140
 8521SOL     OW37021   3.763   0.775   0.574  0.1865  0.6111 -0.2042
 8521SOL    HW137022   3.833   0.777   0.508  0.2966 -0.4657 -0.1126
 8521SOL    HW237023   3.779   0.699   0.629 -2.9871 -0.6584 -1.0361
 8522SOL     OW37024   3.965   2.178   9.630 -0.5563 -0.0267  0.4934
 8522SOL    HW137025   4.061   2.176   9.631 -0.6141 -3.2220  1.8857
 8522SOL    HW237026   3.942   2.109   9.693 -0.0205 -0.8917 -0.2574
 8523SOL     OW37027   0.533   1.726   3.074 -0.0154 -0.2676 -0.2538
 8523SOL    HW137028   0.458   1.681   3.112 -0.1580  0.2114  0.0401
 8523SOL    HW237029   0.600   1.690   3.132 -0.2631 -0.5920 -0.1671
 8524SOL     OW37030   4.164   1.102  10.509  0.0409 -0.5308 -0.3512
 8524SOL    HW137031   4.243   1.154  10.525  0.9743 -1.5618 -1.6651
 8524SOL    HW237032   4.204   1.020  10.481 -1.7160 -2.2481  2.1391
 8525SOL     OW37033   0.171   3.804   4.940  0.0382 -0.2512  0.2188
 8525SOL    HW137034   0.095   3.863   4.944 -1.9498 -2.7768 -0.6843
 8525SOL    HW237035   0.144   3.753   5.015  1.2822  0.2189  0.9898
 8526SOL     OW37036   3.376   3.057   8.552  0.5273  0.3705 -0.1343
 8526SOL    HW137037   3.407   3.131   8.500 -0.0169 -0.6378 -1.9260
 8526SOL    HW237038   3.325   3.015   8.482 -0.8650  0.4571  0.8362
 8527SOL     OW37039   0.004   0.505  14.470 -0.5170  0.2192 -0.7988
 8527SOL    HW137040   4.642   0.537  14.503 -1.1907  0.6556 -2.8926
 8527SOL    HW237041   4.690   0.427  14.427 -1.0595  0.2933 -0.4836
 8528SOL     OW37042   4.467   2.463   0.066  0.7741 -0.1944 -0.1598
 8528SOL    HW137043   4.510   2.525   0.126  0.1192  1.0453 -0.9796
 8528SOL    HW237044   4.393   2.516   0.035 -0.5674 -0.8860  1.8246
 8529SOL     OW37045   0.401   2.458  16.259 -0.1381  0.2935  0.2602
 8529SOL    HW137046   0.317   2.484  16.298 -0.5156  0.2341 -0.5195
 8529SOL    HW237047   0.444   2.411  16.331 -0.9994 -0.5418  0.2314
 8530SOL     OW37048   3.068   1.039   6.038 -0.2526 -0.3141  0.9037
 8530SOL    HW137049   3.004   0.984   6.083 -0.7402  0.5532  1.2651
 8530SOL    HW237050   3.019   1.071   5.962 -0.1335  0.8493  1.3105
 8531SOL     OW37051   1.548   2.754   0.837  0.0857  0.0575 -0.3098
 8531SOL    HW137052   1.640   2.730   0.835  0.8368  2.8926  0.9607
 8531SOL    HW237053   1.537   2.822   0.771 -1.7661 -0.4542 -0.5423
 8532SOL     OW37054   2.447   4.627  12.384 -0.7217  0.2598 -0.0787
 8532SOL    HW137055   2.384   4.614  12.313  0.2811 -0.3941 -0.8539
 8532SOL    HW237056   2.520   4.571  12.357  3.4278  3.9791  3.5323
 8533SOL     OW37057   1.887   0.830  11.064 -0.1036 -0.1000 -0.6528
 8533SOL    HW137058   1.928   0.802  11.145 -1.6455 -0.4966 -0.0082
 8533SOL    HW237059   1.848   0.742  11.055  0.2885 -0.1872 -1.5284
 8534SOL     OW37060   3.427   4.678   2.164  0.0745 -0.4351  0.8480
 8534SOL    HW137061   3.343   4.709   2.198 -0.3494  0.4041 -0.9948
 8534SOL    HW237062   3.482   0.035   2.163 -0.2841 -0.1864  0.3630
 8535SOL     OW37063   2.770   2.845   3.282 -0.0941  0.4061 -0.4301
 8535SOL    HW137064   2.835   2.775   3.276 -0.7772 -0.0770 -2.1816
 8535SOL    HW237065   2.788   2.870   3.373  1.0162 -0.7901 -0.3188
 8536SOL     OW37066   3.698   2.931   8.374 -0.9156 -0.1402 -0.1789
 8536SOL    HW137067   3.791   2.915   8.361 -0.5733  1.1834  0.7122
 8536SOL    HW237068   3.692   3.019   8.338  0.1761 -0.3250 -0.8227
 8537SOL     OW37069   0.476   1.621   2.021  0.4792  0.5178 -1.0212
 8537SOL    HW137070   0.546   1.679   1.991  0.7781  0.4222 -0.4899
 8537SOL    HW237071   0.439   1.664   2.098  0.3055 -1.8278  0.2066
 8538SOL     OW37072   3.054   2.352  15.001 -0.2652  0.1035 -0.1622
 8538SOL    HW137073   3.149   2.346  14.997 -0.1540  2.0865 -0.5834
 8538SOL    HW237074   3.050   2.426  15.063  1.5954  0.9049 -0.9956
 8539SOL     OW37075   0.995   4.357   4.367  0.1731  1.0828 -0.0364
 8539SOL    HW137076   0.996   4.350   4.272 -1.9976 -1.1729  0.1098
 8539SOL    HW237077   1.087   4.376   4.383  0.1634 -0.2931  1.5822
 8540SOL     OW37078   2.887   2.178   8.159  0.1955  0.1899  0.2690
 8540SOL    HW137079   2.865   2.093   8.198 -1.0703 -0.0971 -1.0809
 8540SOL    HW237080   2.841   2.173   8.076  2.1635  1.1443 -0.8634
 8541SOL     OW37081   3.456   3.280   8.406 -0.3513  0.3101 -0.4326
 8541SOL    HW137082   3.464   3.281   8.311 -0.1696 -2.6395 -0.4393
 8541SOL    HW237083   3.498   3.363   8.427 -2.1709  0.4211  2.8362
 8542SOL     OW37084   1.192   1.896   4.215  0.0887 -0.2918 -0.3829
 8542SOL    HW137085   1.277   1.869   4.178 -0.4166 -0.0864 -1.6642
 8542SOL    HW237086   1.153   1.809   4.213 -0.8639  0.1161  0.5334
 8543SOL     OW37087   4.660   1.980  13.120 -0.0042 -0.7952  0.4250
 8543SOL    HW137088   4.565   1.967  13.126 -0.2254  1.1576  1.1099
 8543SOL    HW237089   4.691   1.967  13.210  0.9831 -2.6460 -0.1797
 8544SOL     OW37090   0.340   0.095   8.105  0.1311  0.4287 -0.0271
 8544SOL    HW137091   0.353   0.189   8.091 -0.3863  0.6779  1.1273
 8544SOL    HW237092   0.377   0.090   8.193 -1.0183  2.5777  0.5977
 8545SOL     OW37093   4.316   0.805   9.560 -0.9567  0.1398 -0.1464
 8545SOL    HW137094   4.334   0.825   9.651 -3.4700  2.0146 -0.0626
 8545SOL    HW237095   4.369   0.866   9.508 -0.7684 -1.6923 -2.1269
 8546SOL     OW37096   2.795   4.362  16.186 -0.1050 -0.3178  0.4829
 8546SOL    HW137097   2.812   4.376  16.092 -0.6533  0.1166  0.4464
 8546SOL    HW237098   2.715   4.312  16.171 -0.9894  1.2482 -0.0933
 8547SOL     OW37099   0.906   2.064   6.284 -0.2089  0.0159 -0.4504
 8547SOL    HW137100   0.956   1.994   6.326  0.7888  0.2751 -1.2166
 8547SOL    HW237101   0.974   2.132   6.285 -1.1818  0.9769  0.7006
 8548SOL     OW37102   1.207   1.070   8.589  0.4328 -0.1711  0.6015
 8548SOL    HW137103   1.225   0.986   8.632 -1.2873 -0.7029  0.2919
 8548SOL    HW237104   1.148   1.111   8.652  0.8325  0.1116  0.7918
 8549SOL     OW37105   4.539   2.057   8.132 -0.0060 -0.4407  0.0234
 8549SOL    HW137106   4.624   2.034   8.094 -0.9001 -1.1633 -1.5179
 8549SOL    HW237107   4.536   2.150   8.153 -1.3594 -0.4630 -0.0772
 8550SOL     OW37108   1.919   2.262  15.770  0.0435 -0.1315  0.5040
 8550SOL    HW137109   1.879   2.204  15.834 -0.9383 -1.5626 -1.3812
 8550SOL    HW237110   1.891   2.347  15.803 -0.9274  0.1904 -1.1237
 8551SOL     OW37111   2.000   4.716   5.580  0.4276  0.0250 -0.6467
 8551SOL    HW137112   2.042   4.631   5.564  2.6619  0.9835  0.1332
 8551SOL    HW237113   2.068   0.058   5.556  0.7550  1.2007  3.4279
 8552SOL     OW37114   4.693   2.837   6.742 -0.1255 -0.1277 -0.9765
 8552SOL    HW137115   0.056   2.842   6.789 -0.3164 -0.2043 -0.6263
 8552SOL    HW237116   4.694   2.753   6.697 -0.2423 -1.4811  1.5061
 8553SOL     OW37117   0.007   3.251   0.335  0.2872  0.2660 -0.3522
 8553SOL    HW137118   0.035   3.280   0.249  1.1874  1.7512  0.4416
 8553SOL    HW237119   4.633   3.254   0.325 -0.0274 -1.0781  1.9760
 8554SOL     OW37120   1.740   4.715   5.151  0.1666 -0.5244 -0.0152
 8554SOL    HW137121   1.662   4.708   5.206  0.6110 -0.8689  0.5759
 8554SOL    HW237122   1.755   4.626   5.120  3.0674 -0.2053  0.4394
 8555SOL     OW37123   1.561   1.753   9.060 -0.4586  0.3727 -0.5170
 8555SOL    HW137124   1.534   1.673   9.014 -0.0699  0.2337 -0.4985
 8555SOL    HW237125   1.477   1.774   9.100 -0.8459 -0.3676 -0.9340
 8556SOL     OW37126   0.023   2.913   7.615 -0.0064  0.5056 -0.1555
 8556SOL    HW137127   0.060   2.839   7.567 -1.0611  0.3562 -0.7301
 8556SOL    HW237128   0.094   2.941   7.672 -0.0386 -0.8745  0.5579
 8557SOL     OW37129   1.568   2.007   9.342 -0.4452 -0.3825  0.1729
 8557SOL    HW137130   1.536   1.978   9.257  1.0690  1.9400 -1.1733
 8557SOL    HW237131   1.495   1.989   9.402  0.2248 -2.4109  0.3979
 8558SOL     OW37132   3.870   3.740  10.005 -0.2185  0.4907 -0.3088
 8558SOL    HW137133   3.860   3.791  10.086  0.6855  1.3567 -0.7449
 8558SOL    HW237134   3.828   3.658  10.033  0.7926 -0.7596 -2.5073
 8559SOL     OW37135   2.623   2.676   8.189  0.1989  0.1905  0.3909
 8559SOL    HW137136   2.694   2.617   8.212 -1.7083 -2.0014  0.7158
 8559SOL    HW237137   2.636   2.692   8.095  0.6510 -1.6892  0.1373
 8560SOL     OW37138   3.884   2.699   5.580  0.2874  0.2275  0.1057
 8560SOL    HW137139   3.899   2.663   5.493 -0.6586 -0.0086  0.0375
 8560SOL    HW237140   3.817   2.644   5.620  1.5009 -0.2411  1.4862
 8561SOL     OW37141   2.333   4.678   5.500 -0.0185  0.7285  0.3491
 8561SOL    HW137142   2.421   4.640   5.503 -0.2529  0.2094  0.6643
 8561SOL    HW237143   2.287   4.613   5.554  0.4102  1.7564  1.9325
 8562SOL     OW37144   0.196   2.449   7.424 -0.5977 -0.7436 -0.4127
 8562SOL    HW137145   0.169   2.537   7.451  1.4154 -0.8122  1.7741
 8562SOL    HW237146   0.149   2.430   7.343  1.8115  1.7977 -2.3647
 8563SOL     OW37147   0.496   0.233  12.300 -0.5244 -0.1857 -0.4099
 8563SOL    HW137148   0.402   0.212  12.296 -0.7870  0.6902  1.2190
 8563SOL    HW237149   0.513   0.226  12.394 -0.2347 -1.6737 -0.5742
 8564SOL     OW37150   4.168   2.092   5.083  0.6646 -0.3542  0.3356
 8564SOL    HW137151   4.208   2.085   5.170  1.8773 -3.4054 -0.4830
 8564SOL    HW237152   4.080   2.060   5.103 -1.2651  3.5803 -1.8061
 8565SOL     OW37153   2.601   3.481   4.773 -0.0714  0.5132 -0.5831
 8565SOL    HW137154   2.637   3.447   4.691  1.6162 -1.3819  0.9531
 8565SOL    HW237155   2.509   3.488   4.749  0.0944 -0.5392 -1.5284
 8566SOL     OW37156   3.720   1.332   0.748 -0.2472 -0.2348  0.4201
 8566SOL    HW137157   3.744   1.244   0.779  0.7349 -0.0241  0.2492
 8566SOL    HW237158   3.632   1.312   0.715  0.9597  0.1700 -3.0478
 8567SOL     OW37159   0.131   2.099   2.472  0.0002  0.0678 -0.0342
 8567SOL    HW137160   0.122   2.136   2.384 -0.2613  0.2629  0.0743
 8567SOL    HW237161   0.046   2.058   2.492  0.0710  1.0734  2.2942
 8568SOL     OW37162   1.877   3.350  16.649 -0.1170 -0.3102 -0.3802
 8568SOL    HW137163   1.937   3.370  16.577  1.6297  1.2417  1.5151
 8568SOL    HW237164   1.925   3.277  16.690  0.3679  0.8181  1.0508
 8569SOL     OW37165   3.732   2.845   2.617  0.4788 -0.2005 -0.3436
 8569SOL    HW137166   3.696   2.768   2.662 -0.1921  0.7577  0.7726
 8569SOL    HW237167   3.654   2.900   2.626  0.0907 -1.1280  2.0039
 8570SOL     OW37168   4.520   1.386  14.909  0.5499 -0.2308 -0.2275
 8570SOL    HW137169   4.507   1.386  14.814  0.9673 -2.0385 -0.3002
 8570SOL    HW237170   4.467   1.463  14.925  0.0808 -0.9006  1.4794
 8571SOL     OW37171   2.784   1.634  16.069 -0.4952 -0.0865  0.1334
 8571SOL    HW137172   2.854   1.570  16.080 -1.3490 -0.6952  1.8849
 8571SOL    HW237173   2.746   1.620  16.155 -0.6501  4.0215  0.7192
 8572SOL     OW37174   3.441   1.713  10.107  0.0086  0.1995 -0.4169
 8572SOL    HW137175   3.411   1.638  10.158 -2.8158  1.0881 -0.7891
 8572SOL    HW237176   3.356   1.741  10.075 -0.3062 -1.4867 -1.0493
 8573SOL     OW37177   4.197   1.937   4.840 -0.0894 -0.1819 -0.2318
 8573SOL    HW137178   4.278   1.980   4.867 -0.8496  0.6029  0.7879
 8573SOL    HW237179   4.142   1.988   4.899 -0.8629 -0.4320 -0.7323
 8574SOL     OW37180   1.114   3.298   4.607  0.1648  0.0351 -0.1352
 8574SOL    HW137181   1.051   3.348   4.658  0.6467  0.1277  0.3756
 8574SOL    HW237182   1.056   3.242   4.556 -1.2658 -0.4321  1.9930
 8575SOL     OW37183   1.885   0.269   1.245 -0.4244 -0.1469 -0.0449
 8575SOL    HW137184   1.933   0.209   1.187 -0.5078  0.1520 -0.4274
 8575SOL    HW237185   1.855   0.331   1.178  1.9518  0.8821 -0.1524
 8576SOL     OW37186   0.349   2.567  15.122 -0.1539  0.4723 -0.1803
 8576SOL    HW137187   0.406   2.626  15.172  0.0450  1.2103 -1.2720
 8576SOL    HW237188   0.277   2.631  15.121 -0.5048  0.0822  0.7322
 8577SOL     OW37189   2.708   2.379   5.588 -0.2490 -0.2886  0.2548
 8577SOL    HW137190   2.640   2.439   5.556 -0.3709 -0.5932 -0.0571
 8577SOL    HW237191   2.782   2.438   5.580  0.6140 -1.5775 -1.1674
 8578SOL     OW37192   1.487   0.247   3.132  0.0728  0.5711  0.0036
 8578SOL    HW137193   1.519   0.259   3.043  1.5593 -1.7501  0.1938
 8578SOL    HW237194   1.423   0.318   3.134 -0.0869  0.3842  2.0363
 8579SOL     OW37195   1.961   2.570   6.572 -0.6037 -0.6175 -0.5392
 8579SOL    HW137196   1.922   2.483   6.569 -1.2572 -0.3334 -0.1773
 8579SOL    HW237197   1.929   2.595   6.659 -1.4299 -0.8205 -0.7819
 8580SOL     OW37198   3.921   0.359   3.263  0.0772  0.4566  0.3314
 8580SOL    HW137199   3.982   0.422   3.226 -0.8439  0.6144 -0.9159
 8580SOL    HW237200   3.976   0.280   3.270 -0.4984  0.3806  3.7357
 8581SOL     OW37201   3.771   0.409   8.832  0.4954  0.0996  0.2666
 8581SOL    HW137202   3.848   0.375   8.787  1.3670 -1.7689  3.1554
 8581SOL    HW237203   3.824   0.449   8.901  1.5404 -0.5058 -0.1861
 8582SOL     OW37204   2.516   0.845  17.618 -0.2914 -0.5256  0.0245
 8582SOL    HW137205   2.506   0.873  17.527 -1.8497  1.1958  0.7393
 8582SOL    HW237206   2.569   0.765  17.612 -0.0081 -0.2494 -1.2532
 8583SOL     OW37207   3.488   3.688  12.871  0.7319  0.2876  0.3212
 8583SOL    HW137208   3.440   3.630  12.931 -0.1646  0.1236 -0.5512
 8583SOL    HW237209   3.580   3.692  12.897  0.5398 -1.7681  1.3380
 8584SOL     OW37210   0.597   2.738   1.844  0.0892  0.1930 -0.0404
 8584SOL    HW137211   0.552   2.763   1.764 -0.8858  2.4157  1.1961
 8584SOL    HW237212   0.601   2.645   1.822  1.1217 -0.0416  1.1796
 8585SOL     OW37213   4.360   3.928  17.317 -0.2175 -0.0124 -0.6973
 8585SOL    HW137214   4.331   3.991  17.384 -1.3353  1.2063 -2.3259
 8585SOL    HW237215   4.439   3.973  17.290  1.0886 -0.4732  2.3626
 8586SOL     OW37216   4.525   0.008   5.941 -0.3442 -0.1579  0.3719
 8586SOL    HW137217   4.449   0.047   5.982  0.0456  0.6160  0.3542
 8586SOL    HW237218   4.496   4.646   5.902  2.1238 -0.3057 -1.1685
 8587SOL     OW37219   3.693   3.704   8.700 -0.0048 -0.3559 -0.2526
 8587SOL    HW137220   3.679   3.684   8.792 -1.1381  3.9128  0.4853
 8587SOL    HW237221   3.768   3.763   8.699 -0.0068 -0.3409  0.5564
 8588SOL     OW37222   1.965   2.171  15.008 -0.3546 -0.6948  0.5680
 8588SOL    HW137223   1.929   2.126  15.085 -1.5521 -2.0530 -0.7737
 8588SOL    HW237224   1.896   2.163  14.941 -2.2921  2.2615  2.2049
 8589SOL     OW37225   1.552   2.712   3.123 -0.2765 -0.6393  0.0020
 8589SOL    HW137226   1.540   2.720   3.028 -0.2660 -0.0319  0.0501
 8589SOL    HW237227   1.534   2.800   3.156 -1.1130 -0.2753 -1.4299
 8590SOL     OW37228   0.308   4.041   9.030  0.4700 -0.2597 -0.2048
 8590SOL    HW137229   0.224   4.001   9.055 -0.1202  2.1690  1.6711
 8590SOL    HW237230   0.363   4.018   9.105 -1.5186  2.9633  2.2593
 8591SOL     OW37231   2.435   0.957   0.171  0.5214  0.3314  0.3997
 8591SOL    HW137232   2.461   0.915   0.088  2.1222  1.2427  0.4304
 8591SOL    HW237233   2.488   0.907   0.234 -0.7716 -1.3203  0.1780
 8592SOL     OW37234   1.372   3.603   5.279 -0.0097 -0.4886  0.1788
 8592SOL    HW137235   1.439   3.624   5.214 -0.4409 -1.3693 -0.5513
 8592SOL    HW237236   1.428   3.570   5.350 -1.5177 -2.9063  0.2486
 8593SOL     OW37237   3.686   0.036  11.376 -0.1999  0.1744  0.1532
 8593SOL    HW137238   3.663   4.693  11.308  0.7880 -2.3216  2.1722
 8593SOL    HW237239   3.693   4.696  11.449 -1.0193  1.8692  1.6604
 8594SOL     OW37240   0.663   2.041   6.727 -0.1995  0.1149  0.0323
 8594SOL    HW137241   0.598   2.111   6.728  1.1602  1.3926  0.2548
 8594SOL    HW237242   0.613   1.988   6.665 -2.1088  1.2146  0.6454
 8595SOL     OW37243   4.337   2.236   0.206 -0.0814 -0.0868  0.4881
 8595SOL    HW137244   4.381   2.277   0.131 -2.1388  0.4619 -0.4245
 8595SOL    HW237245   4.408   2.246   0.269 -0.0392 -2.7334  0.9027
 8596SOL     OW37246   3.026   4.361   4.823 -0.3784 -0.8959  0.3682
 8596SOL    HW137247   2.989   4.439   4.866  2.3668 -0.8214  2.5657
 8596SOL    HW237248   2.970   4.293   4.858  1.2443 -1.1219  2.5021
 8597SOL     OW37249   1.872   1.948   2.792  0.0958 -0.3749 -0.8246
 8597SOL    HW137250   1.807   1.889   2.830 -0.3303 -1.9680 -3.9871
 8597SOL    HW237251   1.815   1.989   2.727 -0.8369  0.0960  0.2915
 8598SOL     OW37252   3.756   1.253  11.395  0.3966 -0.0166  0.4775
 8598SOL    HW137253   3.761   1.316  11.323 -2.1291  1.3193  1.4833
 8598SOL    HW237254   3.697   1.186  11.360  0.4141 -0.8579  2.0321
 8599SOL     OW37255   0.453   4.373  13.351 -0.2643  0.2787 -0.3936
 8599SOL    HW137256   0.502   4.398  13.430  0.1265 -1.6894  0.0021
 8599SOL    HW237257   0.480   4.448  13.299  4.8530 -0.2467  1.4153
 8600SOL     OW37258   1.724   4.513   1.170 -0.6315 -0.1152  0.0375
 8600SOL    HW137259   1.664   4.477   1.236 -0.1710  0.4409  0.7557
 8600SOL    HW237260   1.659   4.560   1.117  2.7784  3.4319 -0.9528
 8601SOL     OW37261   0.383   4.553   8.655 -0.4065  0.1256  0.1349
 8601SOL    HW137262   0.427   4.614   8.714 -0.1685 -1.7515  1.8884
 8601SOL    HW237263   0.433   4.474   8.675  1.6308  1.5084  0.4655
 8602SOL     OW37264   4.510   2.470   8.360 -0.4133 -0.1872  0.4007
 8602SOL    HW137265   4.484   2.414   8.287 -0.2265 -0.1023  0.2683
 8602SOL    HW237266   4.572   2.534   8.325 -0.7794 -1.3010 -2.3260
 8603SOL     OW37267   0.865   4.661   2.646 -0.3185  0.1805  0.8726
 8603SOL    HW137268   0.867   4.612   2.728 -1.8353 -1.2438  0.0685
 8603SOL    HW237269   0.949   4.706   2.640  0.2622 -1.0297 -0.1323
 8604SOL     OW37270   1.190   2.751  14.228  0.2633  0.3487  0.5867
 8604SOL    HW137271   1.207   2.825  14.286 -0.6937 -0.4167  1.8416
 8604SOL    HW237272   1.266   2.752  14.170 -0.0821  0.7929  0.1436
 8605SOL     OW37273   2.410   0.496   2.447  0.5150 -0.3867  0.4912
 8605SOL    HW137274   2.453   0.420   2.407 -2.1226 -0.5577 -2.0308
 8605SOL    HW237275   2.348   0.460   2.510  0.4488 -1.3081 -0.0949
 8606SOL     OW37276   3.314   1.777   7.495 -0.4035 -0.7691  0.1867
 8606SOL    HW137277   3.313   1.859   7.545  1.5094 -0.3618 -0.4566
 8606SOL    HW237278   3.254   1.724   7.547  0.5199 -2.3060 -0.3069
 8607SOL     OW37279   1.891   2.279   3.385  0.6144 -0.6983 -0.3997
 8607SOL    HW137280   1.927   2.217   3.449  2.6379  2.0765  1.1463
 8607SOL    HW237281   1.968   2.336   3.379 -0.2691  0.6923  1.5340
 8608SOL     OW37282   4.457   1.666   3.549 -0.7369 -0.5743  0.7963
 8608SOL    HW137283   4.412   1.750   3.545  0.6827  0.2659  3.2307
 8608SOL    HW237284   4.430   1.640   3.637  2.0659 -0.5259  1.6582
 8609SOL     OW37285   2.425   4.715   4.347  0.0913 -0.2214 -0.0814
 8609SOL    HW137286   2.344   4.665   4.358  0.4479 -1.1549 -1.6938
 8609SOL    HW237287   2.399   0.086   4.342 -1.6395 -0.7611 -1.1136
 8610SOL     OW37288   4.309   2.530   7.606 -0.2522 -1.0108 -0.4870
 8610SOL    HW137289   4.260   2.454   7.574 -1.5194 -1.5020  2.6786
 8610SOL    HW237290   4.384   2.521   7.547  0.2536 -2.7007  0.3842
 8611SOL     OW37291   1.670   4.152  11.938 -0.0588  0.3047 -0.0728
 8611SOL    HW137292   1.658   4.152  12.033  0.4768  0.4709 -0.0051
 8611SOL    HW237293   1.729   4.078  11.922  1.1712  2.2718 -4.7200
 8612SOL     OW37294   1.558   4.619   4.102  0.8177 -0.0962 -0.3144
 8612SOL    HW137295   1.619   4.666   4.159 -0.8963  1.1812  0.4561
 8612SOL    HW237296   1.606   4.619   4.019  1.5662 -1.2273  0.1191
 8613SOL     OW37297   3.479   1.155  10.192 -0.1798 -0.1596 -0.4316
 8613SOL    HW137298   3.531   1.198  10.259 -0.8905 -1.4242  0.9352
 8613SOL    HW237299   3.388   1.161  10.221 -0.0892 -1.3925  0.1435
 8614SOL     OW37300   2.635   0.220  13.506 -0.2564 -0.1977  0.3680
 8614SOL    HW137301   2.716   0.244  13.550  0.9951  2.5925 -3.3576
 8614SOL    HW237302   2.593   0.179  13.581 -0.7781  1.8966  1.2103
 8615SOL     OW37303   4.186   1.111  11.236  0.2054 -0.1593 -0.4892
 8615SOL    HW137304   4.242   1.034  11.223  2.4925  1.3727  0.2113
 8615SOL    HW237305   4.099   1.089  11.203 -0.5631  0.3710  1.2105
 8616SOL     OW37306   0.747   3.205   2.242 -0.4200  0.0870  0.2302
 8616SOL    HW137307   0.792   3.188   2.325  1.4417  1.4555 -0.4943
 8616SOL    HW237308   0.823   3.244   2.198  0.0125 -0.9569  0.0524
 8617SOL     OW37309   3.380   3.569  12.076  0.0402 -0.0581  0.8516
 8617SOL    HW137310   3.292   3.537  12.056  0.4771 -2.3112  2.6352
 8617SOL    HW237311   3.442   3.523  12.020  0.6368 -0.4326  1.8208
 8618SOL     OW37312   3.896   0.700   3.669  0.3654 -0.1084 -0.1179
 8618SOL    HW137313   3.876   0.764   3.601 -0.3232 -0.5492 -0.3336
 8618SOL    HW237314   3.967   0.652   3.626  0.8636 -1.2650  1.9759
 8619SOL     OW37315   3.223   2.839   8.427 -0.0433  0.0623 -0.3092
 8619SOL    HW137316   3.265   2.766   8.382  0.8185  0.9008 -0.8534
 8619SOL    HW237317   3.168   2.874   8.358 -0.1648 -1.9517 -1.2200
 8620SOL     OW37318   3.487   2.099   2.684 -0.6391  0.2430  0.6514
 8620SOL    HW137319   3.502   2.133   2.772  1.2666  0.6680  0.1592
 8620SOL    HW237320   3.535   2.017   2.689 -4.3879 -1.9596  0.6190
 8621SOL     OW37321   1.848   2.310   3.120 -0.0154 -0.2462  0.0707
 8621SOL    HW137322   1.929   2.340   3.078 -0.6850  1.4833  0.0218
 8621SOL    HW237323   1.869   2.306   3.213  1.4329  0.5464 -0.2104
 8622SOL     OW37324   0.096   2.371   3.858  0.3842  0.4020 -1.2739
 8622SOL    HW137325   0.129   2.317   3.786  0.8749 -0.2988 -0.5285
 8622SOL    HW237326   0.003   2.352   3.858  0.4142  0.2353 -0.3404
 8623SOL     OW37327   3.023   3.331   0.470 -0.4038 -0.0051 -0.2054
 8623SOL    HW137328   3.097   3.332   0.409 -0.5348  3.1506 -0.3049
 8623SOL    HW237329   2.975   3.403   0.431  2.2606  1.1003 -1.4317
 8624SOL     OW37330   2.421   0.761   4.823  0.1808 -0.4411 -0.1365
 8624SOL    HW137331   2.478   0.709   4.880  3.7513  1.7551 -1.7168
 8624SOL    HW237332   2.370   0.802   4.893  0.4119 -1.1514  0.4493
 8625SOL     OW37333   1.594   1.500   2.390 -0.4678 -0.4476  0.2501
 8625SOL    HW137334   1.626   1.549   2.465 -1.9770 -1.0787  1.3093
 8625SOL    HW237335   1.580   1.409   2.417  3.0049 -1.7503 -2.3161
 8626SOL     OW37336   0.203   3.984  17.308  0.1293 -1.0506  0.1726
 8626SOL    HW137337   0.167   4.015  17.225 -1.4000 -1.3726  0.7230
 8626SOL    HW237338   0.135   3.921  17.328  0.2261 -0.9265  0.8830
 8627SOL     OW37339   0.555   4.649   2.576 -0.1718  0.0114 -0.2825
 8627SOL    HW137340   0.549   0.017   2.542  0.1939  0.8405  1.8460
 8627SOL    HW237341   0.644   4.647   2.612  0.4598 -0.4300 -1.8499
 8628SOL     OW37342   3.317   1.009   3.939  0.0659  0.1708 -0.6514
 8628SOL    HW137343   3.376   0.967   4.001 -0.4811 -0.6029 -0.6589
 8628SOL    HW237344   3.314   0.941   3.872  0.4676 -0.8466  0.3554
 8629SOL     OW37345   0.206   0.306   1.053  0.2123 -0.1612  0.6330
 8629SOL    HW137346   0.137   0.263   1.003  0.6331  1.2262 -1.1048
 8629SOL    HW237347   0.155   0.364   1.109 -0.8358 -0.6229  0.1377
 8630SOL     OW37348   3.818   1.693   6.152 -0.3262  0.2321 -0.2079
 8630SOL    HW137349   3.736   1.743   6.155  0.2421  1.1556 -0.2160
 8630SOL    HW237350   3.796   1.604   6.180  1.3007  0.2931  1.2244
 8631SOL     OW37351   2.921   4.662   4.566  0.5279 -0.3101 -0.1151
 8631SOL    HW137352   2.969   4.639   4.487  2.3818  0.0146  0.9233
 8631SOL    HW237353   2.833   4.632   4.543  0.5347 -0.0141 -0.5297
 8632SOL     OW37354   4.687   4.276   7.542  0.2174  0.0056  0.1817
 8632SOL    HW137355   4.685   4.318   7.456 -1.2778  1.0394  0.7211
 8632SOL    HW237356   4.627   4.337   7.584 -1.6012 -0.5667 -1.5891
 8633SOL     OW37357   4.563   1.103  15.747  0.4006 -0.3238 -0.1623
 8633SOL    HW137358   4.499   1.170  15.772  1.5786  0.4712  0.7135
 8633SOL    HW237359   4.507   1.036  15.708 -1.1503  1.2869 -0.7139
 8634SOL     OW37360   2.653   3.940   5.987 -0.1525 -0.6820 -0.5335
 8634SOL    HW137361   2.730   3.974   6.032  0.1610 -1.7073 -0.2915
 8634SOL    HW237362   2.594   4.015   5.975  0.0417 -0.5566 -0.7005
 8635SOL     OW37363   2.782   3.452  15.338 -0.0298 -0.6666 -0.2379
 8635SOL    HW137364   2.714   3.490  15.283 -1.2519 -0.3642  1.4710
 8635SOL    HW237365   2.836   3.420  15.265  0.7905  0.3131 -0.0593
 8636SOL     OW37366   2.823   4.595   5.183 -0.4277 -0.2509 -0.1420
 8636SOL    HW137367   2.731   4.595   5.210 -0.5759 -2.5600 -0.6313
 8636SOL    HW237368   2.822   4.621   5.091  1.7170  2.2691  0.5372
 8637SOL     OW37369   4.565   2.909   0.013 -0.2500 -0.1785  0.4232
 8637SOL    HW137370   4.570   2.881   0.105  0.0207 -0.5783  0.2872
 8637SOL    HW237371   4.477   2.940  17.680 -0.0003 -0.8553 -1.7543
 8638SOL     OW37372   4.446   4.662  13.646  0.2635 -0.8835  0.3605
 8638SOL    HW137373   4.353   4.639  13.652 -0.2449  0.6127 -1.9393
 8638SOL    HW237374   4.468   4.674  13.739  3.0886  0.0026 -0.4448
 8639SOL     OW37375   1.903   3.312   9.496 -1.0230  0.4319  0.0663
 8639SOL    HW137376   1.849   3.246   9.453 -0.2253  0.4405 -0.9274
 8639SOL    HW237377   1.837   3.357   9.550 -3.5007 -1.6569 -1.2223
 8640SOL     OW37378   2.165   3.763  11.898  0.1739  0.5991 -0.0939
 8640SOL    HW137379   2.210   3.732  11.820 -1.7134 -2.7128  0.1435
 8640SOL    HW237380   2.242   3.783  11.951  1.0365 -0.1983 -1.0475
 8641SOL     OW37381   3.797   0.045   8.860 -0.1507  0.5309 -0.2938
 8641SOL    HW137382   3.717   0.045   8.808 -1.0292  0.7098  1.0750
 8641SOL    HW237383   3.864   0.023   8.795  1.4239  1.9615  0.8428
 8642SOL     OW37384   3.891   4.520   6.924  0.2998  0.3739 -0.8175
 8642SOL    HW137385   3.953   4.528   6.997 -0.1223  0.4296 -0.4617
 8642SOL    HW237386   3.815   4.481   6.967  0.5539  1.8161  0.9529
 8643SOL     OW37387   2.979   2.577   2.955 -0.5049  0.1732 -0.1833
 8643SOL    HW137388   2.902   2.570   3.012  0.5802  0.3902  1.3292
 8643SOL    HW237389   2.946   2.576   2.866 -0.6919 -0.2682 -0.1062
 8644SOL     OW37390   2.016   4.697  10.414  0.6085 -0.1242  0.8275
 8644SOL    HW137391   1.930   4.704  10.372  1.0556 -1.6738 -0.3265
 8644SOL    HW237392   2.051   4.618  10.374 -0.3039 -1.0919  1.9229
 8645SOL     OW37393   0.653   0.460   5.844 -0.4172 -0.5114  0.1042
 8645SOL    HW137394   0.615   0.378   5.877  1.5771 -1.6679 -0.4648
 8645SOL    HW237395   0.746   0.443   5.860 -0.1771  0.1989 -0.5663
 8646SOL     OW37396   2.520   3.314   8.464  0.0001  0.6856 -0.1363
 8646SOL    HW137397   2.568   3.313   8.381 -1.8021 -1.1255 -1.1509
 8646SOL    HW237398   2.473   3.232   8.450  0.5159  0.5817 -1.2612
 8647SOL     OW37399   1.434   4.012   7.099 -0.2078 -0.1298  0.2207
 8647SOL    HW137400   1.443   3.953   7.175  1.5064 -1.2388 -0.8457
 8647SOL    HW237401   1.357   3.980   7.052 -0.3598  0.2452  0.2185
 8648SOL     OW37402   4.692   1.274   6.838  0.1802 -0.0440 -0.2687
 8648SOL    HW137403   4.713   1.191   6.797  0.5324 -1.1302  2.1256
 8648SOL    HW237404   0.056   1.317   6.854  0.7713 -1.1111 -0.5868
 8649SOL     OW37405   2.193   3.129   9.491  0.4077  0.0327  0.0070
 8649SOL    HW137406   2.125   3.133   9.424  0.9712  1.1365 -0.5072
 8649SOL    HW237407   2.179   3.041   9.526 -0.6864 -0.0906 -0.7350
 8650SOL     OW37408   3.784   1.963   2.881 -0.2131  0.0174 -0.2692
 8650SOL    HW137409   3.852   1.912   2.925 -0.6891 -0.3175  0.0753
 8650SOL    HW237410   3.739   1.993   2.960  0.8421  0.0876  0.3041
 8651SOL     OW37411   0.323   2.173  11.415  0.4383 -0.1941  0.0216
 8651SOL    HW137412   0.405   2.195  11.460 -1.0258  1.0059  2.1182
 8651SOL    HW237413   0.335   2.244  11.352  1.8020 -1.3418 -1.0076
 8652SOL     OW37414   1.176   2.824   5.227  0.3559 -0.1893  0.7073
 8652SOL    HW137415   1.242   2.790   5.287  2.1455  1.1811 -0.4828
 8652SOL    HW237416   1.094   2.796   5.266  0.0466 -2.3402 -1.5155
 8653SOL     OW37417   0.791   1.591   9.421 -0.0285 -0.4785 -0.1313
 8653SOL    HW137418   0.729   1.559   9.487 -0.9605  1.1823 -0.2122
 8653SOL    HW237419   0.775   1.685   9.422 -0.6068 -0.5222 -3.2522
 8654SOL     OW37420   0.742   4.467  14.911 -0.1065  0.4573  0.2223
 8654SOL    HW137421   0.750   4.423  14.827  0.2301  1.2259 -0.1564
 8654SOL    HW237422   0.678   4.414  14.957  0.0594 -0.5803 -0.7432
 8655SOL     OW37423   0.215   1.878   5.722  0.1748  0.8133  0.4952
 8655SOL    HW137424   0.224   1.954   5.665  0.2733 -0.0171 -0.5900
 8655SOL    HW237425   0.176   1.917   5.801 -0.4185 -0.6117  0.8973
 8656SOL     OW37426   2.845   0.846   6.106 -0.1134 -0.6456  0.0721
 8656SOL    HW137427   2.918   0.816   6.160  0.5558 -1.8087 -1.4786
 8656SOL    HW237428   2.840   0.774   6.044  1.3540 -0.5592 -0.1460
 8657SOL     OW37429   2.985   0.641   4.514  0.3396  0.5696  0.2200
 8657SOL    HW137430   3.022   0.626   4.427 -1.4931  0.7503 -0.5839
 8657SOL    HW237431   3.063   0.637   4.570  0.3091  0.6775  0.2689
 8658SOL     OW37432   0.600   3.492  17.442  0.3996  0.4230 -0.0871
 8658SOL    HW137433   0.685   3.460  17.471  0.2964  1.3783  1.2491
 8658SOL    HW237434   0.625   3.583  17.451 -1.3492  0.9934 -0.9957
 8659SOL     OW37435   4.376   1.720   4.440 -0.1626 -0.1200 -0.0595
 8659SOL    HW137436   4.409   1.755   4.357  0.1905  1.8152  0.8768
 8659SOL    HW237437   4.421   1.775   4.505  2.0185  0.1338 -1.7834
 8660SOL     OW37438   1.783   3.783   2.984 -0.1285  0.4256  0.2352
 8660SOL    HW137439   1.728   3.810   3.058  0.5450  1.2055  0.4455
 8660SOL    HW237440   1.728   3.798   2.907 -0.0709 -2.0656 -0.2860
 8661SOL     OW37441   0.271   1.119   7.269 -0.5481  0.2520 -0.4566
 8661SOL    HW137442   0.363   1.146   7.272 -0.8354  1.1645  0.1209
 8661SOL    HW237443   0.275   1.056   7.197  2.6267 -0.8651  0.6628
 8662SOL     OW37444   4.302   2.599   5.368 -0.3537  0.1359  0.2918
 8662SOL    HW137445   4.215   2.639   5.369 -1.1599 -1.6123  0.0393
 8662SOL    HW237446   4.348   2.665   5.315 -0.4838  0.7551  0.9452
 8663SOL     OW37447   0.830   0.555   7.958 -0.3599 -0.6911 -0.4543
 8663SOL    HW137448   0.853   0.517   7.874 -0.1939 -1.9758  0.1735
 8663SOL    HW237449   0.909   0.606   7.974 -0.6039  0.1751 -1.9722
 8664SOL     OW37450   3.016   1.748   6.300 -0.2045  0.1838  0.2722
 8664SOL    HW137451   2.923   1.771   6.302 -0.5967 -1.6397  2.1725
 8664SOL    HW237452   3.064   1.815   6.348  1.6162 -0.5420 -0.5599
 8665SOL     OW37453   0.559   4.637   1.716  0.1366  0.3912  0.2606
 8665SOL    HW137454   0.576   4.561   1.661  1.5959  0.3938  0.7215
 8665SOL    HW237455   0.638   4.632   1.769 -0.4023 -0.3824  0.9851
 8666SOL     OW37456   4.169   3.048   2.880 -0.0382  0.0279 -0.0802
 8666SOL    HW137457   4.090   2.997   2.861 -0.0407  1.3850 -3.7304
 8666SOL    HW237458   4.241   2.990   2.857  1.8527  2.1451  0.4824
 8667SOL     OW37459   1.150   1.185   1.332  0.4159  0.6023 -0.7513
 8667SOL    HW137460   1.136   1.155   1.242 -0.3495  0.2979 -0.5279
 8667SOL    HW237461   1.223   1.134   1.366 -0.7833 -1.9235 -1.9313
 8668SOL     OW37462   3.283   3.180   2.091 -0.4762 -0.3627 -0.2455
 8668SOL    HW137463   3.192   3.198   2.065 -0.6194  1.4536  1.5257
 8668SOL    HW237464   3.324   3.246   2.036  0.9797 -0.6721  0.4832
 8669SOL     OW37465   0.807   0.105   0.747 -0.9865 -0.8184 -0.7614
 8669SOL    HW137466   0.752   0.134   0.674 -0.8374 -0.7233 -0.8347
 8669SOL    HW237467   0.894   0.132   0.720 -1.0974  2.4283  2.0655
 8670SOL     OW37468   3.949   1.166   0.970  0.1714 -0.2521  0.0560
 8670SOL    HW137469   3.929   1.134   0.882  2.8368  0.1215 -0.6911
 8670SOL    HW237470   4.042   1.187   0.963  0.4884 -2.0795 -1.1149
 8671SOL     OW37471   4.581   4.255   4.066 -0.3427 -0.0329 -0.4206
 8671SOL    HW137472   4.495   4.252   4.107  0.0069  1.7413  0.4248
 8671SOL    HW237473   4.635   4.300   4.132 -2.4312  0.2417  1.0930
 8672SOL     OW37474   1.930   0.099  13.873 -0.4429 -0.0468  0.0585
 8672SOL    HW137475   1.915   0.173  13.813 -1.0927 -0.2226  0.0028
 8672SOL    HW237476   1.940   0.019  13.821 -1.5347  0.1713 -0.4894
 8673SOL     OW37477   2.923   1.336  16.127  0.5918 -0.7594 -0.0655
 8673SOL    HW137478   2.896   1.359  16.038  2.8262  0.7101 -0.3481
 8673SOL    HW237479   2.837   1.310  16.160 -0.4712  1.5149 -1.0440
 8674SOL     OW37480   0.634   3.731   5.016  0.1943 -0.3958 -0.5081
 8674SOL    HW137481   0.621   3.826   5.014  1.0383 -0.2047  4.0834
 8674SOL    HW237482   0.721   3.728   4.977  0.4379 -0.2097  0.0304
 8675SOL     OW37483   3.531   3.733   8.305 -0.6725  0.0232 -0.1275
 8675SOL    HW137484   3.499   3.674   8.373  1.4771  0.3369  1.1600
 8675SOL    HW237485   3.598   3.777   8.358  2.1570 -3.4159 -0.9061
 8676SOL     OW37486   3.957   1.531   1.954 -0.3113  0.1263 -0.1827
 8676SOL    HW137487   3.951   1.619   1.990  1.2545  0.3786 -0.5143
 8676SOL    HW237488   4.040   1.530   1.906 -0.4280 -1.1833 -0.3573
 8677SOL     OW37489   2.559   0.433   8.222 -0.3152 -0.4143  0.5873
 8677SOL    HW137490   2.484   0.374   8.227  0.2835 -1.3247 -1.1798
 8677SOL    HW237491   2.526   0.512   8.265  2.5369  1.4090 -0.5488
 8678SOL     OW37492   2.481   3.158   3.850  0.3507  0.1355 -0.0736
 8678SOL    HW137493   2.419   3.162   3.778  0.4979 -0.0942 -0.2152
 8678SOL    HW237494   2.474   3.062   3.858 -1.3467  0.2199 -0.5205
 8679SOL     OW37495   3.729   3.930   8.395 -0.3217  0.2096 -0.1390
 8679SOL    HW137496   3.732   4.025   8.387 -0.5470  0.2027 -0.3121
 8679SOL    HW237497   3.710   3.921   8.488 -4.5603 -0.7581 -1.1167
 8680SOL     OW37498   1.561   3.878   7.312 -0.4497 -0.1434  0.4944
 8680SOL    HW137499   1.551   3.800   7.366 -3.0713  1.1503  1.8977
 8680SOL    HW237500   1.655   3.879   7.296 -0.3394  0.5100  1.2211
 8681SOL     OW37501   2.145   3.544   3.776 -0.3045 -0.3805 -0.4618
 8681SOL    HW137502   2.238   3.556   3.757 -0.0349 -0.4807  0.7409
 8681SOL    HW237503   2.101   3.614   3.728  0.6968 -0.4424 -1.4624
 8682SOL     OW37504   2.679   3.931  14.582 -0.0993 -0.9080  0.1036
 8682SOL    HW137505   2.757   3.934  14.527 -0.7163  0.9662 -0.6937
 8682SOL    HW237506   2.607   3.951  14.522  1.7165  2.6997 -0.8998
 8683SOL     OW37507   2.366   1.164   4.857  0.0777  0.0903 -0.4048
 8683SOL    HW137508   2.315   1.117   4.791  0.9526 -3.2889  1.3566
 8683SOL    HW237509   2.303   1.169   4.928 -0.2723 -0.2793 -0.6921
 8684SOL     OW37510   2.998   0.763   3.968 -0.2735  0.0071 -0.0136
 8684SOL    HW137511   3.055   0.690   3.943 -2.2797 -1.8965  0.9308
 8684SOL    HW237512   3.058   0.837   3.960  1.9866 -1.6977  1.2427
 8685SOL     OW37513   3.598   1.583   6.402  0.1707  0.0598  0.2577
 8685SOL    HW137514   3.659   1.526   6.355 -0.1630 -0.0629 -0.0285
 8685SOL    HW237515   3.603   1.662   6.348 -1.2731 -1.2773 -1.8246
 8686SOL     OW37516   2.565   0.350   3.828  0.6376 -0.3100  0.5639
 8686SOL    HW137517   2.650   0.366   3.788 -0.4446 -0.5894 -1.8596
 8686SOL    HW237518   2.529   0.439   3.826 -1.0886 -1.0716 -2.4670
 8687SOL     OW37519   0.452   3.272   3.570 -0.0830  0.6042 -0.0201
 8687SOL    HW137520   0.513   3.332   3.527 -1.6920  1.0228 -1.7225
 8687SOL    HW237521   0.507   3.195   3.560 -0.8004  0.2586 -1.2323
 8688SOL     OW37522   0.158   0.623   0.657 -0.0559  0.0144  0.3158
 8688SOL    HW137523   0.133   0.693   0.718  3.6215 -0.0952  1.9052
 8688SOL    HW237524   0.216   0.575   0.716 -0.5677  0.1798  0.9533
 8689SOL     OW37525   1.519   2.163   4.316 -0.1636  0.2756 -0.0707
 8689SOL    HW137526   1.574   2.241   4.309 -1.7343  1.4341  0.4411
 8689SOL    HW237527   1.472   2.176   4.399 -3.9828  1.3136 -2.3669
 8690SOL     OW37528   2.343   3.006   3.256  0.5469 -0.2459  0.0442
 8690SOL    HW137529   2.332   3.057   3.175 -0.5235 -0.0837  0.2990
 8690SOL    HW237530   2.423   3.044   3.293  2.2677 -2.9048 -0.9388
 8691SOL     OW37531   2.847   2.379   4.090 -0.3658 -0.1517 -0.3185
 8691SOL    HW137532   2.836   2.287   4.113 -3.1173 -0.0527 -1.2800
 8691SOL    HW237533   2.940   2.378   4.068  0.1341  0.6318  1.8138
 8692SOL     OW37534   2.710   2.876   7.011 -0.0636  0.8774 -0.5592
 8692SOL    HW137535   2.792   2.830   7.026  0.4527  1.5227 -1.3721
 8692SOL    HW237536   2.662   2.872   7.094  0.8874 -0.3378 -0.0779
 8693SOL     OW37537   2.658   4.595   4.563  0.3600  0.6257  0.0948
 8693SOL    HW137538   2.641   4.596   4.657 -2.0500 -1.2283 -0.2960
 8693SOL    HW237539   2.637   4.687   4.548 -2.7858 -0.3567 -1.4905
 8694SOL     OW37540   4.534   1.116   7.194  0.5424  0.0328 -0.4752
 8694SOL    HW137541   4.593   1.139   7.265  1.3836  0.0296 -1.1753
 8694SOL    HW237542   4.551   1.023   7.182 -0.5058 -0.1828 -0.3355
 8695SOL     OW37543   4.398   2.113   3.127  0.5689  0.0308  0.0857
 8695SOL    HW137544   4.432   2.065   3.051 -1.6258 -0.5816 -0.4987
 8695SOL    HW237545   4.469   2.176   3.137  1.9822 -1.5708  0.3578
 8696SOL     OW37546   4.232   2.064  17.156 -0.5511 -0.2233  0.4389
 8696SOL    HW137547   4.280   2.145  17.137 -0.9670  0.8301  3.9032
 8696SOL    HW237548   4.181   2.045  17.077 -1.8510  0.3455  1.1551
 8697SOL     OW37549   1.070   2.794   1.622 -0.2776 -0.1957 -0.6755
 8697SOL    HW137550   1.046   2.763   1.535  1.2801 -1.4510 -0.6586
 8697SOL    HW237551   1.161   2.820   1.605 -1.2306  1.0837 -3.8462
 8698SOL     OW37552   2.625   3.451  10.635 -0.5458 -0.6533 -0.0119
 8698SOL    HW137553   2.644   3.393  10.709 -0.5780 -0.9014 -0.1983
 8698SOL    HW237554   2.582   3.389  10.575 -0.1337 -0.4859 -0.4790
 8699SOL     OW37555   4.045   0.700   8.564  0.0172 -0.3664 -0.4348
 8699SOL    HW137556   4.123   0.755   8.555  0.5665 -0.8613  1.2289
 8699SOL    HW237557   4.089   0.631   8.614 -0.1201  0.4235  0.7880
 8700SOL     OW37558   3.267   0.808   0.693  0.1648  0.0635 -0.2675
 8700SOL    HW137559   3.359   0.825   0.675  0.3110  0.0298  0.4525
 8700SOL    HW237560   3.237   0.899   0.686 -2.9959 -1.1033 -1.8039
 8701SOL     OW37561   0.880   0.915  11.088 -0.1390  0.1222  0.2683
 8701SOL    HW137562   0.955   0.970  11.064  0.9109 -0.6719  1.7213
 8701SOL    HW237563   0.867   0.871  11.004 -0.4726 -0.7703  0.7884
 8702SOL     OW37564   0.882   1.788   4.625 -0.5302  0.0118  0.3305
 8702SOL    HW137565   0.811   1.848   4.602 -0.1119 -0.0527 -1.1046
 8702SOL    HW237566   0.887   1.745   4.539  0.2901 -0.9874  0.8685
 8703SOL     OW37567   3.224   2.077   8.825  0.3629 -0.2282 -0.7335
 8703SOL    HW137568   3.139   2.110   8.855  0.9571  1.1173 -0.5582
 8703SOL    HW237569   3.277   2.155   8.838 -1.5591  0.4151  3.4036
 8704SOL     OW37570   3.421   0.698   4.494  0.6413  0.3032 -0.2850
 8704SOL    HW137571   3.403   0.792   4.489 -1.3916 -0.1034 -0.5775
 8704SOL    HW237572   3.348   0.664   4.443 -1.1550  1.1557  1.7060
 8705SOL     OW37573   2.245   3.633   6.277 -1.0004 -0.5419 -0.2069
 8705SOL    HW137574   2.280   3.568   6.216  1.0719 -0.7522  1.2089
 8705SOL    HW237575   2.202   3.683   6.208  1.0310 -0.4588 -1.4190
 8706SOL     OW37576   3.199   1.465   9.129 -0.3812 -0.1903 -0.0588
 8706SOL    HW137577   3.116   1.468   9.175  0.2179 -2.6960  1.1681
 8706SOL    HW237578   3.183   1.380   9.088  1.5924 -1.0637  0.9967
 8707SOL     OW37579   0.787   0.309   5.546  0.4665 -0.2022 -0.0093
 8707SOL    HW137580   0.879   0.332   5.539  0.8358 -1.7866 -0.3410
 8707SOL    HW237581   0.781   0.247   5.474  0.0421 -1.4148  1.0576
 8708SOL     OW37582   1.313   0.831   4.846 -0.7919 -0.4822 -0.1547
 8708SOL    HW137583   1.218   0.837   4.859 -0.6734 -0.2519  0.5966
 8708SOL    HW237584   1.325   0.885   4.768 -2.7891  0.4903  0.2143
 8709SOL     OW37585   1.351   3.349  15.278 -0.2762 -0.3423  0.1285
 8709SOL    HW137586   1.261   3.381  15.275 -0.6599 -1.3282  1.1675
 8709SOL    HW237587   1.364   3.320  15.188  1.6569 -2.0472  0.9567
 8710SOL     OW37588   4.178   1.751   9.849  0.9238  0.4024 -0.1023
 8710SOL    HW137589   4.158   1.657   9.845  0.7005  0.4642 -0.4597
 8710SOL    HW237590   4.256   1.755   9.905 -0.2416  0.0451  1.5321
 8711SOL     OW37591   2.846   2.768   9.542 -0.2162  0.4209  0.2652
 8711SOL    HW137592   2.859   2.820   9.622 -2.8467 -1.4990  1.8964
 8711SOL    HW237593   2.844   2.832   9.471  2.0956 -0.4407 -0.5788
 8712SOL     OW37594   1.238   0.552   8.712  0.7590  0.1630  0.2145
 8712SOL    HW137595   1.242   0.499   8.792  1.8407 -0.8683 -0.5181
 8712SOL    HW237596   1.268   0.483   8.653 -1.2872 -1.0158  0.5552
 8713SOL     OW37597   1.431   3.060  13.848 -0.6799  0.2220 -0.2070
 8713SOL    HW137598   1.406   3.027  13.761 -2.7201  0.5396  0.2461
 8713SOL    HW237599   1.526   3.052  13.848 -0.7669 -0.8379  0.1484
 8714SOL     OW37600   1.969   2.443   4.983 -0.2950 -0.0112  0.3004
 8714SOL    HW137601   1.933   2.528   5.008  0.0998  0.4354 -0.6510
 8714SOL    HW237602   2.064   2.456   4.981 -0.4786  1.6275  1.5106
 8715SOL     OW37603   2.550   3.801   9.861  0.2218 -0.4430  0.7253
 8715SOL    HW137604   2.461   3.811   9.894  0.8779  1.8479  1.7872
 8715SOL    HW237605   2.589   3.886   9.881  0.4009 -0.1672 -0.7969
 8716SOL     OW37606   0.537   4.354   6.524  0.2526  0.2896  0.3091
 8716SOL    HW137607   0.623   4.350   6.482  0.9280  2.4514  1.5313
 8716SOL    HW237608   0.561   4.294   6.594 -0.4560 -0.4474 -0.0690
 8717SOL     OW37609   0.514   3.176  11.664 -0.7113  0.4543  0.1954
 8717SOL    HW137610   0.436   3.220  11.698 -1.1671  0.1807 -0.4842
 8717SOL    HW237611   0.497   3.084  11.683 -0.9367 -0.0171 -2.2341
 8718SOL     OW37612   2.721   3.857   5.743  0.3519  0.2950  0.0725
 8718SOL    HW137613   2.685   3.936   5.703 -1.8876 -0.8397 -0.1572
 8718SOL    HW237614   2.687   3.880   5.830  1.5774  1.9780  0.1084
 8719SOL     OW37615   1.478   4.453   4.637 -0.1580 -0.6722  0.0689
 8719SOL    HW137616   1.472   4.499   4.721  0.3936 -1.9509  0.8143
 8719SOL    HW237617   1.562   4.409   4.653 -0.1082 -1.5560 -2.6081
 8720SOL     OW37618   1.566   2.697   5.178 -0.5661 -0.1512 -0.0589
 8720SOL    HW137619   1.598   2.708   5.089 -0.8419 -0.2637 -0.1724
 8720SOL    HW237620   1.514   2.617   5.168 -0.7318 -0.0580  0.0503
 8721SOL     OW37621   0.294   0.709   1.675  0.4280 -0.2385  0.0043
 8721SOL    HW137622   0.221   0.675   1.624  1.1468  0.7978 -1.7472
 8721SOL    HW237623   0.353   0.635   1.660 -1.2258 -2.0788  2.6517
 8722SOL     OW37624   0.927   3.077   5.448 -0.6871 -0.2461  0.5132
 8722SOL    HW137625   0.949   3.048   5.536  0.3293  0.2837  0.4366
 8722SOL    HW237626   0.940   2.996   5.399  1.9685  0.0136  0.8114
 8723SOL     OW37627   2.295   3.533   7.408 -0.2193 -0.4921 -0.2203
 8723SOL    HW137628   2.309   3.627   7.410  0.9439 -0.6663  0.2067
 8723SOL    HW237629   2.356   3.511   7.338 -1.5289  0.7065 -1.7136
 8724SOL     OW37630   0.533   4.327   5.872 -0.9660  0.1717  0.0066
 8724SOL    HW137631   0.542   4.308   5.779 -0.1403  1.9168 -0.2668
 8724SOL    HW237632   0.475   4.403   5.872 -1.7260 -0.4073 -0.9921
 8725SOL     OW37633   3.713   2.598   8.759 -0.3042 -0.4128 -0.6285
 8725SOL    HW137634   3.647   2.643   8.706 -0.2147 -0.5675 -0.8767
 8725SOL    HW237635   3.660   2.580   8.836 -1.0467  0.2522 -0.9868
 8726SOL     OW37636   2.343   4.534   3.552  0.3446  0.0261 -0.3558
 8726SOL    HW137637   2.357   4.481   3.474  2.3516 -0.8810  0.6050
 8726SOL    HW237638   2.256   4.512   3.585  1.1937 -2.6840  0.1499
 8727SOL     OW37639   4.517   2.643   2.728 -0.0431  0.2478 -0.2226
 8727SOL    HW137640   4.600   2.631   2.682  0.9232  0.9167  1.3448
 8727SOL    HW237641   4.465   2.688   2.662 -1.7380  0.7640  1.4733
 8728SOL     OW37642   4.043   1.888   8.241  0.4989  0.1396 -0.2993
 8728SOL    HW137643   4.003   1.810   8.204 -0.2524  0.2569  0.2653
 8728SOL    HW237644   4.112   1.846   8.292  1.7425 -0.7700 -2.7093
 8729SOL     OW37645   4.157   0.094  13.524  0.6314  0.1506 -0.2119
 8729SOL    HW137646   4.062   0.093  13.540  0.6571  4.3645  0.3554
 8729SOL    HW237647   4.184   0.075  13.614 -0.2894 -1.1267 -0.1972
 8730SOL     OW37648   4.559   1.912   2.128  0.2654  0.8991  0.3172
 8730SOL    HW137649   4.625   1.868   2.075 -1.6529 -0.0815 -1.2370
 8730SOL    HW237650   4.531   1.841   2.186 -0.6790  0.6754 -0.4125
 8731SOL     OW37651   3.395   4.309   7.606 -0.6049 -0.1194 -0.6289
 8731SOL    HW137652   3.330   4.344   7.546  0.3655 -0.1482 -1.6963
 8731SOL    HW237653   3.466   4.373   7.604  0.8482 -1.6607  1.3580
 8732SOL     OW37654   0.611   1.464   9.567  0.3505  0.2271 -0.1252
 8732SOL    HW137655   0.590   1.426   9.481 -0.3013 -1.2194  0.6560
 8732SOL    HW237656   0.526   1.448   9.609  0.3539 -0.3237 -0.3224
 8733SOL     OW37657   3.895   2.204   9.369  0.6084 -0.3265  0.1238
 8733SOL    HW137658   3.903   2.208   9.464 -1.1062 -1.2972  0.3009
 8733SOL    HW237659   3.806   2.234   9.353  0.6005  0.5767  1.8857
 8734SOL     OW37660   4.544   3.316   0.013 -0.9681 -0.2807  0.0274
 8734SOL    HW137661   4.474   3.379   0.035  0.4908  1.9462 -1.6498
 8734SOL    HW237662   4.520   3.234   0.056 -2.5944  1.4031  2.3385
 8735SOL     OW37663   0.744   1.635  12.881  0.6427 -0.0503 -0.0119
 8735SOL    HW137664   0.791   1.705  12.927  0.9495  0.2208 -0.7345
 8735SOL    HW237665   0.778   1.644  12.792 -0.6462  2.4343 -0.2259
 8736SOL     OW37666   3.617   0.073   2.626 -0.0425 -0.1128  0.4616
 8736SOL    HW137667   3.573   0.158   2.623 -3.0213 -1.7081 -0.8067
 8736SOL    HW237668   3.665   0.086   2.544  0.7034  2.3599  1.2898
 8737SOL     OW37669   3.301   0.474   7.269 -0.0251 -0.0716  0.5355
 8737SOL    HW137670   3.374   0.510   7.318  1.4322  1.1645 -2.5320
 8737SOL    HW237671   3.307   0.378   7.269 -2.0788 -0.2052 -1.4071
 8738SOL     OW37672   4.110   4.513   3.238  0.0580 -0.3453  0.2231
 8738SOL    HW137673   4.180   4.560   3.192  0.2266 -0.4085  0.4140
 8738SOL    HW237674   4.111   4.423   3.205 -0.6924 -0.4131  0.4011
 8739SOL     OW37675   3.738   3.237   4.367 -0.1408  0.4014 -0.7818
 8739SOL    HW137676   3.714   3.288   4.290  0.6132  0.8654 -0.7134
 8739SOL    HW237677   3.769   3.301   4.431 -1.1837  0.5582 -0.4257
 8740SOL     OW37678   3.850   2.973   4.982 -0.1607 -0.4463 -0.1058
 8740SOL    HW137679   3.875   2.888   4.946  1.4684  0.6649 -1.5849
 8740SOL    HW237680   3.768   2.989   4.934  0.6810 -0.3072 -1.5116
 8741SOL     OW37681   2.323   3.034   5.214  0.6531  0.2900  0.2647
 8741SOL    HW137682   2.309   3.042   5.308  3.0294  1.8140  0.4957
 8741SOL    HW237683   2.335   2.940   5.203  0.5732  0.3417 -0.2796
 8742SOL     OW37684   0.851   0.106   8.824 -0.3527  0.0423  0.2371
 8742SOL    HW137685   0.818   0.108   8.914  1.1597 -0.4610  0.8095
 8742SOL    HW237686   0.889   0.018   8.820 -1.5659 -0.4250 -1.1414
 8743SOL     OW37687   1.627   0.984  10.712 -0.3979 -0.3096  0.0001
 8743SOL    HW137688   1.601   1.072  10.683  0.4284 -0.5099 -1.3260
 8743SOL    HW237689   1.704   1.009  10.763 -0.1028 -2.3976  0.5586
 8744SOL     OW37690   3.247   0.870   9.556 -0.4128  0.5494  0.3555
 8744SOL    HW137691   3.339   0.892   9.543  0.5174 -4.9654 -1.9011
 8744SOL    HW237692   3.210   0.955   9.582 -1.0241  0.8599 -1.5574
 8745SOL     OW37693   4.313   0.752   2.859 -0.3275 -0.6932  0.2934
 8745SOL    HW137694   4.303   0.749   2.764  0.4917 -0.2167  0.1989
 8745SOL    HW237695   4.240   0.696   2.886  0.4259 -1.5065  0.6403
 8746SOL     OW37696   0.011   4.423   4.967 -0.4609  0.0665 -0.1133
 8746SOL    HW137697   0.105   4.406   4.967 -0.4570  0.1068  0.6840
 8746SOL    HW237698   4.691   4.346   4.927 -1.6725 -0.0313  1.3376
 8747SOL     OW37699   1.048   0.189   4.103 -0.3296 -0.0970 -0.0564
 8747SOL    HW137700   0.974   0.129   4.114 -0.6834  0.3555  0.0642
 8747SOL    HW237701   1.084   0.199   4.191 -0.9391 -0.2010  0.2077
 8748SOL     OW37702   3.010   1.278  13.922  0.1302  0.2825 -0.0969
 8748SOL    HW137703   2.978   1.356  13.876  0.5987  1.0848  0.9429
 8748SOL    HW237704   3.008   1.211  13.853 -0.9234  1.3868 -1.1495
 8749SOL     OW37705   1.899   1.824   2.226  1.0755  0.2107 -0.1497
 8749SOL    HW137706   1.821   1.802   2.176  0.6997  0.4040  0.3533
 8749SOL    HW237707   1.909   1.751   2.287  1.6670  2.1745  2.0792
 8750SOL     OW37708   1.396   1.426  12.932 -0.0740 -0.5376  0.1377
 8750SOL    HW137709   1.480   1.397  12.896 -0.1094  1.0600 -1.2046
 8750SOL    HW237710   1.364   1.338  12.955  0.0366 -1.0261 -1.5307
 8751SOL     OW37711   2.095   3.381   6.987  0.5082 -0.3269 -0.1142
 8751SOL    HW137712   2.143   3.448   6.939 -0.0338  0.2215  0.1090
 8751SOL    HW237713   2.073   3.427   7.068  0.9559  0.6520 -0.5503
 8752SOL     OW37714   0.662   0.821   3.403  0.1764 -0.2074 -0.3782
 8752SOL    HW137715   0.616   0.905   3.401  1.3681  0.4178 -1.4311
 8752SOL    HW237716   0.609   0.773   3.340 -1.6800 -1.6885  2.2946
 8753SOL     OW37717   1.434   1.920  15.089  0.4531  0.0388  0.1329
 8753SOL    HW137718   1.462   1.967  15.168 -2.4759  1.7875  0.1411
 8753SOL    HW237719   1.519   1.887  15.060  0.8024  0.7541  0.3492
 8754SOL     OW37720   1.533   3.761   5.555  0.1976 -0.1414  0.0998
 8754SOL    HW137721   1.555   3.835   5.499 -0.3287 -0.5253 -0.6184
 8754SOL    HW237722   1.587   3.687   5.530  1.4773 -0.0002  2.4559
 8755SOL     OW37723   3.108   4.086   6.069  0.3231 -0.3539  0.3440
 8755SOL    HW137724   3.187   4.055   6.114 -0.3902 -0.1486  1.7423
 8755SOL    HW237725   3.116   4.180   6.082  0.9019 -0.4638  0.8002
 8756SOL     OW37726   1.350   3.718   4.261 -0.4812  0.3609  0.0408
 8756SOL    HW137727   1.292   3.648   4.293  0.5420 -1.0833 -1.3007
 8756SOL    HW237728   1.285   3.767   4.211 -0.4074 -0.8007 -1.1834
 8757SOL     OW37729   3.436   1.481   0.700 -0.5276  0.0961  0.4113
 8757SOL    HW137730   3.354   1.516   0.667 -0.9800 -0.5769  0.8236
 8757SOL    HW237731   3.456   1.449   0.612 -3.5306  2.7920 -1.2291
 8758SOL     OW37732   2.557   1.907   2.393 -0.7091  0.5949 -0.0253
 8758SOL    HW137733   2.645   1.878   2.368 -0.9776  0.0495 -0.3293
 8758SOL    HW237734   2.526   1.946   2.311  0.0440 -0.4002 -0.7921
 8759SOL     OW37735   2.328   0.384   7.145 -0.0468 -0.2872 -0.1903
 8759SOL    HW137736   2.319   0.479   7.136 -0.6467 -0.3651 -0.4350
 8759SOL    HW237737   2.396   0.364   7.080 -1.1541 -1.4254 -1.0137
 8760SOL     OW37738   4.083   3.266   4.653  0.6292  0.0028  0.5505
 8760SOL    HW137739   4.054   3.177   4.634  0.5822  0.2164 -0.3889
 8760SOL    HW237740   4.161   3.289   4.602 -0.5205  0.9056 -0.8180
 8761SOL     OW37741   3.863   1.687   5.302  0.3370 -0.1234 -0.1839
 8761SOL    HW137742   3.939   1.631   5.286 -0.3763 -0.7149 -1.5162
 8761SOL    HW237743   3.862   1.685   5.397  0.3296 -2.3206 -0.2321
 8762SOL     OW37744   0.463   0.376   5.275  0.3159  0.1395  0.3392
 8762SOL    HW137745   0.379   0.384   5.229 -0.1408 -1.4851  0.8966
 8762SOL    HW237746   0.513   0.322   5.213 -0.3232  1.0859 -1.0218
 8763SOL     OW37747   1.554   2.692   7.040 -0.0416  0.1454 -0.5680
 8763SOL    HW137748   1.636   2.741   7.048 -1.2684  2.3051 -1.1266
 8763SOL    HW237749   1.589   2.603   7.031  2.4318  1.1979 -1.3130
 8764SOL     OW37750   4.019   0.307  10.565  0.7750  0.2253 -0.0494
 8764SOL    HW137751   3.996   0.380  10.623 -0.6294  0.3576 -0.7620
 8764SOL    HW237752   4.023   0.237  10.629 -0.9152  0.1233 -0.0473
 8765SOL     OW37753   2.507   4.005   5.408 -0.4086 -0.0916  0.2137
 8765SOL    HW137754   2.591   3.962   5.423 -1.0039 -1.7627 -1.2748
 8765SOL    HW237755   2.512   4.014   5.313  0.2033  0.6733  0.3089
 8766SOL     OW37756   3.470   1.746   3.441 -0.5527  0.4051  0.5266
 8766SOL    HW137757   3.507   1.833   3.454  0.7436  0.5539 -3.9755
 8766SOL    HW237758   3.474   1.710   3.529 -2.3846  0.2643  0.5483
 8767SOL     OW37759   3.173   3.954   7.575 -0.8215  0.2079  0.2833
 8767SOL    HW137760   3.141   4.030   7.527 -0.8124 -0.7017 -1.1918
 8767SOL    HW237761   3.241   3.917   7.518  1.6311  1.1357  2.6160
 8768SOL     OW37762   3.849   3.318   5.842 -0.0787  0.3506  0.1168
 8768SOL    HW137763   3.892   3.397   5.810  1.2186 -0.0672  0.8407
 8768SOL    HW237764   3.772   3.361   5.879 -2.1762 -1.3039 -2.3306
 8769SOL     OW37765   1.741   4.673   4.832  0.3528 -0.7346  0.1480
 8769SOL    HW137766   1.647   4.657   4.842  0.0096  0.5581 -0.8985
 8769SOL    HW237767   1.741   0.042   4.800  1.0459 -0.9011 -0.3396
 8770SOL     OW37768   2.735   3.906  11.531  0.4596 -0.0307 -0.0827
 8770SOL    HW137769   2.803   3.945  11.477 -1.5652 -1.2892 -3.5718
 8770SOL    HW237770   2.743   3.811  11.528  3.0099  0.1918 -0.2311
 8771SOL     OW37771   1.730   3.242   2.948 -0.1787  0.2347 -0.0237
 8771SOL    HW137772   1.722   3.320   2.893  3.5913  0.2831 -0.4799
 8771SOL    HW237773   1.704   3.284   3.030 -0.8497 -0.3769  0.0755
 8772SOL     OW37774   2.122   3.608   8.335 -0.0124 -0.0770 -0.3741
 8772SOL    HW137775   2.196   3.668   8.345  0.8740 -1.3386  0.5574
 8772SOL    HW237776   2.148   3.543   8.400  1.0456 -0.7606 -1.4991
 8773SOL     OW37777   4.401   0.764  14.861 -0.8894  0.0574  0.0383
 8773SOL    HW137778   4.390   0.738  14.953 -1.1494  1.3901  0.3828
 8773SOL    HW237779   4.481   0.816  14.855 -1.0949  0.2532 -0.9543
 8774SOL     OW37780   2.751   0.263   4.602  0.1742 -0.3715 -0.0096
 8774SOL    HW137781   2.775   0.219   4.521  2.9857  0.1444  0.5537
 8774SOL    HW237782   2.664   0.299   4.581 -0.4748 -2.2579 -0.5708
 8775SOL     OW37783   3.717   1.608   8.707  0.0860 -0.2865  0.5958
 8775SOL    HW137784   3.709   1.536   8.770 -2.0225 -0.0726  0.5459
 8775SOL    HW237785   3.668   1.575   8.632 -1.3543  2.7710  0.1798
 8776SOL     OW37786   1.476   1.649   2.202  0.5193  0.3788 -0.4504
 8776SOL    HW137787   1.526   1.592   2.261  1.8917 -0.2968 -2.2728
 8776SOL    HW237788   1.471   1.591   2.126  3.6479 -0.3234 -0.1472
 8777SOL     OW37789   2.419   1.651   8.889  0.2114 -0.4069  0.2012
 8777SOL    HW137790   2.504   1.696   8.888  0.7711 -1.3912  2.4535
 8777SOL    HW237791   2.360   1.722   8.912  0.3084 -1.0050  2.3876
 8778SOL     OW37792   0.908   2.006   8.020  0.2828 -0.1569  0.4938
 8778SOL    HW137793   0.844   1.971   8.081 -0.3142  0.5682  0.2826
 8778SOL    HW237794   0.875   2.096   8.018  0.5691 -0.0690 -0.4224
 8779SOL     OW37795   2.988   2.164   7.624  0.2382 -0.7245 -0.6615
 8779SOL    HW137796   3.058   2.201   7.678 -0.7593  0.5844 -0.2904
 8779SOL    HW237797   3.008   2.206   7.541  1.3447  2.9481  1.4622
 8780SOL     OW37798   2.310   0.074   5.935 -0.2835  0.2091  0.2495
 8780SOL    HW137799   2.385   0.031   5.895 -1.1773  0.8498 -2.1024
 8780SOL    HW237800   2.330   0.070   6.029  0.6823 -0.0864  0.0292
 8781SOL     OW37801   0.862   1.693   7.578 -0.4187 -0.8777  0.7098
 8781SOL    HW137802   0.929   1.699   7.646 -1.0924  0.7941  1.2083
 8781SOL    HW237803   0.819   1.610   7.600 -1.5882 -0.6537 -0.7547
 8782SOL     OW37804   1.573   0.737   3.160 -0.3770  0.1230 -0.0048
 8782SOL    HW137805   1.586   0.662   3.100  2.1035  1.1816 -0.8097
 8782SOL    HW237806   1.618   0.802   3.106  0.4289 -1.4471 -1.2542
 8783SOL     OW37807   3.473   1.845   5.051 -0.3504 -0.2559  0.0948
 8783SOL    HW137808   3.505   1.812   5.135  0.4066  0.8856  0.2625
 8783SOL    HW237809   3.388   1.877   5.083  0.8662  1.0270  2.0358
 8784SOL     OW37810   0.103   3.689   8.592  0.2734 -0.3679  0.6248
 8784SOL    HW137811   0.009   3.672   8.596  0.2802 -0.4439  0.4379
 8784SOL    HW237812   0.112   3.748   8.667 -0.4250 -0.5692  0.8588
 8785SOL     OW37813   3.855   0.389   7.756  0.5804  0.2091  0.0801
 8785SOL    HW137814   3.804   0.464   7.727  0.5585 -0.3536 -1.3159
 8785SOL    HW237815   3.798   0.348   7.821 -0.6523  0.0945 -1.0810
 8786SOL     OW37816   2.140   4.571  11.289  0.3117  0.3564  0.1421
 8786SOL    HW137817   2.071   4.607  11.345  0.7945  0.6156  0.5625
 8786SOL    HW237818   2.084   4.560  11.212  3.0635  0.8094 -1.9210
 8787SOL     OW37819   2.542   0.515   6.635 -0.5106 -0.7842  0.7195
 8787SOL    HW137820   2.608   0.580   6.611 -0.9937 -0.4243  0.3929
 8787SOL    HW237821   2.589   0.445   6.681  0.4690 -1.0662 -0.7066
 8788SOL     OW37822   1.400   3.217   7.653  0.2354  0.5111  0.1214
 8788SOL    HW137823   1.382   3.129   7.686  1.1016 -0.3386 -1.6662
 8788SOL    HW237824   1.473   3.244   7.708  0.7236  0.8933 -0.7140
 8789SOL     OW37825   2.936   0.075   3.903 -0.3560 -0.0428  0.5167
 8789SOL    HW137826   2.883   0.073   3.824 -1.7299  0.0526  1.4317
 8789SOL    HW237827   2.897   0.153   3.941  0.3591  0.9012 -0.7205
 8790SOL     OW37828   2.508   0.098   8.793  0.5406  0.0564 -0.2596
 8790SOL    HW137829   2.463   0.080   8.711 -1.4387  3.3595  0.1207
 8790SOL    HW237830   2.471   0.178   8.829  1.3694 -0.8011  2.5546
 8791SOL     OW37831   4.565   3.312   1.354  0.7929 -0.1144  0.0970
 8791SOL    HW137832   4.512   3.329   1.432 -1.2291 -1.5495 -0.9733
 8791SOL    HW237833   4.508   3.341   1.283 -0.3108 -2.2051  0.1121
 8792SOL     OW37834   0.061   4.642   6.125 -0.0692 -0.0848 -0.2319
 8792SOL    HW137835   0.038   4.595   6.045 -0.7046  2.2524 -1.4274
 8792SOL    HW237836   0.059   4.573   6.191  0.4374 -0.1423 -0.2803
 8793SOL     OW37837   0.757   3.712   4.736  0.5675 -0.1100 -0.0055
 8793SOL    HW137838   0.763   3.775   4.664 -1.7078 -0.1572 -0.2154
 8793SOL    HW237839   0.823   3.750   4.795  1.1607 -0.1931 -0.6218
 8794SOL     OW37840   0.619   0.960  11.181 -0.1663  0.0004  0.0376
 8794SOL    HW137841   0.705   0.988  11.150 -0.7596  0.5802 -1.1171
 8794SOL    HW237842   0.637   0.868  11.195 -1.9350 -0.0953  1.6457
 8795SOL     OW37843   1.254   0.349   2.143 -0.3704  0.1880  0.0019
 8795SOL    HW137844   1.302   0.268   2.126  0.8927  1.2256 -1.2773
 8795SOL    HW237845   1.291   0.384   2.224 -0.0298 -1.1676  0.4296
 8796SOL     OW37846   2.846   0.624   9.408  0.1531  0.3073 -0.0723
 8796SOL    HW137847   2.782   0.616   9.479 -1.1410  1.9134 -1.0444
 8796SOL    HW237848   2.802   0.692   9.356  1.8404  1.1191 -0.4242
 8797SOL     OW37849   3.258   0.297  16.817 -0.1800  0.3875 -0.3136
 8797SOL    HW137850   3.285   0.237  16.747  0.6263 -0.9883  1.1713
 8797SOL    HW237851   3.170   0.261  16.825  1.0737 -2.2709  1.6951
 8798SOL     OW37852   3.199   1.294   7.916 -0.3041 -0.1901  0.0457
 8798SOL    HW137853   3.178   1.298   8.009 -1.8109  1.4790 -0.3604
 8798SOL    HW237854   3.229   1.204   7.902  2.0339  0.1848  2.6836
 8799SOL     OW37855   3.519   2.708   1.157 -0.5976  0.5556 -0.0110
 8799SOL    HW137856   3.483   2.620   1.167 -1.9404  1.0031 -0.8039
 8799SOL    HW237857   3.578   2.713   1.232  0.6064  0.5484 -0.9510
 8800SOL     OW37858   0.037   3.749   7.657 -0.3692  0.1015  0.1287
 8800SOL    HW137859   0.068   3.682   7.595 -1.3895 -1.8508  1.7239
 8800SOL    HW237860   4.670   3.722   7.682 -0.2490 -0.4214  0.0018
 8801SOL     OW37861   3.539   1.798   8.754 -0.3555 -0.0454  0.9965
 8801SOL    HW137862   3.566   1.870   8.697  2.0492 -1.6472  0.0971
 8801SOL    HW237863   3.600   1.733   8.719 -0.6975  0.2450 -0.1497
 8802SOL     OW37864   0.889   0.621   1.134  0.0676 -0.1751 -0.0896
 8802SOL    HW137865   0.826   0.693   1.126  0.3918  0.0369 -0.7075
 8802SOL    HW237866   0.968   0.675   1.137  1.7031 -2.3608 -3.4331
 8803SOL     OW37867   1.462   3.191   9.100 -0.2029 -0.1162  0.3185
 8803SOL    HW137868   1.383   3.153   9.139 -0.6083  0.6176  0.2144
 8803SOL    HW237869   1.481   3.132   9.027  0.3070  1.4034 -0.7662
 8804SOL     OW37870   0.443   0.948   7.082  0.4857  0.2462  0.2916
 8804SOL    HW137871   0.503   1.020   7.066 -1.4846  1.5395 -1.3475
 8804SOL    HW237872   0.493   0.869   7.062 -0.1468 -0.0838  0.0096
 8805SOL     OW37873   1.714   0.092   7.552 -0.0658 -0.6302  0.2877
 8805SOL    HW137874   1.640   0.037   7.576 -0.8870  0.7977  1.0332
 8805SOL    HW237875   1.675   0.167   7.507  0.8566  1.5520  3.0705
 8806SOL     OW37876   4.458   3.482   7.296  0.0016  0.1464  0.3660
 8806SOL    HW137877   4.421   3.430   7.368 -1.6053  0.4337 -0.2746
 8806SOL    HW237878   4.500   3.415   7.241  3.0974  2.9283 -0.6965
 8807SOL     OW37879   3.626   1.290   4.263 -0.3116  0.6467  0.4052
 8807SOL    HW137880   3.715   1.295   4.298 -0.3735  0.8911  0.5310
 8807SOL    HW237881   3.624   1.195   4.246 -0.9293  0.3963  1.8694
 8808SOL     OW37882   0.115   2.040  17.369 -0.1980  0.1569 -0.0714
 8808SOL    HW137883   0.071   2.096  17.433  0.3525  0.0164  0.4297
 8808SOL    HW237884   0.058   1.964  17.366  0.7457 -0.5514 -0.2283
 8809SOL     OW37885   0.724   3.600   5.546 -0.1749 -0.0112  0.1233
 8809SOL    HW137886   0.753   3.534   5.482  2.8014  1.3478  0.0538
 8809SOL    HW237887   0.709   3.683   5.500 -1.4674  1.6525  3.5183
 8810SOL     OW37888   0.405   4.332   6.911 -0.7673  0.4627  0.7465
 8810SOL    HW137889   0.494   4.303   6.891 -0.6762  0.0161  1.8402
 8810SOL    HW237890   0.358   4.290   6.839  1.3451 -0.0139 -0.3416
 8811SOL     OW37891   4.570   0.649   2.470 -0.2478  0.1931  0.2183
 8811SOL    HW137892   4.517   0.693   2.537  0.1732  0.0648  0.6347
 8811SOL    HW237893   4.501   0.628   2.407 -2.7277  1.7196  2.3576
 8812SOL     OW37894   2.605   0.410  16.016  0.1437  0.3521 -0.0317
 8812SOL    HW137895   2.590   0.455  16.100  0.0763 -2.6784  1.5991
 8812SOL    HW237896   2.549   0.335  16.034 -0.9325  1.6046  1.8691
 8813SOL     OW37897   2.886   3.670   7.479  0.1073  0.2668 -0.2137
 8813SOL    HW137898   2.971   3.674   7.436  0.3122 -1.6243  0.0097
 8813SOL    HW237899   2.914   3.636   7.563 -1.3388 -0.3055  0.0368
 8814SOL     OW37900   4.149   2.505   2.124  0.6194  0.4753 -0.3142
 8814SOL    HW137901   4.103   2.515   2.041 -1.3392  0.4616  0.7488
 8814SOL    HW237902   4.226   2.561   2.119  1.0061 -0.1634 -1.4079
 8815SOL     OW37903   1.320   2.080   7.408  0.1623 -0.4110  0.1162
 8815SOL    HW137904   1.274   2.110   7.330  0.1397  0.9141  0.6466
 8815SOL    HW237905   1.257   2.115   7.471  0.0340  2.9489 -1.8869
 8816SOL     OW37906   3.563   3.320  11.070  0.2769  0.4987 -0.3365
 8816SOL    HW137907   3.527   3.237  11.103  0.5025  0.6451  0.2900
 8816SOL    HW237908   3.597   3.371  11.143  2.5514 -3.5905  1.5218
 8817SOL     OW37909   0.435   1.450  13.694 -0.2149  0.5138 -0.8447
 8817SOL    HW137910   0.386   1.369  13.689  0.8253 -0.2121  0.8480
 8817SOL    HW237911   0.373   1.504  13.644 -2.8766  0.5092  2.4760
 8818SOL     OW37912   0.354   1.013   1.684  0.0737 -0.3744 -0.7943
 8818SOL    HW137913   0.400   1.003   1.601  0.7504 -2.5572 -0.1416
 8818SOL    HW237914   0.341   0.922   1.708  0.6867 -0.7771 -1.9627
 8819SOL     OW37915   4.076   2.899   5.286 -0.2473  0.8212  0.1127
 8819SOL    HW137916   4.091   2.818   5.334  2.6879  1.2598 -0.0457
 8819SOL    HW237917   3.980   2.904   5.281 -0.3248 -0.0663  0.6790
 8820SOL     OW37918   1.342   2.058   2.440 -0.1208  0.4783 -0.4565
 8820SOL    HW137919   1.298   2.002   2.504  2.7418 -2.2973 -0.8725
 8820SOL    HW237920   1.294   2.050   2.358  0.1243  1.6098 -0.7055
 8821SOL     OW37921   3.325   1.946   9.857  0.2266  0.0980  0.0917
 8821SOL    HW137922   3.259   1.936   9.926  1.3514  0.5334  1.2486
 8821SOL    HW237923   3.348   1.856   9.834 -0.1478  0.3088 -1.0922
 8822SOL     OW37924   1.137   3.942   5.695  0.0159  0.5888  0.5844
 8822SOL    HW137925   1.058   3.903   5.657  1.3286 -1.2559 -0.2326
 8822SOL    HW237926   1.144   3.891   5.775  1.4587  0.2226  0.2205
 8823SOL     OW37927   2.779   3.730   6.763  1.0415  0.4937 -0.0812
 8823SOL    HW137928   2.779   3.648   6.812 -0.2571  0.5731  0.0520
 8823SOL    HW237929   2.791   3.795   6.831  1.1062  0.6055 -0.2001
 8824SOL     OW37930   2.101   3.895   7.664  0.1398 -0.4680  0.5182
 8824SOL    HW137931   2.035   3.923   7.727 -1.1932 -3.8520  0.6350
 8824SOL    HW237932   2.141   3.823   7.712  3.0553  0.4481 -0.5448
 8825SOL     OW37933   1.059   3.439   7.603 -0.0615  0.2250 -0.0866
 8825SOL    HW137934   1.001   3.407   7.534  0.9106  0.8188 -1.1824
 8825SOL    HW237935   1.061   3.533   7.584 -0.8925  0.5174  1.2691
 8826SOL     OW37936   2.778   1.455  16.571 -0.3250 -0.6100  0.2685
 8826SOL    HW137937   2.855   1.421  16.617  0.7531  0.2771 -0.8717
 8826SOL    HW237938   2.760   1.375  16.521 -1.6833  0.4487 -0.9484
 8827SOL     OW37939   2.021   2.247   8.453 -0.6748 -0.5554  0.8725
 8827SOL    HW137940   2.068   2.278   8.376 -2.3267  0.2241  0.1690
 8827SOL    HW237941   2.020   2.154   8.431 -2.1349 -0.5659  0.9755
 8828SOL     OW37942   4.423   3.579   3.409  0.1536 -0.4034 -0.1023
 8828SOL    HW137943   4.456   3.492   3.387  1.4909  0.2099 -0.5135
 8828SOL    HW237944   4.329   3.562   3.404 -0.2164  1.3960  0.7860
 8829SOL     OW37945   3.777   2.859  12.678  0.1400  0.1031  0.3595
 8829SOL    HW137946   3.797   2.791  12.741  0.8177 -2.5465 -2.7256
 8829SOL    HW237947   3.694   2.901  12.701  0.9090  1.9154 -0.1260
 8830SOL     OW37948   3.508   2.385   0.634 -0.4389  0.6538 -0.1571
 8830SOL    HW137949   3.524   2.293   0.611  0.0634  0.5786  0.5266
 8830SOL    HW237950   3.413   2.384   0.619 -0.6706 -1.1199  1.4628
 8831SOL     OW37951   3.037   1.783   5.911  0.9047 -0.0897  0.6101
 8831SOL    HW137952   3.093   1.738   5.975 -0.3636 -2.2735  0.2131
 8831SOL    HW237953   3.029   1.863   5.963 -0.2543  0.5335 -0.5341
 8832SOL     OW37954   2.577   1.730   3.767 -0.3949 -0.9541 -0.1256
 8832SOL    HW137955   2.484   1.709   3.769 -0.9655  1.5718 -0.3603
 8832SOL    HW237956   2.606   1.700   3.681 -1.0357  0.7609 -0.9294
 8833SOL     OW37957   2.406   1.478   5.023  0.6761 -0.1418  0.1657
 8833SOL    HW137958   2.316   1.445   5.022  0.6014  0.1701 -1.8610
 8833SOL    HW237959   2.417   1.497   5.116 -0.4824 -1.4828  0.5823
 8834SOL     OW37960   1.951   3.550   9.371  0.0770 -0.4267 -0.5318
 8834SOL    HW137961   1.963   3.461   9.402  4.7737  0.2213 -0.5068
 8834SOL    HW237962   1.984   3.594   9.449 -0.8621 -2.3801  0.9501
 8835SOL     OW37963   2.576   3.066   3.448  0.3218  0.0244  0.4959
 8835SOL    HW137964   2.606   3.092   3.361  0.1559 -2.6541 -0.3634
 8835SOL    HW237965   2.655   3.025   3.483  1.6054  0.8135 -1.5468
 8836SOL     OW37966   1.786   3.973   8.132 -0.4977  0.3171  0.5554
 8836SOL    HW137967   1.808   3.898   8.187  0.8926  1.6835  1.8551
 8836SOL    HW237968   1.702   4.006   8.164 -0.4200 -0.8390  1.9424
 8837SOL     OW37969   0.027   4.677   8.350  0.0619  0.3763 -0.3929
 8837SOL    HW137970   0.030   0.031   8.410 -1.7487 -0.6694  0.9903
 8837SOL    HW237971   0.109   4.634   8.375 -0.3473 -0.9440 -1.3257
 8838SOL     OW37972   4.641   4.332   0.655  0.6999 -0.1892 -0.0641
 8838SOL    HW137973   4.704   4.381   0.709  0.1978  1.1903 -0.7253
 8838SOL    HW237974   4.676   4.362   0.571  1.2407 -1.7630 -0.3978
 8839SOL     OW37975   4.039   0.079   0.365  0.2219  0.5945 -0.0725
 8839SOL    HW137976   3.992   0.019   0.308 -0.3107  0.2413  0.7324
 8839SOL    HW237977   4.103   0.032   0.419 -1.6544 -0.3957  1.2930
 8840SOL     OW37978   2.093   2.003   8.343  0.4252 -0.2051 -0.7074
 8840SOL    HW137979   2.141   2.012   8.260  1.1491 -1.0536 -0.3777
 8840SOL    HW237980   2.027   1.947   8.303 -0.3586 -0.0245  0.3234
 8841SOL     OW37981   1.322   4.159   7.382  0.2605  0.1957  0.1228
 8841SOL    HW137982   1.300   4.163   7.476 -0.5610 -0.2175 -0.0453
 8841SOL    HW237983   1.401   4.105   7.384  0.2567  0.1662 -0.9226
 8842SOL     OW37984   1.695   0.729   0.151 -0.0625 -0.6230  0.2858
 8842SOL    HW137985   1.761   0.693   0.211 -0.6199 -1.8526  0.1727
 8842SOL    HW237986   1.645   0.787   0.208 -0.3045 -1.6768  1.1580
 8843SOL     OW37987   3.832   1.784   7.225 -0.0664 -0.4518 -0.6140
 8843SOL    HW137988   3.904   1.826   7.179 -0.8235 -0.4897 -1.8509
 8843SOL    HW237989   3.782   1.859   7.257  1.1674  0.2128 -0.2592
 8844SOL     OW37990   0.534   2.804   6.805  0.0021  0.4034  0.0650
 8844SOL    HW137991   0.509   2.896   6.802  1.2543  0.7564  0.4101
 8844SOL    HW237992   0.557   2.800   6.897 -1.3385 -1.0622  0.3551
 8845SOL     OW37993   1.260   2.879  14.849  0.2659  0.2102 -0.3269
 8845SOL    HW137994   1.332   2.941  14.868  0.8632 -0.4939 -0.3033
 8845SOL    HW237995   1.277   2.836  14.765  0.7763 -1.8894  0.8552
 8846SOL     OW37996   4.551   1.809   7.104 -0.0190 -0.2574  0.0807
 8846SOL    HW137997   4.645   1.825   7.096  0.2160 -1.1406  1.2007
 8846SOL    HW237998   4.521   1.875   7.041  0.8767 -0.1710 -0.2445
 8847SOL     OW37999   1.703   3.539   7.078  0.0451 -0.0729 -0.2112
 8847SOL    HW138000   1.642   3.506   7.144 -1.6391  0.7521 -1.3529
 8847SOL    HW238001   1.680   3.481   7.005  1.1105 -1.2560  0.3948
 8848SOL     OW38002   3.939   0.382  11.146  0.2351 -0.2822 -0.2285
 8848SOL    HW138003   3.871   0.357  11.208  0.6320  0.5181  0.5351
 8848SOL    HW238004   3.925   0.477  11.144 -0.8225 -0.4877 -3.7034
 8849SOL     OW38005   0.533   4.228   8.032 -0.2716 -0.3586 -0.1264
 8849SOL    HW138006   0.501   4.249   7.945  1.0530  0.8876 -0.3243
 8849SOL    HW238007   0.611   4.175   8.014  0.9590  1.8589 -1.3630
 8850SOL     OW38008   2.927   3.190   9.616 -0.1111  0.2817 -0.4275
 8850SOL    HW138009   3.021   3.174   9.621 -0.0493  0.9109  0.3239
 8850SOL    HW238010   2.903   3.103   9.649  0.3820  0.3493  0.1136
 8851SOL     OW38011   3.760   3.753   5.923  0.0085 -0.2034 -0.4896
 8851SOL    HW138012   3.771   3.684   5.989  1.5762  0.5360  0.0103
 8851SOL    HW238013   3.734   3.705   5.845  1.6965  1.7492 -2.2434
 8852SOL     OW38014   3.981   2.659   8.954 -0.0069  0.2146 -0.1100
 8852SOL    HW138015   3.910   2.687   9.012  0.2675  2.4329 -0.8191
 8852SOL    HW238016   3.932   2.643   8.873  0.7592  0.6793 -0.6661
 8853SOL     OW38017   3.287   2.631   5.847 -0.0209 -0.0230 -0.5722
 8853SOL    HW138018   3.256   2.642   5.757  3.3558  0.9812 -1.6215
 8853SOL    HW238019   3.304   2.722   5.871  2.1891 -0.2621 -1.2025
 8854SOL     OW38020   3.987   3.702  10.741 -0.1296  0.1027 -0.3330
 8854SOL    HW138021   4.040   3.743  10.810  1.2687  1.2596 -2.1139
 8854SOL    HW238022   3.916   3.665  10.795 -0.9794  1.1141 -0.7664
 8855SOL     OW38023   3.282   2.413   5.992  0.0689  0.2016  0.3183
 8855SOL    HW138024   3.292   2.502   5.958 -1.5533  0.0685 -0.4744
 8855SOL    HW238025   3.375   2.391   5.992  0.0831  0.2632 -0.7427
 8856SOL     OW38026   3.596   3.333   3.296 -0.1152 -0.4139 -0.2125
 8856SOL    HW138027   3.587   3.427   3.307  0.6514 -0.4709  0.8761
 8856SOL    HW238028   3.613   3.298   3.384 -1.7278 -0.9370 -0.1044
 8857SOL     OW38029   0.325   4.385   2.224  0.1154 -0.4457  0.2892
 8857SOL    HW138030   0.364   4.431   2.149 -1.4498  3.0212  1.6012
 8857SOL    HW238031   0.401   4.332   2.248 -0.2788 -0.6896  1.0042
 8858SOL     OW38032   0.226   0.169   6.546  0.2396  0.3098 -0.3977
 8858SOL    HW138033   0.302   0.177   6.603 -0.0859 -1.9482  0.3519
 8858SOL    HW238034   0.166   0.220   6.600 -0.0268 -1.0910  0.6390
 8859SOL     OW38035   3.942   4.514   4.858 -0.3995  0.0340  0.0303
 8859SOL    HW138036   3.971   4.605   4.853 -0.8536  0.1129 -1.0908
 8859SOL    HW238037   3.872   4.505   4.793 -0.3475 -2.7495  0.3850
 8860SOL     OW38038   4.622   3.061   8.939  0.4402 -0.6066 -0.1124
 8860SOL    HW138039   4.689   3.073   9.007 -0.7212  1.2048  0.7386
 8860SOL    HW238040   4.645   2.976   8.901 -1.6898 -0.5770 -1.4414
 8861SOL     OW38041   4.488   0.105   5.232 -0.0752 -0.1566  0.2148
 8861SOL    HW138042   4.549   0.117   5.305 -0.4657 -1.8979  0.8083
 8861SOL    HW238043   4.508   0.177   5.172 -1.8622  0.2652  0.1189
 8862SOL     OW38044   1.688   4.675  16.760  0.0831  0.4672  0.6013
 8862SOL    HW138045   1.630   4.626  16.819 -0.8536  0.1016 -0.6137
 8862SOL    HW238046   1.685   4.620  16.682  2.2286 -0.4313  1.1505
 8863SOL     OW38047   4.619   0.552  12.994  0.4495 -0.7423 -0.5854
 8863SOL    HW138048   4.552   0.485  13.009  0.6710 -0.7164  0.5289
 8863SOL    HW238049   4.695   0.508  12.956  0.3744 -0.4547 -1.0602
 8864SOL     OW38050   1.321   1.695   5.216  0.0796  0.1816 -0.4426
 8864SOL    HW138051   1.229   1.711   5.195 -0.1696 -0.3969  0.2576
 8864SOL    HW238052   1.339   1.789   5.224  0.0705  0.0570  0.9221
 8865SOL     OW38053   3.007   2.827   1.372  0.1973 -0.0845 -0.0407
 8865SOL    HW138054   3.043   2.794   1.454 -1.8950  2.0167  1.6808
 8865SOL    HW238055   3.006   2.921   1.385 -0.7885 -0.3092  1.3937
 8866SOL     OW38056   2.946   1.869   2.670  0.1859  0.6354 -0.4114
 8866SOL    HW138057   3.028   1.844   2.626  0.3410  0.9172 -0.2828
 8866SOL    HW238058   2.889   1.799   2.639  0.8589 -1.2410  2.6264
 8867SOL     OW38059   3.965   2.071  15.297 -0.0597 -0.1094  0.5499
 8867SOL    HW138060   4.050   2.036  15.323  0.8394  0.2755 -1.8462
 8867SOL    HW238061   3.994   2.118  15.219 -0.9502  0.1125  0.3598
 8868SOL     OW38062   0.766   1.290   8.654 -0.3336  0.1327  0.1721
 8868SOL    HW138063   0.734   1.274   8.743 -0.5683  1.9534  0.4079
 8868SOL    HW238064   0.684   1.312   8.609  0.7620  0.7411 -1.4768
 8869SOL     OW38065   0.962   1.409  13.793 -0.3508 -0.0125 -0.9985
 8869SOL    HW138066   0.965   1.314  13.789  0.2006 -0.0991  1.9282
 8869SOL    HW238067   0.879   1.433  13.750  1.3592  0.6504 -3.9281
 8870SOL     OW38068   1.260   2.355   2.462 -0.1525  0.2871 -0.1705
 8870SOL    HW138069   1.279   2.262   2.451  2.4606  1.0522 -1.9714
 8870SOL    HW238070   1.185   2.355   2.402 -0.3227  0.2221  0.0403
 8871SOL     OW38071   3.720   4.183   3.706 -0.2426 -0.4348 -0.0822
 8871SOL    HW138072   3.650   4.172   3.770  0.3063 -1.0206  0.4111
 8871SOL    HW238073   3.749   4.274   3.716 -1.4670  0.0649 -1.0807
 8872SOL     OW38074   3.613   1.795   5.760 -0.2904 -0.1551  0.2343
 8872SOL    HW138075   3.610   1.866   5.824  0.2524 -0.2154  0.3266
 8872SOL    HW238076   3.664   1.828   5.686 -0.2264 -2.2904 -0.6625
 8873SOL     OW38077   0.390   4.659   6.883 -0.5455  0.3435  0.0846
 8873SOL    HW138078   0.484   4.681   6.881 -0.6982  0.9768 -0.1625
 8873SOL    HW238079   0.357   0.028   6.884 -0.8139  0.2717 -1.5438
 8874SOL     OW38080   0.446   2.364  11.643 -0.9546  0.4938 -0.3542
 8874SOL    HW138081   0.401   2.317  11.714 -0.4195  0.2470 -0.1763
 8874SOL    HW238082   0.495   2.300  11.591 -0.2605 -0.4024  1.3871
 8875SOL     OW38083   1.733   1.252   5.753 -0.2875 -0.2934 -0.2127
 8875SOL    HW138084   1.749   1.333   5.704  0.2519  0.3917  1.1073
 8875SOL    HW238085   1.824   1.222   5.763 -0.4257  0.0513  2.0355
 8876SOL     OW38086   3.862   4.574   7.626  0.3329 -0.3521  0.0651
 8876SOL    HW138087   3.902   4.571   7.712  1.1806  0.9111 -0.2783
 8876SOL    HW238088   3.853   4.669   7.628 -0.6443 -0.4083 -0.9667
 8877SOL     OW38089   3.403   3.371   7.356 -0.3672 -0.0407  0.2087
 8877SOL    HW138090   3.447   3.287   7.358 -0.3459 -0.0616 -1.3878
 8877SOL    HW238091   3.313   3.338   7.356 -0.3217 -0.1567 -0.1201
 8878SOL     OW38092   2.875   3.128   2.690 -0.1861  0.4213 -0.0750
 8878SOL    HW138093   2.792   3.169   2.666  0.2682  2.5289  1.9186
 8878SOL    HW238094   2.856   3.108   2.782  2.9266  0.0377  0.5016
 8879SOL     OW38095   0.759   1.976   8.862 -0.5078 -0.3504  0.1559
 8879SOL    HW138096   0.798   1.933   8.938 -0.3166  0.0635  0.2937
 8879SOL    HW238097   0.688   2.030   8.896 -1.3207 -1.1420 -0.3113
 8880SOL     OW38098   1.161   0.608   6.061  0.3406 -0.6000  0.1925
 8880SOL    HW138099   1.178   0.629   6.153  0.4694 -0.2691  0.0947
 8880SOL    HW238100   1.091   0.671   6.047  2.4807  1.5366 -1.0467
 8881SOL     OW38101   3.030   3.147   5.377  0.1712  0.4843 -0.0004
 8881SOL    HW138102   3.108   3.143   5.322 -1.1284  0.6293 -1.8974
 8881SOL    HW238103   3.066   3.192   5.453  0.7677 -1.4182  0.8185
 8882SOL     OW38104   4.685   2.513   4.554  0.1473 -0.1038 -0.3269
 8882SOL    HW138105   4.712   2.422   4.542 -0.9238 -0.4185 -0.3181
 8882SOL    HW238106   4.590   2.510   4.553  0.0741  2.9921 -0.4144
 8883SOL     OW38107   1.814   2.300  16.440  0.2998  0.3666  0.0795
 8883SOL    HW138108   1.849   2.234  16.379  0.7057  1.5189 -0.9382
 8883SOL    HW238109   1.883   2.366  16.441  0.9954 -0.4062  4.4362
 8884SOL     OW38110   2.977   0.736   0.726 -0.6021  0.1108 -0.1198
 8884SOL    HW138111   3.069   0.754   0.711  0.0915 -2.5159  1.0578
 8884SOL    HW238112   2.948   0.808   0.781  0.2216 -1.0161  1.7937
 8885SOL     OW38113   1.753   3.552   5.398  0.3419  0.1836  0.2506
 8885SOL    HW138114   1.672   3.501   5.405  0.7218 -0.7620 -2.0577
 8885SOL    HW238115   1.766   3.574   5.306 -0.3444  0.4053  0.2066
 8886SOL     OW38116   0.999   0.576   5.777 -0.2382  0.6478 -0.2354
 8886SOL    HW138117   1.083   0.620   5.759  0.5966 -1.8926 -2.5543
 8886SOL    HW238118   0.980   0.550   5.687  0.1381  0.1169 -0.1593
 8887SOL     OW38119   0.555   4.479   9.999 -0.0261 -0.0713 -0.5163
 8887SOL    HW138120   0.628   4.419   9.988  0.7101  0.8813 -0.8762
 8887SOL    HW238121   0.585   4.527  10.076 -0.0636 -0.4324 -0.2808
 8888SOL     OW38122   1.752   4.063   9.985  0.0309 -0.1727 -0.3634
 8888SOL    HW138123   1.672   4.050   9.934  0.1657  0.8960 -0.8519
 8888SOL    HW238124   1.794   4.145   9.962  0.0232 -1.2211 -4.2350
 8889SOL     OW38125   3.597   4.227  17.287  0.0324 -0.4464  0.2308
 8889SOL    HW138126   3.519   4.257  17.242 -0.3684 -1.7450  0.0571
 8889SOL    HW238127   3.623   4.148  17.239 -0.4430 -0.0980 -0.6044
 8890SOL     OW38128   0.333   3.845   4.060 -0.4331  0.6106 -0.2942
 8890SOL    HW138129   0.273   3.771   4.056 -2.0617  1.7052  3.6754
 8890SOL    HW238130   0.323   3.862   4.154  0.1793 -2.0689  0.2321
 8891SOL     OW38131   3.439   4.393  12.037  0.5964 -0.6832  0.5967
 8891SOL    HW138132   3.388   4.343  12.101 -0.9815 -3.0125 -2.4613
 8891SOL    HW238133   3.502   4.444  12.087 -0.4525 -0.5608  1.7983
 8892SOL     OW38134   1.165   1.388   4.559  0.0377  0.1674 -0.0020
 8892SOL    HW138135   1.091   1.351   4.607  0.2243  0.3225  0.4075
 8892SOL    HW238136   1.124   1.393   4.473 -1.7492  0.2095  0.8357
 8893SOL     OW38137   3.892   2.715   3.540 -0.5453 -0.2218 -0.4203
 8893SOL    HW138138   3.987   2.711   3.544 -0.6204 -1.2740  0.3303
 8893SOL    HW238139   3.866   2.624   3.552  2.6429 -1.0765 -0.1348
 8894SOL     OW38140   3.830   4.095  10.465 -0.3410 -0.7808 -0.0797
 8894SOL    HW138141   3.769   4.084  10.537 -0.2743 -1.8117 -0.1839
 8894SOL    HW238142   3.914   4.096  10.510  0.3232 -0.0589 -1.3113
 8895SOL     OW38143   2.405   4.666  15.800 -0.2079  0.1086 -0.0004
 8895SOL    HW138144   2.482   4.622  15.837  0.5766  0.7720 -0.8220
 8895SOL    HW238145   2.341   4.611  15.846 -0.3411  0.0924 -0.2066
 8896SOL     OW38146   2.604   3.041  17.386 -0.4103 -0.4124 -0.5819
 8896SOL    HW138147   2.523   3.077  17.422  0.8857  0.6755  1.2238
 8896SOL    HW238148   2.656   3.121  17.391 -2.1406  0.5832  1.5989
 8897SOL     OW38149   3.038   2.106   3.495  0.0622  0.5466 -0.0793
 8897SOL    HW138150   3.042   2.016   3.528  0.0715  0.5891  0.0355
 8897SOL    HW238151   3.127   2.114   3.461 -0.3692  1.4288 -0.9870
 8898SOL     OW38152   3.836   4.598   1.002  0.7313  0.4533  0.1406
 8898SOL    HW138153   3.917   4.580   1.050  1.3107  0.8670 -0.6878
 8898SOL    HW238154   3.774   4.583   1.074 -0.7433  1.6923 -0.8633
 8899SOL     OW38155   3.083   0.632   7.234 -0.5140  0.6728  0.5448
 8899SOL    HW138156   3.161   0.578   7.221 -0.9174  0.1687  0.2101
 8899SOL    HW238157   3.095   0.679   7.151 -0.3389 -3.9356 -2.0893
 8900SOL     OW38158   1.131   0.345  12.919 -0.0387 -0.1880 -0.6188
 8900SOL    HW138159   1.040   0.360  12.893 -0.7487 -0.4719  1.7387
 8900SOL    HW238160   1.162   0.430  12.949  0.5566 -0.4761 -0.4164
 8901SOL     OW38161   2.297   1.407   6.872  0.4574 -0.2679  0.2337
 8901SOL    HW138162   2.314   1.460   6.949 -1.6607 -2.2055  2.0378
 8901SOL    HW238163   2.315   1.465   6.798  0.8822 -2.9453 -1.7314
 8902SOL     OW38164   2.032   2.483   6.130  0.0073  0.2551 -0.4367
 8902SOL    HW138165   2.078   2.422   6.073 -1.1929 -0.7471 -0.3298
 8902SOL    HW238166   2.077   2.473   6.214  0.8606  0.2601 -0.8921
 8903SOL     OW38167   1.802   2.857  13.632 -0.1883  0.4650  0.1490
 8903SOL    HW138168   1.751   2.801  13.691  0.7009 -2.1333 -1.5096
 8903SOL    HW238169   1.729   2.910  13.600 -0.4803 -1.2722 -2.0874
 8904SOL     OW38170   4.058   0.103   5.962 -0.1197  0.0200 -0.1496
 8904SOL    HW138171   4.014   0.065   5.886 -0.2080 -0.5273  0.1765
 8904SOL    HW238172   4.050   0.031   6.025 -1.6981  1.6380  1.4742
 8905SOL     OW38173   4.513   2.134   1.529  0.8345  0.2371  0.6681
 8905SOL    HW138174   4.538   2.051   1.569 -2.1045 -1.2022 -0.4691
 8905SOL    HW238175   4.452   2.158   1.599  1.6316  1.8233  0.8109
 8906SOL     OW38176   3.856   4.177   2.338 -0.3222 -0.6250  0.5621
 8906SOL    HW138177   3.773   4.160   2.382 -0.6453  1.9505  0.9225
 8906SOL    HW238178   3.906   4.202   2.416 -0.1751 -1.3733  0.7078
 8907SOL     OW38179   1.738   2.906   3.970  0.2909 -0.6788 -0.8106
 8907SOL    HW138180   1.729   2.991   4.014  0.1387 -0.5087 -1.1747
 8907SOL    HW238181   1.833   2.899   3.980  0.3049  0.1867 -0.3050
 8908SOL     OW38182   2.505   3.702   8.985  0.4716  0.1769  0.3988
 8908SOL    HW138183   2.579   3.649   8.955  0.8043  1.7142 -1.4910
 8908SOL    HW238184   2.517   3.771   8.920 -0.5616  0.7702  0.8348
 8909SOL     OW38185   1.823   3.319  11.457  0.1849  0.4206 -0.2411
 8909SOL    HW138186   1.914   3.303  11.430 -0.0385 -2.1317  0.5255
 8909SOL    HW238187   1.834   3.276  11.541 -1.3960 -0.2446 -0.3902
 8910SOL     OW38188   3.343   4.038   3.178 -0.4868 -0.2971  0.3513
 8910SOL    HW138189   3.401   4.106   3.144 -0.4203 -1.8453 -2.6186
 8910SOL    HW238190   3.317   4.076   3.262 -0.3113 -0.7462  0.6129
 8911SOL     OW38191   2.261   3.127   6.608 -1.2530  0.1136 -0.9995
 8911SOL    HW138192   2.201   3.079   6.550 -0.9601 -0.4608 -0.8298
 8911SOL    HW238193   2.268   3.062   6.678 -1.3702  2.2492  1.0004
 8912SOL     OW38194   4.220   4.468   6.355 -0.4611 -0.0203  0.2054
 8912SOL    HW138195   4.140   4.432   6.394  0.0926 -0.2706  1.1270
 8912SOL    HW238196   4.225   4.525   6.431  0.9230  1.1915 -0.8131
 8913SOL     OW38197   2.603   3.190   9.594 -0.4532  0.0128 -0.0160
 8913SOL    HW138198   2.537   3.201   9.662 -0.2274  2.1834 -0.1466
 8913SOL    HW238199   2.650   3.273   9.604 -1.5042  0.8263 -1.8098
 8914SOL     OW38200   2.394   3.279   2.776  0.0223  0.4664  0.2362
 8914SOL    HW138201   2.446   3.199   2.768 -0.0272  0.4789 -0.1797
 8914SOL    HW238202   2.396   3.311   2.686  2.6006  1.6164  0.7029
 8915SOL     OW38203   2.541   2.189   6.048  0.5397  0.6077 -0.1933
 8915SOL    HW138204   2.592   2.172   5.969  1.1039 -1.0848  0.5469
 8915SOL    HW238205   2.611   2.184   6.113  0.6862 -1.4367 -0.5196
 8916SOL     OW38206   2.351   4.498   5.719  0.9228 -0.3445 -0.2080
 8916SOL    HW138207   2.407   4.570   5.748 -0.7384  0.6775  0.4109
 8916SOL    HW238208   2.405   4.422   5.740  0.5330 -0.6784 -0.4145
 8917SOL     OW38209   0.672   4.495  14.452  0.6472  0.2711 -0.3563
 8917SOL    HW138210   0.692   4.453  14.536  1.9560  0.2764 -0.6622
 8917SOL    HW238211   0.754   4.511  14.405  1.6552  0.6939  1.5523
 8918SOL     OW38212   1.634   4.139  11.005  0.0230  0.5566  0.3844
 8918SOL    HW138213   1.624   4.047  11.030  1.4002  0.2694 -0.1667
 8918SOL    HW238214   1.540   4.161  11.012 -0.2143 -0.8372  1.6005
 8919SOL     OW38215   0.638   3.536   6.164  0.0297 -0.4143 -0.0617
 8919SOL    HW138216   0.694   3.500   6.094  0.4657 -2.3167  1.2728
 8919SOL    HW238217   0.662   3.469   6.228  0.5065  1.0150  1.2570
 8920SOL     OW38218   4.058   3.438   2.138  0.5148  0.2101 -0.2044
 8920SOL    HW138219   4.070   3.344   2.126 -0.5296 -0.2513  2.2301
 8920SOL    HW238220   4.057   3.447   2.234  1.9289  0.0744 -0.1649
 8921SOL     OW38221   0.389   1.797   7.200  0.1981  0.5381 -0.4151
 8921SOL    HW138222   0.458   1.843   7.247 -0.0624 -0.1392  0.6316
 8921SOL    HW238223   0.352   1.740   7.268  0.1861  2.3412  1.0741
 8922SOL     OW38224   3.285   1.549   1.146  0.1757 -0.0869  0.1116
 8922SOL    HW138225   3.330   1.480   1.097  2.4251  1.4727 -0.0286
 8922SOL    HW238226   3.274   1.607   1.071 -1.1263 -3.2126 -2.1470
 8923SOL     OW38227   3.732   0.548   7.062  0.1844 -0.1138 -0.1254
 8923SOL    HW138228   3.642   0.563   7.035  0.5553 -1.5712 -2.1132
 8923SOL    HW238229   3.759   0.640   7.069 -0.7404  0.1457 -0.0243
 8924SOL     OW38230   2.849   4.114   7.985  0.4226  0.1864  0.3374
 8924SOL    HW138231   2.838   4.181   7.918 -0.4675 -0.5336 -0.2309
 8924SOL    HW238232   2.943   4.128   7.999  0.0839  2.4893  0.3503
 8925SOL     OW38233   0.461   0.893   2.702  0.4534 -0.2755  0.4195
 8925SOL    HW138234   0.441   0.847   2.620  1.4731 -0.4140  0.2513
 8925SOL    HW238235   0.549   0.929   2.689  1.0540 -1.6899  0.5477
 8926SOL     OW38236   0.145   3.997   5.540 -0.1282  0.9411 -0.0985
 8926SOL    HW138237   0.096   3.957   5.468 -0.6132  2.3101 -0.5196
 8926SOL    HW238238   0.115   3.947   5.616  1.4817  1.6558  1.0118
 8927SOL     OW38239   1.508   3.023   3.813 -0.3503 -0.2923  0.2503
 8927SOL    HW138240   1.597   2.991   3.833  0.6369  1.4586 -1.3717
 8927SOL    HW238241   1.516   3.116   3.835 -0.5166  0.6312 -3.6674
 8928SOL     OW38242   4.344   4.121  10.004  0.5456  0.3920 -0.3723
 8928SOL    HW138243   4.351   4.212  10.034  0.7246  1.1100 -2.5720
 8928SOL    HW238244   4.423   4.088  10.047  1.4494  1.1426 -1.4599
 8929SOL     OW38245   1.092   2.819   6.166 -0.2652 -0.4370 -0.1256
 8929SOL    HW138246   1.066   2.887   6.228  0.9582 -0.9240  0.9424
 8929SOL    HW238247   1.015   2.764   6.151 -0.6273  0.6750 -2.3480
 8930SOL     OW38248   1.583   1.928  15.848 -0.5803 -0.5640  0.0398
 8930SOL    HW138249   1.578   1.832  15.842 -0.0615 -0.6272  0.5433
 8930SOL    HW238250   1.503   1.952  15.802 -1.8729 -1.0039  2.0602
 8931SOL     OW38251   3.239   2.669   0.578 -0.8724  0.3541 -0.0793
 8931SOL    HW138252   3.232   2.742   0.639 -0.1471  0.0834  0.3364
 8931SOL    HW238253   3.324   2.688   0.538  1.7947 -1.6040  4.6881
 8932SOL     OW38254   1.196   3.121  16.735 -0.4421 -0.2185 -0.3495
 8932SOL    HW138255   1.120   3.096  16.683 -0.8758  0.7256 -0.1612
 8932SOL    HW238256   1.182   3.215  16.744  0.3358  0.0234 -1.7296
 8933SOL     OW38257   2.386   1.388  15.624 -0.1250  0.4299 -0.0869
 8933SOL    HW138258   2.447   1.462  15.623 -0.9629  1.1055 -0.7340
 8933SOL    HW238259   2.343   1.399  15.539 -1.5344  0.3385  0.6123
 8934SOL     OW38260   1.821   0.550  13.370 -0.3024  0.1532 -0.0177
 8934SOL    HW138261   1.874   0.615  13.417 -1.5599 -0.1423  1.8025
 8934SOL    HW238262   1.812   0.597  13.288  0.3407 -1.4680 -1.0060
 8935SOL     OW38263   1.103   2.011  16.920 -0.1176  0.1092 -0.2187
 8935SOL    HW138264   1.051   2.068  16.863 -0.4270  2.5819  2.5211
 8935SOL    HW238265   1.159   1.972  16.854 -0.5660  0.6415 -0.9213
 8936SOL     OW38266   0.516   0.613  12.327  0.1004  0.1741 -0.1237
 8936SOL    HW138267   0.551   0.534  12.368 -0.2599  1.3427  2.4703
 8936SOL    HW238268   0.552   0.622  12.239  1.1193 -1.5900  0.1212
 8937SOL     OW38269   1.201   3.772   7.788 -0.0683  0.1897 -0.1934
 8937SOL    HW138270   1.281   3.808   7.748 -1.4134  3.1037 -0.1840
 8937SOL    HW238271   1.155   3.753   7.706  2.4855  0.1628 -1.6261
 8938SOL     OW38272   3.421   2.859  10.710  0.9701  0.1998 -0.0745
 8938SOL    HW138273   3.328   2.854  10.732  0.5714 -0.4743 -1.8677
 8938SOL    HW238274   3.452   2.769  10.700  0.6518  0.2772 -1.6854
 8939SOL     OW38275   4.408   2.523   7.154 -0.7582  0.0218  0.0298
 8939SOL    HW138276   4.452   2.572   7.084 -2.0991  1.2973  0.0948
 8939SOL    HW238277   4.332   2.579   7.168 -0.5245  0.3900 -0.1617
 8940SOL     OW38278   2.902   2.681   8.730  0.0562  0.2454 -0.0400
 8940SOL    HW138279   2.873   2.680   8.821 -0.0999 -1.6907 -0.1206
 8940SOL    HW238280   2.992   2.650   8.726 -0.2638 -0.9697  2.5523
 8941SOL     OW38281   3.888   0.509  12.285  1.2367  0.0066  0.2505
 8941SOL    HW138282   3.943   0.584  12.305 -1.8596  1.9607  1.3599
 8941SOL    HW238283   3.812   0.544  12.238  1.8871 -0.5246 -1.2126
 8942SOL     OW38284   3.557   0.225   5.226  0.0436 -0.1941 -0.3809
 8942SOL    HW138285   3.624   0.177   5.274  0.3998  1.4053  0.7344
 8942SOL    HW238286   3.549   0.151   5.165 -0.0906 -2.2995  2.1851
 8943SOL     OW38287   0.557   3.499   0.062 -0.0119  0.1036  0.4061
 8943SOL    HW138288   0.481   3.555   0.048  0.2828  0.0104 -1.5522
 8943SOL    HW238289   0.514   3.422   0.025  0.0279  0.3900 -0.2506
 8944SOL     OW38290   4.430   1.433   7.999 -0.5183 -0.2310 -0.4942
 8944SOL    HW138291   4.371   1.358   8.005  1.9918 -2.1936 -0.1435
 8944SOL    HW238292   4.509   1.403   8.045  0.6218  0.2352 -2.1210
 8945SOL     OW38293   4.032   0.844   9.841 -0.2330 -0.7197 -0.1546
 8945SOL    HW138294   4.049   0.926   9.794  0.0821 -0.3945  0.5279
 8945SOL    HW238295   3.938   0.855   9.857 -0.5271 -2.5476 -0.6359
 8946SOL     OW38296   3.267   1.967   1.158  0.1780  0.1236  0.3248
 8946SOL    HW138297   3.264   2.007   1.245 -0.5387 -2.1175  1.3108
 8946SOL    HW238298   3.231   2.035   1.101 -0.4490 -1.0897 -0.6941
 8947SOL     OW38299   1.869   2.203  15.480  0.3355  0.2975  0.5073
 8947SOL    HW138300   1.826   2.251  15.551 -1.2393 -4.0047  2.4207
 8947SOL    HW238301   1.922   2.143  15.532  0.7771 -1.9893 -2.5768
 8948SOL     OW38302   0.167   1.883   3.140  1.1306  0.1675  0.3008
 8948SOL    HW138303   0.127   1.952   3.087  1.3772  0.0929  0.0197
 8948SOL    HW238304   0.112   1.806   3.121 -0.9457  2.0689 -1.4223
 8949SOL     OW38305   4.107   3.475   8.454 -0.6175  0.3928  0.4709
 8949SOL    HW138306   4.189   3.515   8.425  0.6288 -1.4224  1.5097
 8949SOL    HW238307   4.125   3.484   8.547 -0.1208  2.8949  0.1332
 8950SOL     OW38308   1.576   0.542   8.849 -0.4240  0.4588 -0.5878
 8950SOL    HW138309   1.572   0.555   8.754  0.3931  0.9914 -0.5537
 8950SOL    HW238310   1.590   0.634   8.870  1.6825 -0.3017  1.3606
 8951SOL     OW38311   0.038   3.880   2.185 -0.1332 -0.4789 -0.1311
 8951SOL    HW138312   0.047   3.793   2.223 -1.1337 -1.1511 -1.4318
 8951SOL    HW238313   0.125   3.912   2.208 -0.9278  1.7718 -0.2321
 8952SOL     OW38314   3.985   0.290   8.685  0.5217  0.0514 -0.0377
 8952SOL    HW138315   3.983   0.195   8.671 -1.7385 -0.2334  2.2057
 8952SOL    HW238316   3.970   0.326   8.597 -1.2686 -1.9494 -0.5557
 8953SOL     OW38317   3.348   1.483   8.762  0.1537  0.5645 -0.3034
 8953SOL    HW138318   3.284   1.422   8.727 -2.1460  1.4113  2.4787
 8953SOL    HW238319   3.390   1.516   8.682 -0.3224  0.5045 -0.5776
 8954SOL     OW38320   3.445   0.230   4.640  0.1183 -0.0337  0.4714
 8954SOL    HW138321   3.413   0.157   4.589  0.0030  1.0373 -0.9908
 8954SOL    HW238322   3.473   0.285   4.567 -0.1771  1.1893  1.2624
 8955SOL     OW38323   2.433   1.526   5.525  0.1708 -0.4298 -0.3463
 8955SOL    HW138324   2.387   1.450   5.489  1.1795  0.2125 -2.9200
 8955SOL    HW238325   2.508   1.483   5.567 -0.6213 -2.0800 -0.6208
 8956SOL     OW38326   4.062   2.832   9.929  0.6849 -0.4408 -0.2620
 8956SOL    HW138327   4.088   2.777   9.855  2.6826  1.9768 -1.3764
 8956SOL    HW238328   3.999   2.883   9.878  2.0140 -0.2113 -1.6797
 8957SOL     OW38329   0.812   4.153   3.185  0.0623  0.5138 -0.3851
 8957SOL    HW138330   0.773   4.195   3.262 -2.5146 -1.7787 -0.4521
 8957SOL    HW238331   0.905   4.171   3.201  0.3416 -0.5345 -0.8071
 8958SOL     OW38332   3.880   0.317   7.093 -0.5162  0.2649 -0.5578
 8958SOL    HW138333   3.853   0.409   7.093  0.2618  0.4995 -0.7704
 8958SOL    HW238334   3.834   0.281   7.169  1.1913  0.0613  0.3976
 8959SOL     OW38335   2.280   1.754   3.725 -0.0135 -0.0726 -0.0107
 8959SOL    HW138336   2.296   1.689   3.793  0.9629 -0.4490 -0.5899
 8959SOL    HW238337   2.245   1.706   3.650 -0.9354  0.8413 -0.1715
 8960SOL     OW38338   1.320   2.537  14.542  0.0219  0.2205  0.3552
 8960SOL    HW138339   1.274   2.455  14.559 -0.6223  0.6142  0.4913
 8960SOL    HW238340   1.408   2.500  14.539 -0.1699 -0.4404  2.3655
 8961SOL     OW38341   1.208   3.862   7.039  0.1296  0.4657  0.5862
 8961SOL    HW138342   1.198   3.797   7.109 -1.9759 -1.9354 -1.9171
 8961SOL    HW238343   1.117   3.883   7.017  0.0786  1.1112  1.4215
 8962SOL     OW38344   4.059   2.504   4.194 -0.1532 -0.2447  0.3202
 8962SOL    HW138345   4.115   2.432   4.165 -1.3117 -1.4935  1.2041
 8962SOL    HW238346   4.030   2.541   4.111 -0.4907 -0.9588  0.1195
 8963SOL     OW38347   1.676   3.045   6.826  0.0117  0.6460  0.1289
 8963SOL    HW138348   1.670   3.141   6.831  0.6174  0.7297 -0.6476
 8963SOL    HW238349   1.703   3.025   6.736 -1.3166  0.5047 -0.2414
 8964SOL     OW38350   0.166   0.945   5.223 -0.3235 -0.6022 -0.0192
 8964SOL    HW138351   0.110   0.901   5.287  1.2168 -0.6270  1.3084
 8964SOL    HW238352   0.190   1.025   5.269  1.2750 -1.1500  0.1035
 8965SOL     OW38353   4.337   0.871  10.551 -0.0695 -0.2994  0.1736
 8965SOL    HW138354   4.378   0.843  10.632 -1.4564 -0.9770  0.6529
 8965SOL    HW238355   4.284   0.794  10.531 -0.9002  0.4802 -0.6260
 8966SOL     OW38356   2.939   1.000   2.330  0.2323  0.0632 -0.2582
 8966SOL    HW138357   2.868   1.065   2.331 -0.3506 -0.5705 -1.8606
 8966SOL    HW238358   2.887   0.922   2.316  0.4868 -0.1792  0.1587
 8967SOL     OW38359   3.487   2.909   7.677  0.3621  0.1384 -0.0714
 8967SOL    HW138360   3.487   2.985   7.735  2.3812 -0.0314  0.1190
 8967SOL    HW238361   3.482   2.961   7.596 -0.8491  0.8165  0.4375
 8968SOL     OW38362   3.001   3.296   7.125  0.1134  0.8047  0.5759
 8968SOL    HW138363   2.963   3.369   7.075 -1.8378 -0.3100  0.4265
 8968SOL    HW238364   2.957   3.227   7.076 -0.6390  1.3137  0.5292
 8969SOL     OW38365   3.077   2.413   8.213 -0.2291 -0.1518 -0.1300
 8969SOL    HW138366   3.139   2.354   8.256 -0.6069 -0.6288 -0.2389
 8969SOL    HW238367   2.992   2.380   8.240  0.0893 -1.4876 -0.7599
 8970SOL     OW38368   4.680   0.869   3.643  0.1261 -0.3016  0.6348
 8970SOL    HW138369   4.688   0.782   3.606  1.5510 -1.4750  3.7702
 8970SOL    HW238370   4.631   0.920   3.578  3.1023  0.6209 -0.8794
 8971SOL     OW38371   2.952   1.025   4.072 -0.1424 -0.0936  0.2417
 8971SOL    HW138372   2.925   0.934   4.064 -1.7029  0.4391 -0.4467
 8971SOL    HW238373   2.867   1.068   4.065 -0.9843 -2.0896 -1.9826
 8972SOL     OW38374   1.699   2.212   9.592 -0.0094 -0.4202 -0.2862
 8972SOL    HW138375   1.678   2.120   9.608 -2.1448 -0.0579 -0.9871
 8972SOL    HW238376   1.619   2.241   9.549  0.7621  4.5257  1.6050
 8973SOL     OW38377   1.607   1.194  12.649 -0.6314  0.0508  0.2557
 8973SOL    HW138378   1.621   1.228  12.737  0.9188 -0.0179  0.0264
 8973SOL    HW238379   1.634   1.103  12.664  2.7601  0.9436 -0.4207
 8974SOL     OW38380   4.711   1.390   1.507  0.1654  0.8954  0.0621
 8974SOL    HW138381   0.055   1.321   1.515 -0.0148  0.6424 -0.6766
 8974SOL    HW238382   0.017   1.426   1.423  3.1590  0.6705  0.9370
 8975SOL     OW38383   4.454   2.805   6.431  0.6650  0.2382  0.4592
 8975SOL    HW138384   4.517   2.755   6.483  0.1930 -0.9633 -0.1214
 8975SOL    HW238385   4.509   2.872   6.390  1.1763 -0.4517  0.0226
 8976SOL     OW38386   1.122   1.855  17.536 -0.0157  0.1277 -0.0698
 8976SOL    HW138387   1.103   1.942  17.572  0.0019  0.2555 -0.3686
 8976SOL    HW238388   1.086   1.866  17.448 -2.1608  1.6959  0.9990
 8977SOL     OW38389   2.983   3.488  10.018  0.0066  0.6037  0.4668
 8977SOL    HW138390   3.059   3.437   9.989 -1.3308 -2.8804  3.0886
 8977SOL    HW238391   2.936   3.476   9.935  1.1410  0.9801 -0.2437
 8978SOL     OW38392   1.504   2.764   8.544  0.4035  0.2772 -0.3461
 8978SOL    HW138393   1.458   2.768   8.460  1.3966  1.7588 -0.8130
 8978SOL    HW238394   1.491   2.852   8.579  0.1732  0.0182  0.2196
 8979SOL     OW38395   2.717   1.548   7.040 -0.4729  0.3195 -0.4164
 8979SOL    HW138396   2.800   1.504   7.024 -1.3856 -0.9377 -1.6867
 8979SOL    HW238397   2.732   1.636   7.004  2.8985 -0.3734 -0.6594
 8980SOL     OW38398   2.985   3.703  12.118 -0.0046 -0.5188 -0.0280
 8980SOL    HW138399   2.977   3.746  12.032 -1.4252  1.5443  1.1283
 8980SOL    HW238400   2.995   3.776  12.179  1.9137 -0.3608 -0.5436
 8981SOL     OW38401   2.996   0.587  10.702 -0.4580 -0.0213 -0.3052
 8981SOL    HW138402   3.087   0.593  10.730 -0.0523  1.6322 -2.0132
 8981SOL    HW238403   3.009   0.541  10.619 -3.2213 -0.7253 -0.3485
 8982SOL     OW38404   3.843   0.916   7.067 -0.1800 -0.3383 -0.7504
 8982SOL    HW138405   3.909   0.966   7.115 -0.5358 -1.2928  0.7123
 8982SOL    HW238406   3.767   0.968   7.091 -1.5595 -0.8848 -3.8887
 8983SOL     OW38407   2.557   4.544   6.600  0.2920  0.3543  0.0474
 8983SOL    HW138408   2.488   4.494   6.556  0.3946  0.1477  0.1189
 8983SOL    HW238409   2.511   4.625   6.621 -0.4003 -0.0727  0.1674
 8984SOL     OW38410   0.049   0.329   6.242  0.9145 -0.0537 -0.0514
 8984SOL    HW138411   0.128   0.310   6.292 -0.4477  2.0016  2.9172
 8984SOL    HW238412   4.701   0.304   6.303 -0.0293 -0.8325 -1.4309
 8985SOL     OW38413   1.017   4.415   2.860  0.0789 -0.3252  0.0055
 8985SOL    HW138414   1.064   4.467   2.795 -0.8374  0.4050 -0.0760
 8985SOL    HW238415   1.078   4.342   2.874  0.9847  0.5852  0.7609
 8986SOL     OW38416   0.228   4.216   8.748  0.2143 -0.3993 -0.1384
 8986SOL    HW138417   0.210   4.253   8.834 -1.6862 -0.3925 -0.5340
 8986SOL    HW238418   0.198   4.283   8.686  1.9269 -0.1787 -0.7347
 8987SOL     OW38419   1.795   3.830   7.145 -0.8204  0.0911 -0.3485
 8987SOL    HW138420   1.753   3.891   7.085 -0.5940 -2.4736 -3.1235
 8987SOL    HW238421   1.765   3.743   7.118 -1.0557  0.0068  0.1673
 8988SOL     OW38422   2.004   1.240  16.824  0.2822 -0.2097  0.3014
 8988SOL    HW138423   1.963   1.288  16.752 -1.3080  0.0510  1.3675
 8988SOL    HW238424   2.030   1.315  16.877 -1.3701  1.4730 -1.2867
 8989SOL     OW38425   4.079   3.155   3.917 -0.2630  0.4704 -0.3691
 8989SOL    HW138426   4.001   3.104   3.893  0.7406 -1.1134 -0.2382
 8989SOL    HW238427   4.139   3.111   3.857 -0.6187 -2.1060  1.1734
 8990SOL     OW38428   3.999   0.149   5.259 -0.3713  0.0305 -0.8516
 8990SOL    HW138429   3.981   0.227   5.207 -1.1238 -0.2895 -1.0597
 8990SOL    HW238430   4.094   0.147   5.245 -0.4945  0.5243 -1.7503
 8991SOL     OW38431   3.972   1.705   8.061 -0.3048 -0.3224 -0.1714
 8991SOL    HW138432   4.009   1.698   7.973  1.3418 -0.2673  0.5164
 8991SOL    HW238433   3.896   1.646   8.061 -0.3225 -0.2967  1.9582
 8992SOL     OW38434   3.674   1.145  13.344 -0.1516  0.2971 -0.1517
 8992SOL    HW138435   3.660   1.051  13.328 -4.2310  0.2629  3.5725
 8992SOL    HW238436   3.770   1.146  13.337 -0.0766  0.3534  0.9201
 8993SOL     OW38437   2.503   0.132  15.450 -0.3955 -0.6453 -0.1590
 8993SOL    HW138438   2.584   0.153  15.404  0.3123 -3.1721 -0.0915
 8993SOL    HW238439   2.513   0.196  15.521  2.2106 -0.0115 -1.1038
 8994SOL     OW38440   2.962   3.785  11.869  0.4204  0.2050 -0.9225
 8994SOL    HW138441   3.040   3.770  11.815  0.1756 -1.9902 -0.6697
 8994SOL    HW238442   2.941   3.873  11.838 -0.5749  0.3074  0.0553
 8995SOL     OW38443   4.373   0.427   5.203  0.2076 -0.3306  0.3845
 8995SOL    HW138444   4.352   0.345   5.157 -0.9349 -0.5070  1.2214
 8995SOL    HW238445   4.315   0.486   5.154  1.9727 -0.1084 -1.4647
 8996SOL     OW38446   2.749   1.614   8.343  0.4358 -0.2877  0.1040
 8996SOL    HW138447   2.707   1.579   8.421 -2.7960  1.7552 -0.7163
 8996SOL    HW238448   2.718   1.705   8.342 -0.1469 -0.5013 -1.8091
 8997SOL     OW38449   1.801   0.869   3.372  0.4603  0.4308 -0.5976
 8997SOL    HW138450   1.811   0.950   3.422  1.1310 -1.4333  2.2929
 8997SOL    HW238451   1.707   0.850   3.384  0.3063  0.3224 -2.0303
 8998SOL     OW38452   2.381   0.269   4.293  0.1932 -0.0346 -0.2395
 8998SOL    HW138453   2.369   0.363   4.302 -0.7872 -0.0828 -1.1208
 8998SOL    HW238454   2.420   0.268   4.206 -1.0922  1.6076 -0.8492
 8999SOL     OW38455   2.030   0.744   4.765  0.4442 -0.0375  0.0689
 8999SOL    HW138456   2.038   0.751   4.860 -0.4382  4.4531 -0.1669
 8999SOL    HW238457   2.010   0.652   4.747 -0.2269  0.3052 -0.9373
 9000SOL     OW38458   1.771   0.783   4.886 -0.0791 -0.1962  0.2200
 9000SOL    HW138459   1.769   0.689   4.904 -0.7883 -0.1059  0.5750
 9000SOL    HW238460   1.821   0.788   4.804  0.2455 -0.7158  0.3830
 9001SOL     OW38461   2.119   2.303   9.380  0.3937  0.4422  0.1362
 9001SOL    HW138462   2.085   2.261   9.301  0.7066  2.4051 -1.0599
 9001SOL    HW238463   2.041   2.340   9.421  1.2855  3.8441 -1.2277
 9002SOL     OW38464   3.402   2.683   3.372  0.1867  0.4356  0.0482
 9002SOL    HW138465   3.458   2.608   3.354  0.1739  0.0408  1.6199
 9002SOL    HW238466   3.334   2.643   3.426  0.2711  1.1282  0.6692
 9003SOL     OW38467   1.118   3.534   2.050  0.6987  0.4583  0.2477
 9003SOL    HW138468   1.209   3.535   2.023  0.9399 -2.5276  0.9557
 9003SOL    HW238469   1.124   3.585   2.131 -0.7142  0.7993  0.1433
 9004SOL     OW38470   3.219   1.644   0.259  0.5718  0.1931  0.3493
 9004SOL    HW138471   3.294   1.701   0.274  1.5607 -0.7951 -0.8787
 9004SOL    HW238472   3.254   1.580   0.197 -0.0775 -0.7670  0.9847
 9005SOL     OW38473   0.749   0.306   6.587 -0.5739 -0.2353 -0.2674
 9005SOL    HW138474   0.821   0.245   6.606  0.1991  1.7365  3.0642
 9005SOL    HW238475   0.780   0.379   6.534 -0.3318 -0.7788 -0.8785
 9006SOL     OW38476   2.742   0.258  11.765 -0.3278 -0.4349 -0.2041
 9006SOL    HW138477   2.754   0.213  11.681 -1.0912  1.9275 -1.5832
 9006SOL    HW238478   2.830   0.259  11.803 -1.0951 -1.4072  1.5559
 9007SOL     OW38479   3.791   3.923  15.876 -0.3094 -0.3151 -0.0004
 9007SOL    HW138480   3.827   3.896  15.791  0.6826  0.2423  0.2422
 9007SOL    HW238481   3.858   3.987  15.900  1.0182 -0.3254 -3.6217
 9008SOL     OW38482   3.651   3.706   0.854 -0.3933  0.4012  0.5473
 9008SOL    HW138483   3.709   3.780   0.869 -0.6974  0.8431 -0.5076
 9008SOL    HW238484   3.646   3.710   0.759 -1.3934  2.4757  0.6957
 9009SOL     OW38485   1.558   2.025  15.292 -0.1828 -0.2599 -0.1154
 9009SOL    HW138486   1.512   1.997  15.371 -0.3789 -0.3959 -0.2781
 9009SOL    HW238487   1.545   2.120  15.300  0.5572 -0.2212  0.7088
 9010SOL     OW38488   3.856   1.964   6.458 -0.2086  0.0688 -0.2689
 9010SOL    HW138489   3.940   2.002   6.433  0.2986  0.3575  1.8540
 9010SOL    HW238490   3.802   2.030   6.413  1.5611  1.6865 -0.0512
 9011SOL     OW38491   4.275   4.038  15.607  0.2140  0.2710 -0.0832
 9011SOL    HW138492   4.221   4.116  15.618 -2.3209 -1.5910  0.4979
 9011SOL    HW238493   4.256   3.994  15.690 -0.1062  1.4295  0.4571
 9012SOL     OW38494   3.521   3.458   6.297 -0.4110 -0.6510  0.4174
 9012SOL    HW138495   3.535   3.410   6.379  0.3351 -2.4275 -0.7426
 9012SOL    HW238496   3.524   3.379   6.242 -1.2148 -1.1269  1.0547
 9013SOL     OW38497   2.999   1.976   1.964 -0.8381 -0.0662 -0.2248
 9013SOL    HW138498   3.034   2.043   1.906  1.1206 -0.5067  0.4327
 9013SOL    HW238499   2.942   2.025   2.024  1.1929  1.4435  0.4456
 9014SOL     OW38500   3.900   2.777   0.468  0.7346 -0.3727 -0.4891
 9014SOL    HW138501   3.879   2.712   0.401  1.8159  1.0094 -2.2085
 9014SOL    HW238502   3.995   2.768   0.477  0.9827  1.8833 -0.7452
 9015SOL     OW38503   1.076   3.726   7.534 -0.6949  0.0094  0.1602
 9015SOL    HW138504   0.981   3.726   7.521 -0.9674  0.1983  2.1066
 9015SOL    HW238505   1.100   3.800   7.478  0.7922 -1.3152 -0.9226
 9016SOL     OW38506   4.029   0.954  15.974 -0.0407  0.2761  0.3465
 9016SOL    HW138507   4.048   1.025  15.913  1.7831 -0.4767  0.0501
 9016SOL    HW238508   3.938   0.973  15.996 -0.3466 -0.8999  0.1146
 9017SOL     OW38509   1.426   0.450   3.991  0.1848  0.2946 -0.5582
 9017SOL    HW138510   1.382   0.403   4.062 -0.3975  1.5554 -0.0816
 9017SOL    HW238511   1.512   0.409   4.003  0.5240  0.9640 -0.6934
 9018SOL     OW38512   0.654   2.310  14.073 -0.2364  0.4850  0.5637
 9018SOL    HW138513   0.722   2.329  14.009 -0.6089 -1.7844 -0.4954
 9018SOL    HW238514   0.646   2.215  14.066 -0.1043  0.5954 -1.1045
 9019SOL     OW38515   0.853   4.389   3.915 -0.5005 -0.4453  0.3237
 9019SOL    HW138516   0.835   4.351   4.001 -1.4006 -0.4722  0.1229
 9019SOL    HW238517   0.937   4.433   3.930 -0.2954 -0.0873 -1.8958
 9020SOL     OW38518   1.223   1.800  14.736  0.9581 -0.4379  0.6213
 9020SOL    HW138519   1.221   1.706  14.755  0.2587 -0.5863 -0.2020
 9020SOL    HW238520   1.161   1.803  14.664  0.7068 -0.1079  0.8513
 9021SOL     OW38521   3.990   2.332   5.075 -0.5123  0.6388  0.0761
 9021SOL    HW138522   4.065   2.274   5.066 -2.0816 -1.6397  1.7598
 9021SOL    HW238523   4.001   2.368   5.163  1.6013  1.6549 -0.6102
 9022SOL     OW38524   0.530   4.521  13.863  0.2919  0.1164  0.0333
 9022SOL    HW138525   0.599   4.464  13.829  0.8958 -0.2342  1.8582
 9022SOL    HW238526   0.514   4.498  13.954 -0.2892 -1.8841 -0.5721
 9023SOL     OW38527   1.526   0.857  17.501  0.5361  0.5059 -0.2491
 9023SOL    HW138528   1.486   0.878  17.586 -1.9037  1.4187 -1.6261
 9023SOL    HW238529   1.618   0.877  17.516  0.7452  0.9559 -2.2559
 9024SOL     OW38530   2.058   3.466  10.474 -0.1634  0.0192 -0.0621
 9024SOL    HW138531   2.018   3.493  10.392 -0.7857  1.0343  0.5698
 9024SOL    HW238532   2.145   3.433  10.450 -0.0985 -0.3190  0.6343
 9025SOL     OW38533   2.561   2.769   5.049 -0.2461 -0.4102  1.1099
 9025SOL    HW138534   2.485   2.750   5.104 -0.8586 -1.7003 -0.1831
 9025SOL    HW238535   2.529   2.856   5.027  1.4926  0.4410  1.9200
 9026SOL     OW38536   1.188   1.435   2.392 -0.0793  1.0220 -0.0289
 9026SOL    HW138537   1.119   1.460   2.330  0.1622 -0.6647 -0.9654
 9026SOL    HW238538   1.230   1.358   2.356  0.6068  1.1214  0.5745
 9027SOL     OW38539   3.175   3.454  11.889 -0.1053 -0.3441 -0.7617
 9027SOL    HW138540   3.212   3.426  11.805  1.0992 -1.3719  0.1220
 9027SOL    HW238541   3.161   3.544  11.859  3.7167  0.5910  0.2924
 9028SOL     OW38542   3.883   0.286   9.890 -0.1817 -0.1988  0.0491
 9028SOL    HW138543   3.834   0.205   9.879  0.1498 -0.6968  2.2169
 9028SOL    HW238544   3.972   0.251   9.885 -0.1859 -0.5152  2.0195
 9029SOL     OW38545   0.958   0.256   2.358  0.6174 -0.4098 -0.2457
 9029SOL    HW138546   0.943   0.312   2.282 -1.3129 -0.9289 -0.2442
 9029SOL    HW238547   1.042   0.296   2.383  2.5224 -3.2679 -2.1034
 9030SOL     OW38548   3.156   3.810   7.808  0.2039  0.0032  0.0594
 9030SOL    HW138549   3.107   3.865   7.747  1.0991  1.6646  0.8412
 9030SOL    HW238550   3.235   3.782   7.762  1.6134  0.9348  1.8841
 9031SOL     OW38551   4.527   2.543  11.606 -0.1221  0.3516  0.2072
 9031SOL    HW138552   4.619   2.521  11.622  0.7215  3.0942 -0.9248
 9031SOL    HW238553   4.505   2.454  11.579 -0.3827  0.5297 -0.1696
 9032SOL     OW38554   1.683   2.433  10.530 -0.3502 -0.1564 -0.3494
 9032SOL    HW138555   1.775   2.458  10.539  0.0156 -0.3905 -3.2278
 9032SOL    HW238556   1.654   2.396  10.613  0.1031 -0.2893 -0.2478
 9033SOL     OW38557   0.903   1.354   7.760 -0.1499 -0.4518 -0.5284
 9033SOL    HW138558   0.882   1.397   7.842  1.6083  0.3766 -0.5111
 9033SOL    HW238559   0.854   1.392   7.687  1.2570  1.9006 -0.2721
 9034SOL     OW38560   4.702   1.066   5.033  0.6732 -0.3676 -0.4678
 9034SOL    HW138561   0.051   1.036   5.091  0.2139  0.3899  0.4840
 9034SOL    HW238562   0.030   1.089   4.955  1.0493  2.0754  0.5034
 9035SOL     OW38563   3.702   1.311  16.903 -0.1661 -0.4258 -0.1041
 9035SOL    HW138564   3.659   1.396  16.896  1.0102  0.1143 -0.7125
 9035SOL    HW238565   3.730   1.316  16.994  0.1579 -0.5207 -0.2004
 9036SOL     OW38566   0.784   2.408   8.735 -0.3298 -0.1373 -0.0419
 9036SOL    HW138567   0.849   2.364   8.790 -1.2996 -1.4429  0.0706
 9036SOL    HW238568   0.801   2.498   8.763  0.8085 -0.3193 -0.1495
 9037SOL     OW38569   1.432   3.848   8.118 -0.8779  0.3529  0.0409
 9037SOL    HW138570   1.363   3.894   8.069  0.1554  1.7326 -0.1296
 9037SOL    HW238571   1.482   3.921   8.154  0.9991 -0.1602 -1.5388
 9038SOL     OW38572   1.042   1.817  11.839 -0.4605  0.4067  0.1391
 9038SOL    HW138573   0.964   1.835  11.892 -0.5819 -1.6771  0.6523
 9038SOL    HW238574   1.068   1.733  11.876 -0.8450 -0.3037 -1.2053
 9039SOL     OW38575   2.896   3.076   6.202  0.1534  0.0948  0.3044
 9039SOL    HW138576   2.887   3.172   6.200  4.1312  0.4803  1.1998
 9039SOL    HW238577   2.902   3.060   6.296  0.8899 -2.1373 -0.1383
 9040SOL     OW38578   4.381   1.721  13.678  0.2734 -0.1014 -0.8958
 9040SOL    HW138579   4.474   1.733  13.658  0.3550  1.1392  0.2636
 9040SOL    HW238580   4.369   1.627  13.689 -1.8354 -0.0399 -2.6521
 9041SOL     OW38581   3.227   4.232   4.137 -0.2151 -0.0757  0.0173
 9041SOL    HW138582   3.210   4.173   4.063 -1.0624  0.2370 -0.0276
 9041SOL    HW238583   3.153   4.292   4.136 -0.7116 -0.6930  0.0681
 9042SOL     OW38584   4.527   1.733   1.477 -0.2922 -0.1794  0.5027
 9042SOL    HW138585   4.516   1.656   1.421  1.6384  0.1002 -0.2411
 9042SOL    HW238586   4.610   1.717   1.522  1.5491  1.3573 -2.4201
 9043SOL     OW38587   4.662   1.031  10.907 -0.1461 -0.0675  0.5510
 9043SOL    HW138588   4.684   1.020  10.814 -3.6139  2.9099 -0.6718
 9043SOL    HW238589   4.719   0.969  10.951  0.8811  1.1367  0.9054
 9044SOL     OW38590   1.546   4.597   7.012 -0.1918  0.5096  0.3721
 9044SOL    HW138591   1.473   4.645   6.973  0.3277  0.4792 -0.6401
 9044SOL    HW238592   1.617   4.632   6.959 -0.4204  0.8796  0.3106
 9045SOL     OW38593   0.210   1.130   4.104  0.4399  0.5294  0.3150
 9045SOL    HW138594   0.135   1.189   4.094 -0.1308  0.0013  1.4702
 9045SOL    HW238595   0.260   1.160   4.028 -0.8699  0.6964 -0.4858
 9046SOL     OW38596   3.893   0.666  11.108 -0.2271 -0.4203  0.6253
 9046SOL    HW138597   3.870   0.754  11.139  1.7782 -0.3351  1.7944
 9046SOL    HW238598   3.898   0.676  11.013 -0.7541 -2.3318  0.3961
 9047SOL     OW38599   3.454   1.506   9.004  0.2772 -0.0105 -1.2387
 9047SOL    HW138600   3.375   1.475   9.049  0.2935  1.3016 -0.2971
 9047SOL    HW238601   3.431   1.509   8.911 -2.1141  0.7957 -0.6376
 9048SOL     OW38602   2.259   0.127  11.285  1.3102  0.1374 -0.1272
 9048SOL    HW138603   2.259   0.170  11.200 -1.2271 -0.1684 -0.2600
 9048SOL    HW238604   2.203   0.050  11.273  0.5965  0.9544 -2.0230
 9049SOL     OW38605   0.340   1.755   6.655  0.2143  0.0077  0.1099
 9049SOL    HW138606   0.289   1.818   6.705 -0.6350  0.1799 -0.9868
 9049SOL    HW238607   0.269   1.705   6.615 -1.4605  1.5110  1.2469
 9050SOL     OW38608   1.783   1.345  11.196  0.0966 -0.5166 -0.4486
 9050SOL    HW138609   1.811   1.428  11.234 -0.0563 -0.6294 -0.0879
 9050SOL    HW238610   1.789   1.291  11.276  0.4544 -1.2344 -0.9553
 9051SOL     OW38611   3.623   2.000  12.922 -0.4622  0.0997 -0.0697
 9051SOL    HW138612   3.555   1.976  12.859  1.4409  0.4245 -2.2342
 9051SOL    HW238613   3.566   2.022  12.996 -0.2950 -2.5589  0.8513
 9052SOL     OW38614   4.070   3.669   4.833 -0.2424  0.3591 -0.3315
 9052SOL    HW138615   4.063   3.649   4.740  2.5762  0.1672 -0.5016
 9052SOL    HW238616   3.990   3.721   4.842 -0.7558 -0.6579  0.9986
 9053SOL     OW38617   2.860   3.301   0.834 -0.0861 -0.4586  0.0589
 9053SOL    HW138618   2.903   3.230   0.786 -0.1046 -1.1541  1.0831
 9053SOL    HW238619   2.769   3.298   0.802 -0.6923 -1.9889  1.9864
 9054SOL     OW38620   1.164   0.339   2.487  0.2953 -0.0987 -0.3871
 9054SOL    HW138621   1.251   0.331   2.526  0.0964  0.1898  0.1206
 9054SOL    HW238622   1.138   0.410   2.546 -2.0725 -0.7827 -0.6119
 9055SOL     OW38623   2.696   0.141   9.043  0.3185  0.5930 -1.3455
 9055SOL    HW138624   2.659   0.109   9.125  0.5701 -1.4328 -2.0299
 9055SOL    HW238625   2.663   0.081   8.977  0.1924  1.6069 -2.2038
 9056SOL     OW38626   1.322   1.973   9.476 -0.1400  0.3037  0.1310
 9056SOL    HW138627   1.374   2.023   9.540  1.1388 -0.6014 -0.1990
 9056SOL    HW238628   1.245   1.964   9.533 -0.0271 -0.5564  0.1553
 9057SOL     OW38629   0.027   3.824  16.353 -0.0586 -0.3141  0.6894
 9057SOL    HW138630   0.007   3.748  16.298 -1.7696 -0.2029  1.1801
 9057SOL    HW238631   4.665   3.871  16.360 -0.6911 -1.0530 -1.9499
 9058SOL     OW38632   2.931   3.100   9.271 -0.1629 -0.0863 -0.2457
 9058SOL    HW138633   2.871   3.161   9.228  1.6842  2.8665  1.3153
 9058SOL    HW238634   2.876   3.071   9.344  1.6800 -2.6831  0.1100
 9059SOL     OW38635   1.349   2.714   4.400 -0.4327  0.3422 -0.5598
 9059SOL    HW138636   1.297   2.769   4.460 -0.0213  0.1766 -0.0546
 9059SOL    HW238637   1.281   2.691   4.337  0.3233 -1.5267 -0.6847
 9060SOL     OW38638   2.966   2.414   2.010 -0.2502 -0.0618  0.6251
 9060SOL    HW138639   3.044   2.469   2.020 -1.0752  0.3793  4.7626
 9060SOL    HW238640   2.902   2.477   1.979  2.1876  2.0677 -0.1100
 9061SOL     OW38641   4.353   3.269   8.229 -0.2368 -0.1202 -0.1490
 9061SOL    HW138642   4.263   3.240   8.243  0.2435 -2.0952 -1.1636
 9061SOL    HW238643   4.340   3.363   8.216  0.0902 -0.1811 -0.8766
 9062SOL     OW38644   2.030   2.411  15.072 -0.3936  0.0637  0.3619
 9062SOL    HW138645   2.010   2.380  15.160  0.8173 -0.2302  0.5182
 9062SOL    HW238646   2.028   2.325  15.031  0.9956 -0.3595  1.2066
 9063SOL     OW38647   2.251   0.948   1.714  1.0783  0.0854  0.1995
 9063SOL    HW138648   2.280   0.885   1.780  1.3692 -0.6763 -0.6485
 9063SOL    HW238649   2.290   1.024   1.757  1.5911  0.2175 -0.4965
 9064SOL     OW38650   4.554   0.859  17.377  0.1646  0.0387  0.4542
 9064SOL    HW138651   4.607   0.874  17.298  0.5342  1.8491  1.0539
 9064SOL    HW238652   4.548   0.764  17.372 -0.9984  0.0565  1.7479
 9065SOL     OW38653   1.793   0.587   8.154 -0.0759 -0.4100  0.3044
 9065SOL    HW138654   1.849   0.510   8.164 -1.3555 -1.4914 -0.8167
 9065SOL    HW238655   1.747   0.581   8.237 -0.7161  1.3583  0.0847
 9066SOL     OW38656   1.856   0.707   7.462  0.1646  0.0556 -0.1558
 9066SOL    HW138657   1.949   0.686   7.472 -0.1169 -1.4255 -0.6681
 9066SOL    HW238658   1.864   0.796   7.427 -1.9411  0.7343  1.0787
 9067SOL     OW38659   0.485   3.015   4.233 -0.2144 -0.3119  0.5153
 9067SOL    HW138660   0.542   3.086   4.204 -0.6400  0.8820  2.5661
 9067SOL    HW238661   0.426   3.066   4.289 -1.6070 -1.1344 -0.2184
 9068SOL     OW38662   4.125   4.606   2.088 -0.5865 -0.3570  0.3924
 9068SOL    HW138663   4.108   4.698   2.106 -0.9068  0.1125 -2.2907
 9068SOL    HW238664   4.206   4.592   2.137 -2.1906 -0.7328  2.9143
 9069SOL     OW38665   0.079   3.023   4.546  0.7587 -0.2329 -0.2955
 9069SOL    HW138666   0.031   2.963   4.490  0.2016  0.2214 -0.3081
 9069SOL    HW238667   0.061   2.982   4.631  0.2639 -0.3570 -0.4656
 9070SOL     OW38668   2.930   3.730   5.264  0.2405 -0.1337  0.2815
 9070SOL    HW138669   2.973   3.733   5.349 -0.0240  0.3078  0.3972
 9070SOL    HW238670   2.939   3.635   5.250  0.6956 -0.3414  2.0146
 9071SOL     OW38671   1.555   4.164   1.733  0.6165 -0.0671 -0.2692
 9071SOL    HW138672   1.548   4.176   1.638  1.3735  1.6092 -0.1206
 9071SOL    HW238673   1.640   4.204   1.753  1.4330 -2.5591  1.2284
 9072SOL     OW38674   3.307   4.422   8.139  0.1783  0.2856  0.5860
 9072SOL    HW138675   3.302   4.453   8.048 -3.2156 -0.9890  0.3193
 9072SOL    HW238676   3.388   4.458   8.174  0.2159 -0.3204  1.1172
 9073SOL     OW38677   2.661   2.631  11.230  0.3051 -0.0827  0.4386
 9073SOL    HW138678   2.593   2.609  11.165  0.9241 -2.4670  0.5678
 9073SOL    HW238679   2.611   2.651  11.308  0.5416 -1.8639  1.0518
 9074SOL     OW38680   3.927   3.759  13.322  0.1506  0.2689 -0.0762
 9074SOL    HW138681   3.884   3.759  13.236 -0.9002 -1.1942  0.4592
 9074SOL    HW238682   3.992   3.689  13.310 -0.6719 -0.3541 -0.8947
 9075SOL     OW38683   2.335   3.113   3.618 -0.0186  0.4021 -0.1337
 9075SOL    HW138684   2.402   3.080   3.559  1.5234  0.3162  1.6642
 9075SOL    HW238685   2.326   3.203   3.588 -0.0572  0.8329  1.1394
 9076SOL     OW38686   3.886   3.981   3.856 -0.3381 -0.1839  0.3716
 9076SOL    HW138687   3.813   4.034   3.825  0.8382 -0.1023 -2.2215
 9076SOL    HW238688   3.954   4.046   3.837 -1.6384  2.4690  4.5877
 9077SOL     OW38689   4.098   3.129   4.943 -0.6891 -0.1251  0.6888
 9077SOL    HW138690   4.035   3.058   4.957 -0.5783 -0.2202  0.7125
 9077SOL    HW238691   4.042   3.199   4.910 -0.6690  0.2048  1.3400
 9078SOL     OW38692   0.563   2.630   7.763 -0.7865  0.1881 -0.2274
 9078SOL    HW138693   0.634   2.585   7.716  0.3550  0.7675  0.9330
 9078SOL    HW238694   0.493   2.605   7.703 -0.6841 -1.6970  0.4172
 9079SOL     OW38695   0.582   1.789   3.912 -0.5520 -0.2805  0.0549
 9079SOL    HW138696   0.671   1.821   3.924  0.2175 -1.8301 -1.5851
 9079SOL    HW238697   0.545   1.801   4.000 -0.2522 -1.6253  0.3659
 9080SOL     OW38698   1.788   1.837   9.441 -0.0530 -0.3024  0.1342
 9080SOL    HW138699   1.866   1.890   9.424  0.7987 -1.5362  0.2009
 9080SOL    HW238700   1.722   1.906   9.429  0.5999  0.1529 -0.8213
 9081SOL     OW38701   1.780   2.784   7.659 -0.5916 -0.3832  0.4081
 9081SOL    HW138702   1.865   2.740   7.655 -1.4696 -2.0546  0.0877
 9081SOL    HW238703   1.796   2.840   7.735 -1.4593  2.0310 -1.1788
 9082SOL     OW38704   4.309   4.525   1.276  0.4324  0.0249 -0.2445
 9082SOL    HW138705   4.347   4.523   1.364  1.0891  0.6178 -0.5173
 9082SOL    HW238706   4.383   4.518   1.216  0.9304  0.9137  0.2784
 9083SOL     OW38707   4.244   4.145   4.024  0.7972 -0.5627 -0.0589
 9083SOL    HW138708   4.276   4.054   4.026  0.3217 -0.6957  1.7309
 9083SOL    HW238709   4.194   4.148   3.943  0.6613  0.6374  0.0806
 9084SOL     OW38710   4.243   1.276   6.888 -0.1196  0.6759 -0.4398
 9084SOL    HW138711   4.222   1.299   6.979  2.8974 -2.5508  1.0883
 9084SOL    HW238712   4.170   1.217   6.871  1.2484 -0.8392 -0.9858
 9085SOL     OW38713   4.611   1.042   6.662  0.4178 -0.3557  0.4097
 9085SOL    HW138714   4.639   1.101   6.592  1.7431 -0.4880  0.8185
 9085SOL    HW238715   4.539   1.095   6.697 -0.9474 -1.5561 -0.6019
 9086SOL     OW38716   2.789   3.525  12.144  0.0128 -0.0802  0.5897
 9086SOL    HW138717   2.872   3.572  12.140  0.1925 -0.5463 -1.3022
 9086SOL    HW238718   2.772   3.513  12.237 -1.9771 -2.4296 -0.0491
 9087SOL     OW38719   3.952   1.793   7.761  0.5631 -0.6801 -0.4601
 9087SOL    HW138720   4.001   1.869   7.729 -0.5341  0.7296  1.2176
 9087SOL    HW238721   4.007   1.728   7.717 -0.2016  0.1117 -2.5818
 9088SOL     OW38722   0.606   2.472  15.467  0.1232 -0.6169 -0.2083
 9088SOL    HW138723   0.559   2.447  15.546 -0.9298 -0.0116 -0.6431
 9088SOL    HW238724   0.554   2.541  15.426  1.6484  0.8516  0.3540
 9089SOL     OW38725   3.324   3.482   1.721 -0.5989 -0.1223  0.6443
 9089SOL    HW138726   3.261   3.426   1.675 -0.4479  1.6492 -1.6791
 9089SOL    HW238727   3.344   3.541   1.649  0.8675 -0.5293  0.7176
 9090SOL     OW38728   0.391   2.382   1.764  0.5777 -0.0142  0.4557
 9090SOL    HW138729   0.480   2.389   1.730  0.4462 -0.2519  0.0582
 9090SOL    HW238730   0.388   2.445   1.836 -0.9457 -1.5618  1.7876
 9091SOL     OW38731   3.419   1.655   5.917 -0.7395  0.1755  0.4013
 9091SOL    HW138732   3.352   1.635   5.982  0.5203 -4.5300  0.2588
 9091SOL    HW238733   3.396   1.748   5.911 -0.2999  0.1115 -2.1729
 9092SOL     OW38734   0.452   2.244  11.999 -0.1399  0.1507 -0.3832
 9092SOL    HW138735   0.402   2.256  12.080  1.8054 -1.5915  1.0651
 9092SOL    HW238736   0.400   2.295  11.937  0.0404  1.8522  0.8764
 9093SOL     OW38737   0.735   0.330  16.810  0.1341 -0.5416  0.0908
 9093SOL    HW138738   0.721   0.272  16.735 -3.4534 -0.6449  0.7951
 9093SOL    HW238739   0.720   0.286  16.894 -0.6084  0.3458  0.4344
 9094SOL     OW38740   0.531   3.152   6.266  0.2673  0.3039  0.1729
 9094SOL    HW138741   0.611   3.112   6.300  1.7745  0.3911 -3.2127
 9094SOL    HW238742   0.563   3.147   6.176  0.8219 -1.4402  0.4626
 9095SOL     OW38743   1.981   3.329   5.880  0.0670  0.1795  0.2902
 9095SOL    HW138744   2.049   3.267   5.852  0.8721  1.2934 -0.1801
 9095SOL    HW238745   2.024   3.410   5.854  0.3857 -0.1817 -0.3009
 9096SOL     OW38746   1.794   0.847  17.570  0.0213  0.1343  0.5361
 9096SOL    HW138747   1.767   0.837  17.661 -0.7805 -1.2039  0.1617
 9096SOL    HW238748   1.871   0.903  17.580 -0.2977  0.4591  1.1691
 9097SOL     OW38749   4.560   1.469   2.966  0.3146 -0.1301 -0.4250
 9097SOL    HW138750   4.467   1.491   2.961  0.3108  0.0104  0.2034
 9097SOL    HW238751   4.557   1.410   3.041 -2.8669  0.8532  0.2481
 9098SOL     OW38752   3.831   2.737  16.109 -0.1428  0.3092 -0.1088
 9098SOL    HW138753   3.919   2.765  16.135 -0.3919 -0.6648  1.8091
 9098SOL    HW238754   3.827   2.779  16.023  2.0052  0.0375 -0.3424
 9099SOL     OW38755   4.240   3.694   3.090  0.2775 -0.1879  0.2725
 9099SOL    HW138756   4.265   3.611   3.048 -0.5528 -1.0083  1.4291
 9099SOL    HW238757   4.168   3.724   3.034 -0.2200  3.2261  2.7764
 9100SOL     OW38758   0.799   3.974  14.038  1.1801  0.3948  0.5961
 9100SOL    HW138759   0.871   3.932  13.991  0.2766  0.1247 -0.5719
 9100SOL    HW238760   0.843   4.058  14.048 -0.2442  1.3183 -0.7869
 9101SOL     OW38761   4.018   3.191   1.021 -0.1391  0.1217 -0.1510
 9101SOL    HW138762   4.058   3.116   1.064 -1.1125 -1.1056 -1.3978
 9101SOL    HW238763   4.002   3.245   1.098 -1.6391 -0.4897 -0.0569
 9102SOL     OW38764   2.364   2.834  11.079  0.4060 -0.2121 -0.2703
 9102SOL    HW138765   2.326   2.850  11.165  0.6282 -0.9350 -0.0370
 9102SOL    HW238766   2.420   2.760  11.102 -0.3097 -0.8322 -0.5027
 9103SOL     OW38767   3.679   1.035   3.743  0.0991  0.0282 -0.2927
 9103SOL    HW138768   3.627   0.960   3.772  1.7953 -0.0706  2.5126
 9103SOL    HW238769   3.621   1.100   3.784  1.8704  1.8175 -0.6574
 9104SOL     OW38770   0.199   3.223   0.516  0.1007 -0.3621  0.0066
 9104SOL    HW138771   0.265   3.245   0.450  0.1742 -1.8787 -0.4203
 9104SOL    HW238772   0.120   3.230   0.462 -0.3652 -5.0579  0.0838
 9105SOL     OW38773   2.393   1.411   2.464 -0.0123  0.4750  0.8494
 9105SOL    HW138774   2.473   1.433   2.512  0.0567 -0.9319  1.3794
 9105SOL    HW238775   2.422   1.412   2.373 -0.3530  1.3734  0.7498
 9106SOL     OW38776   2.406   4.178   2.191 -0.1043  0.0107 -0.1292
 9106SOL    HW138777   2.473   4.127   2.147  0.6649  0.4617  0.5147
 9106SOL    HW238778   2.406   4.244   2.122 -3.0890 -0.1148 -0.2341
 9107SOL     OW38779   3.679   0.062   0.243 -0.2444  0.1231 -0.0106
 9107SOL    HW138780   3.695   4.689   0.235 -0.9685 -0.0098  0.1177
 9107SOL    HW238781   3.761   0.083   0.198  0.2428 -0.3294  0.6670
 9108SOL     OW38782   4.682   1.896   4.322 -0.3418 -0.5977 -0.3681
 9108SOL    HW138783   0.009   1.922   4.244 -0.0045 -0.4304 -0.1026
 9108SOL    HW238784   4.652   1.981   4.354  0.6284 -0.4976  0.2909
 9109SOL     OW38785   1.207   3.720   3.551  0.2015  0.5648 -0.2516
 9109SOL    HW138786   1.146   3.689   3.618 -0.5737  0.0075 -1.2103
 9109SOL    HW238787   1.200   3.662   3.476  1.1192 -1.7245  1.4353
 9110SOL     OW38788   2.230   0.771   3.690  0.6344  0.3143 -0.8145
 9110SOL    HW138789   2.198   0.798   3.776  0.8897  1.5305 -1.0938
 9110SOL    HW238790   2.147   0.788   3.644 -0.7011 -1.3119  1.0426
 9111SOL     OW38791   2.839   2.181   2.047 -0.1886  0.6992 -0.2912
 9111SOL    HW138792   2.871   2.269   2.028  0.8164  0.5536  0.7288
 9111SOL    HW238793   2.853   2.183   2.141  1.3188 -2.6813 -0.4582
 9112SOL     OW38794   3.406   2.796  14.282 -0.2972  0.9851 -0.5912
 9112SOL    HW138795   3.445   2.711  14.302 -0.6538  1.2454  1.2420
 9112SOL    HW238796   3.334   2.774  14.224  0.2672  0.5119 -1.1129
 9113SOL     OW38797   3.386   2.212   0.082  0.3313  0.1873 -0.7173
 9113SOL    HW138798   3.371   2.117   0.081 -1.6712  0.5056 -1.0405
 9113SOL    HW238799   3.348   2.231  17.683  0.4067  1.9031 -0.3706
 9114SOL     OW38800   1.983   3.531   0.952  0.2409 -0.2073 -0.9590
 9114SOL    HW138801   1.903   3.581   0.962 -0.6617 -1.4898 -1.7445
 9114SOL    HW238802   1.952   3.440   0.952 -2.6422  0.7729 -1.6166
 9115SOL     OW38803   3.537   4.159   2.264  0.0779  0.4998 -0.7375
 9115SOL    HW138804   3.464   4.133   2.206  0.0787  0.1992 -0.6045
 9115SOL    HW238805   3.583   4.224   2.211 -1.6599  2.2897 -0.0571
 9116SOL     OW38806   3.303   0.754   5.979  0.2551 -0.3841  0.2348
 9116SOL    HW138807   3.363   0.793   5.916  1.2527 -2.7539 -0.2685
 9116SOL    HW238808   3.333   0.664   5.994  0.8517 -0.4347 -1.1996
 9117SOL     OW38809   0.970   4.471  12.781 -0.0342  0.5757 -0.3558
 9117SOL    HW138810   0.874   4.466  12.780  0.0125 -0.2711 -1.1238
 9117SOL    HW238811   0.983   4.546  12.839  1.9429  0.1365 -0.2258
 9118SOL     OW38812   2.968   3.442   6.815 -0.0587 -0.3455 -0.1104
 9118SOL    HW138813   3.031   3.499   6.858 -0.9402  2.2201 -2.2235
 9118SOL    HW238814   2.896   3.434   6.879  0.5439 -1.3447  0.4428
 9119SOL     OW38815   2.763   1.238   6.099 -0.4690  0.0758 -0.9228
 9119SOL    HW138816   2.699   1.175   6.133 -1.2467  2.1828  1.5463
 9119SOL    HW238817   2.701   1.292   6.052  0.8002 -0.8202 -3.6271
 9120SOL     OW38818   3.199   3.381   6.364 -0.6359  0.0906  0.2369
 9120SOL    HW138819   3.278   3.427   6.394 -1.4073  1.5244  0.0531
 9120SOL    HW238820   3.243   3.308   6.321 -1.0785  0.8681 -1.5007
 9121SOL     OW38821   3.890   1.241   0.241  0.3156  0.6809 -0.5781
 9121SOL    HW138822   3.978   1.206   0.233  0.0145 -0.0472 -0.6954
 9121SOL    HW238823   3.874   1.229   0.335  0.9053 -2.0055 -0.8443
 9122SOL     OW38824   4.669   4.694   6.997  0.1111 -0.1176  0.1697
 9122SOL    HW138825   0.011   4.622   7.001  0.5138  0.2647  0.6704
 9122SOL    HW238826   4.703   0.042   6.940 -0.1807 -1.8508 -2.1390
 9123SOL     OW38827   3.550   3.279   4.166  0.5897  0.1817 -0.1196
 9123SOL    HW138828   3.577   3.201   4.118 -1.5044 -0.4955 -0.1705
 9123SOL    HW238829   3.494   3.323   4.103  0.8509  1.0941  0.2758
 9124SOL     OW38830   0.054   4.544   4.550  0.0837 -0.4254  0.7366
 9124SOL    HW138831   0.123   4.486   4.582 -1.2386 -1.2143  2.1886
 9124SOL    HW238832   0.053   4.517   4.458  2.5748  1.4683  0.1392
 9125SOL     OW38833   0.825   2.056   1.392 -0.3304  0.1044  0.2078
 9125SOL    HW138834   0.803   2.050   1.299  1.0640 -0.8378 -0.0585
 9125SOL    HW238835   0.823   1.966   1.425 -1.4189  0.5956  1.4697
 9126SOL     OW38836   1.398   2.446   1.048 -0.1302 -0.7779 -0.2557
 9126SOL    HW138837   1.489   2.471   1.061 -0.5499  0.1298  0.9907
 9126SOL    HW238838   1.380   2.403   1.132 -1.8823  1.1461  0.3718
 9127SOL     OW38839   3.075   4.712   3.474 -1.0122 -0.1022 -0.4171
 9127SOL    HW138840   3.087   0.036   3.390  1.6342 -0.8851 -0.4905
 9127SOL    HW238841   2.999   4.656   3.460  0.0910 -1.8011  0.3114
 9128SOL     OW38842   2.264   1.230   3.209 -0.2757  0.3529 -0.4735
 9128SOL    HW138843   2.185   1.255   3.256 -0.6162 -0.8392 -0.4184
 9128SOL    HW238844   2.229   1.247   3.121  0.5514 -0.7086 -1.0146
 9129SOL     OW38845   2.361   3.531   0.509  0.1248  0.5805 -0.6963
 9129SOL    HW138846   2.441   3.574   0.541  0.2229 -0.4269  0.4376
 9129SOL    HW238847   2.351   3.459   0.571 -2.0125  2.5408  1.2054
 9130SOL     OW38848   1.316   1.642  17.251  0.0810 -0.6848  0.0375
 9130SOL    HW138849   1.301   1.566  17.195 -0.3060  0.2475 -1.1040
 9130SOL    HW238850   1.261   1.704  17.205 -0.7224 -0.9643  0.6116
 9131SOL     OW38851   2.125   2.185   2.531  0.8421 -0.3189  0.2278
 9131SOL    HW138852   2.199   2.188   2.471  0.2254  3.0318 -0.3766
 9131SOL    HW238853   2.072   2.114   2.493  1.5434 -1.1778  0.8593
 9132SOL     OW38854   4.705   1.479   5.046 -0.4735  1.0703  0.0762
 9132SOL    HW138855   4.708   1.393   5.086 -1.5923  0.1946 -1.7446
 9132SOL    HW238856   4.702   1.439   4.959 -1.5800  1.6637 -0.1512
 9133SOL     OW38857   2.518   2.744   4.065  0.3622 -0.2575 -0.2133
 9133SOL    HW138858   2.460   2.669   4.077 -1.0119  0.9045  0.2868
 9133SOL    HW238859   2.601   2.698   4.050 -0.5755 -1.1442 -2.6638
 9134SOL     OW38860   4.281   3.916  10.749  0.1414 -0.6548 -0.1267
 9134SOL    HW138861   4.241   3.860  10.815  2.8719 -0.4354  1.7028
 9134SOL    HW238862   4.354   3.865  10.714 -2.4515 -1.3133 -4.4855
 9135SOL     OW38863   3.639   3.956   5.493 -0.1808  0.4569  0.3907
 9135SOL    HW138864   3.581   3.968   5.568  1.6116  1.8597  1.5670
 9135SOL    HW238865   3.730   3.956   5.525 -1.1300  0.0955  3.0743
 9136SOL     OW38866   3.714   2.270   6.790 -0.7974 -0.4271  0.0268
 9136SOL    HW138867   3.755   2.279   6.703 -1.9537  1.1635 -0.3538
 9136SOL    HW238868   3.755   2.191   6.825 -1.0250 -0.9196 -0.8373
 9137SOL     OW38869   1.386   4.546  12.878  0.6072  0.1552  0.2493
 9137SOL    HW138870   1.440   4.538  12.800  1.9089 -2.5569  1.4180
 9137SOL    HW238871   1.430   4.613  12.930  1.4736 -0.7899  0.7458
 9138SOL     OW38872   0.172   0.545   7.921  0.4007  0.1737  0.6343
 9138SOL    HW138873   0.124   0.617   7.879  1.4436  1.3474  1.4388
 9138SOL    HW238874   0.260   0.558   7.885 -0.5949 -0.4933 -2.0229
 9139SOL     OW38875   2.308   2.989   6.121 -0.0750 -0.6238  0.2311
 9139SOL    HW138876   2.270   2.903   6.135  0.7680 -0.6576  2.3505
 9139SOL    HW238877   2.362   2.997   6.200  3.4894  1.3468 -2.3946
 9140SOL     OW38878   3.014   1.505  10.801  0.2870  0.0025  0.4298
 9140SOL    HW138879   2.919   1.496  10.798  0.1569  0.7551  2.1703
 9140SOL    HW238880   3.030   1.419  10.840 -0.3936  0.2644  1.2963
 9141SOL     OW38881   1.947   3.685   9.823  0.6900  0.0454  0.7026
 9141SOL    HW138882   1.983   3.604   9.860  0.6850 -0.7658 -1.0610
 9141SOL    HW238883   1.950   3.748   9.895  1.0028  0.7151  0.0987
 9142SOL     OW38884   0.858   2.667   8.823  0.2016  0.6114 -0.0065
 9142SOL    HW138885   0.821   2.664   8.911 -1.6060  1.0445 -0.7619
 9142SOL    HW238886   0.849   2.761   8.811  0.9280  0.6839  0.0098
 9143SOL     OW38887   1.409   4.050   6.023  0.1317 -0.0159  0.4953
 9143SOL    HW138888   1.458   4.017   6.099 -2.5361 -2.0958  1.3033
 9143SOL    HW238889   1.321   4.058   6.060 -0.0587 -0.8732  0.2371
 9144SOL     OW38890   3.880   4.193   7.736 -0.2210  0.0316  0.2222
 9144SOL    HW138891   3.820   4.119   7.738  1.0660 -1.0483 -0.9978
 9144SOL    HW238892   3.953   4.141   7.771 -2.7618 -2.1545  2.2828
 9145SOL     OW38893   0.468   2.978   5.100 -0.3379  0.0409  0.1487
 9145SOL    HW138894   0.545   3.009   5.053  0.2741  0.2689  1.3098
 9145SOL    HW238895   0.420   3.044   5.150 -1.8019  0.5814 -1.9720
 9146SOL     OW38896   4.130   1.061   8.420 -0.0782 -0.0012  0.9237
 9146SOL    HW138897   4.172   1.133   8.372  1.8420 -2.1054 -0.5474
 9146SOL    HW238898   4.127   1.104   8.505  2.5157 -1.3287  1.6932
 9147SOL     OW38899   2.111   4.507   2.369  0.3864 -0.2916  0.3116
 9147SOL    HW138900   2.048   4.572   2.336  1.0496 -1.0838 -2.5112
 9147SOL    HW238901   2.187   4.564   2.381  0.9204 -1.4769  2.4109
 9148SOL     OW38902   4.166   2.882   0.733  0.2233  0.8244 -0.0718
 9148SOL    HW138903   4.228   2.947   0.701 -0.2887  0.7969 -1.1040
 9148SOL    HW238904   4.149   2.827   0.656 -0.8769  1.2301 -0.1096
 9149SOL     OW38905   2.006   3.925   4.402  0.0114  0.1164 -0.1176
 9149SOL    HW138906   1.934   3.941   4.463 -1.6661 -1.7061 -1.6370
 9149SOL    HW238907   1.951   3.920   4.324 -0.5649 -1.6242  0.3971
 9150SOL     OW38908   3.509   4.124   6.685 -0.0656 -0.1833 -0.2909
 9150SOL    HW138909   3.572   4.121   6.613 -0.2873  0.7271 -0.5175
 9150SOL    HW238910   3.541   4.205   6.725  0.5537 -0.7350  0.3416
 9151SOL     OW38911   4.287   1.980   2.461 -0.1096 -0.1762  0.4048
 9151SOL    HW138912   4.367   2.000   2.413 -1.0467  0.3558 -0.9278
 9151SOL    HW238913   4.224   2.042   2.424  0.6537 -0.7513 -1.8589
 9152SOL     OW38914   0.738   2.470  12.071 -0.4814  0.4915 -0.2149
 9152SOL    HW138915   0.825   2.505  12.051 -0.8420  1.2916 -0.3823
 9152SOL    HW238916   0.741   2.380  12.039  0.8534 -0.4653  2.5943
 9153SOL     OW38917   4.354   4.471   1.919  0.1990  0.8660  0.6178
 9153SOL    HW138918   4.421   4.403   1.913  0.9657  1.8201 -1.5444
 9153SOL    HW238919   4.347   4.480   2.015 -0.5638  0.9540  0.5556
 9154SOL     OW38920   2.211   1.760   1.842  0.0561 -0.3360 -0.3929
 9154SOL    HW138921   2.184   1.815   1.916  0.9959  1.3212 -1.3034
 9154SOL    HW238922   2.174   1.804   1.766  0.1109 -1.2877 -0.9687
 9155SOL     OW38923   2.344   1.917   5.094 -0.1770  0.2640  0.1262
 9155SOL    HW138924   2.332   1.847   5.158 -1.3897  0.2779 -0.0747
 9155SOL    HW238925   2.420   1.879   5.050 -0.5395  1.5687 -1.6164
 9156SOL     OW38926   4.063   1.117   2.185  0.4737 -0.1364  0.0576
 9156SOL    HW138927   4.137   1.131   2.244  1.1317  0.7101 -0.9625
 9156SOL    HW238928   4.049   1.023   2.192 -0.2844  0.1208  1.9658
 9157SOL     OW38929   2.161   1.398  10.946 -0.4211 -0.9266 -0.3716
 9157SOL    HW138930   2.149   1.314  10.991  0.6880 -1.3163 -0.7831
 9157SOL    HW238931   2.247   1.384  10.905  0.1479 -0.8599  0.8147
 9158SOL     OW38932   2.694   0.050  16.124 -0.2645 -1.0704 -0.3098
 9158SOL    HW138933   2.625   0.005  16.172 -1.3802  0.7928 -0.1451
 9158SOL    HW238934   2.644   0.102  16.062  0.3701  1.7215  1.5034
 9159SOL     OW38935   4.276   0.821   4.928 -0.2183 -0.5954  0.1781
 9159SOL    HW138936   4.345   0.885   4.944  1.4772 -2.3730  0.0021
 9159SOL    HW238937   4.291   0.816   4.833 -3.3316  0.7131 -0.3746
 9160SOL     OW38938   3.028   0.894   2.821 -0.1636  0.1863 -0.0271
 9160SOL    HW138939   2.935   0.912   2.808 -0.4993 -0.4578  1.4480
 9160SOL    HW238940   3.065   0.980   2.843 -2.0040  1.2871 -1.2314
 9161SOL     OW38941   3.159   1.720   9.054 -0.6199  0.6452 -0.4026
 9161SOL    HW138942   3.246   1.754   9.032 -0.6778  0.9391 -0.1813
 9161SOL    HW238943   3.183   1.641   9.103  1.2285  2.2225  1.2235
 9162SOL     OW38944   2.510   2.107   2.012 -0.3657  0.0167  0.0137
 9162SOL    HW138945   2.586   2.054   1.986  0.0506 -1.6212  4.6979
 9162SOL    HW238946   2.490   2.119   1.919  0.6886 -0.0788 -0.2238
 9163SOL     OW38947   0.675   1.290   8.909  0.5110 -0.0618 -0.5102
 9163SOL    HW138948   0.739   1.236   8.955  0.2100 -0.8364 -0.9984
 9163SOL    HW238949   0.596   1.273   8.960  0.8320 -2.5705 -0.8219
 9164SOL     OW38950   0.813   0.196   5.313  0.1452 -0.2382  0.0959
 9164SOL    HW138951   0.864   0.272   5.285  1.9630 -2.0486 -1.5471
 9164SOL    HW238952   0.747   0.194   5.245 -0.3213 -1.9813  0.5924
 9165SOL     OW38953   2.001   1.111   9.416  0.1672 -0.1337 -0.1621
 9165SOL    HW138954   2.078   1.165   9.434  0.3040 -1.3681  3.0369
 9165SOL    HW238955   2.011   1.040   9.479 -1.9980 -0.9958 -0.8086
 9166SOL     OW38956   3.474   2.500   8.976 -0.3149 -0.4170  0.3250
 9166SOL    HW138957   3.509   2.485   9.064  0.9325 -0.7877 -0.2319
 9166SOL    HW238958   3.394   2.544   9.005 -0.8034 -1.1893  0.1484
 9167SOL     OW38959   4.593   2.794   3.278 -0.0895 -0.0459  0.0044
 9167SOL    HW138960   4.542   2.872   3.257 -1.0521 -0.5906  0.3335
 9167SOL    HW238961   4.657   2.799   3.206  0.0053 -3.8200 -0.1464
 9168SOL     OW38962   3.320   0.160  16.597  0.2945  0.2537 -0.0615
 9168SOL    HW138963   3.256   0.124  16.536 -0.2026 -0.5264  0.9239
 9168SOL    HW238964   3.358   0.239  16.558  0.3645 -0.5101 -1.5155
 9169SOL     OW38965   3.073   3.157   6.790 -0.4307  0.1969 -0.3017
 9169SOL    HW138966   2.997   3.132   6.842 -0.5442 -0.6274 -0.8756
 9169SOL    HW238967   3.057   3.242   6.748 -0.2018  0.4984  0.2268
 9170SOL     OW38968   1.870   0.515   4.491 -0.3857 -0.0563  0.7561
 9170SOL    HW138969   1.939   0.579   4.472 -0.1793 -0.3495  0.5183
 9170SOL    HW238970   1.812   0.576   4.536 -0.1410  0.7341  0.0052
 9171SOL     OW38971   3.257   1.928   2.902 -0.0347  0.4207 -0.5345
 9171SOL    HW138972   3.259   2.022   2.922 -1.4210  0.3900 -0.2413
 9171SOL    HW238973   3.165   1.899   2.904  0.0457  0.2710  1.3604
 9172SOL     OW38974   3.080   2.007   6.047  0.2546  0.0719  0.8065
 9172SOL    HW138975   3.082   2.064   6.124 -0.1323 -2.5623  2.7625
 9172SOL    HW238976   3.115   2.069   5.984  1.3082  1.3944  2.6905
 9173SOL     OW38977   4.137   1.942   6.301 -0.0532  0.2289 -0.4282
 9173SOL    HW138978   4.118   1.899   6.218  2.8159  0.2678 -1.0885
 9173SOL    HW238979   4.101   2.028   6.278  0.8666  0.3954 -1.2393
 9174SOL     OW38980   3.172   0.142  10.405 -0.1173 -0.9068  0.3171
 9174SOL    HW138981   3.251   0.184  10.372  0.6009 -0.1570  3.0035
 9174SOL    HW238982   3.183   0.047  10.404 -0.4346 -0.9646  1.8967
 9175SOL     OW38983   3.087   3.499   5.235  0.2773  0.2078  0.0147
 9175SOL    HW138984   3.082   3.428   5.299 -2.0536 -0.2839 -0.7061
 9175SOL    HW238985   3.170   3.546   5.241  1.1463 -1.4538  0.8269
 9176SOL     OW38986   3.582   3.344   6.555 -0.2910  0.0241 -0.2017
 9176SOL    HW138987   3.572   3.250   6.566 -0.2570  0.1354  0.7606
 9176SOL    HW238988   3.657   3.360   6.612  0.2608  1.7689 -1.4041
 9177SOL     OW38989   3.493   4.681   9.589  0.0756 -0.1852 -0.1067
 9177SOL    HW138990   3.474   4.587   9.594 -2.6343  0.5438  2.8121
 9177SOL    HW238991   3.579   4.678   9.547  0.5730 -2.6509  1.0830
 9178SOL     OW38992   2.414   3.204   7.142 -0.7331  0.3108 -0.1445
 9178SOL    HW138993   2.354   3.191   7.216  0.0640 -2.2870  0.0470
 9178SOL    HW238994   2.359   3.184   7.066 -1.5626  0.7470  0.3407
 9179SOL     OW38995   1.523   1.436   3.229 -0.0212 -0.0769  0.1343
 9179SOL    HW138996   1.443   1.421   3.180  0.4558  1.7636 -1.2076
 9179SOL    HW238997   1.546   1.345   3.249 -1.5374 -0.1529  1.5115
 9180SOL     OW38998   1.979   3.332   7.315  0.1860 -0.6493 -0.2076
 9180SOL    HW138999   1.964   3.401   7.250 -0.0013  0.0683  0.5949
 9180SOL    HW239000   1.938   3.369   7.393  1.7698 -1.4550  0.9950
 9181SOL     OW39001   0.479   1.461   5.647 -0.2592 -0.0660 -0.4029
 9181SOL    HW139002   0.555   1.485   5.595 -0.8863 -1.0538 -1.7982
 9181SOL    HW239003   0.417   1.510   5.593  1.2348  1.3389 -0.8045
 9182SOL     OW39004   1.830   3.597   8.783 -0.4616  0.4320  0.4563
 9182SOL    HW139005   1.748   3.559   8.750  0.9106 -0.3349 -2.0734
 9182SOL    HW239006   1.806   3.604   8.876  0.9152  3.1045  0.6107
 9183SOL     OW39007   2.994   4.049  10.371 -0.1777 -0.4334 -0.1223
 9183SOL    HW139008   3.072   3.997  10.352 -1.4738 -2.5720  0.2962
 9183SOL    HW239009   2.957   4.010  10.451 -0.7120 -0.7217 -0.5085
 9184SOL     OW39010   3.192   0.357   3.791 -0.0864 -0.0165 -0.3393
 9184SOL    HW139011   3.098   0.364   3.807 -0.2364  1.3271 -1.8015
 9184SOL    HW239012   3.191   0.266   3.761  0.1366 -0.1366  0.0319
 9185SOL     OW39013   2.464   0.648   8.386  0.3183 -0.0706  0.3391
 9185SOL    HW139014   2.525   0.720   8.395 -0.0719  0.5761 -2.3955
 9185SOL    HW239015   2.457   0.617   8.476 -0.4776  1.8389  0.9293
 9186SOL     OW39016   0.399   1.595   6.406 -0.7237  0.2908 -0.5570
 9186SOL    HW139017   0.348   1.600   6.325 -0.2828 -0.8626 -0.9012
 9186SOL    HW239018   0.444   1.680   6.408 -0.3094  0.0659 -0.4227
 9187SOL     OW39019   2.565   3.506  15.146 -0.0412  0.7015 -0.2568
 9187SOL    HW139020   2.530   3.594  15.131 -3.8167 -0.5252  1.3264
 9187SOL    HW239021   2.619   3.491  15.069  0.7151 -3.9391  1.2351
 9188SOL     OW39022   1.366   0.272   1.830 -0.1027 -0.5350  0.1005
 9188SOL    HW139023   1.429   0.202   1.847 -0.0047  0.0204  1.9591
 9188SOL    HW239024   1.318   0.293   1.911 -3.2230 -0.9724 -1.6069
 9189SOL     OW39025   1.233   3.578   1.084 -0.5840  0.4614  0.2603
 9189SOL    HW139026   1.208   3.543   0.999 -0.2851  0.0388  0.3452
 9189SOL    HW239027   1.179   3.521   1.138 -0.3544  1.1252  1.2080
 9190SOL     OW39028   0.101   3.423   1.979 -0.2729  0.5395  0.4171
 9190SOL    HW139029   0.177   3.384   1.936 -1.9368 -0.5207 -1.5654
 9190SOL    HW239030   0.097   3.509   1.938  0.8625  1.6608  2.6553
 9191SOL     OW39031   1.273   2.061  17.236 -0.1729  0.0229  0.5479
 9191SOL    HW139032   1.231   2.097  17.314 -0.1683 -2.7070  1.8321
 9191SOL    HW239033   1.362   2.085  17.259  0.3383  1.0069 -2.5985
 9192SOL     OW39034   2.976   4.047   5.503  0.3949  0.9260 -0.6116
 9192SOL    HW139035   3.003   4.074   5.591 -1.3001  0.5432  0.0146
 9192SOL    HW239036   3.056   4.001   5.477 -1.1883 -1.9375 -0.4628
 9193SOL     OW39037   2.247   0.557   1.043  0.2808  0.5579  0.1085
 9193SOL    HW139038   2.282   0.595   1.123  0.9652 -0.2083  0.1788
 9193SOL    HW239039   2.285   0.469   1.044 -0.9505  0.0371  0.4923
 9194SOL     OW39040   2.578   2.097   7.489  0.4626 -0.5833 -0.0182
 9194SOL    HW139041   2.491   2.136   7.494 -0.6648 -2.7268 -2.9294
 9194SOL    HW239042   2.595   2.070   7.398  1.1028  0.7274 -0.2880
 9195SOL     OW39043   3.704   3.427   9.054 -0.3187  0.1367  0.3884
 9195SOL    HW139044   3.661   3.458   9.134 -0.4997  0.5128  0.1422
 9195SOL    HW239045   3.777   3.377   9.089  0.2116  1.4527  1.1690
 9196SOL     OW39046   1.972   1.266   5.484 -0.4004  0.5477 -0.2193
 9196SOL    HW139047   1.999   1.205   5.416 -1.3780  1.6160 -1.5485
 9196SOL    HW239048   1.924   1.205   5.541  1.4237  1.1420  1.9314
 9197SOL     OW39049   1.373   2.823   6.739  0.0739  0.1379 -0.0606
 9197SOL    HW139050   1.287   2.793   6.769  0.0860 -0.7872 -0.9229
 9197SOL    HW239051   1.396   2.896   6.796 -0.9452  0.3327  0.0991
 9198SOL     OW39052   3.923   0.233   7.385 -0.5809 -0.7456 -0.5341
 9198SOL    HW139053   4.002   0.244   7.332  0.5770 -0.4072  1.2844
 9198SOL    HW239054   3.963   0.158   7.430 -0.1509  0.8889  1.7999
 9199SOL     OW39055   4.454   2.196   2.308 -0.0498 -0.3879  0.3732
 9199SOL    HW139056   4.543   2.192   2.272  0.2576 -0.9446  1.2091
 9199SOL    HW239057   4.466   2.278   2.357  1.3306 -0.5359  0.2685
 9200SOL     OW39058   2.003   4.137   8.192 -0.1142  0.0156  0.6468
 9200SOL    HW139059   1.921   4.089   8.177  1.0105 -1.8751  0.6085
 9200SOL    HW239060   2.040   4.083   8.261 -0.5175  0.6720  1.3847
 9201SOL     OW39061   3.337   4.720   1.803 -0.0045 -0.4181  0.3097
 9201SOL    HW139062   3.311   0.008   1.712 -0.0288 -0.4908  0.3094
 9201SOL    HW239063   3.380   4.636   1.820 -0.1291 -0.6245 -0.4257
 9202SOL     OW39064   3.977   4.072  15.692  0.1280 -0.1393 -0.2055
 9202SOL    HW139065   3.976   3.978  15.674 -0.6719  0.0955 -1.3397
 9202SOL    HW239066   3.894   4.107  15.660  2.0041  3.0733 -1.5421
 9203SOL     OW39067   2.883   0.119  15.124 -0.1363  0.1834 -0.1885
 9203SOL    HW139068   2.847   0.048  15.071  1.2504  0.0110 -0.9028
 9203SOL    HW239069   2.863   0.186  15.058  1.2749  1.1503  0.3527
 9204SOL     OW39070   0.296   1.662   6.947 -0.4551 -0.6280 -0.2086
 9204SOL    HW139071   0.342   1.674   7.030  0.2565  0.3144 -0.7413
 9204SOL    HW239072   0.243   1.741   6.940 -1.0402 -1.0077 -0.1398
 9205SOL     OW39073   4.252   1.242  17.626 -0.3954  0.2797  0.8474
 9205SOL    HW139074   4.227   1.190  17.550 -0.1265  1.9005 -0.3294
 9205SOL    HW239075   4.343   1.215  17.641  0.0052  0.5113 -1.1981
 9206SOL     OW39076   2.731   2.377   7.167 -1.1776  0.3243  0.0158
 9206SOL    HW139077   2.675   2.391   7.090  1.6750 -1.2917 -2.3461
 9206SOL    HW239078   2.684   2.434   7.228 -1.6049 -1.1675  1.0719
 9207SOL     OW39079   2.086   2.332   4.727  0.0914 -0.1282  0.0953
 9207SOL    HW139080   1.998   2.323   4.765 -0.0942 -0.2621 -0.3655
 9207SOL    HW239081   2.108   2.413   4.773 -1.4677 -0.5722  1.6264
 9208SOL     OW39082   1.310   1.771   4.766 -0.1616 -0.1189 -0.1580
 9208SOL    HW139083   1.236   1.831   4.761 -0.1475 -0.0816  0.0615
 9208SOL    HW239084   1.318   1.744   4.675 -1.0733 -1.2969  0.1177
 9209SOL     OW39085   1.158   1.285  16.959 -0.5050  0.1160  0.0874
 9209SOL    HW139086   1.116   1.202  16.980  2.0822 -2.1284 -3.4538
 9209SOL    HW239087   1.096   1.309  16.890 -1.4709  0.1737  0.9703
 9210SOL     OW39088   1.644   2.158   3.458 -0.4987 -0.0198  0.0930
 9210SOL    HW139089   1.716   2.203   3.413  0.3708 -0.0055  1.5027
 9210SOL    HW239090   1.631   2.071   3.421  0.1804 -0.0611 -0.0540
 9211SOL     OW39091   3.322   4.007   6.195 -0.2119 -0.5647  0.5037
 9211SOL    HW139092   3.408   3.970   6.175 -0.0422  0.6402 -0.9623
 9211SOL    HW239093   3.345   4.079   6.255 -0.0082 -0.3790  0.2037
 9212SOL     OW39094   0.895   1.303   1.761  0.0844  0.2497  0.0986
 9212SOL    HW139095   0.802   1.311   1.739  0.1438  1.4092  0.2672
 9212SOL    HW239096   0.940   1.347   1.689 -0.3195  0.9727  0.2788
 9213SOL     OW39097   1.883   3.486   5.608 -0.6549 -0.4910  0.3268
 9213SOL    HW139098   1.831   3.407   5.593 -0.5857 -0.5242  0.2615
 9213SOL    HW239099   1.861   3.538   5.531  1.3147  0.8382  0.6393
 9214SOL     OW39100   1.442   0.928   5.505  0.5934 -0.4361 -0.0472
 9214SOL    HW139101   1.535   0.906   5.505  0.4113 -1.1445  2.3150
 9214SOL    HW239102   1.431   0.947   5.412  0.6771  0.7766  0.1855
 9215SOL     OW39103   3.015   0.940   4.893  0.2390 -0.0232 -0.4672
 9215SOL    HW139104   2.958   0.878   4.848  1.0678  1.2516 -3.3311
 9215SOL    HW239105   2.945   0.994   4.929 -0.0107 -0.9392  0.4030
 9216SOL     OW39106   1.519   3.444   6.803  0.5635  0.0090 -0.0419
 9216SOL    HW139107   1.444   3.392   6.773  0.6116  1.1047 -2.1360
 9216SOL    HW239108   1.555   3.470   6.718  0.4475 -0.3307 -0.1965
 9217SOL     OW39109   3.802   1.407   3.214 -0.4326  0.0713  0.4816
 9217SOL    HW139110   3.796   1.456   3.132  0.8642 -0.6836 -0.0689
 9217SOL    HW239111   3.818   1.480   3.274  1.1983 -0.4041  0.6253
 9218SOL     OW39112   2.422   2.162   3.620  1.2284  0.3921 -0.3360
 9218SOL    HW139113   2.477   2.107   3.676  0.5975 -0.1547 -0.2477
 9218SOL    HW239114   2.490   2.205   3.568 -0.8741  1.8634 -1.8434
 9219SOL     OW39115   2.966   1.905   7.707 -0.0955  0.4121  0.4817
 9219SOL    HW139116   2.989   1.990   7.669  4.1019 -0.4868  0.9809
 9219SOL    HW239117   3.023   1.898   7.784  1.5001  0.3507 -0.7039
 9220SOL     OW39118   0.015   1.381  16.213  0.1134  0.2576  0.4192
 9220SOL    HW139119   4.646   1.380  16.179  0.6191 -1.7811 -0.8995
 9220SOL    HW239120   4.718   1.372  16.306 -0.7017 -1.1984  0.1157
 9221SOL     OW39121   2.831   4.074   0.333 -0.3568  0.1799 -0.1320
 9221SOL    HW139122   2.791   4.078   0.420 -3.1982  0.8182 -1.4755
 9221SOL    HW239123   2.761   4.104   0.274  1.1442  1.3032 -1.3494
 9222SOL     OW39124   0.448   1.034   7.782  0.3692  0.0459 -0.3026
 9222SOL    HW139125   0.428   0.978   7.857 -1.1574 -2.0124 -2.2353
 9222SOL    HW239126   0.510   0.981   7.732  0.7087  1.0830 -0.9681
 9223SOL     OW39127   3.610   1.648  12.829 -0.2192 -0.2177  0.0725
 9223SOL    HW139128   3.683   1.709  12.837  0.0914 -0.8663  2.2836
 9223SOL    HW239129   3.599   1.622  12.921  3.0783 -0.0454  0.5253
 9224SOL     OW39130   0.068   1.611   3.110 -0.1774 -0.4832  0.2692
 9224SOL    HW139131   0.001   1.582   3.048 -1.6261  1.4309  0.9246
 9224SOL    HW239132   0.027   1.594   3.194 -2.9869 -0.8082 -1.1785
 9225SOL     OW39133   1.147   0.166  14.869 -0.4713  0.4916 -0.2061
 9225SOL    HW139134   1.112   0.085  14.906  0.8902 -0.2557 -0.5828
 9225SOL    HW239135   1.240   0.148  14.858 -0.2049  1.7908 -0.0948
 9226SOL     OW39136   1.843   4.648   8.255  0.4361 -0.1708 -0.2772
 9226SOL    HW139137   1.937   4.662   8.246  0.4181  0.4630  0.5792
 9226SOL    HW239138   1.824   4.564   8.213  1.5438  1.1374 -3.3711
 9227SOL     OW39139   1.814   3.030   5.689  0.1438 -0.3122 -0.2702
 9227SOL    HW139140   1.786   3.067   5.772  0.1650 -3.2408  1.0369
 9227SOL    HW239141   1.738   2.975   5.673 -0.2696  0.4510 -0.9829
 9228SOL     OW39142   4.682   1.383  11.234 -0.5415  0.0041  0.4631
 9228SOL    HW139143   4.674   1.353  11.144 -2.8326  1.5321  0.1553
 9228SOL    HW239144   4.618   1.328  11.279 -1.6984 -0.5846 -1.9050
 9229SOL     OW39145   1.234   2.626   4.734  0.0661 -0.4733 -0.4150
 9229SOL    HW139146   1.182   2.666   4.664 -0.2682  0.9468  0.6494
 9229SOL    HW239147   1.310   2.684   4.740  0.5244 -1.0769 -0.3778
 9230SOL     OW39148   2.198   2.324  16.397 -0.2224 -0.1174 -0.2713
 9230SOL    HW139149   2.280   2.372  16.379  0.7063 -1.9380 -0.8763
 9230SOL    HW239150   2.151   2.397  16.437 -3.4362 -0.8959 -2.6909
 9231SOL     OW39151   2.247   4.211   8.004  0.0940  0.1120  0.3976
 9231SOL    HW139152   2.180   4.241   8.065 -0.2832 -1.4884  0.7813
 9231SOL    HW239153   2.203   4.261   7.936 -2.5102 -2.1481  0.4330
 9232SOL     OW39154   2.377   3.003   9.323 -0.2107 -0.2926 -0.1347
 9232SOL    HW139155   2.354   3.077   9.381  2.1153 -0.0456  0.4940
 9232SOL    HW239156   2.389   2.938   9.392 -1.8205 -2.2530 -1.7084
 9233SOL     OW39157   2.949   3.646  10.802  0.4600  0.0099  0.3003
 9233SOL    HW139158   2.979   3.678  10.887  2.1759 -1.2703  0.1819
 9233SOL    HW239159   3.002   3.567  10.789  0.5679  0.4901 -2.3551
 9234SOL     OW39160   4.483   0.197   3.740  0.1246  0.0572  0.0688
 9234SOL    HW139161   4.441   0.197   3.654 -0.9725  1.1662  0.5932
 9234SOL    HW239162   4.429   0.269   3.774 -0.9720 -0.9750  0.5482
 9235SOL     OW39163   3.820   1.427   9.739  0.4000  0.5837  0.5879
 9235SOL    HW139164   3.859   1.513   9.758 -2.0111  1.5150  1.3183
 9235SOL    HW239165   3.729   1.447   9.716  0.2228 -1.2889 -0.2712
 9236SOL     OW39166   1.561   1.274   5.322  0.3502 -0.0057 -0.4120
 9236SOL    HW139167   1.467   1.293   5.331  0.5654  0.5315  0.7589
 9236SOL    HW239168   1.608   1.341   5.371  1.1133 -0.4871 -0.4930
 9237SOL     OW39169   0.770   3.154   7.167  0.3462  0.2937 -0.0760
 9237SOL    HW139170   0.823   3.076   7.185  0.1868  0.7033  2.2419
 9237SOL    HW239171   0.682   3.134   7.200 -0.5237  1.8057 -1.4911
 9238SOL     OW39172   2.057   4.029   7.422 -0.1792 -0.1116  0.1053
 9238SOL    HW139173   2.120   3.999   7.356 -0.3194  0.2912 -0.2158
 9238SOL    HW239174   2.092   3.979   7.495  0.8073  1.0882  0.4598
 9239SOL     OW39175   0.228   0.953  12.069 -0.3761  0.0028  0.4936
 9239SOL    HW139176   0.275   1.015  12.013 -0.2015  0.7752  1.4934
 9239SOL    HW239177   0.266   0.865  12.065  1.3845  0.8141 -0.5341
 9240SOL     OW39178   3.548   1.876   7.350  0.4798 -0.0824 -0.0864
 9240SOL    HW139179   3.596   1.925   7.417  2.5823 -1.5163 -0.5578
 9240SOL    HW239180   3.469   1.853   7.398 -0.8732  3.1031 -0.7875
 9241SOL     OW39181   2.193   1.401   8.564 -0.1379 -0.7583  0.0363
 9241SOL    HW139182   2.180   1.307   8.574 -0.6447 -0.5319  1.3891
 9241SOL    HW239183   2.129   1.425   8.496  0.1672  1.0475  0.3743
 9242SOL     OW39184   0.593   0.105   7.461  0.4067  0.0044 -0.7476
 9242SOL    HW139185   0.623   0.110   7.370 -2.4168  0.8430 -1.6487
 9242SOL    HW239186   0.609   0.018   7.496 -2.6479 -0.1411  0.2629
 9243SOL     OW39187   1.294   3.849   1.081 -0.5266  0.0548 -0.1345
 9243SOL    HW139188   1.267   3.760   1.057  0.2007  0.0530 -0.9268
 9243SOL    HW239189   1.215   3.890   1.117 -1.1867 -0.0460 -1.4898
 9244SOL     OW39190   0.048   3.221  15.511 -0.1673  0.9987 -0.0010
 9244SOL    HW139191   0.142   3.221  15.493 -0.2171  1.6213 -0.2453
 9244SOL    HW239192   0.047   3.228  15.607  0.3784  0.0169  0.0852
 9245SOL     OW39193   1.434   3.586  10.641  0.1773 -0.0162 -0.0095
 9245SOL    HW139194   1.405   3.650  10.576 -1.0512 -1.3583 -0.7696
 9245SOL    HW239195   1.513   3.625  10.680 -2.1196  2.8752  1.7219
 9246SOL     OW39196   4.329   3.644   5.777 -0.1787 -0.0981 -0.3685
 9246SOL    HW139197   4.363   3.704   5.843  0.9120 -2.4497  1.2106
 9246SOL    HW239198   4.242   3.638   5.816 -2.0526  1.7117 -4.2252
 9247SOL     OW39199   4.709   0.596  15.831 -0.1298  0.6214  0.0246
 9247SOL    HW139200   0.003   0.553  15.916  0.7378 -0.0581 -0.4666
 9247SOL    HW239201   4.684   0.515  15.785 -0.8369  0.3723  0.8486
 9248SOL     OW39202   2.251   1.346   6.185  0.1580  0.4570 -0.3755
 9248SOL    HW139203   2.263   1.364   6.092  0.4507  0.6879 -0.2934
 9248SOL    HW239204   2.234   1.252   6.178  1.7383  0.1531 -0.1317
 9249SOL     OW39205   3.664   1.193   0.984  0.1354 -0.4443  0.1812
 9249SOL    HW139206   3.668   1.098   0.998 -0.4711 -0.0265  3.2294
 9249SOL    HW239207   3.759   1.208   0.983 -0.1277  0.9940 -1.4497
 9250SOL     OW39208   3.339   0.050  15.678  0.4676  0.2452 -0.0404
 9250SOL    HW139209   3.281   0.093  15.740 -1.4966 -1.6280 -0.5936
 9250SOL    HW239210   3.302   0.081  15.595 -0.4856 -1.2747 -0.1699
 9251SOL     OW39211   2.885   4.140   4.902  0.1024 -0.5088 -0.2969
 9251SOL    HW139212   2.902   4.058   4.948  0.3673 -0.8549 -0.9989
 9251SOL    HW239213   2.815   4.112   4.843 -0.2124 -1.7984  0.6763
 9252SOL     OW39214   1.580   2.157  17.084 -0.3372 -0.1375  0.0974
 9252SOL    HW139215   1.576   2.086  17.149 -3.4307 -0.8194 -0.8460
 9252SOL    HW239216   1.492   2.175  17.053 -0.9609 -2.4857  0.5133
 9253SOL     OW39217   1.739   2.792   3.499 -0.3321 -0.2938 -0.0544
 9253SOL    HW139218   1.827   2.830   3.507 -0.1572 -0.7273  0.0828
 9253SOL    HW239219   1.732   2.790   3.404  0.0667  0.5572 -0.1050
 9254SOL     OW39220   1.478   2.651   2.580  0.5902 -0.1032  0.1110
 9254SOL    HW139221   1.552   2.693   2.536  1.4459 -0.9382  0.7305
 9254SOL    HW239222   1.528   2.579   2.619 -1.5558 -2.1476 -0.9049
 9255SOL     OW39223   0.576   4.704   7.889 -0.2864  0.5137 -0.2970
 9255SOL    HW139224   0.497   4.675   7.935 -1.5151  0.5469 -2.3991
 9255SOL    HW239225   0.551   0.071   7.861 -1.3013  0.5818  0.8475
 9256SOL     OW39226   2.126   2.957   1.764 -0.3067 -0.2900  0.6938
 9256SOL    HW139227   2.104   2.889   1.827  2.0580  0.1201  1.9682
 9256SOL    HW239228   2.165   2.914   1.689 -1.3356 -0.5157  0.2894
 9257SOL     OW39229   4.246   1.249   8.272  0.7461  0.5595  0.1909
 9257SOL    HW139230   4.268   1.238   8.180 -0.8158 -1.7402  0.0942
 9257SOL    HW239231   4.320   1.207   8.314  0.6944 -0.4060 -0.7150
 9258SOL     OW39232   3.061   2.285   7.951 -0.1757  0.0231 -0.4852
 9258SOL    HW139233   3.106   2.207   7.918  0.5481  0.3157 -0.1794
 9258SOL    HW239234   3.040   2.268   8.043  0.9174 -0.8003 -0.3909
 9259SOL     OW39235   3.349   2.609   8.362  0.3819 -0.0451 -0.1700
 9259SOL    HW139236   3.408   2.563   8.303  0.2635 -0.4205  0.0049
 9259SOL    HW239237   3.269   2.560   8.346 -0.5629  1.2044  0.7531
 9260SOL     OW39238   3.210   0.786  10.268 -0.7685 -0.2115  0.0463
 9260SOL    HW139239   3.214   0.842  10.190 -1.5196  0.2081  0.3132
 9260SOL    HW239240   3.125   0.746  10.254  0.0605 -1.1164 -2.4078
 9261SOL     OW39241   0.113   3.370   3.295 -0.1199  0.2100 -0.1647
 9261SOL    HW139242   0.131   3.281   3.264  2.0570  0.8885 -0.8418
 9261SOL    HW239243   0.138   3.363   3.387 -0.6528  1.6701  0.1014
 9262SOL     OW39244   1.866   3.848   6.778 -0.1995  0.4547 -0.1268
 9262SOL    HW139245   1.929   3.894   6.834 -1.0118  2.0529 -0.5157
 9262SOL    HW239246   1.902   3.760   6.769  3.3105  1.8150  0.3914
 9263SOL     OW39247   1.423   1.081   6.515  0.3657  0.0449 -0.5883
 9263SOL    HW139248   1.355   1.080   6.583 -0.8861 -0.9566 -1.8548
 9263SOL    HW239249   1.499   1.117   6.561  0.0513  1.7000 -1.3688
 9264SOL     OW39250   3.041   3.741  11.045  0.1319  0.2471 -0.3331
 9264SOL    HW139251   3.122   3.728  11.095 -0.9576  1.9959  1.9035
 9264SOL    HW239252   2.974   3.706  11.104 -1.3003  1.5588 -1.1878
 9265SOL     OW39253   3.927   4.353   0.436  0.2898 -0.5164  0.0401
 9265SOL    HW139254   3.934   4.267   0.394  3.0878  0.1754 -0.8672
 9265SOL    HW239255   3.860   4.400   0.386 -0.5703  0.6765  2.3531
 9266SOL     OW39256   3.791   1.066  10.715 -0.6941 -0.7532  0.2128
 9266SOL    HW139257   3.778   0.999  10.782  0.4732 -1.4005 -0.2115
 9266SOL    HW239258   3.710   1.055  10.666  0.1141 -0.8027 -1.0915
 9267SOL     OW39259   3.341   1.405  11.637 -0.0314  0.2427 -0.1026
 9267SOL    HW139260   3.320   1.316  11.609 -1.2694  0.3609  0.4409
 9267SOL    HW239261   3.253   1.434  11.662 -0.6306 -0.9837 -0.7914
 9268SOL     OW39262   4.470   2.715  11.798  0.6249  0.7101  0.1594
 9268SOL    HW139263   4.472   2.652  11.726 -0.8302  1.1777 -0.3021
 9268SOL    HW239264   4.564   2.731  11.799  0.5514  1.1827 -0.5773
 9269SOL     OW39265   3.570   2.388   4.022  0.3907  0.3357  0.1105
 9269SOL    HW139266   3.570   2.315   3.960  0.3403  0.9131 -0.5672
 9269SOL    HW239267   3.551   2.341   4.104 -3.2329  1.4193 -0.1504
 9270SOL     OW39268   2.118   0.159   8.251  0.4575 -0.0543  0.6581
 9270SOL    HW139269   2.102   0.078   8.203 -0.3529  2.2618 -2.9517
 9270SOL    HW239270   2.163   0.124   8.327  1.0840 -1.1721 -0.2263
 9271SOL     OW39271   3.725   1.657  15.772  0.5291 -0.3167 -0.0046
 9271SOL    HW139272   3.759   1.632  15.686  0.5031  1.4075 -0.5157
 9271SOL    HW239273   3.648   1.602  15.778  1.2560 -1.4999 -1.7065
 9272SOL     OW39274   3.800   4.388   1.949 -0.3103  0.0774 -0.2688
 9272SOL    HW139275   3.892   4.414   1.945 -0.2610  0.1929  1.4693
 9272SOL    HW239276   3.818   4.294   1.949 -0.4793  0.0431  0.7369
 9273SOL     OW39277   1.045   1.280   3.111  0.5736  0.4065  0.2405
 9273SOL    HW139278   1.029   1.364   3.067  0.1921  0.6411  0.8231
 9273SOL    HW239279   0.964   1.268   3.161  0.2523  3.2319  0.4298
 9274SOL     OW39280   0.370   0.737  10.348  0.1215  0.5293  0.2787
 9274SOL    HW139281   0.401   0.647  10.335 -0.5384  0.6671 -2.2572
 9274SOL    HW239282   0.450   0.784  10.373  1.3464 -1.8790  0.8876
 9275SOL     OW39283   3.851   4.323   7.162  0.2726  0.5595 -0.0320
 9275SOL    HW139284   3.798   4.402   7.172 -1.3440 -0.6280  0.6547
 9275SOL    HW239285   3.931   4.360   7.200  0.8834  2.5115 -3.1344
 9276SOL     OW39286   0.425   3.519   1.965  0.1101 -0.1572  0.1484
 9276SOL    HW139287   0.386   3.569   2.037 -1.8335  0.2265 -1.1570
 9276SOL    HW239288   0.420   3.576   1.889  2.9057 -0.2315 -0.0594
 9277SOL     OW39289   1.739   0.993   9.727 -0.2128 -0.1688  0.0949
 9277SOL    HW139290   1.730   1.072   9.673  0.3676 -2.0487 -2.7474
 9277SOL    HW239291   1.826   0.965   9.697 -0.8767 -0.6582 -1.3599
 9278SOL     OW39292   0.655   3.313   4.764 -0.1193 -0.2717  0.5924
 9278SOL    HW139293   0.630   3.242   4.705 -1.4946 -0.2410  1.1462
 9278SOL    HW239294   0.580   3.367   4.742  0.8995  0.5582 -0.7928
 9279SOL     OW39295   4.077   1.683   5.041 -0.1063 -0.2850  0.0121
 9279SOL    HW139296   4.152   1.740   5.061 -1.0608  0.2535  2.0545
 9279SOL    HW239297   4.064   1.628   5.118  0.9971  1.7945  1.6847
 9280SOL     OW39298   0.240   0.901   3.163  0.1235  0.6800  0.2049
 9280SOL    HW139299   0.156   0.946   3.157  0.0368  0.6505  1.1590
 9280SOL    HW239300   0.246   0.870   3.073 -0.2537 -0.5945  0.6118
 9281SOL     OW39301   0.969   0.498   8.942 -0.2641 -0.4441  0.1255
 9281SOL    HW139302   0.914   0.482   8.865  0.3830  0.5475 -0.5416
 9281SOL    HW239303   1.053   0.452   8.931  0.7106  1.4943 -0.6185
 9282SOL     OW39304   1.435   3.082   2.041 -0.0617  0.2283  0.0669
 9282SOL    HW139305   1.350   3.124   2.026  0.5758  1.4630 -0.0784
 9282SOL    HW239306   1.423   3.009   1.980 -1.6810 -0.1453  0.8276
 9283SOL     OW39307   3.980   1.909   9.768  0.0836  0.5649  0.4368
 9283SOL    HW139308   4.067   1.877   9.793  0.3232  0.8565 -0.0144
 9283SOL    HW239309   3.926   1.832   9.785  0.1542  0.1352 -1.2479
 9284SOL     OW39310   1.612   3.129   7.841 -0.3663  0.3989 -0.2375
 9284SOL    HW139311   1.690   3.182   7.860 -0.1001  1.7102 -5.0190
 9284SOL    HW239312   1.579   3.093   7.923  1.2122 -1.6176 -0.4981
 9285SOL     OW39313   1.779   2.100   7.492  0.0792 -0.3273 -0.0290
 9285SOL    HW139314   1.718   2.108   7.566  0.5628 -1.2454  0.4769
 9285SOL    HW239315   1.726   2.137   7.422 -0.2004 -1.6112 -0.5084
 9286SOL     OW39316   0.077   3.084  17.680 -0.3610  0.5669 -0.7629
 9286SOL    HW139317   4.718   3.031  17.683  0.1605 -0.2538 -1.2318
 9286SOL    HW239318   0.138   3.012  17.663 -3.1494 -1.4260 -2.3893
 9287SOL     OW39319   4.225   2.640   4.417 -0.0124  0.0559 -0.0996
 9287SOL    HW139320   4.171   2.581   4.366  1.9391 -1.3808 -0.5131
 9287SOL    HW239321   4.277   2.687   4.351  1.0338 -1.2746 -0.2347
 9288SOL     OW39322   1.707   2.496  14.919 -0.4621  0.1317  0.6314
 9288SOL    HW139323   1.668   2.570  14.873  0.9169  0.0860 -0.6094
 9288SOL    HW239324   1.794   2.486  14.880 -1.8057 -1.0402 -2.0131
 9289SOL     OW39325   4.309   2.682   8.223 -0.1950 -0.0628 -0.1908
 9289SOL    HW139326   4.378   2.665   8.158  0.7669 -1.0350  1.0788
 9289SOL    HW239327   4.261   2.600   8.235 -0.0630 -0.2943 -1.1718
 9290SOL     OW39328   2.950   3.344   6.172  0.1774 -0.7554 -0.3530
 9290SOL    HW139329   2.905   3.428   6.160 -1.1694 -1.0956  2.2499
 9290SOL    HW239330   3.029   3.371   6.217 -0.8721  1.5412  0.1010
 9291SOL     OW39331   0.791   0.305  13.133 -0.2415 -0.1395  0.4122
 9291SOL    HW139332   0.793   0.327  13.040 -0.1119 -0.5332  0.3212
 9291SOL    HW239333   0.756   0.381  13.179 -0.0592 -0.9553  1.8972
 9292SOL     OW39334   0.232   2.237   4.251  0.5233 -0.0222  0.0903
 9292SOL    HW139335   0.286   2.158   4.246  0.1173 -0.4141  2.1728
 9292SOL    HW239336   0.297   2.292   4.208 -0.6463  0.2434 -1.3320
 9293SOL     OW39337   0.761   1.519  14.345 -0.2814  0.1376  0.0859
 9293SOL    HW139338   0.697   1.494  14.412 -2.2038 -0.9805 -2.1675
 9293SOL    HW239339   0.771   1.610  14.372  3.2526 -0.8049  2.0069
 9294SOL     OW39340   2.584   1.608   2.467  0.0880 -0.2129 -0.2013
 9294SOL    HW139341   2.547   1.692   2.439  0.9381 -0.4305 -2.0022
 9294SOL    HW239342   2.663   1.630   2.516  0.4698  0.8579 -1.2791
 9295SOL     OW39343   4.359   1.306  11.059 -0.4247 -0.0107  0.8209
 9295SOL    HW139344   4.364   1.218  11.021 -0.8191  0.7182 -0.8820
 9295SOL    HW239345   4.267   1.324  11.077 -0.4791 -0.9433  1.5097
 9296SOL     OW39346   4.578   2.471  10.716  0.4236 -0.4082 -0.2513
 9296SOL    HW139347   4.543   2.384  10.734 -0.0658 -0.1547  0.0308
 9296SOL    HW239348   4.509   2.524  10.757 -0.1138 -0.6191 -0.8772
 9297SOL     OW39349   1.373   2.245   1.920 -0.0893 -0.2051 -0.4759
 9297SOL    HW139350   1.406   2.262   1.832  2.5935 -0.4121  0.4923
 9297SOL    HW239351   1.302   2.309   1.916  0.6427  0.6480  0.4151
 9298SOL     OW39352   0.864   2.904   7.232  0.3358 -0.1623 -0.6076
 9298SOL    HW139353   0.885   2.888   7.324 -0.3238  0.6213 -0.3308
 9298SOL    HW239354   0.952   2.882   7.201 -0.4861 -2.6521 -1.2504
 9299SOL     OW39355   3.797   0.016   8.094 -0.0503  0.8193  0.1909
 9299SOL    HW139356   3.783   0.019   8.000  2.3600 -1.8552 -0.2221
 9299SOL    HW239357   3.887   4.705   8.100 -0.1276  0.7172  0.8728
 9300SOL     OW39358   3.563   1.284   9.153 -0.1350  0.2518  0.3345
 9300SOL    HW139359   3.498   1.255   9.089  0.2003 -1.9547  1.0042
 9300SOL    HW239360   3.643   1.238   9.127  0.7484  1.2048  1.3664
 9301SOL     OW39361   0.190   2.323   8.683  0.8570  0.5317  0.0343
 9301SOL    HW139362   0.233   2.256   8.736  0.0751 -0.6016 -0.7610
 9301SOL    HW239363   0.119   2.344   8.744  0.7410  0.0859  0.0521
 9302SOL     OW39364   2.416   1.859   7.308 -0.4117 -0.0628 -0.0599
 9302SOL    HW139365   2.323   1.840   7.323 -0.2615 -1.2150 -0.6261
 9302SOL    HW239366   2.405   1.937   7.253  0.5935 -0.0684 -0.2610
 9303SOL     OW39367   4.164   3.637   1.128  0.6170  0.3639  0.5904
 9303SOL    HW139368   4.221   3.639   1.051  0.4396  0.2943  0.4579
 9303SOL    HW239369   4.079   3.671   1.098  1.2486  0.3198 -1.2306
 9304SOL     OW39370   0.986   3.260   2.120 -0.2980  0.0291  0.0404
 9304SOL    HW139371   1.024   3.280   2.205 -1.3370  0.7068  0.3398
 9304SOL    HW239372   1.034   3.181   2.094  2.0496  1.3331  0.4124
 9305SOL     OW39373   3.823   2.357  16.582 -0.0355  0.7333 -0.1451
 9305SOL    HW139374   3.790   2.323  16.499  0.4712  0.9183 -0.4256
 9305SOL    HW239375   3.743   2.391  16.620 -0.3155 -0.8358  0.6840
 9306SOL     OW39376   2.678   3.243   2.551  0.1499 -0.4111  0.4263
 9306SOL    HW139377   2.637   3.327   2.529  0.2718 -0.0411  1.6164
 9306SOL    HW239378   2.611   3.189   2.510  0.6006  0.4727 -1.4522
 9307SOL     OW39379   2.938   2.263   2.771  0.4060 -0.2441 -0.0357
 9307SOL    HW139380   2.973   2.213   2.697  0.7687  0.3400 -0.2595
 9307SOL    HW239381   3.015   2.319   2.782  0.1387  0.0556  0.3100
 9308SOL     OW39382   3.101   2.550   9.406 -0.6581 -0.2068  0.4738
 9308SOL    HW139383   3.125   2.576   9.495 -2.3618 -0.2431  0.9414
 9308SOL    HW239384   3.056   2.625   9.368 -2.5161 -1.2803  0.5366
 9309SOL     OW39385   2.055   1.064   6.657 -0.5359 -0.4249  0.6958
 9309SOL    HW139386   2.074   1.055   6.564 -2.4966  1.1549  0.1339
 9309SOL    HW239387   2.096   0.984   6.689  0.3056  0.3726  1.5881
 9310SOL     OW39388   2.487   3.834   2.940 -0.6345 -0.0761 -0.0402
 9310SOL    HW139389   2.393   3.820   2.933 -0.6852  0.1814  0.1318
 9310SOL    HW239390   2.528   3.756   2.978  0.9605 -0.2283 -2.1113
 9311SOL     OW39391   3.753   0.935   6.475 -0.3189 -0.3749 -0.2811
 9311SOL    HW139392   3.822   0.869   6.485 -3.5141 -3.9818 -1.9422
 9311SOL    HW239393   3.808   1.013   6.471  0.0581 -0.6240 -0.0223
 9312SOL     OW39394   2.971   1.105   4.617 -0.1447  0.3009  0.0965
 9312SOL    HW139395   3.014   1.189   4.629 -1.5383  1.0261 -0.0175
 9312SOL    HW239396   2.907   1.099   4.688 -0.0958  0.6965  0.1701
 9313SOL     OW39397   3.191   3.828   4.860  0.0141  0.1361  0.0807
 9313SOL    HW139398   3.187   3.885   4.936 -1.6968  0.8388 -0.5391
 9313SOL    HW239399   3.235   3.888   4.800 -1.6666  1.5540  0.2690
 9314SOL     OW39400   4.217   4.145  10.882  0.1587 -0.1628 -0.5532
 9314SOL    HW139401   4.216   4.096  10.799 -1.0927  0.2191 -0.7629
 9314SOL    HW239402   4.246   4.083  10.949 -0.5166  0.8552  0.6800
 9315SOL     OW39403   3.617   1.507   5.793  0.8086  0.1649  0.2386
 9315SOL    HW139404   3.646   1.594   5.764  1.9872  0.2023  1.5229
 9315SOL    HW239405   3.535   1.541   5.829  0.3246 -3.3304  2.4251
 9316SOL     OW39406   0.035   3.685   4.331 -0.6174  0.1868 -0.0822
 9316SOL    HW139407   0.122   3.647   4.342 -0.4009  0.4936 -0.7305
 9316SOL    HW239408   4.699   3.608   4.334 -0.0135 -0.2489  0.2252
 9317SOL     OW39409   3.796   0.215  13.826  0.5798  0.5492  0.7209
 9317SOL    HW139410   3.870   0.172  13.868  1.0535  2.0504  1.4106
 9317SOL    HW239411   3.723   0.161  13.855  0.8001  0.4865  1.1552
 9318SOL     OW39412   1.627   4.205   2.923 -0.1143 -0.6697  0.2857
 9318SOL    HW139413   1.648   4.281   2.976 -0.9377  0.5709 -1.1732
 9318SOL    HW239414   1.575   4.241   2.851 -0.1538  1.7620  1.5297
 9319SOL     OW39415   2.244   2.984   5.470 -0.5988  0.2499  0.1732
 9319SOL    HW139416   2.285   3.047   5.528  1.3920 -0.1437 -0.8126
 9319SOL    HW239417   2.176   2.962   5.534  1.0148 -1.2814  1.3530
 9320SOL     OW39418   1.004   3.648  17.551 -0.1952 -0.1333 -0.1511
 9320SOL    HW139419   0.914   3.642  17.581 -0.9290  1.8338 -1.9183
 9320SOL    HW239420   1.018   3.559  17.520 -1.9651 -1.2000  2.0981
 9321SOL     OW39421   1.388   2.573   8.709  0.2621 -0.4567  0.7808
 9321SOL    HW139422   1.439   2.645   8.672  0.1448 -0.0813  1.3510
 9321SOL    HW239423   1.308   2.602   8.665  0.9986  0.4852  0.0636
 9322SOL     OW39424   1.832   2.531  15.844  0.2818  0.1244 -0.2144
 9322SOL    HW139425   1.774   2.501  15.775 -2.0973 -0.8893  2.2065
 9322SOL    HW239426   1.868   2.607  15.799  1.7993 -0.8093 -0.5877
 9323SOL     OW39427   3.763   2.898   8.855 -0.2113 -0.1576 -0.0157
 9323SOL    HW139428   3.718   2.874   8.774 -1.6885 -3.0053  1.6824
 9323SOL    HW239429   3.837   2.949   8.821 -0.7466  0.5425 -0.1292
 9324SOL     OW39430   2.490   1.434   4.451 -0.0242  0.2855 -0.3318
 9324SOL    HW139431   2.470   1.345   4.422  0.2374  0.5291 -1.2291
 9324SOL    HW239432   2.429   1.445   4.525  1.8843  2.3730  0.9089
 9325SOL     OW39433   0.304   0.690  12.028 -0.9914 -0.2415 -0.2738
 9325SOL    HW139434   0.236   0.648  11.975 -1.3628  0.0708 -0.0428
 9325SOL    HW239435   0.310   0.619  12.092  1.0838 -0.8086 -1.1277
 9326SOL     OW39436   1.148   3.445   8.363  0.2784 -0.3225  0.5634
 9326SOL    HW139437   1.166   3.482   8.450 -0.6686 -0.8637  0.9884
 9326SOL    HW239438   1.179   3.516   8.308 -2.4340 -0.1985 -0.7770
 9327SOL     OW39439   0.233   1.306   3.111  0.3445 -0.0583  0.4280
 9327SOL    HW139440   0.167   1.246   3.146 -1.4982  0.5039 -2.0953
 9327SOL    HW239441   0.316   1.267   3.139 -0.8348  0.7764  5.0073
 9328SOL     OW39442   3.376   3.012   7.294 -0.0892  0.2040  0.1883
 9328SOL    HW139443   3.362   2.921   7.321  0.6127  0.0880  0.1631
 9328SOL    HW239444   3.285   3.039   7.307 -0.5293 -1.5094  0.7086
 9329SOL     OW39445   2.101   1.207   7.858  0.3482 -0.1695 -0.1184
 9329SOL    HW139446   2.155   1.166   7.925  0.7267 -1.6575 -1.3439
 9329SOL    HW239447   2.171   1.207   7.793  0.2386 -0.8628 -0.2345
 9330SOL     OW39448   3.838   1.760   1.118 -0.0038  0.1460  0.0251
 9330SOL    HW139449   3.783   1.738   1.193  1.2268  1.8948  1.4336
 9330SOL    HW239450   3.905   1.692   1.116 -0.5855 -0.4249 -0.0596
 9331SOL     OW39451   3.585   2.172   4.794 -0.1022 -0.1446 -0.2763
 9331SOL    HW139452   3.516   2.163   4.860 -0.8583 -0.9836 -1.1697
 9331SOL    HW239453   3.542   2.124   4.723 -1.7855 -0.5102  0.9955
 9332SOL     OW39454   3.295   3.891   7.313  0.4774 -0.1739 -0.5270
 9332SOL    HW139455   3.275   3.944   7.236 -1.2858 -0.4559 -0.2754
 9332SOL    HW239456   3.373   3.847   7.281  0.3293 -0.4066 -0.5710
 9333SOL     OW39457   2.896   3.009  16.506  0.1413  0.4006 -0.0058
 9333SOL    HW139458   2.889   3.100  16.479 -1.8149 -0.0489 -0.9840
 9333SOL    HW239459   2.968   3.027  16.567  1.7010 -2.2645 -1.0347
 9334SOL     OW39460   3.980   4.667   5.601  0.0425  0.2600  0.7147
 9334SOL    HW139461   4.001   4.648   5.509 -1.3824  0.5742  0.3272
 9334SOL    HW239462   4.026   4.590   5.636 -0.6910 -0.9309 -0.9114
 9335SOL     OW39463   0.593   3.929   3.954  0.4537  0.3253  0.2196
 9335SOL    HW139464   0.530   3.879   4.007  0.3562 -0.5065 -0.6859
 9335SOL    HW239465   0.546   4.008   3.929 -0.5077 -0.7166 -1.2688
 9336SOL     OW39466   0.972   0.920   2.682  0.4880  0.2750  0.5363
 9336SOL    HW139467   1.004   0.925   2.772  0.4874  0.1719  0.5425
 9336SOL    HW239468   0.941   0.830   2.672 -1.3182  0.9571  0.0508
 9337SOL     OW39469   3.006   3.280   8.880 -0.4847  0.2252  0.6967
 9337SOL    HW139470   3.073   3.296   8.813 -1.4002 -1.6953 -0.6749
 9337SOL    HW239471   3.013   3.185   8.893 -1.9036  0.4346  2.9151
 9338SOL     OW39472   1.939   2.200  10.420 -0.1336 -0.1614 -0.0055
 9338SOL    HW139473   1.947   2.105  10.413  0.9569  0.0256 -1.3139
 9338SOL    HW239474   1.920   2.227  10.509  0.2736 -0.2543  0.1092
 9339SOL     OW39475   2.476   1.590   1.574 -0.4555  0.4110  0.5896
 9339SOL    HW139476   2.529   1.517   1.543 -0.3184  1.5700 -1.9159
 9339SOL    HW239477   2.416   1.617   1.504  0.7447 -1.3114 -1.1172
 9340SOL     OW39478   3.997   2.275   8.486 -0.0263  0.5628  0.1791
 9340SOL    HW139479   3.904   2.279   8.507 -0.9187 -2.7329 -3.2534
 9340SOL    HW239480   4.031   2.331   8.556 -2.0177  1.1623  0.6712
 9341SOL     OW39481   3.212   3.202   7.903 -0.5776 -0.2318 -0.6401
 9341SOL    HW139482   3.155   3.156   7.841 -0.4316 -1.5764  0.2095
 9341SOL    HW239483   3.188   3.168   7.989  0.7436  2.3223  0.7154
 9342SOL     OW39484   2.759   4.638  13.663 -0.8360  0.0247  0.1861
 9342SOL    HW139485   2.747   4.544  13.678  0.9823 -0.2932 -0.4271
 9342SOL    HW239486   2.672   4.665  13.633 -0.5470 -0.7910 -1.4060
 9343SOL     OW39487   1.899   0.078   5.800 -0.0338 -0.0912 -0.0365
 9343SOL    HW139488   1.942   0.078   5.715 -0.5192 -0.4603 -0.2857
 9343SOL    HW239489   1.898   4.708   5.829 -1.5418 -0.1242 -0.1910
 9344SOL     OW39490   1.620   4.496  13.128 -0.4051 -0.2295 -0.2026
 9344SOL    HW139491   1.642   4.565  13.066 -0.2188  0.9160  1.1515
 9344SOL    HW239492   1.539   4.528  13.166 -1.5240 -0.9234 -2.0178
 9345SOL     OW39493   3.717   0.578   6.738  0.3072 -0.7779  0.3048
 9345SOL    HW139494   3.785   0.601   6.673  0.1696  3.5556  1.6751
 9345SOL    HW239495   3.680   0.662   6.766  1.0150 -0.9716  1.7803
 9346SOL     OW39496   4.158   1.969   2.739 -0.3936 -0.3610  0.4159
 9346SOL    HW139497   4.164   2.058   2.773 -0.6289  0.1427 -0.8597
 9346SOL    HW239498   4.164   1.989   2.646  1.6429 -0.8229  0.4565
 9347SOL     OW39499   2.149   1.521   2.605  0.1745 -0.1060 -0.1945
 9347SOL    HW139500   2.200   1.460   2.553  2.0906  0.4386  1.0257
 9347SOL    HW239501   2.225   1.564   2.645 -1.1945  1.6362  0.5628
 9348SOL     OW39502   2.748   0.583  13.866  0.0748 -0.0995 -0.0401
 9348SOL    HW139503   2.709   0.521  13.927  0.3450 -1.4191 -1.2180
 9348SOL    HW239504   2.826   0.535  13.837 -0.9814 -0.9119 -1.5055
 9349SOL     OW39505   3.441   1.391   0.957 -0.0243  0.1760 -0.0006
 9349SOL    HW139506   3.497   1.315   0.941 -1.6820 -0.6645 -1.7533
 9349SOL    HW239507   3.452   1.429   0.870 -1.2839  0.7337  0.0803
 9350SOL     OW39508   0.717   3.230  11.465  0.0452 -0.1107 -0.7438
 9350SOL    HW139509   0.640   3.211  11.520 -1.1605  2.2569 -1.6281
 9350SOL    HW239510   0.688   3.315  11.434  0.9961  1.0388  1.5031
 9351SOL     OW39511   2.669   1.301   8.385 -0.0949  0.0215  0.0022
 9351SOL    HW139512   2.686   1.249   8.306 -0.6952 -0.9879  0.5418
 9351SOL    HW239513   2.730   1.258   8.445  0.4982  0.8304 -0.0283
 9352SOL     OW39514   1.864   0.641   5.221  0.0117 -0.5692  0.5274
 9352SOL    HW139515   1.908   0.563   5.255 -0.7805 -0.5481  1.6101
 9352SOL    HW239516   1.820   0.606   5.144 -2.7924  1.6358  1.1112
 9353SOL     OW39517   3.036   2.678   8.124  0.6510  0.5187  0.0799
 9353SOL    HW139518   2.973   2.606   8.129  0.4552  0.5736 -1.4895
 9353SOL    HW239519   3.114   2.625   8.109  0.1770 -0.8013  2.2932
 9354SOL     OW39520   2.003   0.243   7.215  0.0828  0.2452 -1.0409
 9354SOL    HW139521   1.985   0.258   7.122  0.3783  0.4515 -1.0661
 9354SOL    HW239522   1.936   0.301   7.250  0.9758 -0.2575  1.5168
 9355SOL     OW39523   4.682   1.575   2.527  0.0499  0.4370  0.4956
 9355SOL    HW139524   0.036   1.516   2.530 -2.0237 -2.2930 -0.7216
 9355SOL    HW239525   0.012   1.632   2.470 -1.7818  0.6317 -0.9879
 9356SOL     OW39526   2.965   0.731  11.013  0.5975 -0.0071 -0.0034
 9356SOL    HW139527   2.880   0.701  10.984  0.8524 -0.9538  0.2282
 9356SOL    HW239528   3.025   0.660  10.990  0.1828 -0.6239  0.7834
 9357SOL     OW39529   0.838   1.787   5.437 -0.0985  0.4472 -0.0909
 9357SOL    HW139530   0.856   1.740   5.356  2.7642 -0.2111  0.9410
 9357SOL    HW239531   0.815   1.716   5.497 -0.8439 -0.0658 -0.9764
 9358SOL     OW39532   1.419   0.526  14.851 -0.1948  0.7913  0.0387
 9358SOL    HW139533   1.347   0.577  14.889 -0.1662  0.2505  0.8174
 9358SOL    HW239534   1.450   0.581  14.778 -2.3829 -1.0914 -2.2944
 9359SOL     OW39535   3.134   3.511   2.360  0.0999 -0.5624  0.5768
 9359SOL    HW139536   3.168   3.549   2.440  2.6471  0.2991 -0.9240
 9359SOL    HW239537   3.067   3.450   2.392 -0.2699 -0.3744  0.1641
 9360SOL     OW39538   4.570   1.264   5.274 -0.0651  0.2560  0.3940
 9360SOL    HW139539   4.506   1.206   5.315 -0.5895  0.2638 -0.4055
 9360SOL    HW239540   4.651   1.244   5.321  0.2342  0.2590 -0.1205
 9361SOL     OW39541   1.311   4.215   5.575  0.1749  0.2117 -0.4119
 9361SOL    HW139542   1.247   4.148   5.600  2.0717 -0.9018  1.4891
 9361SOL    HW239543   1.358   4.221   5.658 -3.0799 -0.2852  1.4632
 9362SOL     OW39544   3.009   4.410   5.180 -0.0688 -0.1856 -0.2713
 9362SOL    HW139545   2.943   4.478   5.166 -0.4195 -0.4457  0.1032
 9362SOL    HW239546   2.962   4.329   5.200  0.5128 -0.3927  0.2414
 9363SOL     OW39547   4.391   2.480   3.232  0.1832  0.6226 -0.0323
 9363SOL    HW139548   4.389   2.439   3.146 -0.0644 -0.3017  0.4142
 9363SOL    HW239549   4.425   2.564   3.201 -0.4429 -0.1734 -2.9011
 9364SOL     OW39550   0.664   1.227  13.603 -0.8059  1.1443 -0.1395
 9364SOL    HW139551   0.682   1.292  13.672 -1.3065  2.3849 -1.1974
 9364SOL    HW239552   0.587   1.178  13.628  0.1783  0.2403  1.1395
 9365SOL     OW39553   3.781   0.211   1.539  0.1761 -0.5314  0.4355
 9365SOL    HW139554   3.819   0.297   1.557 -0.2566 -0.0456 -1.0259
 9365SOL    HW239555   3.860   0.159   1.526 -0.6471 -1.9474  1.1542
 9366SOL     OW39556   3.610   3.519   8.497 -0.1043 -0.5046 -1.0358
 9366SOL    HW139557   3.660   3.574   8.557 -0.0972 -0.3612 -1.1732
 9366SOL    HW239558   3.526   3.518   8.543  0.2158  2.2744 -0.3568
 9367SOL     OW39559   3.142   3.303   5.574  0.1478 -0.1121 -0.3727
 9367SOL    HW139560   3.218   3.362   5.580  0.1307  0.0470 -1.5896
 9367SOL    HW239561   3.071   3.367   5.579  0.4250 -0.1173  3.3331
 9368SOL     OW39562   3.350   3.301   2.741  0.0647 -0.5059  0.9925
 9368SOL    HW139563   3.302   3.226   2.706  0.7105 -1.3361  1.8682
 9368SOL    HW239564   3.278   3.361   2.760  0.8245  1.1578 -1.4710
 9369SOL     OW39565   3.446   4.532   4.581 -0.3937 -0.5873 -0.2468
 9369SOL    HW139566   3.405   4.562   4.662 -0.4204 -1.8406  0.1979
 9369SOL    HW239567   3.470   4.617   4.543 -1.0444 -0.0738  0.4688
 9370SOL     OW39568   2.054   2.912   5.664  0.8309 -0.3539 -0.1845
 9370SOL    HW139569   1.960   2.931   5.671  0.8025  0.1319 -1.7656
 9370SOL    HW239570   2.057   2.819   5.684 -0.4096 -0.5558 -0.9056
 9371SOL     OW39571   1.829   0.807   4.066 -0.1706 -0.5860 -0.0970
 9371SOL    HW139572   1.804   0.715   4.064  0.4967 -0.7172 -1.8526
 9371SOL    HW239573   1.761   0.854   4.114  0.1704 -0.2877  0.0986
 9372SOL     OW39574   2.039   1.293   3.490  0.0657  0.3378 -0.0751
 9372SOL    HW139575   2.071   1.357   3.553 -0.5112 -0.0824  0.6440
 9372SOL    HW239576   1.944   1.304   3.495  0.0229  0.2547 -0.6290
 9373SOL     OW39577   1.109   2.018   0.187  0.6953 -0.1394  0.6752
 9373SOL    HW139578   1.192   1.974   0.203  0.2840 -1.4414 -0.8165
 9373SOL    HW239579   1.142   2.096   0.143 -0.3770 -0.2171 -0.2480
 9374SOL     OW39580   2.355   0.357   4.591 -0.0364 -0.0466 -0.3370
 9374SOL    HW139581   2.363   0.266   4.619 -0.2553  0.0047 -0.1073
 9374SOL    HW239582   2.413   0.389   4.660  1.1518 -1.9028 -0.5030
 9375SOL     OW39583   4.048   1.433  17.587 -0.1204 -0.0479 -0.2192
 9375SOL    HW139584   4.119   1.370  17.582  1.4659  1.6353  0.9547
 9375SOL    HW239585   4.079   1.513  17.545 -0.3502  1.9016  3.3541
 9376SOL     OW39586   3.160   3.124   4.495 -0.2137 -0.1179 -0.2995
 9376SOL    HW139587   3.079   3.127   4.444 -0.7355  2.4389  0.6806
 9376SOL    HW239588   3.217   3.089   4.427 -1.0020 -0.4348 -0.8073
 9377SOL     OW39589   0.317   0.431  12.189 -0.1944 -0.1640  0.4756
 9377SOL    HW139590   0.379   0.435  12.261 -1.1912 -0.9135  1.3724
 9377SOL    HW239591   0.239   0.469  12.229 -0.6437  0.7769 -1.2622
 9378SOL     OW39592   0.296   2.256   4.920 -0.6438  0.4242 -0.1084
 9378SOL    HW139593   0.239   2.187   4.954 -0.2915 -0.2674 -0.9209
 9378SOL    HW239594   0.375   2.248   4.974 -0.7852 -1.9475 -0.2446
 9379SOL     OW39595   0.573   1.210  15.257 -0.1880  0.6096 -0.4104
 9379SOL    HW139596   0.492   1.239  15.216 -0.1803  0.9308 -0.2011
 9379SOL    HW239597   0.574   1.264  15.336 -0.1173 -1.3008  0.9009
 9380SOL     OW39598   3.740   2.124   9.966  0.0567 -1.0311 -0.0594
 9380SOL    HW139599   3.832   2.138   9.989 -0.4151  0.3690  0.9598
 9380SOL    HW239600   3.727   2.196   9.903 -0.9182 -0.7050  0.5205
 9381SOL     OW39601   3.258   1.093  13.268 -0.0007 -0.2582  0.1598
 9381SOL    HW139602   3.308   1.035  13.212 -2.4443 -2.6670  0.4645
 9381SOL    HW239603   3.297   1.176  13.241 -0.9324  0.4369  0.9427
 9382SOL     OW39604   2.101   0.182  10.166  0.2536 -0.0320 -0.1434
 9382SOL    HW139605   2.083   0.093  10.197  1.3462 -1.1651 -2.7864
 9382SOL    HW239606   2.192   0.193  10.192 -0.1787 -0.0057  1.3814
 9383SOL     OW39607   0.291   2.136   6.476  0.0580  0.6302 -0.2364
 9383SOL    HW139608   0.375   2.091   6.488 -0.3215  0.0145  0.0592
 9383SOL    HW239609   0.277   2.132   6.381  2.6466  0.1487 -0.6085
 9384SOL     OW39610   0.264   0.736   7.163 -0.0877 -0.6807  0.6298
 9384SOL    HW139611   0.310   0.818   7.141 -1.5609 -0.8224 -3.1232
 9384SOL    HW239612   0.171   0.745   7.142 -0.4119  0.7566  2.7618
 9385SOL     OW39613   2.852   0.315   2.576 -0.3765  0.1398  0.0105
 9385SOL    HW139614   2.846   0.410   2.573  0.5374  0.2271  0.8722
 9385SOL    HW239615   2.942   0.305   2.608 -0.7920 -2.1805  0.4847
 9386SOL     OW39616   2.716   2.248   9.060  0.0312 -0.6387 -0.2691
 9386SOL    HW139617   2.623   2.262   9.044  0.0011 -0.7949 -0.2248
 9386SOL    HW239618   2.730   2.215   9.148  1.7517  0.6849 -0.0462
 9387SOL     OW39619   1.322   0.532   7.760 -0.5899  0.1750 -0.3480
 9387SOL    HW139620   1.354   0.592   7.827 -2.7018  0.2218  0.6235
 9387SOL    HW239621   1.256   0.586   7.716 -0.2943  0.0045 -1.0034
 9388SOL     OW39622   0.740   3.260  15.473 -0.8818  0.1163 -0.4142
 9388SOL    HW139623   0.755   3.348  15.440  1.7728  0.6721  2.2426
 9388SOL    HW239624   0.814   3.219  15.429 -0.7062 -0.4893  0.4443
 9389SOL     OW39625   0.130   3.562   7.052 -0.2289 -0.1673 -0.4002
 9389SOL    HW139626   0.132   3.644   7.002  2.3406 -0.5026 -0.8112
 9389SOL    HW239627   0.145   3.493   6.988  1.7593  1.1348 -1.3597
 9390SOL     OW39628   1.973   0.491   1.047 -0.0589  0.0718  0.0384
 9390SOL    HW139629   1.944   0.576   1.079 -0.2997 -0.2693  0.7178
 9390SOL    HW239630   2.063   0.512   1.023  0.2138 -0.5729  0.4838
 9391SOL     OW39631   3.351   4.169   9.270 -0.8147 -0.4642 -0.1416
 9391SOL    HW139632   3.309   4.115   9.337 -2.4781 -0.0442 -0.8558
 9391SOL    HW239633   3.391   4.235   9.328 -2.1084  0.3110 -0.1331
 9392SOL     OW39634   1.773   2.674   8.566 -0.0921 -0.3335 -0.3370
 9392SOL    HW139635   1.782   2.648   8.474 -0.4083  0.2270 -0.5319
 9392SOL    HW239636   1.680   2.692   8.576  0.3113  1.0889  0.9213
 9393SOL     OW39637   4.163   1.094   9.602 -0.0943  0.1582 -0.1322
 9393SOL    HW139638   4.072   1.091   9.632 -0.3391  0.1090 -0.8594
 9393SOL    HW239639   4.149   1.059   9.514 -0.6400 -1.1711  0.4808
 9394SOL     OW39640   4.169   0.307   7.261  0.7368  0.7724  0.7012
 9394SOL    HW139641   4.222   0.233   7.292  0.7320  0.0727 -1.0006
 9394SOL    HW239642   4.197   0.302   7.170 -2.0691 -0.6745 -0.0690
 9395SOL     OW39643   2.357   3.377   5.729  0.1745  0.1624  0.3552
 9395SOL    HW139644   2.380   3.389   5.821 -1.2592  0.1680  0.7019
 9395SOL    HW239645   2.264   3.387   5.747  0.2764 -0.0707  1.0140
 9396SOL     OW39646   1.446   1.152  15.423  0.4406 -0.0341 -0.0792
 9396SOL    HW139647   1.531   1.190  15.401  0.6587 -0.1782  0.5093
 9396SOL    HW239648   1.454   1.057  15.422 -2.7108 -0.3441  2.0485
 9397SOL     OW39649   3.305   3.694   3.523  0.0377 -0.7096  0.2053
 9397SOL    HW139650   3.215   3.725   3.523  0.4157  0.4107 -0.1566
 9397SOL    HW239651   3.299   3.680   3.618  0.1614 -0.6182  0.2276
 9398SOL     OW39652   2.860   4.693   5.870 -0.1415 -0.0681  0.1069
 9398SOL    HW139653   2.886   4.643   5.947  4.2526  0.2374 -1.1430
 9398SOL    HW239654   2.924   4.672   5.802  1.8537 -0.4245  2.0857
 9399SOL     OW39655   4.310   1.828   5.120  0.3320 -0.4872  0.0298
 9399SOL    HW139656   4.303   1.880   5.200 -0.1435 -3.0451  1.6286
 9399SOL    HW239657   4.360   1.888   5.064  1.7794  0.9331  2.8671
 9400SOL     OW39658   1.106   1.003  14.565  0.1635 -0.5298  0.1035
 9400SOL    HW139659   1.149   1.069  14.620  1.1746 -0.9834 -0.1420
 9400SOL    HW239660   1.155   0.922  14.579  2.0769  0.7582  0.8913
 9401SOL     OW39661   1.191   4.373   7.267 -0.1792 -0.6148 -0.3933
 9401SOL    HW139662   1.259   4.366   7.201 -0.4834 -1.7410 -0.5919
 9401SOL    HW239663   1.204   4.288   7.311  2.0018  0.1987  0.5196
 9402SOL     OW39664   2.432   0.587  11.058 -0.4736  0.2846  0.2538
 9402SOL    HW139665   2.417   0.570  11.151  0.6836 -4.5743 -0.4830
 9402SOL    HW239666   2.344   0.620  11.039  0.0079  0.0246 -2.4582
 9403SOL     OW39667   3.568   3.925  13.559  0.1362 -0.0989 -0.2109
 9403SOL    HW139668   3.634   3.917  13.490  0.8097 -0.6745  0.4988
 9403SOL    HW239669   3.613   3.993  13.609 -0.3466 -0.8922  1.2802
 9404SOL     OW39670   4.559   4.212  15.726 -0.3350  0.0522 -0.6419
 9404SOL    HW139671   4.517   4.135  15.765 -0.1367 -0.8669 -2.2127
 9404SOL    HW239672   4.490   4.278  15.737  2.0788  2.5426 -0.4145
 9405SOL     OW39673   3.734   3.172   2.900  0.2400  0.0865  0.3436
 9405SOL    HW139674   3.781   3.182   2.983 -0.0670 -1.7040  0.7447
 9405SOL    HW239675   3.717   3.266   2.894  1.0965  0.2239  0.1256
 9406SOL     OW39676   2.769   0.713   9.752  0.0669 -0.6208 -0.3769
 9406SOL    HW139677   2.722   0.662   9.819 -0.0315  0.3017  0.2480
 9406SOL    HW239678   2.727   0.682   9.671 -0.7698 -0.6623  0.0668
 9407SOL     OW39679   2.889   3.220  10.073  0.0478 -0.2544 -0.2222
 9407SOL    HW139680   2.886   3.309  10.109 -0.2989 -0.8175  1.1539
 9407SOL    HW239681   2.984   3.212  10.077 -0.2057 -2.4287  1.1328
 9408SOL     OW39682   1.364   1.556   4.005 -0.0437  0.2508 -0.1032
 9408SOL    HW139683   1.312   1.487   4.046  0.2750  0.2924  0.3837
 9408SOL    HW239684   1.451   1.516   4.002  1.4524  3.5821 -1.4978
 9409SOL     OW39685   2.127   1.750  12.238 -0.0152  0.5001 -0.3712
 9409SOL    HW139686   2.051   1.719  12.187  0.9841 -1.4340 -0.6720
 9409SOL    HW239687   2.165   1.820  12.185  0.9061  0.8620  0.7670
 9410SOL     OW39688   0.964   4.545   7.284  0.3099 -0.0919 -0.1504
 9410SOL    HW139689   1.041   4.490   7.297  0.5684 -0.3684 -2.8753
 9410SOL    HW239690   0.989   4.564   7.193  0.6570  0.2959  0.0292
 9411SOL     OW39691   2.889   2.508   5.817 -0.4060  0.2282  0.1064
 9411SOL    HW139692   2.876   2.507   5.912  0.0997 -1.9891  0.1617
 9411SOL    HW239693   2.816   2.563   5.790 -0.5223  0.1461  0.2548
 9412SOL     OW39694   1.609   1.413  13.419  0.2886 -0.2894  0.5547
 9412SOL    HW139695   1.549   1.483  13.447 -0.4700 -0.2154 -1.2462
 9412SOL    HW239696   1.662   1.458  13.353  0.7532 -0.9682  0.4719
 9413SOL     OW39697   2.342   1.067   2.302 -0.0978 -0.2683 -0.2604
 9413SOL    HW139698   2.288   1.087   2.379 -2.4029 -1.7657 -1.4727
 9413SOL    HW239699   2.366   0.975   2.315 -0.3772 -0.2618  0.3272
 9414SOL     OW39700   3.290   0.204   7.295  0.5070  0.3005 -0.5226
 9414SOL    HW139701   3.313   0.190   7.387 -0.2473  3.8458  0.1880
 9414SOL    HW239702   3.226   0.133   7.282  0.9636  0.3877 -3.3540
 9415SOL     OW39703   3.035   2.833   3.850 -0.0991  0.2598  0.0091
 9415SOL    HW139704   2.950   2.829   3.808 -0.3280 -1.9601  0.7216
 9415SOL    HW239705   3.006   2.798   3.934  2.3195 -0.1509  0.6911
 9416SOL     OW39706   4.689   1.304  12.723 -0.1377 -0.3140 -0.5130
 9416SOL    HW139707   4.594   1.297  12.727 -0.2606  1.3945 -0.5843
 9416SOL    HW239708   4.706   1.272  12.635 -0.7221 -2.1717  0.0373
 9417SOL     OW39709   2.362   1.463  16.300 -0.1891  0.4624 -0.3731
 9417SOL    HW139710   2.378   1.490  16.210  1.5675  0.5127 -0.0405
 9417SOL    HW239711   2.271   1.491  16.307 -1.4142 -3.3855 -0.6134
 9418SOL     OW39712   0.083   3.640   5.159  0.0266 -0.0050 -0.6461
 9418SOL    HW139713   4.718   3.609   5.130 -0.1424  0.5375 -0.7212
 9418SOL    HW239714   0.125   3.555   5.176  1.0099  0.8549  1.2097
 9419SOL     OW39715   1.826   0.318   6.963 -0.3115 -0.3262  0.4526
 9419SOL    HW139716   1.872   0.362   6.892 -1.1480  1.1821  0.8585
 9419SOL    HW239717   1.745   0.282   6.927 -2.4923  2.6415  2.3812
 9420SOL     OW39718   3.335   0.344   8.571  0.6897 -0.0062 -0.7339
 9420SOL    HW139719   3.337   0.325   8.665  1.3979 -0.2344 -0.7950
 9420SOL    HW239720   3.281   0.275   8.532 -0.6015  1.0524 -0.8438
 9421SOL     OW39721   2.852   4.612   9.068  0.2038  0.8730  0.2355
 9421SOL    HW139722   2.782   4.611   9.133 -0.2203 -2.2228 -0.2739
 9421SOL    HW239723   2.796   4.620   8.991 -0.5405 -0.9780  0.5772
 9422SOL     OW39724   1.819   1.151   4.030  0.3748 -0.0792  0.4693
 9422SOL    HW139725   1.831   1.076   4.088 -0.4160  0.7636  1.7007
 9422SOL    HW239726   1.808   1.226   4.089  1.2394 -1.1034  1.9218
 9423SOL     OW39727   0.377   1.249   3.532  0.1342  0.1412 -0.1908
 9423SOL    HW139728   0.313   1.285   3.471  0.1316 -1.6784 -1.2551
 9423SOL    HW239729   0.375   1.313   3.603  0.8406 -1.2403  1.0685
 9424SOL     OW39730   2.975   4.664   5.410 -0.0634  0.5432 -0.0992
 9424SOL    HW139731   3.035   0.011   5.380  1.4853 -1.3961 -1.3898
 9424SOL    HW239732   2.924   4.637   5.334  0.1312 -1.6524  0.5361
 9425SOL     OW39733   3.399   3.049   7.026  0.3351  0.2553  0.3776
 9425SOL    HW139734   3.354   3.114   7.080 -0.3558 -0.8386  1.1149
 9425SOL    HW239735   3.424   2.983   7.091 -0.1018  0.7870  1.0844
 9426SOL     OW39736   0.179   3.659  12.014  0.5753 -0.3394  0.5752
 9426SOL    HW139737   0.238   3.584  12.004  1.8241  0.6802  0.3564
 9426SOL    HW239738   0.203   3.715  12.088  1.8677  0.0990 -0.1868
 9427SOL     OW39739   3.699   3.957   6.121  0.6031  0.0009 -0.6970
 9427SOL    HW139740   3.727   3.893   6.055 -0.1208 -0.5039 -0.5127
 9427SOL    HW239741   3.682   4.038   6.072 -1.9001  0.3355  0.7525
 9428SOL     OW39742   2.376   2.397  13.589  0.0062 -0.1970 -0.2286
 9428SOL    HW139743   2.355   2.465  13.653 -2.1046  0.1599 -1.2993
 9428SOL    HW239744   2.389   2.449  13.510  2.3008 -0.3616  0.0613
 9429SOL     OW39745   4.024   3.559   7.137  0.1686  0.1779 -0.8209
 9429SOL    HW139746   3.947   3.553   7.082 -0.9845 -1.5116  0.9837
 9429SOL    HW239747   3.993   3.598   7.218 -1.0564  1.0357 -1.7130
 9430SOL     OW39748   2.009   2.957  15.306  0.6389 -0.9081 -0.0487
 9430SOL    HW139749   2.040   3.046  15.321  0.7690 -0.9824  0.1336
 9430SOL    HW239750   2.051   2.913  15.381  1.4636  0.7219  0.4517
 9431SOL     OW39751   1.407   3.991   5.031  0.2853  0.0863  0.3753
 9431SOL    HW139752   1.436   4.007   4.941 -1.5588 -1.4952 -0.5094
 9431SOL    HW239753   1.472   4.033   5.087  0.1107 -0.2143  0.8029
 9432SOL     OW39754   1.397   1.867   1.080 -0.1058 -0.0390 -0.1476
 9432SOL    HW139755   1.390   1.815   1.159 -0.8464  2.3190  1.3542
 9432SOL    HW239756   1.420   1.955   1.110 -3.4907  1.7722 -2.6923
 9433SOL     OW39757   2.278   0.209  11.026 -0.4156 -0.0501  0.9374
 9433SOL    HW139758   2.356   0.256  10.998 -1.5251  1.5061  0.4462
 9433SOL    HW239759   2.258   0.158  10.948  1.2621  0.9871 -0.1690
 9434SOL     OW39760   0.971   2.125   8.740  0.6789 -0.5103 -0.6249
 9434SOL    HW139761   0.973   2.188   8.812  2.8624 -1.2377 -0.0391
 9434SOL    HW239762   0.907   2.059   8.764 -1.4284  1.6756 -0.2028
 9435SOL     OW39763   3.269   0.707  12.659  0.0239 -0.5420 -0.1599
 9435SOL    HW139764   3.249   0.637  12.598 -2.5972  0.2713 -0.2296
 9435SOL    HW239765   3.190   0.759  12.644 -0.5608 -1.2380  0.5165
 9436SOL     OW39766   3.713   4.474   4.709 -0.3160  0.6423 -0.1089
 9436SOL    HW139767   3.643   4.519   4.662 -2.3029 -1.3232  1.0119
 9436SOL    HW239768   3.658   4.408   4.750  0.7637 -1.9586 -2.8332
 9437SOL     OW39769   1.342   1.295   4.904  0.1610  0.0507 -0.6282
 9437SOL    HW139770   1.288   1.374   4.896  0.1837  0.1663  0.3577
 9437SOL    HW239771   1.420   1.338   4.937 -0.0777 -0.8762  1.1134
 9438SOL     OW39772   4.211   0.711  10.366  0.1702  0.1591  0.6051
 9438SOL    HW139773   4.126   0.671  10.382  0.7889 -1.0192  0.9467
 9438SOL    HW239774   4.200   0.789  10.311 -0.8089 -1.4737 -1.5271
 9439SOL     OW39775   4.050   4.088   2.151  0.8883 -0.4400  0.0893
 9439SOL    HW139776   3.988   4.119   2.217 -0.1211 -0.5606 -0.8090
 9439SOL    HW239777   3.990   4.067   2.080 -0.6915 -2.1522  1.9397
 9440SOL     OW39778   2.208   0.942   4.983  0.0220  0.1672 -0.1490
 9440SOL    HW139779   2.149   0.972   4.914 -0.0184 -0.1213 -0.2376
 9440SOL    HW239780   2.174   0.855   5.001  2.3892 -0.6817  0.3152
 9441SOL     OW39781   2.283   2.297  11.820  0.0572  0.0427 -0.0391
 9441SOL    HW139782   2.285   2.393  11.822  0.7474  0.0444 -0.6237
 9441SOL    HW239783   2.379   2.288  11.817  0.0089  0.0739 -2.1159
 9442SOL     OW39784   3.193   1.790  12.190  0.1617 -0.7017 -0.2697
 9442SOL    HW139785   3.117   1.754  12.237 -0.6430  0.5435 -0.6188
 9442SOL    HW239786   3.243   1.710  12.171  1.3948  0.0861 -0.2884
 9443SOL     OW39787   0.863   0.757  13.778  0.1957  0.2996  0.1397
 9443SOL    HW139788   0.828   0.828  13.724 -1.6513  0.7915  1.9546
 9443SOL    HW239789   0.907   0.707  13.710  2.5655  0.3641  1.6283
 9444SOL     OW39790   3.678   1.330  10.601 -0.1176  0.6872 -0.2037
 9444SOL    HW139791   3.656   1.298  10.514  0.3823 -0.3253  0.0385
 9444SOL    HW239792   3.721   1.252  10.636  1.0589  1.8347  0.9619
 9445SOL     OW39793   3.477   4.012   5.000 -0.4513  0.2489  0.1647
 9445SOL    HW139794   3.547   4.072   5.024  0.3940 -0.7098  0.1264
 9445SOL    HW239795   3.520   3.966   4.928  2.8134  1.1814  1.4800
 9446SOL     OW39796   3.206   0.478  14.714 -0.2130  0.1841 -0.1014
 9446SOL    HW139797   3.170   0.391  14.730  1.4272 -0.2767  1.0915
 9446SOL    HW239798   3.121   0.520  14.699 -0.1613  0.5769  0.7352
 9447SOL     OW39799   2.623   2.788  16.733 -0.4749 -0.0203 -0.1384
 9447SOL    HW139800   2.659   2.773  16.820  0.0653 -0.0583 -0.3687
 9447SOL    HW239801   2.533   2.815  16.748 -1.1148 -1.9391 -0.4666
 9448SOL     OW39802   3.315   3.961  11.344  0.7959  0.0190 -0.1537
 9448SOL    HW139803   3.222   3.983  11.354  1.6181  4.1089 -1.5901
 9448SOL    HW239804   3.346   4.032  11.287  2.3679  1.9617  3.0700
 9449SOL     OW39805   2.703   3.134   8.896 -0.0635  0.3022  0.4770
 9449SOL    HW139806   2.696   3.107   8.804  1.2359  1.4543  0.0359
 9449SOL    HW239807   2.789   3.093   8.909 -0.4115 -0.1832  1.2125
 9450SOL     OW39808   4.185   4.461   4.028 -0.2877  0.0698  0.3341
 9450SOL    HW139809   4.224   4.435   4.111 -0.3594  0.4061  0.4728
 9450SOL    HW239810   4.099   4.419   4.035 -0.4703  0.2387 -0.8644
 9451SOL     OW39811   1.266   1.726  16.707 -0.2478 -0.3989 -0.1183
 9451SOL    HW139812   1.264   1.822  16.707  1.8081 -0.3609 -0.8137
 9451SOL    HW239813   1.338   1.717  16.769  1.7936 -0.5443 -2.5187
 9452SOL     OW39814   4.399   1.494   6.498 -0.3479  0.5760  0.2663
 9452SOL    HW139815   4.409   1.578   6.454 -0.0229  1.0073  1.1597
 9452SOL    HW239816   4.454   1.495   6.576 -1.1040  1.0859  0.7921
 9453SOL     OW39817   2.777   2.854   2.853  0.2625  0.6239 -0.6878
 9453SOL    HW139818   2.866   2.851   2.818  0.1875 -0.9522 -0.7618
 9453SOL    HW239819   2.726   2.837   2.774 -0.5416 -0.1174 -0.0118
 9454SOL     OW39820   0.169   4.431  12.439  0.1138 -0.6911 -0.4110
 9454SOL    HW139821   0.135   4.387  12.361 -0.9240  0.7421 -0.7662
 9454SOL    HW239822   0.191   4.358  12.497  1.6229 -0.7232 -1.0091
 9455SOL     OW39823   2.062   0.797  12.983  0.3488 -0.3174  0.7995
 9455SOL    HW139824   2.086   0.890  12.980  1.8437 -0.7769 -0.8634
 9455SOL    HW239825   2.139   0.773  13.034  1.4195 -0.9912 -1.1494
 9456SOL     OW39826   4.395   4.412  17.341 -0.0590 -0.1070  0.3549
 9456SOL    HW139827   4.389   4.487  17.399 -1.6206 -1.2802  1.7007
 9456SOL    HW239828   4.368   4.444  17.255 -0.2825 -0.7562  0.1805
 9457SOL     OW39829   3.588   0.353   9.694  0.1486 -0.7774 -0.4392
 9457SOL    HW139830   3.672   0.357   9.648  1.3323 -1.9114  1.6704
 9457SOL    HW239831   3.603   0.271   9.741  2.7674 -0.0281  0.0333
 9458SOL     OW39832   2.479   4.268   6.283 -0.1621  0.6199 -0.0464
 9458SOL    HW139833   2.430   4.315   6.350 -1.3903 -1.8001  0.7591
 9458SOL    HW239834   2.558   4.246   6.332 -0.1838  3.0433  1.1049
 9459SOL     OW39835   3.406   3.793   0.935  0.2437 -0.0134  0.0608
 9459SOL    HW139836   3.435   3.718   0.987  1.8687  0.0727 -0.7352
 9459SOL    HW239837   3.486   3.820   0.889 -0.2667  0.2374 -0.6837
 9460SOL     OW39838   4.229   2.794  17.436  0.0257  0.1513 -0.4311
 9460SOL    HW139839   4.282   2.758  17.366  0.4139  0.1461 -0.1367
 9460SOL    HW239840   4.139   2.773  17.409 -0.1138  0.5341 -0.2749
 9461SOL     OW39841   4.312   3.907   2.501 -0.1478 -0.1636  0.1577
 9461SOL    HW139842   4.241   3.971   2.494 -1.4167 -1.5773  0.0842
 9461SOL    HW239843   4.378   3.961   2.457 -0.4915 -1.3241 -1.7983
 9462SOL     OW39844   4.247   1.414  12.060 -0.2641  0.1826  0.4149
 9462SOL    HW139845   4.169   1.467  12.047 -0.3496 -0.3925 -1.3083
 9462SOL    HW239846   4.225   1.321  12.051 -0.6755  0.1699  1.5443
 9463SOL     OW39847   3.993   2.007   8.966 -0.2089 -0.3139  0.5121
 9463SOL    HW139848   3.929   1.966   9.025  2.6052 -3.9004  1.0854
 9463SOL    HW239849   4.011   2.090   9.011 -0.8471 -1.2341  2.4765
 9464SOL     OW39850   2.762   1.619  12.471  0.0919 -0.4247 -0.2410
 9464SOL    HW139851   2.707   1.589  12.398  1.2569  1.8723 -2.0821
 9464SOL    HW239852   2.704   1.614  12.547 -0.1390 -0.2075 -0.4057
 9465SOL     OW39853   4.572   0.817  15.795 -0.1558 -0.0992 -0.3350
 9465SOL    HW139854   4.612   0.737  15.829  2.6898  0.8816 -1.4448
 9465SOL    HW239855   4.643   0.856  15.745 -2.1655  0.4316 -2.8132
 9466SOL     OW39856   0.615   2.726   6.269  0.5722  0.0041 -0.1929
 9466SOL    HW139857   0.526   2.716   6.234  1.0283 -0.5107 -1.2008
 9466SOL    HW239858   0.626   2.644   6.318  1.0165  0.3862  0.3386
 9467SOL     OW39859   1.060   2.482   7.251  0.0682  0.0601 -0.2528
 9467SOL    HW139860   1.119   2.407   7.239  1.1546  0.8530  0.1080
 9467SOL    HW239861   1.084   2.543   7.181 -0.0444  1.9941  1.3943
 9468SOL     OW39862   1.504   2.668   2.055  0.0171  0.5938 -0.2521
 9468SOL    HW139863   1.580   2.718   2.084 -1.5777  2.7178  0.3120
 9468SOL    HW239864   1.467   2.642   2.139  1.1277 -3.3284 -0.9939
 9469SOL     OW39865   0.397   0.624   5.469 -0.1113 -1.2216  0.2199
 9469SOL    HW139866   0.366   0.542   5.507 -0.3653  0.4169  3.5604
 9469SOL    HW239867   0.475   0.641   5.521 -0.3547 -2.4624  0.9805
 9470SOL     OW39868   1.402   1.431   1.357 -0.0274 -0.1022 -0.9813
 9470SOL    HW139869   1.364   1.383   1.284 -2.2814  1.1253 -0.5870
 9470SOL    HW239870   1.414   1.358   1.418 -0.4550  1.1217  0.5634
 9471SOL     OW39871   2.524   4.250   1.087  0.0862  0.1886  0.2937
 9471SOL    HW139872   2.479   4.183   1.140 -1.2573  0.3239 -0.6830
 9471SOL    HW239873   2.615   4.231   1.109 -0.7388 -2.3392  1.6041
 9472SOL     OW39874   0.944   1.143  13.740 -0.3376  0.5015  0.0841
 9472SOL    HW139875   1.013   1.084  13.771 -0.8284  0.2488  0.6947
 9472SOL    HW239876   0.887   1.073  13.709  0.0894 -1.0025  2.6785
 9473SOL     OW39877   1.689   1.316   6.047  0.2060  0.5179 -0.4824
 9473SOL    HW139878   1.649   1.403   6.054  1.7015  1.2487 -0.9361
 9473SOL    HW239879   1.670   1.296   5.955  1.7467  0.0608 -0.7126
 9474SOL     OW39880   1.976   3.098   7.207 -0.2694  0.1776  0.5619
 9474SOL    HW139881   1.978   3.188   7.239 -0.3455 -0.1773  1.5501
 9474SOL    HW239882   1.880   3.088   7.206 -0.0107 -2.3743  0.3928
 9475SOL     OW39883   0.420   0.648   3.951 -0.3929 -0.3984 -0.0593
 9475SOL    HW139884   0.421   0.589   3.875  0.5169  0.0940 -0.4302
 9475SOL    HW239885   0.452   0.593   4.022 -1.7430 -0.1306  0.7542
 9476SOL     OW39886   0.554   1.275   6.003  0.5015 -0.0296 -0.0036
 9476SOL    HW139887   0.559   1.225   6.084 -1.4250 -0.5421 -0.2144
 9476SOL    HW239888   0.485   1.229   5.956 -0.8695  0.4759  1.5206
 9477SOL     OW39889   2.769   2.621  10.506  0.8599  0.8903  0.0385
 9477SOL    HW139890   2.777   2.527  10.493  2.5643  1.2341 -1.3951
 9477SOL    HW239891   2.837   2.655  10.448  2.2073  0.2602  1.2658
 9478SOL     OW39892   4.552   2.216   7.041 -0.0635 -1.3387 -0.0329
 9478SOL    HW139893   4.518   2.161   6.971 -1.1688 -1.7345  0.8287
 9478SOL    HW239894   4.546   2.158   7.116 -0.5972  1.6154  2.2150
 9479SOL     OW39895   2.896   1.136   5.859 -0.6644  0.1466  0.3249
 9479SOL    HW139896   2.848   1.064   5.818 -1.5269  1.7091 -1.3661
 9479SOL    HW239897   2.844   1.150   5.938  0.7023  1.9120  0.8945
 9480SOL     OW39898   3.264   2.901   8.760  0.7425  0.3833 -0.4000
 9480SOL    HW139899   3.292   2.966   8.695  0.2794  1.7668  0.7835
 9480SOL    HW239900   3.331   2.903   8.828 -0.6739  0.0773  1.0109
 9481SOL     OW39901   1.260   1.179   6.984 -0.3658 -0.3181  0.2078
 9481SOL    HW139902   1.241   1.242   7.054  0.9518  2.9518 -2.4198
 9481SOL    HW239903   1.335   1.133   7.020  1.2409  1.5944 -0.7424
 9482SOL     OW39904   1.423   2.887   3.532 -0.4235 -0.0816 -0.0550
 9482SOL    HW139905   1.514   2.901   3.508 -0.2207  0.1710  0.8503
 9482SOL    HW239906   1.372   2.874   3.453  2.2003  0.3007 -1.8013
 9483SOL     OW39907   0.315   4.220   5.209 -0.0150 -0.3839 -0.0481
 9483SOL    HW139908   0.303   4.285   5.139  2.9529  0.9699  0.6673
 9483SOL    HW239909   0.221   4.205   5.220 -0.0555 -0.0685  0.0401
 9484SOL     OW39910   1.024   2.454   6.395 -0.1320 -0.1377  0.2628
 9484SOL    HW139911   1.044   2.372   6.350  0.8262 -0.1670  0.7617
 9484SOL    HW239912   0.989   2.496   6.317  0.4480 -1.3729 -0.6693
 9485SOL     OW39913   3.176   3.512  13.894  0.2475 -0.0490  0.2367
 9485SOL    HW139914   3.232   3.539  13.967  0.4503  1.2820 -0.4109
 9485SOL    HW239915   3.242   3.528  13.826  0.9251 -0.6800  0.7377
 9486SOL     OW39916   0.901   2.661   7.674  0.2741 -0.1834  0.1200
 9486SOL    HW139917   0.827   2.604   7.655 -0.1015  0.6008 -0.7110
 9486SOL    HW239918   0.961   2.624   7.609 -1.4593  0.5593 -1.8829
 9487SOL     OW39919   3.768   1.383   3.972  0.5340 -0.3231 -1.0158
 9487SOL    HW139920   3.766   1.361   4.065  1.2191 -1.1654 -1.2053
 9487SOL    HW239921   3.858   1.410   3.953  0.1990  0.4072 -1.6033
 9488SOL     OW39922   1.145   0.315   7.034  0.5222 -0.0092  0.5379
 9488SOL    HW139923   1.143   0.219   7.039 -0.5267  0.0418  1.0588
 9488SOL    HW239924   1.095   0.338   7.112  0.0536 -1.0768  0.5526
 9489SOL     OW39925   4.186   3.013   2.402 -0.2513  0.1283 -0.1258
 9489SOL    HW139926   4.159   3.089   2.454 -0.6997 -0.0406 -0.1080
 9489SOL    HW239927   4.232   3.053   2.329  2.2934 -1.0080  0.8558
 9490SOL     OW39928   3.727   2.322   9.782  0.4395 -0.0688  0.2577
 9490SOL    HW139929   3.722   2.400   9.727 -1.2457  1.1209  2.1156
 9490SOL    HW239930   3.738   2.261   9.709  0.5448  2.4577 -1.8645
 9491SOL     OW39931   3.157   0.516   8.739  0.6707 -0.2079  0.1455
 9491SOL    HW139932   3.090   0.473   8.686 -0.3407 -0.7270  1.8510
 9491SOL    HW239933   3.186   0.598   8.699 -0.0047 -1.0003 -1.9989
 9492SOL     OW39934   0.016   2.508   4.192 -0.3499 -0.3417 -0.0151
 9492SOL    HW139935   0.103   2.473   4.174 -0.2593 -0.3141  0.3852
 9492SOL    HW239936   0.034   2.593   4.232  1.7699 -1.2945  1.0687
 9493SOL     OW39937   3.678   4.706   4.344 -0.1275 -0.1461 -0.2318
 9493SOL    HW139938   3.641   0.063   4.304  1.7003  1.2521  0.7705
 9493SOL    HW239939   3.708   4.652   4.271 -0.2180  1.8924 -1.7721
 9494SOL     OW39940   1.460   0.592   4.785 -0.4519  0.6228  0.6119
 9494SOL    HW139941   1.431   0.627   4.869 -1.2328  0.9938  0.1826
 9494SOL    HW239942   1.505   0.670   4.752  0.0827 -0.8289 -2.0788
 9495SOL     OW39943   1.073   0.512  10.811 -0.5002  0.4239  0.4148
 9495SOL    HW139944   1.156   0.554  10.789 -0.7185  0.5765 -0.1213
 9495SOL    HW239945   1.085   0.499  10.905  3.1152  0.2814 -0.0705
 9496SOL     OW39946   2.165   3.343   0.414  0.6826  0.6965 -0.4366
 9496SOL    HW139947   2.226   3.413   0.437  0.6854  0.3250  0.6917
 9496SOL    HW239948   2.112   3.333   0.493 -0.1116 -0.4447 -1.1241
 9497SOL     OW39949   3.732   4.181   1.692 -0.6519 -0.0773 -0.0058
 9497SOL    HW139950   3.685   4.239   1.632 -0.2415 -0.5749 -0.8070
 9497SOL    HW239951   3.704   4.092   1.672  0.6501 -0.4141 -0.3030
 9498SOL     OW39952   2.338   2.883   2.961 -0.2205 -0.0372  0.0670
 9498SOL    HW139953   2.263   2.826   2.979  0.0181  0.2696  2.0620
 9498SOL    HW239954   2.410   2.826   2.988 -0.6500 -0.3567  0.5412
 9499SOL     OW39955   1.439   0.221   5.330 -0.4195  0.4945 -0.1425
 9499SOL    HW139956   1.416   0.264   5.412 -0.7257  0.5670 -0.2660
 9499SOL    HW239957   1.532   0.230   5.349 -0.6125  0.2604  0.9235
 9500SOL     OW39958   0.364   0.285  11.967 -0.6950 -0.2204  0.0456
 9500SOL    HW139959   0.436   0.240  12.011 -0.0552  0.4342 -0.3373
 9500SOL    HW239960   0.338   0.347  12.035  0.7887  0.0907  0.3287
 9501SOL     OW39961   1.564   3.230   0.704 -0.2063 -0.8540 -0.3535
 9501SOL    HW139962   1.513   3.305   0.736  0.3925 -1.4106  1.9282
 9501SOL    HW239963   1.648   3.275   0.694  0.2369 -1.8816 -1.2285
 9502SOL     OW39964   2.727   2.544   1.974 -0.4111  0.3558 -0.3003
 9502SOL    HW139965   2.656   2.552   1.909  0.3618  1.0141 -1.0606
 9502SOL    HW239966   2.679   2.509   2.049 -0.5979 -1.7159 -1.3709
 9503SOL     OW39967   2.132   3.339   6.129  0.6599 -0.5078 -0.4012
 9503SOL    HW139968   2.215   3.372   6.093  0.2520  0.2592 -0.6405
 9503SOL    HW239969   2.075   3.377   6.062  1.2063  0.1324 -0.5020
 9504SOL     OW39970   0.835   0.217   6.875 -0.5936  0.0725  0.2759
 9504SOL    HW139971   0.804   0.276   6.806 -2.1981 -3.1669 -1.8308
 9504SOL    HW239972   0.907   0.164   6.840 -0.5212  0.8370 -0.7121
 9505SOL     OW39973   2.663   0.879  14.397  0.4828  0.0663 -0.3370
 9505SOL    HW139974   2.727   0.946  14.371 -0.5838  1.3496  0.3963
 9505SOL    HW239975   2.583   0.931  14.391  1.0065  1.0885  1.4354
 9506SOL     OW39976   1.664   4.591  16.481 -0.1807  0.8107  0.3005
 9506SOL    HW139977   1.656   4.506  16.523 -1.7170  0.1215 -1.3754
 9506SOL    HW239978   1.644   4.568  16.390 -1.7317  2.6861  0.1689
 9507SOL     OW39979   3.769   0.671  15.981  0.3221  0.4487 -0.1676
 9507SOL    HW139980   3.726   0.748  15.945 -1.6047 -1.2601 -1.5088
 9507SOL    HW239981   3.806   0.620  15.909 -0.8713  1.3194 -1.3925
 9508SOL     OW39982   3.506   2.443  15.133  0.8918 -0.1587 -0.4539
 9508SOL    HW139983   3.601   2.434  15.131  0.8967 -0.8804  2.4305
 9508SOL    HW239984   3.485   2.375  15.197 -0.0309 -0.8949 -1.5359
 9509SOL     OW39985   1.578   2.915   5.365 -0.4993  0.2269  0.0526
 9509SOL    HW139986   1.569   2.900   5.459 -1.8705  0.8855  0.0317
 9509SOL    HW239987   1.567   2.830   5.322  1.8542  0.1025 -0.3231
 9510SOL     OW39988   4.607   1.455   5.924  0.0512 -0.6855  0.8636
 9510SOL    HW139989   4.515   1.480   5.937  0.4162  0.2443  1.6690
 9510SOL    HW239990   4.654   1.473   6.005  0.4425  2.8707 -0.1145
 9511SOL     OW39991   0.969   3.297   6.563  0.3180 -0.0836 -0.1066
 9511SOL    HW139992   1.005   3.385   6.571  0.1201 -0.2014  2.0002
 9511SOL    HW239993   1.038   3.257   6.509  0.4848 -1.2598  0.9851
 9512SOL     OW39994   1.101   2.831  16.772  0.2000  0.2934  0.0508
 9512SOL    HW139995   1.053   2.892  16.828  0.8332 -0.3291  1.2677
 9512SOL    HW239996   1.191   2.838  16.803  0.3482  2.1064 -0.7974
 9513SOL     OW39997   4.090   0.935   4.205 -0.3218  0.3794 -0.0109
 9513SOL    HW139998   4.141   1.008   4.240  1.7990 -0.1959 -1.8940
 9513SOL    HW239999   4.032   0.924   4.281 -3.4554  0.6894 -2.3297
 9514SOL     OW40000   1.648   4.403   5.676 -0.0861 -0.0561 -0.1627
 9514SOL    HW140001   1.672   4.473   5.616 -0.9561 -0.0092 -0.4664
 9514SOL    HW240002   1.575   4.442   5.724  0.9350  1.8109 -0.1492
 9515SOL     OW40003   0.657   1.466  14.047  0.2211 -0.4959  0.3713
 9515SOL    HW140004   0.595   1.536  14.066  1.1388  0.7685 -1.2159
 9515SOL    HW240005   0.695   1.463  14.134  0.2788  3.9775  0.5092
 9516SOL     OW40006   3.365   3.976   4.594  0.0702 -0.2010 -0.3386
 9516SOL    HW140007   3.408   4.058   4.620 -0.5999 -0.0156  0.1769
 9516SOL    HW240008   3.274   3.998   4.577  0.3945 -0.0263 -1.8253
 9517SOL     OW40009   2.235   0.363  15.052  0.4760  0.1771  0.5059
 9517SOL    HW140010   2.171   0.428  15.081 -0.3139 -1.4483  2.3526
 9517SOL    HW240011   2.272   0.394  14.969 -0.9340 -1.6029 -0.7828
 9518SOL     OW40012   0.782   1.304   5.106  0.1973  0.1934 -0.2482
 9518SOL    HW140013   0.705   1.275   5.058 -0.4974  4.1461 -1.5597
 9518SOL    HW240014   0.744   1.387   5.135 -0.6187 -1.0093  2.1016
 9519SOL     OW40015   3.443   4.198   6.349 -0.3817 -0.2112  0.4954
 9519SOL    HW140016   3.526   4.181   6.394  0.5925  0.9874 -0.8759
 9519SOL    HW240017   3.377   4.211   6.417 -2.2723 -1.2937 -1.1350
 9520SOL     OW40018   1.758   3.477   2.825  0.1709 -0.9532 -0.4731
 9520SOL    HW140019   1.742   3.571   2.838  0.1500 -0.8130 -1.4678
 9520SOL    HW240020   1.823   3.481   2.754 -0.2790  1.2326 -0.7854
 9521SOL     OW40021   1.423   2.198   0.296 -0.4123  0.6407  0.0620
 9521SOL    HW140022   1.502   2.228   0.341 -0.1524 -1.0983  0.7827
 9521SOL    HW240023   1.373   2.143   0.357 -1.2829  1.6040  0.2287
 9522SOL     OW40024   3.305   1.965   0.114  0.7966 -0.1941 -0.1311
 9522SOL    HW140025   3.354   1.909   0.175  0.4491 -0.3295  0.0241
 9522SOL    HW240026   3.333   1.935   0.027 -1.1385 -1.6569 -0.2523
 9523SOL     OW40027   3.962   3.514   0.895  0.2204 -0.6298 -0.5046
 9523SOL    HW140028   3.949   3.586   0.957 -0.5788 -1.0381 -0.1992
 9523SOL    HW240029   3.934   3.434   0.939 -0.8174 -0.6245 -1.1518
 9524SOL     OW40030   4.265   0.479   8.485  0.1166  0.1304 -0.0261
 9524SOL    HW140031   4.352   0.513   8.466  0.0517  0.1860 -0.2290
 9524SOL    HW240032   4.305   0.413   8.541  0.4751  2.8232  2.8873
 9525SOL     OW40033   1.549   1.885   2.761 -0.2560 -0.3702 -0.1368
 9525SOL    HW140034   1.470   1.882   2.814 -1.1896  0.6568 -1.4685
 9525SOL    HW240035   1.616   1.846   2.817 -0.5419  1.7900  1.6770
 9526SOL     OW40036   2.989   3.334   7.616  0.7595  0.2791  0.2469
 9526SOL    HW140037   3.019   3.423   7.635 -1.3810  2.0915 -4.6878
 9526SOL    HW240038   3.025   3.336   7.527 -1.9566 -0.0511 -0.8490
 9527SOL     OW40039   3.259   4.103  10.666 -0.1560  0.4062 -0.2915
 9527SOL    HW140040   3.329   4.039  10.680  0.1243  1.1202  1.5498
 9527SOL    HW240041   3.186   4.041  10.672  0.1567 -0.0485 -1.2338
 9528SOL     OW40042   2.764   0.855   7.805  0.0388  0.2413 -0.9190
 9528SOL    HW140043   2.803   0.816   7.727 -1.8517  0.0378 -1.7594
 9528SOL    HW240044   2.767   0.948   7.783 -1.0679  0.6161  0.4975
 9529SOL     OW40045   0.450   1.651   2.827  0.2474 -0.1780  0.3689
 9529SOL    HW140046   0.360   1.683   2.832 -0.1636 -1.6136  1.8058
 9529SOL    HW240047   0.442   1.599   2.747  0.3005 -1.1558  0.9968
 9530SOL     OW40048   3.005   0.233   4.265  0.0982 -0.3126  0.6157
 9530SOL    HW140049   2.971   0.272   4.185 -0.5409 -2.8009 -0.3201
 9530SOL    HW240050   2.928   0.238   4.322  0.4809  0.4664  1.0637
 9531SOL     OW40051   1.085   0.072   7.944 -0.2220  0.4763  0.2533
 9531SOL    HW140052   1.043   0.052   7.861  2.4722 -2.3976 -0.4046
 9531SOL    HW240053   1.013   0.094   8.002 -0.7456  0.4629 -0.3914
 9532SOL     OW40054   1.743   0.541   9.891 -0.3505  0.6077  0.0617
 9532SOL    HW140055   1.788   0.624   9.909  3.5075 -1.3286 -0.6065
 9532SOL    HW240056   1.681   0.582   9.831  1.3138  2.7969 -0.1700
 9533SOL     OW40057   0.238   3.367   5.362  0.3601 -0.1381  0.3389
 9533SOL    HW140058   0.197   3.350   5.277  0.9658 -1.8166  0.3788
 9533SOL    HW240059   0.203   3.289   5.405  0.6966 -0.1543  0.5895
 9534SOL     OW40060   4.430   2.519   4.177 -0.2683  0.2494 -0.3740
 9534SOL    HW140061   4.508   2.545   4.227  0.7918 -1.6945 -1.0256
 9534SOL    HW240062   4.472   2.525   4.091  0.0201  0.9362 -0.1836
 9535SOL     OW40063   0.257   2.263   2.894 -0.1322  0.2002 -0.5249
 9535SOL    HW140064   0.285   2.247   2.804 -2.3072  1.3956 -1.4042
 9535SOL    HW240065   0.176   2.312   2.880 -0.5379 -0.5334 -0.7359
 9536SOL     OW40066   2.081   2.043   5.903 -0.5244  0.5869  0.7515
 9536SOL    HW140067   1.987   2.031   5.898  0.0388 -3.3067 -0.6298
 9536SOL    HW240068   2.096   2.136   5.886 -1.8481  0.7884  0.7214
 9537SOL     OW40069   2.587   1.272   3.639  0.4663  0.0765 -0.2669
 9537SOL    HW140070   2.561   1.353   3.594 -1.1579  0.0290  0.5918
 9537SOL    HW240071   2.559   1.204   3.579 -0.7073  1.7452 -1.6109
 9538SOL     OW40072   4.564   0.826   2.037  0.1996  0.1391  0.2068
 9538SOL    HW140073   4.642   0.862   1.996 -0.8726  1.7161 -0.4551
 9538SOL    HW240074   4.589   0.823   2.129 -1.9887  0.3310  0.8071
 9539SOL     OW40075   0.075   3.879   5.305 -0.0764 -0.0713  0.3052
 9539SOL    HW140076   0.125   3.802   5.279 -0.3383 -0.2385  0.2945
 9539SOL    HW240077   4.712   3.857   5.265 -0.4453 -0.5233  1.3284
 9540SOL     OW40078   4.181   0.374   6.976 -0.0986  0.4345 -0.4382
 9540SOL    HW140079   4.258   0.385   6.920 -1.5674  1.3742 -2.3035
 9540SOL    HW240080   4.139   0.295   6.942  1.3961 -0.2487 -0.6867
 9541SOL     OW40081   4.459   0.984  11.287  0.3239  0.3255 -0.4798
 9541SOL    HW140082   4.405   0.933  11.349  2.3728  0.1836  1.2068
 9541SOL    HW240083   4.508   0.909  11.253 -0.6513  0.0720 -1.3390
 9542SOL     OW40084   0.523   2.824   0.413  0.1404  0.0746  0.0609
 9542SOL    HW140085   0.495   2.756   0.352 -0.6208  0.2387  0.2223
 9542SOL    HW240086   0.527   2.787   0.501 -0.4581 -2.2985 -0.9241
 9543SOL     OW40087   4.700   2.138   8.560  0.2251  0.6781 -0.1422
 9543SOL    HW140088   4.619   2.182   8.584 -0.6100  0.0222 -1.8063
 9543SOL    HW240089   0.037   2.214   8.557 -1.3669  1.8096 -1.8169
 9544SOL     OW40090   1.592   2.385   8.653 -0.1988 -0.2050  0.0666
 9544SOL    HW140091   1.520   2.322   8.658  0.5903 -1.1471 -0.6238
 9544SOL    HW240092   1.547   2.469   8.643  1.0186  0.0183 -3.3452
 9545SOL     OW40093   4.368   2.410   5.594 -0.6265  0.4439  0.0467
 9545SOL    HW140094   4.330   2.466   5.527 -1.6539  0.6626  0.7944
 9545SOL    HW240095   4.324   2.448   5.670  0.7312  1.1070  0.4960
 9546SOL     OW40096   3.368   1.535   2.104  0.1343  0.0324 -0.3901
 9546SOL    HW140097   3.453   1.523   2.062  1.1431  3.1408  0.8137
 9546SOL    HW240098   3.403   1.547   2.192  1.3831  0.0036 -0.8839
 9547SOL     OW40099   4.647   3.854   6.086 -0.2147  0.3333  0.6924
 9547SOL    HW140100   4.716   3.901   6.039 -1.1574  2.2382  1.2386
 9547SOL    HW240101   4.596   3.923   6.128  0.9846  1.5143  0.2122
 9548SOL     OW40102   0.224   3.322   7.663  0.3877  0.4069 -0.3417
 9548SOL    HW140103   0.140   3.320   7.617  1.3167 -0.7566 -2.0058
 9548SOL    HW240104   0.262   3.379   7.596  0.0265  1.8041  0.6638
 9549SOL     OW40105   0.995   4.620   3.214 -0.0628 -0.7522 -0.8015
 9549SOL    HW140106   0.950   4.637   3.131 -2.0789  0.3076  0.4845
 9549SOL    HW240107   1.071   4.675   3.197 -0.8358  0.2768 -0.9288
 9550SOL     OW40108   4.634   4.223   0.170  0.2194  0.0813 -0.6055
 9550SOL    HW140109   4.705   4.249   0.111 -0.5517  0.9298 -1.1561
 9550SOL    HW240110   4.556   4.228   0.116 -1.4210 -1.2150  1.6598
 9551SOL     OW40111   3.504   3.397   2.501 -0.0705  0.0030  0.1334
 9551SOL    HW140112   3.483   3.329   2.437  1.9169  0.9613 -1.5580
 9551SOL    HW240113   3.468   3.369   2.586  0.6685 -1.3909 -0.0022
 9552SOL     OW40114   4.665   2.256   4.145  0.5686  0.1133 -0.0619
 9552SOL    HW140115   4.667   2.351   4.157  2.6480  0.2283 -1.3294
 9552SOL    HW240116   0.036   2.235   4.132  1.0915  2.7580 -0.6383
 9553SOL     OW40117   2.168   2.084   4.800  0.0511 -0.0308 -0.3341
 9553SOL    HW140118   2.190   2.108   4.890  0.6856 -0.8378 -0.2767
 9553SOL    HW240119   2.136   2.170   4.771  0.8836 -0.4044 -2.3780
 9554SOL     OW40120   2.550   0.872   9.499 -0.2142 -0.5392  0.4807
 9554SOL    HW140121   2.488   0.942   9.481  1.0252  0.7877  1.4264
 9554SOL    HW240122   2.605   0.917   9.563  1.7475  0.3553 -1.8244
 9555SOL     OW40123   4.395   1.446   8.606 -0.2523 -0.2782 -0.2645
 9555SOL    HW140124   4.460   1.403   8.550  1.4833  0.4349  1.1798
 9555SOL    HW240125   4.404   1.535   8.572 -1.6145 -0.2678 -0.5837
 9556SOL     OW40126   4.470   0.092  13.987 -0.2353 -0.5562 -0.1804
 9556SOL    HW140127   4.412   0.018  13.966  1.8635 -1.9366 -1.1235
 9556SOL    HW240128   4.478   0.088  14.082  2.9173 -0.8179 -0.4643
 9557SOL     OW40129   3.879   3.176   7.621 -0.4291  0.5083  0.7091
 9557SOL    HW140130   3.869   3.081   7.615 -0.9041  0.5333  1.1600
 9557SOL    HW240131   3.865   3.197   7.713  0.4353 -4.2480  1.9273
 9558SOL     OW40132   1.201   2.422   7.748 -0.1855  0.0828  0.1300
 9558SOL    HW140133   1.172   2.491   7.688  1.9993 -0.7797 -1.8820
 9558SOL    HW240134   1.150   2.435   7.828  0.4703 -1.2777  0.7610
 9559SOL     OW40135   4.370   3.430   4.148 -0.2733 -0.5477  0.1085
 9559SOL    HW140136   4.361   3.335   4.156 -1.5302 -0.4040  0.4180
 9559SOL    HW240137   4.316   3.445   4.070  0.5523 -0.3006 -0.4311
 9560SOL     OW40138   0.447   0.463   2.852  0.0325 -0.6303 -0.0890
 9560SOL    HW140139   0.377   0.414   2.809 -0.2069 -1.0222  0.7463
 9560SOL    HW240140   0.507   0.399   2.889 -1.8142 -1.5254  1.3735
 9561SOL     OW40141   3.640   4.002   9.487  0.5587  0.0904 -0.6069
 9561SOL    HW140142   3.655   4.001   9.392  0.7376 -2.1048 -0.5700
 9561SOL    HW240143   3.724   3.961   9.509 -0.0744 -1.4885 -1.1257
 9562SOL     OW40144   2.834   4.340  10.570  1.2104 -0.4873  0.5431
 9562SOL    HW140145   2.739   4.349  10.567  1.3887  1.2904 -0.1450
 9562SOL    HW240146   2.857   4.268  10.511  1.3170 -0.5891  0.7087
 9563SOL     OW40147   2.619   2.099   3.199  0.1373 -0.4657 -0.7813
 9563SOL    HW140148   2.657   2.082   3.113 -0.1709 -1.9298 -0.6218
 9563SOL    HW240149   2.615   2.009   3.230  2.8183  0.2817  1.6721
 9564SOL     OW40150   1.702   3.059  13.266 -0.2405  0.0601  0.2300
 9564SOL    HW140151   1.787   3.060  13.309 -0.7056 -1.4782  1.2091
 9564SOL    HW240152   1.652   3.101  13.336  0.2264  2.3612 -0.8274
 9565SOL     OW40153   1.036   3.338   7.841  0.0545 -0.2185 -0.1501
 9565SOL    HW140154   1.037   3.377   7.754 -1.0237  0.0241 -0.0523
 9565SOL    HW240155   1.095   3.405   7.876 -0.3590  0.9937 -1.7917
   4.72111   4.72111  17.68681
