Membrane in water
40155
    1TCq1    O1    1   4.492   4.574  11.385  0.0594  0.1485  0.6477
    1TCq1    C1    2   4.477   4.452  11.440  0.2692  0.1712  0.2731
    1TCq1    O2    3   4.491   4.354  11.374 -0.3502  0.4970 -0.0020
    1TCq1    C2    4   4.391   4.462  11.561  0.2253  0.0104 -0.2705
    1TCq1    C3    5   4.421   4.559  11.653  0.1996  0.9298 -0.3736
    1TCq1    C4    6   4.375   4.552  11.778  0.0258 -0.0857 -0.2201
    1TCq1    C5    7   4.287   4.450  11.815  0.1073  0.2224  0.6582
    1TCq1    C6    8   4.261   4.353  11.723  0.4272 -0.1495  0.0255
    1TCq1    C7    9   4.318   4.354  11.604 -0.2776  0.5690 -1.0523
    1TCq1    C8   10   4.175   4.246  11.762 -0.4848  0.5373 -0.4177
    1TCq1    O4   11   4.173   4.215  11.879 -0.1737 -0.4669 -0.3461
    1TCq1    C9   12   4.406   4.660  11.866  0.2847  0.1812  0.2340
    1TCq1    O5   13   4.460   0.042  11.832 -0.1401  0.1713  0.1087
    1TCq1    O6   14   4.353   4.644  11.982  0.5252 -0.5462 -0.3131
    1TCq1    H1   15   4.464   4.656  11.430  0.0417  0.1487  0.6364
    1TCq1    H2   16   4.481   4.646  11.628  0.1851  0.8211 -0.7932
    1TCq1    H3   17   4.250   4.443  11.917 -0.2455  1.5004  0.6233
    1TCq1    H4   18   4.313   4.273  11.531  0.7443 -0.2493 -0.2210
    2MPD2     C   19   3.944   3.812  11.662  0.1939 -0.2044 -0.0951
    2MPD2    C1   20   3.979   3.866  11.782  0.5350 -0.0322 -0.8725
    2MPD2    C2   21   4.051   3.990  11.778 -0.3993 -0.3099 -0.0123
    2MPD2    C3   22   4.062   4.060  11.656 -0.3484 -0.2703  0.1145
    2MPD2    C4   23   4.015   4.000  11.540  0.2614  0.1351  0.4031
    2MPD2    C5   24   3.958   3.879  11.543 -0.8600  0.3513 -0.6364
    2MPD2     H   25   4.072   4.020  11.880 -0.6918 -0.4114  0.0753
    2MPD2    H1   26   4.011   4.059  11.449  0.4195  1.4432  1.2447
    2MPD2    H2   27   3.896   3.715  11.648  0.9449 -0.2732 -2.2686
    2MPD2    H3   28   3.927   3.836  11.448  0.7908 -4.1862  0.8728
    2MPD2     N   29   4.126   4.183  11.653 -0.1167  0.2577 -0.5884
    2MPD2    H5   30   4.136   4.229  11.564 -1.0795  0.0642 -0.7901
    2MPD2    N1   31   3.962   3.803  11.909  0.3434 -0.0971 -0.1999
    2MPD2    H7   32   4.002   3.833  11.997 -0.9654 -0.5027  0.5309
    3TCq1    O1   33   2.040   4.677  11.423  0.3063  0.1783 -0.1183
    3TCq1    C1   34   2.150   4.618  11.372  0.8347  0.0774  0.3348
    3TCq1    O2   35   2.152   4.575  11.256 -0.4841  0.2025 -0.6775
    3TCq1    C2   36   2.263   4.659  11.445  0.4235  0.4582  0.4449
    3TCq1    C3   37   2.385   4.624  11.390  0.0484 -0.2448  0.6062
    3TCq1    C4   38   2.499   4.685  11.441  0.5312  0.0783 -0.0941
    3TCq1    C5   39   2.489   0.058  11.527  0.3578  0.2628 -0.6538
    3TCq1    C6   40   2.373   0.092  11.584  0.3343 -0.8819 -0.1198
    3TCq1    C7   41   2.257   0.041  11.534 -0.3442  0.1551 -0.2478
    3TCq1    C8   42   2.358   0.199  11.682 -0.0800 -0.4141 -0.1463
    3TCq1    O4   43   2.264   0.189  11.758 -0.2470  0.0809  0.0132
    3TCq1    C9   44   2.630   4.639  11.397 -0.0020 -0.1098  0.1596
    3TCq1    O5   45   2.636   4.528  11.329  0.0287  0.0284 -0.3396
    3TCq1    O6   46   2.730   4.714  11.414 -0.1302  0.3164 -0.7835
    3TCq1    H1   47   2.045   4.702  11.518 -2.1691 -1.3746  0.4204
    3TCq1    H2   48   2.402   4.547  11.315  0.5725  1.8114 -1.4119
    3TCq1    H3   49   2.580   0.096  11.572 -0.2250 -0.4580  1.1677
    3TCq1    H4   50   2.160   0.085  11.553 -0.2434 -0.2284  1.1726
    4MPD2     C   51   2.511   0.631  11.916 -0.3239 -0.0462 -0.3184
    4MPD2    C1   52   2.604   0.607  11.816  0.2744  0.2306 -0.3656
    4MPD2    C2   53   2.586   0.494  11.735 -1.0091  0.4742 -0.5735
    4MPD2    C3   54   2.478   0.402  11.761 -0.7632 -0.0704 -0.1410
    4MPD2    C4   55   2.391   0.435  11.862  0.1392 -0.2045  0.5048
    4MPD2    C5   56   2.412   0.543  11.936  0.2093 -0.0003  0.5245
    4MPD2     H   57   2.647   0.487  11.646 -1.5476 -0.5038 -0.8705
    4MPD2    H1   58   2.296   0.387  11.885 -1.4868  2.1074 -1.4723
    4MPD2    H2   59   2.510   0.729  11.962 -0.1223  0.1077 -0.6466
    4MPD2    H3   60   2.337   0.558  12.013 -0.6294  1.8289 -0.6336
    4MPD2     N   61   2.458   0.292  11.671  0.0334 -0.2244 -0.6083
    4MPD2    H5   62   2.522   0.280  11.593  0.1570  1.5730 -0.7994
    4MPD2    N1   63   2.707   0.695  11.777  0.3986 -0.1925  0.4812
    4MPD2    H7   64   2.752   0.687  11.687 -1.6826 -0.8211 -0.5107
    5TCq1    O1   65   3.709   1.996  11.947  0.6104  0.4963 -0.6090
    5TCq1    C1   66   3.759   1.950  11.834 -0.8376 -0.3260  0.4750
    5TCq1    O2   67   3.870   1.897  11.829  0.0440 -0.6668  0.3411
    5TCq1    C2   68   3.666   1.974  11.725 -0.3198 -0.7118 -0.5927
    5TCq1    C3   69   3.578   2.075  11.728 -0.2300 -0.1852  0.1978
    5TCq1    C4   70   3.504   2.106  11.622  0.0051 -0.5338  0.0149
    5TCq1    C5   71   3.531   2.049  11.496  0.4103 -1.0630 -0.0112
    5TCq1    C6   72   3.626   1.943  11.489  0.2190 -0.2319 -0.3540
    5TCq1    C7   73   3.691   1.900  11.606  0.9349 -0.2657 -0.3476
    5TCq1    C8   74   3.642   1.867  11.367  0.6996 -1.2501 -0.0872
    5TCq1    O4   75   3.724   1.777  11.369 -0.4510 -0.0030 -0.0235
    5TCq1    C9   76   3.422   2.226  11.636  0.1911 -0.2022  0.5026
    5TCq1    O5   77   3.358   2.260  11.532 -0.3772  0.0665  0.3683
    5TCq1    O6   78   3.458   2.311  11.727 -0.0018  0.1318 -0.0064
    5TCq1    H1   79   3.613   2.017  11.939  0.7546  0.9327 -1.1352
    5TCq1    H2   80   3.564   2.142  11.812 -0.6363 -2.5219  1.9880
    5TCq1    H3   81   3.480   2.096  11.413  1.8518 -3.1421 -2.0602
    5TCq1    H4   82   3.757   1.814  11.603  0.1776 -0.8108 -1.1394
    6MPD2     C   83   3.474   1.891  11.041  0.2726  0.3387 -0.5312
    6MPD2    C1   84   3.549   1.840  11.137  0.2989 -0.1281  0.1742
    6MPD2    C2   85   3.607   1.724  11.110 -0.4624  0.0947  0.1627
    6MPD2    C3   86   3.603   1.669  10.978 -0.3863 -0.1764 -0.1274
    6MPD2    C4   87   3.527   1.723  10.883 -0.0308 -0.3655 -0.3508
    6MPD2    C5   88   3.464   1.833  10.918 -0.0067 -0.7391 -0.3267
    6MPD2     H   89   3.671   1.670  11.179 -0.1108  0.7185  0.3319
    6MPD2    H1   90   3.514   1.689  10.781 -2.7792 -0.8571  0.1666
    6MPD2    H2   91   3.425   1.986  11.060 -2.9951 -1.2464 -0.8511
    6MPD2    H3   92   3.397   1.880  10.847  0.0207 -2.7563 -1.6796
    6MPD2     N   93   3.672   1.545  10.955 -0.7466 -0.5453  0.1561
    6MPD2    H5   94   3.730   1.519  11.033  0.9036 -1.4404 -1.3673
    6MPD2    N1   95   3.560   1.902  11.264 -0.2587 -0.0721 -0.0539
    6MPD2    H7   96   3.499   1.983  11.274  0.5950  0.7207 -1.2348
    7TCq1    O1   97   1.062   1.775  13.120 -0.1992 -0.4743 -1.0732
    7TCq1    C1   98   1.091   1.691  13.218  0.4168 -0.4179  0.1944
    7TCq1    O2   99   1.146   1.706  13.325  0.1543  0.4968 -0.3885
    7TCq1    C2  100   1.043   1.561  13.185 -0.4433  0.5293 -0.3515
    7TCq1    C3  101   1.044   1.518  13.054  0.6684 -0.7509 -0.3107
    7TCq1    C4  102   1.007   1.385  13.032  0.5620  0.8016  0.6847
    7TCq1    C5  103   0.993   1.294  13.131 -0.3896  0.0517  0.1757
    7TCq1    C6  104   1.003   1.336  13.257  0.1247 -0.3314 -0.0162
    7TCq1    C7  105   1.022   1.470  13.284 -0.3063  0.3526 -0.4176
    7TCq1    C8  106   1.019   1.234  13.360  0.3033 -0.2658 -0.5382
    7TCq1    O4  107   0.986   1.118  13.334  0.0758  0.2328 -0.1154
    7TCq1    C9  108   1.011   1.345  12.893  0.0823  0.1251  0.5929
    7TCq1    O5  109   0.965   1.227  12.869 -0.2574 -0.5631 -0.5150
    7TCq1    O6  110   1.034   1.422  12.798  0.4844  0.5389 -0.0803
    7TCq1    H1  111   0.980   1.747  13.072 -0.3235  0.1426 -1.2283
    7TCq1    H2  112   1.061   1.581  12.967  2.3120 -2.5160 -1.2610
    7TCq1    H3  113   0.984   1.188  13.107  0.0914  0.4061 -1.5832
    7TCq1    H4  114   1.016   1.502  13.387  1.1069 -2.9931  0.6945
    8MPD2     C  115   1.095   1.074  13.853  0.2097 -0.1510 -0.3935
    8MPD2    C1  116   1.036   1.009  13.747 -1.0781 -0.1355 -0.4649
    8MPD2    C2  117   1.028   1.072  13.621  0.2057 -0.4266 -0.0146
    8MPD2    C3  118   1.078   1.201  13.602 -0.6063  0.5489  0.4738
    8MPD2    C4  119   1.125   1.270  13.720  1.1526 -0.0709 -1.1128
    8MPD2    C5  120   1.142   1.199  13.834  0.4013 -0.1867 -0.4173
    8MPD2     H  121   0.971   1.024  13.543 -0.1500 -1.2753  0.7585
    8MPD2    H1  122   1.165   1.370  13.711  0.6517  0.1256 -1.1835
    8MPD2    H2  123   1.093   1.029  13.951 -1.4170 -0.6912 -0.6670
    8MPD2    H3  124   1.183   1.255  13.917  0.4243 -1.4527  0.4235
    8MPD2     N  125   1.067   1.277  13.479 -0.1510  0.3658 -0.1052
    8MPD2    H5  126   1.122   1.362  13.492  2.2203 -1.0002 -1.2010
    8MPD2    N1  127   0.989   0.881  13.779  0.1736 -0.4074 -0.3717
    8MPD2    H7  128   0.984   0.846  13.874  0.0750 -1.9803 -0.9574
    9TCq1    O1  129   3.526   0.603  11.230 -0.5675 -0.2484  0.0031
    9TCq1    C1  130   3.521   0.492  11.302  0.0818 -0.1196 -0.4823
    9TCq1    O2  131   3.490   0.497  11.425  0.5218 -0.4022 -0.0276
    9TCq1    C2  132   3.576   0.378  11.237  0.1161  0.6397  0.5103
    9TCq1    C3  133   3.554   0.367  11.103 -0.0881  1.2560  0.0894
    9TCq1    C4  134   3.591   0.256  11.039 -0.4717  0.0847 -0.5224
    9TCq1    C5  135   3.659   0.158  11.112  0.6403 -0.4896 -0.3467
    9TCq1    C6  136   3.667   0.167  11.249 -0.5025 -0.3030 -0.5186
    9TCq1    C7  137   3.637   0.279  11.320 -1.0053  0.1696 -0.7948
    9TCq1    C8  138   3.761   0.076  11.302 -0.7236  0.2496  0.1840
    9TCq1    O4  139   3.847   0.030  11.222 -0.2080  0.4050 -0.4632
    9TCq1    C9  140   3.577   0.249  10.905  0.1853  0.3286 -0.4428
    9TCq1    O5  141   3.626   0.146  10.845 -0.4287  0.3658 -0.6721
    9TCq1    O6  142   3.519   0.344  10.858  0.4846  0.4519  0.3677
    9TCq1    H1  143   3.572   0.596  11.144 -2.4439 -1.2687 -0.8937
    9TCq1    H2  144   3.494   0.444  11.056 -0.1349  0.5624 -0.9862
    9TCq1    H3  145   3.696   0.071  11.059  0.8563 -0.2361 -0.6104
    9TCq1    H4  146   3.648   0.301  11.425  0.7239 -2.2071 -0.4930
   10MPD2     C  147   3.978   4.714  11.496 -0.5556  1.0881 -0.6878
   10MPD2    C1  148   3.854   0.041  11.523 -0.2049 -0.1051 -0.4738
   10MPD2    C2  149   3.822   0.059  11.664 -0.0205  0.2121  0.2275
   10MPD2    C3  150   3.904   0.008  11.760  0.4353  0.0062 -0.4892
   10MPD2    C4  151   4.020   4.674  11.725 -0.1028  0.3317  0.2678
   10MPD2    C5  152   4.061   4.674  11.596 -0.0210 -0.2281  0.2799
   10MPD2     H  153   3.731   0.109  11.694 -0.2021 -0.5457  0.9284
   10MPD2    H1  154   4.085   4.621  11.794 -0.7871 -2.8788 -1.5427
   10MPD2    H2  155   4.011   4.697  11.394  2.1621  1.7916  0.0490
   10MPD2    H3  156   4.150   4.617  11.574 -0.8644 -1.4341 -0.0035
   10MPD2     N  157   3.866   0.008  11.899 -0.4540  0.2630  0.2084
   10MPD2    H5  158   3.936   4.696  11.962 -1.3690  0.6484  1.4525
   10MPD2    N1  159   3.750   0.084  11.441  0.4696  0.0893 -0.1898
   10MPD2    H7  160   3.656   0.103  11.476  0.9913  2.0512  0.1375
   11TCq1    O1  161   4.177   0.124  14.094  0.4144  0.5199  0.8083
   11TCq1    C1  162   4.130   4.725  14.092 -0.3517 -0.1050  1.2552
   11TCq1    O2  163   4.059   4.676  14.004 -0.2050  0.5006  0.1578
   11TCq1    C2  164   4.156   4.659  14.223  0.3360 -0.1582  0.4756
   11TCq1    C3  165   4.268   4.691  14.296  0.1077  0.2417  0.3096
   11TCq1    C4  166   4.280   4.622  14.415 -0.1221 -0.2318 -0.6733
   11TCq1    C5  167   4.192   4.526  14.461 -0.5898 -0.1322 -0.6176
   11TCq1    C6  168   4.083   4.500  14.377  0.4286 -0.4816 -0.0173
   11TCq1    C7  169   4.060   4.563  14.264 -0.5699 -0.4261 -0.5474
   11TCq1    C8  170   4.000   4.390  14.420  0.0328 -0.2404 -0.1724
   11TCq1    O4  171   3.999   4.361  14.536  0.1864  1.0022  0.2112
   11TCq1    C9  172   4.406   4.628  14.486 -0.2908 -0.6177 -0.2632
   11TCq1    O5  173   4.490   4.692  14.424  0.0629 -0.1473 -0.2086
   11TCq1    O6  174   4.431   4.559  14.588 -0.8634 -0.1037  0.1412
   11TCq1    H1  175   4.188   0.158  14.185 -0.4314  0.7217  0.8343
   11TCq1    H2  176   4.338   0.038  14.258  0.2065  0.1707  0.3552
   11TCq1    H3  177   4.214   4.473  14.553  0.9343 -0.0676 -0.9464
   11TCq1    H4  178   3.976   4.536  14.201 -1.0084  0.8224 -0.4978
   12MPD2     C  179   3.809   4.172  14.443 -0.2562 -0.9573 -0.0368
   12MPD2    C1  180   3.887   4.195  14.331 -0.3312  0.3016 -0.7735
   12MPD2    C2  181   3.880   4.096  14.229  0.7016 -0.6695  0.0792
   12MPD2    C3  182   3.806   3.984  14.245 -0.0501  0.4640  0.0798
   12MPD2    C4  183   3.746   3.955  14.367 -0.1708  1.0462  0.7580
   12MPD2    C5  184   3.747   4.053  14.461 -0.2321 -0.6736 -0.0877
   12MPD2     H  185   3.946   4.111  14.144  1.3528  2.8159  1.1798
   12MPD2    H1  186   3.703   3.860  14.395  1.1228  0.6538  1.4338
   12MPD2    H2  187   3.796   4.258  14.509 -1.3778 -1.9126  0.9943
   12MPD2    H3  188   3.700   4.032  14.556  2.3077 -0.5640  1.1903
   12MPD2     N  189   3.819   3.877  14.155 -0.5985  0.0365 -0.3013
   12MPD2    H5  190   3.774   3.793  14.189  0.7622 -0.1345  1.0783
   12MPD2    N1  191   3.967   4.312  14.312 -0.3495  0.6163 -0.0422
   12MPD2    H7  192   4.007   4.329  14.220  3.1274 -0.7970  1.1835
   13TCq1    O1  193   3.887   4.129  11.218  0.2320  0.1685  0.0284
   13TCq1    C1  194   3.762   4.155  11.269  0.3019  0.4892  0.4088
   13TCq1    O2  195   3.707   4.103  11.369  0.2881 -0.5428  0.4028
   13TCq1    C2  196   3.704   4.272  11.199 -0.2365 -0.0853  0.0688
   13TCq1    C3  197   3.741   4.315  11.072  0.0126 -0.3081 -0.2126
   13TCq1    C4  198   3.681   4.424  11.023 -0.1088  0.2737 -0.3712
   13TCq1    C5  199   3.587   4.494  11.091  0.1161 -0.2094  0.1850
   13TCq1    C6  200   3.574   4.465  11.220  0.5908  0.5026  0.2705
   13TCq1    C7  201   3.629   4.356  11.283  0.4747 -0.0229  0.3583
   13TCq1    C8  202   3.516   4.573  11.299  0.2180 -0.0909 -0.4003
   13TCq1    O4  203   3.542   4.578  11.418  0.2668  0.0955  0.5673
   13TCq1    C9  204   3.723   4.470  10.891  0.0944  0.0627  0.0418
   13TCq1    O5  205   3.665   4.570  10.844 -0.6523  0.4336 -0.4824
   13TCq1    O6  206   3.823   4.413  10.845  0.3219  0.0555 -0.1172
   13TCq1    H1  207   3.915   4.193  11.149 -0.3159 -0.8131 -1.0972
   13TCq1    H2  208   3.804   4.252  11.010  0.4342  1.6980 -1.8090
   13TCq1    H3  209   3.563   4.590  11.046  0.3899  0.3688  1.2897
   13TCq1    H4  210   3.620   4.327  11.387  0.3055  2.0321  0.9249
   14MPD2     C  211   3.297   0.115  11.164  0.4676  0.4241  0.0389
   14MPD2    C1  212   3.356   0.034  11.262 -0.0162  0.1922  0.4270
   14MPD2    C2  213   3.355   0.086  11.388 -0.1663  0.1923 -0.6422
   14MPD2    C3  214   3.289   0.205  11.417  0.7861 -0.4726 -0.1066
   14MPD2    C4  215   3.241   0.285  11.319  0.6199  0.2597  0.4242
   14MPD2    C5  216   3.246   0.240  11.193  0.3108 -0.3233  0.0928
   14MPD2     H  217   3.415   0.033  11.462 -0.8527  1.6102  0.9265
   14MPD2    H1  218   3.200   0.385  11.336  0.7600  0.5562 -0.9975
   14MPD2    H2  219   3.293   0.076  11.063 -2.0594  0.2410  0.2041
   14MPD2    H3  220   3.216   0.302  11.109  0.1287  0.8184  1.0002
   14MPD2     N  221   3.280   0.243  11.552  0.4854  0.5202 -0.8805
   14MPD2    H5  222   3.302   0.178  11.626 -2.2915 -0.2232 -0.7237
   14MPD2    N1  223   3.427   4.646  11.222 -0.1576 -0.6968 -0.6909
   14MPD2    H7  224   3.412   4.612  11.128  2.7768 -0.4345 -1.2588
   15TCq1    O1  225   0.170   3.360   2.295  0.4965  0.4300  0.3248
   15TCq1    C1  226   0.263   3.280   2.233  0.4892 -0.7455 -0.6959
   15TCq1    O2  227   0.369   3.232   2.265  0.3386 -0.0662  0.0908
   15TCq1    C2  228   0.230   3.284   2.090 -0.3392  0.2400 -0.1752
   15TCq1    C3  229   0.163   3.396   2.041 -0.0894  0.2761 -0.0654
   15TCq1    C4  230   0.154   3.402   1.904 -0.0213  0.4909  0.2841
   15TCq1    C5  231   0.215   3.308   1.822 -0.1742 -0.6925 -0.3965
   15TCq1    C6  232   0.288   3.212   1.879  0.4311 -0.3683  0.1432
   15TCq1    C7  233   0.305   3.200   2.014  0.1943  0.7018  0.1552
   15TCq1    C8  234   0.392   3.149   1.807 -0.3320  0.2504  0.6026
   15TCq1    O4  235   0.438   3.050   1.862  0.0213 -0.7620 -0.2613
   15TCq1    C9  236   0.079   3.500   1.846 -0.2244 -0.2873  0.2811
   15TCq1    O5  237   0.003   3.570   1.926  0.3107 -0.2772  0.0902
   15TCq1    O6  238   0.067   3.507   1.719  0.3147  0.4543  0.5429
   15TCq1    H1  239   0.084   3.355   2.247  1.4815  0.9797 -1.4931
   15TCq1    H2  240   0.112   3.469   2.103  1.0557 -0.1536  1.3736
   15TCq1    H3  241   0.211   3.322   1.714 -1.4797  2.0755 -0.0167
   15TCq1    H4  242   0.365   3.118   2.052 -2.0189 -0.5720  0.8466
   16MPD2     C  243   0.482   3.165   1.455  1.5121  0.5266  0.2760
   16MPD2    C1  244   0.486   3.110   1.579 -0.2117  0.4935  0.1243
   16MPD2    C2  245   0.571   2.999   1.600 -0.1701  0.2286 -0.3359
   16MPD2    C3  246   0.633   2.941   1.498  0.9656  0.0186 -0.3325
   16MPD2    C4  247   0.613   2.988   1.370 -0.2693  0.0683  0.2600
   16MPD2    C5  248   0.538   3.100   1.347  0.8554  0.2715  0.1758
   16MPD2     H  249   0.589   2.956   1.698 -0.5109  1.0461  0.0850
   16MPD2    H1  250   0.648   2.937   1.282 -1.7515 -0.6140  0.0632
   16MPD2    H2  251   0.421   3.253   1.435 -0.7425 -1.1661 -0.2440
   16MPD2    H3  252   0.530   3.149   1.251  0.6906  1.3751  0.7529
   16MPD2     N  253   0.721   2.830   1.529  0.1790 -0.1359 -0.0264
   16MPD2    H5  254   0.744   2.803   1.624 -2.3935 -2.5107 -0.0942
   16MPD2    N1  255   0.402   3.174   1.668 -0.3975  0.3221  0.1580
   16MPD2    H7  256   0.345   3.249   1.630  1.1126  1.0678 -0.6674
   17TCq1    O1  257   3.182   4.527  10.874  0.3080 -0.2336 -0.6720
   17TCq1    C1  258   3.276   4.463  10.947  0.2729 -0.7839 -0.0659
   17TCq1    O2  259   3.271   4.447  11.070 -0.1067  0.2299 -0.7548
   17TCq1    C2  260   3.333   4.365  10.869  0.3979 -0.2387 -0.9487
   17TCq1    C3  261   3.385   4.398  10.743  0.1560 -0.5315 -0.4071
   17TCq1    C4  262   3.470   4.305  10.681 -0.2092 -0.5509  0.8240
   17TCq1    C5  263   3.508   4.190  10.749  0.4159 -0.0278  0.3351
   17TCq1    C6  264   3.456   4.162  10.879 -0.6082  0.2920  0.0210
   17TCq1    C7  265   3.367   4.247  10.940  0.5159 -0.5815  0.2583
   17TCq1    C8  266   3.514   4.054  10.962 -0.1710 -0.2191 -0.2010
   17TCq1    O4  267   3.451   4.017  11.057 -0.0257  0.1910 -0.3287
   17TCq1    C9  268   3.536   4.335  10.560  0.3987 -0.1123 -0.2961
   17TCq1    O5  269   3.473   4.410  10.479  0.5449 -0.1261 -0.5399
   17TCq1    O6  270   3.641   4.270  10.530 -0.8891  0.1484  0.0826
   17TCq1    H1  271   3.177   4.496  10.782 -1.2130 -2.3504  0.1287
   17TCq1    H2  272   3.365   4.491  10.691 -0.0308 -1.9998 -3.0071
   17TCq1    H3  273   3.573   4.119  10.699 -3.3210 -2.3650 -1.2333
   17TCq1    H4  274   3.327   4.222  11.037 -2.9573 -0.4864 -1.1570
   18MPD2     C  275   3.699   3.868  11.085  0.1555 -0.2981 -0.2429
   18MPD2    C1  276   3.735   3.955  10.984  0.0125  0.3034  0.0798
   18MPD2    C2  277   3.860   3.947  10.929 -0.6486  0.1277 -0.4519
   18MPD2    C3  278   3.958   3.858  10.978  0.4188 -0.5389  0.2152
   18MPD2    C4  279   3.920   3.768  11.076 -0.7783 -0.0234 -0.5138
   18MPD2    C5  280   3.793   3.777  11.129  0.5304 -0.9251 -0.7641
   18MPD2     H  281   3.896   4.018  10.855 -1.5530  2.2156  1.1454
   18MPD2    H1  282   3.991   3.694  11.112 -0.7388  0.9698  1.4275
   18MPD2    H2  283   3.603   3.877  11.136  0.5499 -0.7197  0.5794
   18MPD2    H3  284   3.764   3.708  11.208 -2.0938  2.3098  1.1184
   18MPD2     N  285   4.093   3.868  10.926 -0.3032 -0.8877 -0.0274
   18MPD2    H5  286   4.110   3.953  10.874  1.2190  0.2212  2.2749
   18MPD2    N1  287   3.648   4.048  10.929  0.3722  0.7235  0.1301
   18MPD2    H7  288   3.681   4.108  10.855 -1.4703  0.5531 -0.8251
   19TMC2    C1  289   0.300   4.719  14.611 -0.1338  0.3996  0.4652
   19TMC2    C2  290   0.198   0.052  14.680 -0.4324 -0.2703  0.1713
   19TMC2    C3  291   0.071   0.003  14.673 -0.0150 -0.6454 -0.3745
   19TMC2    C4  292   0.286   4.604  14.542  0.3054  0.3497  0.4824
   19TMC2    C5  293   0.156   4.555  14.538  0.1939  0.0261 -0.2085
   19TMC2    C6  294   0.050   4.612  14.604  0.6852  0.1923  0.0267
   19TMC2     C  295   0.434   0.033  14.652 -0.3946 -0.0594 -0.0303
   19TMC2     O  296   0.453   0.146  14.691 -0.2318 -0.5622  0.6065
   19TMC2     H  297   0.223   0.137  14.742  0.5448  0.9259 -1.8562
   19TMC2    H1  298   0.370   4.555  14.493 -0.3824 -1.0029  0.6654
   19TMC2    H2  299   4.683   4.557  14.613  1.9077 -1.6379  1.5165
   19TMC2    C7  300   0.134   4.435  14.456  0.1717 -0.0491 -0.0694
   19TMC2    C8  301   4.700   0.063  14.764 -0.6207  0.4843  0.1039
   19TMC2    O1  302   0.237   4.388  14.404 -0.4103 -0.8190 -0.4785
   19TMC2    O2  303   0.003   0.128  14.863  0.2020 -0.0529 -0.2611
   19TMC2    O5  304   4.580   0.008  14.746  0.4250  0.0748  0.6810
   19TMC2    H5  305   4.564   4.703  14.654  0.4726 -0.0332  0.7095
   20MPD2     C  306   0.718   0.057  14.599  0.1396  0.7026  0.1294
   20MPD2    C1  307   0.659   4.659  14.622  0.1642  0.3281  0.1685
   20MPD2    C2  308   0.733   4.542  14.621 -0.1437  0.5377  0.5792
   20MPD2    C3  309   0.868   4.553  14.611 -0.1804 -0.1092 -0.1117
   20MPD2    C4  310   0.925   4.674  14.582 -0.7788 -0.1466 -0.0604
   20MPD2    C5  311   0.850   0.065  14.574  0.2579  0.1484 -0.4920
   20MPD2     H  312   0.680   4.448  14.627 -3.4347  2.3551 -0.0954
   20MPD2    H1  313   1.034   4.674  14.583 -0.7727 -0.5621 -1.8126
   20MPD2    H2  314   0.655   0.145  14.599 -1.2678 -0.3007  0.2526
   20MPD2    H3  315   0.887   0.167  14.573 -1.3044  0.7254 -0.2809
   20MPD2     N  316   0.961   4.445  14.612 -0.2958  0.0196 -0.3302
   20MPD2    H5  317   1.059   4.471  14.615 -0.8162  1.7194  1.2966
   20MPD2    N1  318   0.517   4.652  14.637 -0.0324  0.4316 -0.2704
   20MPD2    H7  319   0.480   4.558  14.634 -0.0985  0.3631  3.3098
   21MPD2     C  320   2.945   4.648  14.409 -0.3964 -1.0720  0.5291
   21MPD2    C1  321   3.012   4.577  14.509 -0.7047 -0.1157  0.4612
   21MPD2    C2  322   2.939   4.524  14.616  0.1948 -0.1031 -0.9295
   21MPD2    C3  323   2.802   4.528  14.626  0.6435 -0.0392  0.4331
   21MPD2    C4  324   2.738   4.603  14.530 -0.3841 -0.2983  0.3195
   21MPD2    C5  325   2.804   4.659  14.428 -0.2111  0.5821  0.0568
   21MPD2     H  326   2.989   4.468  14.695 -0.4702 -0.5827 -0.8475
   21MPD2    H1  327   2.630   4.610  14.535 -0.3030  1.4547 -0.0978
   21MPD2    H2  328   2.995   4.691  14.323 -0.6206 -0.0383  0.9204
   21MPD2    H3  329   2.748   0.002  14.366 -0.5744  1.9354  1.8895
   21MPD2     N  330   2.717   4.481  14.729  0.0988  0.3055  0.4843
   21MPD2    H5  331   2.617   4.495  14.729  0.1365  0.5705  0.8661
   21MPD2    N1  332   3.153   4.549  14.503  0.4015 -0.3468 -0.4057
   21MPD2    H7  333   3.198   4.507  14.583  0.9610 -0.5287 -0.8167
   22TCq2    C1  334   2.752   4.401  14.832  0.3608 -0.5077  0.5791
   22TCq2    O2  335   2.860   4.347  14.846  0.2346 -0.0004  0.1294
   22TCq2    C2  336   2.638   4.379  14.929 -0.1793 -0.6643  0.1367
   22TCq2    C3  337   2.663   4.273  15.011 -0.2973  0.5038 -0.3364
   22TCq2    C4  338   2.588   4.268  15.125  0.2857  0.2183 -0.6184
   22TCq2    C5  339   2.508   4.368  15.166 -0.2132  0.4330 -0.1924
   22TCq2    C6  340   2.500   4.478  15.088  0.8313 -0.5194 -0.6688
   22TCq2    C7  341   2.567   4.490  14.971  0.3652  1.0026  0.5142
   22TCq2    C8  342   2.404   4.583  15.134 -0.3837  0.1773 -0.4983
   22TCq2    O4  343   2.405   4.603  15.258  0.3734  0.0458  0.1310
   22TCq2    C9  344   2.604   4.146  15.211 -0.3754  0.0699 -0.1108
   22TCq2    O5  345   2.677   4.056  15.160  0.1824  0.3831  0.3244
   22TCq2    O6  346   2.581   4.161  15.334 -0.2651 -0.1201  0.3720
   22TCq2    H2  347   2.725   4.187  14.986 -0.7503  0.8135 -2.6020
   22TCq2    H3  348   2.439   4.341  15.245 -0.0161  1.3315  0.2855
   22TCq2    H4  349   2.559   4.580  14.911 -0.8703  0.9333  0.5742
   23MPD2     C  350   4.451   0.856  15.120 -0.4609 -0.7913  0.3671
   23MPD2    C1  351   4.373   0.766  15.188 -0.5643  0.2969  0.5620
   23MPD2    C2  352   4.280   0.686  15.112 -0.6279  0.6656 -0.1131
   23MPD2    C3  353   4.275   0.694  14.974 -0.4158  0.2928 -0.2814
   23MPD2    C4  354   4.364   0.779  14.905  0.1948 -0.0650 -0.5456
   23MPD2    C5  355   4.448   0.859  14.980  0.0144 -0.5974  0.0301
   23MPD2     H  356   4.209   0.622  15.163 -0.4638  1.7417  1.4631
   23MPD2    H1  357   4.352   0.787  14.798  0.1165  0.9005 -0.4622
   23MPD2    H2  358   4.525   0.919  15.167  0.3138  1.2424 -3.5433
   23MPD2    H3  359   4.519   0.921  14.925  0.2994  0.2822  1.3965
   23MPD2     N  360   4.169   0.643  14.891  0.1522  0.9155  0.4338
   23MPD2    H5  361   4.178   0.650  14.790  1.4340  0.4635  0.5218
   23MPD2    N1  362   4.383   0.746  15.334  0.1365 -0.4309 -0.4122
   23MPD2    H7  363   4.302   0.698  15.372 -0.5213  0.5955 -0.5114
   24TCq2    C1  364   4.048   0.589  14.931  0.2148  0.7128 -0.3200
   24TCq2    O2  365   4.020   0.566  15.049 -0.2500  0.0117  0.7394
   24TCq2    C2  366   3.965   0.547  14.822  0.5510  0.1718  0.3069
   24TCq2    C3  367   3.986   0.591  14.698  0.4818  0.3892  0.6714
   24TCq2    C4  368   3.898   0.545  14.607 -0.7904  0.4154 -0.0625
   24TCq2    C5  369   3.800   0.459  14.633  0.0117  0.1211 -0.3176
   24TCq2    C6  370   3.794   0.401  14.761 -0.9924 -0.6733 -0.8532
   24TCq2    C7  371   3.880   0.451  14.858  0.2918  0.0831 -0.4430
   24TCq2    C8  372   3.672   0.326  14.802  0.3799 -0.0624  0.4378
   24TCq2    O4  373   3.662   0.301  14.920  0.1546  0.2635  0.6539
   24TCq2    C9  374   3.909   0.599  14.468  0.2614 -0.0005  0.0788
   24TCq2    O5  375   4.016   0.663  14.441  0.4241 -0.5260 -0.1522
   24TCq2    O6  376   3.815   0.588  14.383  0.1934 -0.6664  0.3656
   24TCq2    H2  377   4.040   0.683  14.678 -0.3775  0.8803  0.6011
   24TCq2    H3  378   3.726   0.433  14.558  1.0553 -0.8898 -0.9915
   24TCq2    H4  379   3.862   0.424  14.961 -1.0420  0.0345 -0.6947
   25TMC2    C1  380   3.118   2.567  11.589  0.1225 -0.5128 -0.0590
   25TMC2    C2  381   3.254   2.554  11.617  0.3466  0.4341 -0.5689
   25TMC2    C3  382   3.310   2.638  11.711  0.3536  0.4304  0.2657
   25TMC2    C4  383   3.048   2.681  11.634  0.2475  0.1480 -0.2779
   25TMC2    C5  384   3.106   2.756  11.727  0.0001 -0.0089 -0.1773
   25TMC2    C6  385   3.239   2.745  11.769  0.6327  0.5427  0.3100
   25TMC2     C  386   3.064   2.477  11.490 -0.0050  0.6352  0.1004
   25TMC2     O  387   3.151   2.422  11.424 -0.0976  0.4187  0.4763
   25TMC2     H  388   3.293   2.456  11.593  1.7868  0.7466  0.4565
   25TMC2    H1  389   2.943   2.692  11.611  0.5594  3.2673 -0.2066
   25TMC2    H2  390   3.288   2.799  11.850  0.8943 -1.0796  1.2339
   25TMC2    C7  391   3.036   2.863  11.791  0.7729 -0.2431 -0.5414
   25TMC2    C8  392   3.452   2.656  11.709 -0.3996  0.5463  0.1047
   25TMC2    O1  393   3.060   2.886  11.907  0.4526 -0.1342 -0.1938
   25TMC2    O2  394   3.486   2.775  11.694  0.0689  0.3438 -0.7455
   25TMC2    O5  395   3.512   2.544  11.661  0.3092  0.5360 -0.7098
   25TMC2    H5  396   3.476   2.457  11.690  1.5105  1.3094  3.1102
   26MPD2     C  397   2.699   2.175  11.303 -0.3197 -0.7409  0.0822
   26MPD2    C1  398   2.652   2.231  11.417  0.2147  0.5920  0.0203
   26MPD2    C2  399   2.735   2.320  11.483 -0.4853  0.2653 -0.2614
   26MPD2    C3  400   2.860   2.356  11.433  0.2931 -0.5408 -0.2411
   26MPD2    C4  401   2.904   2.289  11.320  0.3933  0.6706  0.1833
   26MPD2    C5  402   2.828   2.195  11.260  0.1725  0.5069  0.4888
   26MPD2     H  403   2.700   2.371  11.573  4.9390  0.3882  1.8062
   26MPD2    H1  404   3.003   2.306  11.279  0.2777  0.0750 -0.3213
   26MPD2    H2  405   2.642   2.108  11.240 -1.8274  1.1226 -0.5485
   26MPD2    H3  406   2.873   2.149  11.172 -0.9132 -1.8565  1.1622
   26MPD2     N  407   2.933   2.453  11.514 -1.0075 -0.5187 -0.2421
   26MPD2    H5  408   2.892   2.494  11.597 -0.3447  0.4527 -0.3907
   26MPD2    N1  409   2.514   2.219  11.446  0.1281  0.2168  0.4767
   26MPD2    H7  410   2.455   2.183  11.372 -1.5784  1.1299  1.3833
   27TMC2    C1  411   2.116   0.778  12.224 -0.1655  0.2663  0.4481
   27TMC2    C2  412   2.044   0.834  12.119 -0.0452 -0.1921 -0.0545
   27TMC2    C3  413   2.011   0.972  12.123  0.4930  0.2829 -0.1314
   27TMC2    C4  414   2.148   0.846  12.332 -0.1626 -0.1861  0.2979
   27TMC2    C5  415   2.116   0.981  12.343  0.2700 -0.5366  0.7876
   27TMC2    C6  416   2.053   1.039  12.229 -0.1036  0.0989  0.3275
   27TMC2     C  417   2.071   0.648  12.259  0.1594  0.6733  0.2426
   27TMC2     O  418   2.096   0.554  12.185  0.5184  0.1987 -0.2696
   27TMC2     H  419   1.990   0.771  12.050 -0.8389 -1.7214  1.9471
   27TMC2    H1  420   2.197   0.811  12.423 -0.8889 -1.4673  0.1960
   27TMC2    H2  421   2.008   1.137  12.236 -0.8827 -0.1837 -0.7268
   27TMC2    C7  422   2.045   1.000  12.474 -0.7094 -0.4457  0.1526
   27TMC2    C8  423   1.945   1.042  12.022 -1.1399  0.0149 -0.3579
   27TMC2    O1  424   2.019   0.892  12.523 -0.5769  0.2740  0.6764
   27TMC2    O2  425   1.911   1.158  12.028  0.2826 -0.0310 -0.1037
   27TMC2    O5  426   2.030   0.991  11.929  0.2447  0.3069  0.3987
   27TMC2    H5  427   2.082   0.912  11.955  0.7999 -0.2165 -2.3271
   28MPD2     C  428   1.899   0.340  12.638  0.0911  0.4901  0.0190
   28MPD2    C1  429   1.848   0.466  12.661 -0.4328  0.1885  0.7141
   28MPD2    C2  430   1.879   0.563  12.565  0.0061 -0.2272  0.0776
   28MPD2    C3  431   1.966   0.535  12.455 -0.2426  0.6521 -0.3300
   28MPD2    C4  432   2.011   0.406  12.435 -0.7695 -0.5962  0.1419
   28MPD2    C5  433   1.978   0.313  12.530  0.1991  0.0566  0.4292
   28MPD2     H  434   1.849   0.667  12.567 -1.7697 -0.7882  3.1603
   28MPD2    H1  435   2.084   0.383  12.358 -1.1256 -0.0605 -0.3589
   28MPD2    H2  436   1.904   0.257  12.707  0.5842  0.3387 -0.1928
   28MPD2    H3  437   2.010   0.211  12.508  1.4794  0.1244  2.0644
   28MPD2     N  438   1.999   0.647  12.377  0.2513  0.1194 -0.1516
   28MPD2    H5  439   1.980   0.741  12.411  0.9793 -0.3720  1.6327
   28MPD2    N1  440   1.762   0.494  12.767 -0.2717 -0.4111 -0.8133
   28MPD2    H7  441   1.713   0.415  12.809 -2.5421  0.4304 -1.8575
   29MPD2     C  442   1.303   2.456  14.384  0.2710 -0.2225  0.5429
   29MPD2    C1  443   1.440   2.451  14.379 -0.3188 -0.5109 -0.4890
   29MPD2    C2  444   1.506   2.573  14.410  0.0234 -0.6051  0.0919
   29MPD2    C3  445   1.445   2.692  14.439 -0.3961  0.0800  0.0515
   29MPD2    C4  446   1.308   2.690  14.434  0.1228 -0.4130  0.2344
   29MPD2    C5  447   1.234   2.570  14.413  0.5702 -0.8946  0.8258
   29MPD2     H  448   1.614   2.569  14.401  0.0269 -0.1334 -0.0626
   29MPD2    H1  449   1.248   2.777  14.456 -1.3626 -0.2112 -4.6499
   29MPD2    H2  450   1.242   2.368  14.367  0.4397 -0.2421  0.0397
   29MPD2    H3  451   1.125   2.570  14.416  0.5197  0.8505 -0.7594
   29MPD2     N  452   1.510   2.816  14.464 -0.2984 -0.4502 -0.6036
   29MPD2    H5  453   1.448   2.894  14.481  2.7542  1.4832  1.6372
   29MPD2    N1  454   1.515   2.336  14.352  0.2925 -0.3056 -0.5670
   29MPD2    H7  455   1.615   2.338  14.369  0.3115  1.7367 -0.8988
   30TCq2    C1  456   1.645   2.830  14.490  0.6810 -0.5304  0.7425
   30TCq2    O2  457   1.734   2.748  14.464  0.1266  0.1993 -0.1215
   30TCq2    C2  458   1.679   2.962  14.535 -0.3442 -0.9136  0.2592
   30TCq2    C3  459   1.591   3.058  14.596  0.7731  0.1972 -0.3950
   30TCq2    C4  460   1.647   3.166  14.660 -0.4770  1.1455  0.7061
   30TCq2    C5  461   1.783   3.185  14.665  0.0012 -1.3148 -0.2676
   30TCq2    C6  462   1.866   3.093  14.612  0.4329 -0.1369  0.3569
   30TCq2    C7  463   1.813   2.983  14.550  0.2922  0.9782  0.1336
   30TCq2    C8  464   2.013   3.110  14.605 -0.0252 -0.4304  0.1476
   30TCq2    O4  465   2.080   3.022  14.554  0.0584  0.4885  0.6478
   30TCq2    C9  466   1.556   3.265  14.726  0.2787 -0.3168 -0.4883
   30TCq2    O5  467   1.606   3.366  14.785 -0.0834  0.1202  0.4098
   30TCq2    O6  468   1.435   3.232  14.736 -0.3899  0.0319  0.3133
   30TCq2    H2  469   1.485   3.037  14.609  1.0288  0.3795  2.0550
   30TCq2    H3  470   1.819   3.268  14.726 -1.9146 -0.3489 -0.4574
   30TCq2    H4  471   1.879   2.910  14.504 -1.3800 -1.2631  1.3056
   31MPD2     C  472   3.884   1.516  14.743 -1.0289  0.0350 -0.3527
   31MPD2    C1  473   3.989   1.573  14.814 -0.5030  0.6433  0.1237
   31MPD2    C2  474   3.980   1.583  14.949  0.8832  0.1558 -0.3437
   31MPD2    C3  475   3.878   1.523  15.024 -0.1668  0.2773 -0.3030
   31MPD2    C4  476   3.785   1.452  14.950 -0.3275  0.6921  0.1092
   31MPD2    C5  477   3.784   1.455  14.814 -0.2837 -0.0243  0.1838
   31MPD2     H  478   4.048   1.648  15.003 -0.2419 -1.3508  2.8579
   31MPD2    H1  479   3.705   1.396  14.996  1.5483 -0.5502  1.8895
   31MPD2    H2  480   3.881   1.518  14.635 -1.4279  3.1498 -0.2957
   31MPD2    H3  481   3.710   1.401  14.756 -0.2341  0.2034 -0.0904
   31MPD2     N  482   3.859   1.541  15.164  0.3487 -0.0196 -0.0916
   31MPD2    H5  483   3.783   1.498  15.216 -0.0398 -1.2821 -1.6996
   31MPD2    N1  484   4.089   1.642  14.741 -0.5535  0.8451 -0.3579
   31MPD2    H7  485   4.074   1.637  14.641 -0.5815  1.2759 -0.3744
   32TCq2    C1  486   3.956   1.594  15.243 -0.0670 -0.2004  0.4756
   32TCq2    O2  487   4.071   1.628  15.226  0.4319  0.1140  0.1525
   32TCq2    C2  488   3.915   1.590  15.381  0.1175 -0.6876  0.5865
   32TCq2    C3  489   3.795   1.640  15.412  0.2707 -0.5355 -0.2937
   32TCq2    C4  490   3.738   1.609  15.531  0.2373 -0.0786  0.7519
   32TCq2    C5  491   3.808   1.538  15.621 -0.2883  0.0589 -0.2391
   32TCq2    C6  492   3.925   1.474  15.586  0.1903  0.1089 -0.4742
   32TCq2    C7  493   3.981   1.505  15.466 -0.5625  0.1109 -0.5087
   32TCq2    C8  494   3.990   1.378  15.676  0.6348  0.4239 -0.1426
   32TCq2    O4  495   3.919   1.292  15.726 -0.0501  0.3459  0.5867
   32TCq2    C9  496   3.620   1.683  15.563  0.0898  0.5102  0.2829
   32TCq2    O5  497   3.558   1.646  15.664 -0.4140 -0.3815 -0.0367
   32TCq2    O6  498   3.590   1.786  15.497 -0.3671  0.1405 -0.4619
   32TCq2    H2  499   3.737   1.699  15.342 -0.1665  0.1340  0.6241
   32TCq2    H3  500   3.756   1.510  15.712  2.6988 -0.3338  1.3456
   32TCq2    H4  501   4.054   1.435  15.425  0.3645  0.3800  0.6886
   33MPD2     C  502   4.357   4.395  11.068  0.0753  1.3743 -0.7099
   33MPD2    C1  503   4.433   4.342  10.967 -0.1700 -0.3713 -0.3202
   33MPD2    C2  504   4.515   4.425  10.894  0.2572 -0.5817 -0.4822
   33MPD2    C3  505   4.517   4.564  10.912  0.3373 -0.5048 -0.1636
   33MPD2    C4  506   4.433   4.616  11.010 -0.6124 -0.5879  0.0142
   33MPD2    C5  507   4.351   4.535  11.080  0.6915 -0.2715 -0.6961
   33MPD2     H  508   4.566   4.390  10.805 -0.2210 -4.7097  0.8611
   33MPD2    H1  509   4.422   4.722  11.026  0.4803 -0.2291 -1.6684
   33MPD2    H2  510   4.290   4.339  11.132  1.7662 -1.4573 -1.4077
   33MPD2    H3  511   4.287   4.576  11.159  2.8209  1.2736  0.2204
   33MPD2     N  512   4.587   4.658  10.826  0.6033  0.0690  0.2978
   33MPD2    H5  513   4.575   0.031  10.845  0.2527  0.2556 -0.8543
   33MPD2    N1  514   4.426   4.203  10.945  0.7678 -0.1700 -0.0014
   33MPD2    H7  515   4.359   4.149  10.999  1.5197 -1.4908 -0.3839
   34TCq2    C1  516   4.686   4.622  10.736 -0.2428 -0.4466  0.7349
   34TCq2    O2  517   0.016   4.514  10.720  0.4617  0.3216  0.1906
   34TCq2    C2  518   0.021   0.008  10.669 -1.1802  0.0518 -0.5655
   34TCq2    C3  519   4.680   0.128  10.656 -1.2068 -0.4191 -0.0726
   34TCq2    C4  520   0.015   0.230  10.588  0.6549  0.2018  0.1662
   34TCq2    C5  521   0.135   0.210  10.539  0.1966  0.1618 -0.5775
   34TCq2    C6  522   0.204   0.096  10.556 -0.0227  0.3111  0.5088
   34TCq2    C7  523   0.148   4.713  10.619  0.5122 -0.0407 -0.4183
   34TCq2    C8  524   0.313   0.075  10.466 -0.3257 -0.3283 -0.8531
   34TCq2    O4  525   0.428   0.048  10.499 -0.0244 -0.2119 -0.0498
   34TCq2    C9  526   4.666   0.345  10.549 -0.0319 -0.1407 -0.5440
   34TCq2    O5  527   4.715   0.428  10.468  0.6420  0.1449  0.3538
   34TCq2    O6  528   4.547   0.346  10.581  0.1838 -0.4463 -0.1408
   34TCq2    H2  529   4.578   0.138  10.694 -1.6305  1.5211 -1.7664
   34TCq2    H3  530   0.173   0.286  10.472 -0.0962  2.3848  1.7677
   34TCq2    H4  531   0.200   4.619  10.631  0.7628 -0.2404 -3.2354
   35MPD2     C  532   1.271   1.479  11.813  0.8469 -0.4273  0.5105
   35MPD2    C1  533   1.248   1.369  11.890  0.2140 -0.0147 -0.3789
   35MPD2    C2  534   1.153   1.277  11.842  0.0551 -0.6862 -0.2227
   35MPD2    C3  535   1.094   1.280  11.717 -0.1344  0.2621  0.3376
   35MPD2    C4  536   1.126   1.386  11.633  0.1948 -0.0973 -0.3987
   35MPD2    C5  537   1.209   1.484  11.687  0.6011  0.2548  0.5811
   35MPD2     H  538   1.133   1.190  11.903  0.4705 -1.1542 -0.7549
   35MPD2    H1  539   1.091   1.394  11.531 -0.4582  1.6636 -0.0387
   35MPD2    H2  540   1.324   1.563  11.856  2.2896 -1.0877  0.0003
   35MPD2    H3  541   1.233   1.566  11.620 -0.7315  0.2635  0.0951
   35MPD2     N  542   0.994   1.180  11.686  0.0328  0.5838  0.0582
   35MPD2    H5  543   0.974   1.109  11.756  2.0354 -0.5423 -0.5369
   35MPD2    N1  544   1.314   1.364  12.013 -0.1787 -0.3684  0.3601
   35MPD2    H7  545   1.378   1.439  12.039  0.7230 -0.6690 -0.9865
   36TCq2    C1  546   0.931   1.168  11.561  0.6161  0.0987 -0.5085
   36TCq2    O2  547   0.954   1.224  11.456 -0.1859  0.2419 -0.5324
   36TCq2    C2  548   0.841   1.046  11.549 -0.6862  0.5338 -0.0387
   36TCq2    C3  549   0.807   1.001  11.421  0.2132 -0.0111  0.4254
   36TCq2    C4  550   0.727   0.890  11.410  0.7555 -0.5649  0.5871
   36TCq2    C5  551   0.678   0.829  11.521  0.5239 -0.0510  0.0247
   36TCq2    C6  552   0.729   0.869  11.646  0.1053 -0.1199 -0.2692
   36TCq2    C7  553   0.809   0.974  11.662  0.2701 -0.0419  0.2038
   36TCq2    C8  554   0.672   0.787  11.757 -0.2016 -0.1774  0.4757
   36TCq2    O4  555   0.588   0.703  11.726 -0.4464 -0.1477  0.0888
   36TCq2    C9  556   0.683   0.842  11.283 -0.0641 -0.5449 -1.0049
   36TCq2    O5  557   0.573   0.778  11.265  0.0989 -0.0314 -0.2837
   36TCq2    O6  558   0.759   0.866  11.189  0.6137  0.4720  0.4788
   36TCq2    H2  559   0.830   1.063  11.336  0.7193 -1.1922 -0.3045
   36TCq2    H3  560   0.614   0.745  11.497 -0.7670  0.6865  0.8834
   36TCq2    H4  561   0.843   0.997  11.762  0.6419  0.2100  0.0169
   37TMC2    C1  562   3.078   1.151  11.903 -0.7172 -0.6126 -0.4016
   37TMC2    C2  563   3.072   1.233  11.794 -1.1153 -0.3601  0.4807
   37TMC2    C3  564   3.177   1.235  11.709  0.6636  0.0619 -0.4036
   37TMC2    C4  565   3.197   1.095  11.944  0.0585  0.0647  0.4404
   37TMC2    C5  566   3.304   1.106  11.854  0.3472 -0.3232  0.6643
   37TMC2    C6  567   3.300   1.186  11.742  0.2233 -0.0438  0.2885
   37TMC2     C  568   2.982   1.191  12.006 -0.4569 -0.9430  0.2279
   37TMC2     O  569   2.866   1.214  11.977 -0.0751 -0.1954  0.6142
   37TMC2     H  570   2.989   1.300  11.772  1.1168  3.0352  2.3403
   37TMC2    H1  571   3.204   1.024  12.027  0.1366  0.3570  0.6851
   37TMC2    H2  572   3.387   1.198  11.678 -1.1577 -0.7734 -1.7195
   37TMC2    C7  573   3.432   1.099  11.924 -0.4580 -0.3999 -0.1960
   37TMC2    C8  574   3.182   1.338  11.613 -0.2642 -0.2414  0.1996
   37TMC2    O1  575   3.422   1.100  12.043 -0.0886 -0.4109  0.1058
   37TMC2    O2  576   3.097   1.432  11.620 -0.2835 -0.1743 -0.3266
   37TMC2    O5  577   3.184   1.261  11.503 -0.4445  0.1804  0.0998
   37TMC2    H5  578   3.197   1.165  11.520  1.0605 -0.0028 -2.0416
   38MPD2     C  579   2.838   1.140  12.494 -0.3754 -0.7662  0.3315
   38MPD2    C1  580   2.976   1.130  12.495 -0.6780  0.4143  0.1274
   38MPD2    C2  581   3.037   1.140  12.372  0.3865  0.3926  0.1254
   38MPD2    C3  582   2.971   1.172  12.256  0.6224  0.0468  0.0429
   38MPD2    C4  583   2.837   1.200  12.264  0.1132  0.5192 -0.6479
   38MPD2    C5  584   2.776   1.185  12.382  0.1851 -0.5581 -0.6478
   38MPD2     H  585   3.144   1.123  12.367  0.3639 -0.5041  2.6595
   38MPD2    H1  586   2.775   1.229  12.179 -1.3002  0.3379  0.3120
   38MPD2    H2  587   2.787   1.115  12.587 -3.7107  1.4348 -0.9303
   38MPD2    H3  588   2.673   1.217  12.392  0.2015 -0.3764 -1.0690
   38MPD2     N  589   3.041   1.176  12.131 -0.4789 -0.2478 -0.1712
   38MPD2    H5  590   3.142   1.182  12.138 -0.8371  2.1942  2.8347
   38MPD2    N1  591   3.060   1.096  12.603  0.1496 -0.4309  0.3676
   38MPD2    H7  592   3.156   1.086  12.570 -0.0859  2.4639 -1.2263
   39MPD2     C  593   1.696   2.290   1.483 -0.0464  0.6750  0.3857
   39MPD2    C1  594   1.604   2.356   1.568 -0.4822  0.2496  0.4640
   39MPD2    C2  595   1.472   2.321   1.567  0.6829  0.1197 -0.4644
   39MPD2    C3  596   1.426   2.243   1.457 -0.3050 -0.5077  0.6637
   39MPD2    C4  597   1.520   2.183   1.374 -0.7301  0.0109 -0.1726
   39MPD2    C5  598   1.653   2.195   1.394  0.8544  0.3835 -1.2704
   39MPD2     H  599   1.397   2.364   1.632  2.1572 -0.5802  1.6885
   39MPD2    H1  600   1.495   2.109   1.299 -1.5237  3.0888 -2.9152
   39MPD2    H2  601   1.803   2.312   1.486 -0.0329  0.9018 -1.6891
   39MPD2    H3  602   1.726   2.152   1.326 -0.5721 -2.5727 -0.9375
   39MPD2     N  603   1.294   2.227   1.416 -0.3435  0.0470  0.1679
   39MPD2    H5  604   1.272   2.176   1.330  0.9153 -1.7966  0.9346
   39MPD2    N1  605   1.663   2.444   1.653 -0.2304  0.1479 -0.6737
   39MPD2    H7  606   1.753   2.479   1.621  0.5977  1.4338  3.0196
   40TCq2    C1  607   1.602   2.501   1.762  0.2006 -0.1716 -0.5003
   40TCq2    O2  608   1.494   2.481   1.813  0.1046 -0.2226 -0.1866
   40TCq2    C2  609   1.685   2.585   1.843  0.0527  0.1028 -0.8053
   40TCq2    C3  610   1.638   2.618   1.973 -0.3539  0.1348 -1.2582
   40TCq2    C4  611   1.729   2.678   2.059  0.3132  0.0711 -0.1683
   40TCq2    C5  612   1.853   2.714   2.025 -0.2331  0.9238 -0.1016
   40TCq2    C6  613   1.890   2.683   1.892  0.9222 -0.3977 -0.1942
   40TCq2    C7  614   1.809   2.623   1.801  0.1348  0.2588 -0.2993
   40TCq2    C8  615   2.002   2.759   1.833  0.4175 -0.5545 -0.0542
   40TCq2    O4  616   2.046   2.709   1.731 -0.1927  0.6070  0.2298
   40TCq2    C9  617   1.687   2.693   2.199  1.2731 -0.2680 -0.1109
   40TCq2    O5  618   1.750   2.784   2.263 -0.6804  0.6520 -0.2829
   40TCq2    O6  619   1.599   2.608   2.240  0.0897  0.3949 -0.1320
   40TCq2    H2  620   1.544   2.595   2.022  1.4753 -0.7525  1.8439
   40TCq2    H3  621   1.923   2.758   2.094  0.0378  0.7908 -0.2904
   40TCq2    H4  622   1.851   2.595   1.705  0.0156 -0.3579 -0.1755
   41TMC2    C1  623   0.074   0.856  13.957 -0.4458 -0.1590  0.3646
   41TMC2    C2  624   0.087   0.976  14.015 -0.0452  0.2884  0.5359
   41TMC2    C3  625   0.093   1.085  13.932  0.6270  0.5637  0.5508
   41TMC2    C4  626   0.053   0.831  13.822 -0.3249  0.2885  0.2014
   41TMC2    C5  627   0.055   0.945  13.741  0.0177  0.5162 -0.1800
   41TMC2    C6  628   0.073   1.068  13.793 -0.0887 -0.3090 -0.7068
   41TMC2     C  629   0.078   0.738  14.038  0.0348  0.0889  0.5643
   41TMC2     O  630   0.026   0.638  14.000 -0.9528  0.1863 -0.2602
   41TMC2     H  631   0.051   0.992  14.116 -1.8682 -0.6218  0.0308
   41TMC2    H1  632   0.032   0.732  13.782 -1.2171  0.0355  1.2868
   41TMC2    H2  633   0.070   1.162  13.738 -0.0171 -0.5558 -1.1334
   41TMC2    C7  634   0.004   0.932  13.605  0.6320  0.7685 -0.5076
   41TMC2    C8  635   0.114   1.223  13.992 -0.1330 -0.1001 -0.1075
   41TMC2    O1  636   4.662   0.834  13.575 -0.9100 -0.6416  0.0759
   41TMC2    O2  637   0.070   1.323  13.935 -0.3080  0.4703 -0.2476
   41TMC2    O5  638   0.164   1.227  14.118  1.0767  0.0014  0.0925
   41TMC2    H5  639   0.204   1.139  14.138 -1.5795 -1.3525 -0.4942
   42MPD2     C  640   0.082   0.569  14.300 -0.3220 -0.0151 -0.4296
   42MPD2    C1  641   0.125   0.696  14.284  0.1125 -0.3285 -0.0856
   42MPD2    C2  642   0.179   0.762  14.390 -0.0454 -0.1315  1.0126
   42MPD2    C3  643   0.203   0.705  14.516 -0.4197 -0.2559  0.3542
   42MPD2    C4  644   0.161   0.575  14.528  0.1571  0.2363 -0.5012
   42MPD2    C5  645   0.107   0.507  14.416 -0.0122 -0.0608 -0.1404
   42MPD2     H  646   0.190   0.869  14.377  1.1973 -0.3793  0.0001
   42MPD2    H1  647   0.174   0.520  14.620 -2.2186  3.7128  1.9276
   42MPD2    H2  648   0.038   0.503  14.226  1.2416 -1.8394  0.2511
   42MPD2    H3  649   0.079   0.402  14.418 -4.9306  1.3008  2.5559
   42MPD2     N  650   0.258   0.771  14.629  0.5411  0.3752 -0.4385
   42MPD2    H5  651   0.286   0.716  14.710 -2.0952  0.0653  0.2620
   42MPD2    N1  652   0.116   0.773  14.166 -0.5611  0.0681  0.1663
   42MPD2    H7  653   0.149   0.869  14.177  0.9214 -0.5574  1.2386
   43MPD2     C  654   1.888   4.135   0.934  0.7096  0.4876  0.3941
   43MPD2    C1  655   1.918   4.123   1.067 -0.4076 -0.0242  0.6178
   43MPD2    C2  656   1.817   4.158   1.153 -0.1107  0.0710 -0.2674
   43MPD2    C3  657   1.697   4.213   1.109  0.1005  0.8748  0.1906
   43MPD2    C4  658   1.671   4.215   0.973  0.0045 -0.2221  0.1278
   43MPD2    C5  659   1.771   4.188   0.884  0.7380 -0.7197  0.0832
   43MPD2     H  660   1.838   4.160   1.260 -1.8202  1.7704  0.0311
   43MPD2    H1  661   1.583   4.255   0.925  0.4377 -1.8729 -2.0607
   43MPD2    H2  662   1.963   4.112   0.859 -0.7741 -2.3644 -0.1846
   43MPD2    H3  663   1.769   4.216   0.779  2.4508  0.6171  0.4010
   43MPD2     N  664   1.591   4.249   1.201 -0.3365 -0.5466 -0.2702
   43MPD2    H5  665   1.502   4.283   1.165 -0.3442  0.9151  1.1237
   43MPD2    N1  666   2.036   4.071   1.121  0.3556 -0.1365  0.6591
   43MPD2    H7  667   2.033   4.062   1.222 -0.1577  1.7362  0.8096
   44TCq2    C1  668   1.427   4.142   1.765  0.5604  0.7844 -0.5421
   44TCq2    O2  669   1.525   4.067   1.770 -0.0375 -0.3375  0.1656
   44TCq2    C2  670   1.392   4.196   1.632  0.4286 -0.5355 -0.5303
   44TCq2    C3  671   1.292   4.289   1.609 -0.4756  0.0207 -0.7336
   44TCq2    C4  672   1.286   4.348   1.486 -0.3166 -1.2470 -0.0850
   44TCq2    C5  673   1.381   4.323   1.392 -0.5421 -0.7177  0.1834
   44TCq2    C6  674   1.470   4.224   1.418 -0.3368  0.2329 -0.1884
   44TCq2    C7  675   1.486   4.159   1.534  0.0595 -0.1012 -0.6277
   44TCq2    C8  676   1.596   4.237   1.340  0.0535  0.1171  0.2986
   44TCq2    O4  677   1.690   4.201   1.411  0.1245  0.2571  0.8222
   44TCq2    C9  678   1.173   4.429   1.443  0.2971 -0.7613 -0.3663
   44TCq2    O5  679   1.091   4.476   1.524  0.3063 -0.3507  0.2693
   44TCq2    O6  680   1.155   4.441   1.320  0.1483 -0.0243  0.5318
   44TCq2    H2  681   1.213   4.306   1.681  0.9218 -1.9197  1.2976
   44TCq2    H3  682   1.380   4.377   1.298 -3.2426 -0.8538  0.1133
   44TCq2    H4  683   1.570   4.094   1.558  1.1279  2.0178  1.5182
   45TMC2    C1  684   2.283   1.939   9.357 -0.4472 -0.3746  0.7223
   45TMC2    C2  685   2.229   1.951   9.231  0.2397 -0.7990 -0.5257
   45TMC2    C3  686   2.231   2.076   9.174  0.1965 -0.3265  0.3632
   45TMC2    C4  687   2.337   2.044   9.431 -0.4429  0.6108  0.3889
   45TMC2    C5  688   2.311   2.167   9.370  0.2111  0.3276 -0.2257
   45TMC2    C6  689   2.272   2.186   9.240 -0.3428 -0.3109  0.5336
   45TMC2     C  690   2.287   1.810   9.422  0.3004  0.6256  0.2919
   45TMC2     O  691   2.338   1.803   9.535 -0.0736 -0.1874  0.2512
   45TMC2     H  692   2.188   1.868   9.176 -0.0607 -1.2101  0.3120
   45TMC2    H1  693   2.382   2.033   9.529  0.6696  0.9073 -0.0867
   45TMC2    H2  694   2.264   2.282   9.189 -1.6081 -0.4965  0.3973
   45TMC2    C7  695   2.307   2.288   9.453  0.2449  0.3366  0.4291
   45TMC2    C8  696   2.143   2.094   9.066 -0.3525  0.1705 -0.5628
   45TMC2    O1  697   2.291   2.394   9.395  0.1242  0.0330  0.1249
   45TMC2    O2  698   2.034   2.041   9.067  0.2201  0.2194  0.1063
   45TMC2    O5  699   2.170   2.208   8.992 -0.4379 -0.3025  0.2911
   45TMC2    H5  700   2.266   2.227   8.986 -0.1290 -1.7301  0.7157
   46MPD2     C  701   2.371   1.528   9.481 -0.6508  0.4774  0.7878
   46MPD2    C1  702   2.281   1.567   9.387  0.2629 -0.5290 -0.6584
   46MPD2    C2  703   2.199   1.475   9.330 -0.3791  0.6564  0.1966
   46MPD2    C3  704   2.217   1.339   9.354 -0.3599  0.1239 -0.2548
   46MPD2    C4  705   2.320   1.293   9.440  0.5030  1.1676 -0.0881
   46MPD2    C5  706   2.403   1.391   9.500 -0.3491  0.1558  0.4933
   46MPD2     H  707   2.122   1.511   9.262 -0.5535  0.0224  0.0574
   46MPD2    H1  708   2.337   1.188   9.458  1.5851  1.3757  0.1163
   46MPD2    H2  709   2.434   1.605   9.524  0.8092  0.5183 -1.4188
   46MPD2    H3  710   2.482   1.361   9.567 -0.4768 -0.6500  0.2860
   46MPD2     N  711   2.123   1.258   9.287  0.3301  0.0950 -0.1890
   46MPD2    H5  712   2.059   1.308   9.225 -1.4630 -1.0360  0.7515
   46MPD2    N1  713   2.260   1.702   9.339 -0.3115 -0.6380  0.0842
   46MPD2    H7  714   2.203   1.722   9.258 -1.4040  1.5079  1.3895
   47TMC2    C1  715   0.298   1.794   9.521  0.5151 -0.1348  0.3141
   47TMC2    C2  716   0.357   1.713   9.424 -0.8736  0.1771  0.3611
   47TMC2    C3  717   0.282   1.692   9.312 -0.4882  0.5032  0.1611
   47TMC2    C4  718   0.174   1.850   9.504  0.0608 -0.9434  0.3484
   47TMC2    C5  719   0.098   1.819   9.397  0.3746  0.2000 -0.0707
   47TMC2    C6  720   0.150   1.736   9.302  0.4425 -0.9536  0.3286
   47TMC2     C  721   0.367   1.836   9.645  0.4223  0.3303  0.4779
   47TMC2     O  722   0.355   1.951   9.685  0.2662 -0.6411  0.4505
   47TMC2     H  723   0.458   1.676   9.432 -0.9406  0.0482  0.6472
   47TMC2    H1  724   0.139   1.909   9.588 -0.2999  0.7294 -0.9949
   47TMC2    H2  725   0.095   1.688   9.222  1.8878  0.8535 -1.7418
   47TMC2    C7  726   4.683   1.857   9.378 -0.3510 -0.1310  0.5714
   47TMC2    C8  727   0.303   1.575   9.235  0.2333 -0.3887  1.3036
   47TMC2    O1  728   4.646   1.873   9.265  0.1479 -0.1226 -0.6745
   47TMC2    O2  729   0.253   1.552   9.124 -0.2977  0.1959  0.0744
   47TMC2    O5  730   0.329   1.481   9.327  0.1575  0.5348  0.2463
   47TMC2    H5  731   0.346   1.530   9.410 -1.5449  0.8488  0.4163
   48MPD2     C  732   0.549   1.881   9.884  0.4966 -0.2032 -0.1549
   48MPD2    C1  733   0.537   1.762   9.810 -1.0026 -0.4277  0.5166
   48MPD2    C2  734   0.617   1.652   9.849  0.5755 -0.6736  0.4193
   48MPD2    C3  735   0.697   1.653   9.963 -0.4195 -0.6952  0.1611
   48MPD2    C4  736   0.695   1.767  10.041 -0.1435 -0.4734  0.1548
   48MPD2    C5  737   0.630   1.874   9.998 -0.4530  0.4766  0.0328
   48MPD2     H  738   0.629   1.567   9.784 -2.3126 -1.0313  0.3185
   48MPD2    H1  739   0.752   1.779  10.133 -1.2991  2.5213  0.4695
   48MPD2    H2  740   0.495   1.974   9.867  0.3280 -0.9543 -3.7148
   48MPD2    H3  741   0.638   1.958  10.065  0.2938 -0.7585  1.4915
   48MPD2     N  742   0.772   1.537   9.976  0.0986  0.4897  0.1011
   48MPD2    H5  743   0.761   1.472   9.899 -0.9383  1.0525 -0.2298
   48MPD2    N1  744   0.455   1.744   9.699  0.9962 -0.3315 -0.7285
   48MPD2    H7  745   0.455   1.651   9.658  1.2255 -0.8476  0.4526
   49MPD2     C  746   2.778   3.554  10.290  0.2375 -0.3613 -0.4167
   49MPD2    C1  747   2.761   3.546  10.427 -0.0874  0.3215 -0.1270
   49MPD2    C2  748   2.805   3.659  10.502  0.5280  0.3159 -0.4951
   49MPD2    C3  749   2.866   3.770  10.450 -0.5181  0.0017 -0.7817
   49MPD2    C4  750   2.891   3.766  10.318  0.4443 -0.2606 -0.3823
   49MPD2    C5  751   2.845   3.662  10.239 -0.5603 -0.9132 -0.5134
   49MPD2     H  752   2.775   3.649  10.605  2.9213  2.3959  0.4005
   49MPD2    H1  753   2.955   3.843  10.275 -0.5839  1.0387  0.4370
   49MPD2    H2  754   2.750   3.482  10.213 -0.6458  0.7420 -1.1332
   49MPD2    H3  755   2.868   3.668  10.134 -0.0495  1.9558 -0.2352
   49MPD2     N  756   2.908   3.883  10.521  0.1297 -0.0644  0.1241
   49MPD2    H5  757   2.982   3.939  10.479 -0.3056  0.8882  0.6164
   49MPD2    N1  758   2.708   3.426  10.488  0.5917 -0.5629  0.6801
   49MPD2    H7  759   2.705   3.425  10.590 -0.3844  1.7426  0.6718
   50TCq2    C1  760   2.655   3.317  10.423  0.4967  0.3162 -0.2819
   50TCq2    O2  761   2.625   3.301  10.303  0.4961 -0.4467  1.0381
   50TCq2    C2  762   2.605   3.210  10.510  0.1249 -0.4338  0.5257
   50TCq2    C3  763   2.521   3.119  10.444 -0.1150  0.1652  0.2921
   50TCq2    C4  764   2.442   3.035  10.523 -0.7167 -0.0954 -0.4822
   50TCq2    C5  765   2.460   3.029  10.663 -0.3873 -0.5007 -0.5010
   50TCq2    C6  766   2.553   3.114  10.718 -0.0636  0.8201  0.6436
   50TCq2    C7  767   2.628   3.209  10.643  0.2856  0.0996 -0.7170
   50TCq2    C8  768   2.566   3.104  10.862  0.3264  0.5172 -0.3350
   50TCq2    O4  769   2.509   3.012  10.924  0.0489  0.7794 -0.2642
   50TCq2    C9  770   2.351   2.935  10.462 -0.0402 -0.4155  0.4659
   50TCq2    O5  771   2.316   2.958  10.345  0.0937 -0.4683  0.7268
   50TCq2    O6  772   2.304   2.843  10.535 -0.2030 -0.2822 -0.2498
   50TCq2    H2  773   2.513   3.110  10.336  0.2469  1.1736  0.1831
   50TCq2    H3  774   2.392   2.967  10.720 -0.0877 -0.5216 -0.1650
   50TCq2    H4  775   2.708   3.268  10.688  1.5413 -0.6197 -1.9956
   51MPD2     C  776   2.401   2.635   0.769  0.1778  0.1808 -0.1592
   51MPD2    C1  777   2.521   2.591   0.799 -0.0718  0.6670  0.1661
   51MPD2    C2  778   2.609   2.681   0.856 -0.0050  0.0107  0.0900
   51MPD2    C3  779   2.570   2.813   0.879  0.3184 -0.5608 -0.1626
   51MPD2    C4  780   2.446   2.858   0.842  0.1704  0.4455  0.0957
   51MPD2    C5  781   2.359   2.765   0.792 -0.5717  0.3879 -0.5363
   51MPD2     H  782   2.704   2.643   0.894  0.0312  0.4106  0.3912
   51MPD2    H1  783   2.406   2.958   0.858  0.6074  0.5685  0.3994
   51MPD2    H2  784   2.324   2.566   0.737  0.7966 -1.0431  1.0169
   51MPD2    H3  785   2.259   2.793   0.760 -1.3854 -2.3921 -0.4982
   51MPD2     N  786   2.650   2.920   0.937 -0.1839  1.2309  0.2223
   51MPD2    H5  787   2.601   3.008   0.953 -1.7155  0.3616  0.2918
   51MPD2    N1  788   2.565   2.458   0.772  0.9779  0.1283 -0.7601
   51MPD2    H7  789   2.664   2.440   0.786  1.1996  0.2391 -2.2481
   52TCq2    C1  790   2.771   2.894   0.996 -0.1167  0.0305  0.3482
   52TCq2    O2  791   2.851   2.802   0.974  0.0931  0.2545  0.2971
   52TCq2    C2  792   2.827   3.004   1.071  0.0171 -0.7067  0.7338
   52TCq2    C3  793   2.742   3.098   1.120 -0.0488  0.0447  0.3316
   52TCq2    C4  794   2.788   3.197   1.207 -0.4411 -0.5416 -0.0154
   52TCq2    C5  795   2.920   3.198   1.238 -0.5393  0.0939  0.3300
   52TCq2    C6  796   3.002   3.096   1.199  0.0370 -0.3689  0.2294
   52TCq2    C7  797   2.957   3.002   1.109  0.4200 -0.0510 -0.5745
   52TCq2    C8  798   3.144   3.109   1.219  0.8579  0.0876 -0.5069
   52TCq2    O4  799   3.186   3.218   1.251  0.3464  0.2889 -0.2059
   52TCq2    C9  800   2.701   3.281   1.278 -0.6538 -0.1026 -0.1676
   52TCq2    O5  801   2.748   3.325   1.386 -0.3745  0.1954 -0.1716
   52TCq2    O6  802   2.583   3.305   1.233 -0.5640 -0.1518 -1.3092
   52TCq2    H2  803   2.634   3.092   1.114 -0.1425  1.6725  0.2960
   52TCq2    H3  804   2.958   3.277   1.302  0.6731 -0.6147  0.4799
   52TCq2    H4  805   3.017   2.924   1.064  0.3235 -0.7254  0.4555
   53TMC2    C1  806   4.033   1.169  12.363  1.0409 -0.5589  0.3235
   53TMC2    C2  807   4.128   1.092  12.426  0.4151  0.2242  0.2845
   53TMC2    C3  808   4.109   1.062  12.558  0.3466 -0.1512  0.0653
   53TMC2    C4  809   3.929   1.231  12.433  0.0551  0.4935  0.0013
   53TMC2    C5  810   3.912   1.200  12.567  0.6317  0.4852  0.5722
   53TMC2    C6  811   4.000   1.110  12.625 -0.8241 -0.2576 -0.5848
   53TMC2     C  812   4.011   1.141  12.220 -0.0796 -0.0955  0.3621
   53TMC2     O  813   4.104   1.087  12.163  0.2368 -0.3926 -0.4550
   53TMC2     H  814   4.193   1.031  12.364 -0.2957 -3.3032  2.9859
   53TMC2    H1  815   3.852   1.293  12.390 -0.4108  0.6866  1.1167
   53TMC2    H2  816   3.992   1.091  12.732  2.0257  0.8454 -0.1826
   53TMC2    C7  817   3.802   1.268  12.639 -0.2473  0.3419  0.4041
   53TMC2    C8  818   4.221   1.019  12.641  0.7300 -0.1347  0.6005
   53TMC2    O1  819   3.747   1.367  12.598  0.2597 -0.0608  0.6388
   53TMC2    O2  820   4.218   0.996  12.763  0.0860  0.7753  0.6560
   53TMC2    O5  821   4.336   0.997  12.568 -0.0556  0.0702  0.3911
   53TMC2    H5  822   4.341   1.010  12.471  1.1660  0.4584  0.5171
   54MPD2     C  823   3.938   1.138  11.941 -0.4710 -0.6209 -0.3949
   54MPD2    C1  824   3.844   1.146  12.043 -0.4721 -0.8160  0.0615
   54MPD2    C2  825   3.707   1.131  12.021  0.4875 -0.1285 -0.0701
   54MPD2    C3  826   3.667   1.133  11.885 -0.4467  0.0596  0.0340
   54MPD2    C4  827   3.761   1.132  11.782 -0.1670  0.1938 -0.1420
   54MPD2    C5  828   3.895   1.131  11.807 -0.8333  0.3202 -0.1647
   54MPD2     H  829   3.643   1.135  12.108  0.5470 -0.0913 -0.0285
   54MPD2    H1  830   3.731   1.132  11.678 -0.8141  0.1813  0.0450
   54MPD2    H2  831   4.045   1.150  11.958 -0.2293 -2.5930 -0.5643
   54MPD2    H3  832   3.963   1.133  11.722 -3.3425 -1.4521 -2.1910
   54MPD2     N  833   3.542   1.120  11.841 -0.2371  0.6984  0.6298
   54MPD2    H5  834   3.533   1.122  11.740 -3.3190 -1.3259  0.8697
   54MPD2    N1  835   3.882   1.160  12.176  0.1253  0.2112  0.3045
   54MPD2    H7  836   3.807   1.178  12.243  0.9195 -1.0398  1.5154
   55MPD2     C  837   4.463   3.635   0.330 -0.3285  0.4156  0.0715
   55MPD2    C1  838   4.420   3.534   0.415 -0.0952 -0.2156  0.1324
   55MPD2    C2  839   4.306   3.564   0.492 -0.0711  0.5892 -0.5254
   55MPD2    C3  840   4.222   3.673   0.477  0.4192  0.6017 -0.0981
   55MPD2    C4  841   4.263   3.764   0.378 -0.4049 -0.1168  0.3245
   55MPD2    C5  842   4.373   3.741   0.305 -0.6488  0.4713  0.2364
   55MPD2     H  843   4.289   3.492   0.572 -0.1862  0.6777 -0.4707
   55MPD2    H1  844   4.215   3.860   0.362 -0.7867 -0.2549  0.6440
   55MPD2    H2  845   4.554   3.624   0.272 -0.9941 -2.0919 -0.5084
   55MPD2    H3  846   4.403   3.809   0.226  2.3597  1.0530  1.8878
   55MPD2     N  847   4.109   3.693   0.560  0.5335  0.3726  0.3346
   55MPD2    H5  848   4.089   3.629   0.636 -0.0999 -0.3738 -0.4712
   55MPD2    N1  849   4.492   3.414   0.429 -0.5152 -0.5495 -0.1546
   55MPD2    H7  850   4.574   3.403   0.369  0.0125  1.3439  0.2189
   56TCq2    C1  851   4.466   3.309   0.516 -0.5156  0.7073 -0.6273
   56TCq2    O2  852   4.390   3.297   0.612 -0.1199  0.5307  0.1433
   56TCq2    C2  853   4.567   3.199   0.501 -0.4552 -0.0295  1.2621
   56TCq2    C3  854   4.657   3.195   0.392 -0.2722 -0.0911  0.5501
   56TCq2    C4  855   0.013   3.087   0.399  0.2533  0.5807  0.3460
   56TCq2    C5  856   0.031   3.004   0.505  0.1560 -0.4994  0.4212
   56TCq2    C6  857   4.663   3.005   0.606  0.3045 -0.0152 -1.0154
   56TCq2    C7  858   4.564   3.100   0.598  0.1547  0.0947  0.0115
   56TCq2    C8  859   4.665   2.890   0.701 -0.0601  0.4317  0.0488
   56TCq2    O4  860   0.035   2.814   0.704 -0.8532  0.3381 -0.0731
   56TCq2    C9  861   0.103   3.076   0.292  1.0405 -0.2624 -0.3008
   56TCq2    O5  862   0.205   3.005   0.303 -0.0132 -0.3144 -0.0454
   56TCq2    O6  863   0.095   3.158   0.199  0.0245 -0.4162 -0.4814
   56TCq2    H2  864   4.670   3.261   0.307  2.8318 -2.0400 -0.5177
   56TCq2    H3  865   0.097   2.918   0.497 -0.1024 -0.5893 -0.8426
   56TCq2    H4  866   4.499   3.114   0.683  0.0422  2.6201 -0.5049
   57TMC2    C1  867   3.530   4.297  13.590  0.3810  0.1950  0.5179
   57TMC2    C2  868   3.571   4.174  13.633  0.0571 -0.8438 -0.5177
   57TMC2    C3  869   3.667   4.112  13.557  0.5561  0.4164  0.1800
   57TMC2    C4  870   3.592   4.365  13.489  0.2553 -0.2416 -0.4272
   57TMC2    C5  871   3.689   4.300  13.418  0.5830  0.2168  0.0928
   57TMC2    C6  872   3.728   4.171  13.449 -0.4265 -0.5366  0.5385
   57TMC2     C  873   3.422   4.365  13.649  0.6168  0.1155 -0.1814
   57TMC2     O  874   3.379   4.464  13.587  0.6862  0.0947 -0.1110
   57TMC2     H  875   3.528   4.109  13.709 -1.2664  0.1440 -0.4451
   57TMC2    H1  876   3.577   4.467  13.456 -0.3056  0.8116  3.0528
   57TMC2    H2  877   3.814   4.127  13.400 -0.9546 -0.6683 -0.2659
   57TMC2    C7  878   3.748   4.362  13.301  0.6072 -0.4177 -0.6438
   57TMC2    C8  879   3.674   3.975  13.558  0.2210 -0.0339 -0.3095
   57TMC2    O1  880   3.733   4.482  13.285  0.9012  0.3126  0.5491
   57TMC2    O2  881   3.740   3.928  13.650 -0.3330  0.2353  0.0264
   57TMC2    O5  882   3.552   3.940  13.525  0.4519 -0.0411  0.2417
   57TMC2    H5  883   3.509   4.004  13.463  0.6946  0.6330  0.7678
   58MPD2     C  884   3.058   4.422  13.999 -0.1632  0.5455 -0.1762
   58MPD2    C1  885   3.078   4.491  13.883 -0.2655 -0.6404 -0.8272
   58MPD2    C2  886   3.188   4.449  13.805 -0.2494 -0.4053  0.1017
   58MPD2    C3  887   3.273   4.349  13.843 -0.0699 -0.0963  0.3488
   58MPD2    C4  888   3.245   4.274  13.957 -0.3033  0.5279  0.3105
   58MPD2    C5  889   3.139   4.315  14.033 -0.6393 -0.5874 -0.9346
   58MPD2     H  890   3.200   4.495  13.708 -0.9296  1.3900  0.8638
   58MPD2    H1  891   3.315   4.196  13.984  0.1909  0.3181 -1.5931
   58MPD2    H2  892   2.971   4.443  14.060  0.9105  1.7629  0.9164
   58MPD2    H3  893   3.121   4.260  14.125  1.1429  1.6568  0.7568
   58MPD2     N  894   3.380   4.308  13.762  0.0510 -0.5211 -0.2672
   58MPD2    H5  895   3.438   4.233  13.797 -0.6764 -0.4011  1.1684
   58MPD2    N1  896   3.002   4.598  13.837  0.0272 -0.1388  0.1672
   58MPD2    H7  897   3.026   4.633  13.745 -0.5189 -2.1144 -0.7271
   59MPD2     C  898   1.252   4.653  13.146  0.7472 -0.2021 -1.0891
   59MPD2    C1  899   1.338   0.024  13.094 -0.0700 -0.1517  0.2994
   59MPD2    C2  900   1.441   0.067  13.175 -0.2773  0.0472 -1.0114
   59MPD2    C3  901   1.454   0.014  13.303  0.3894  0.2117  0.7245
   59MPD2    C4  902   1.364   4.648  13.348 -0.3512  1.4703 -0.7065
   59MPD2    C5  903   1.263   4.596  13.272 -0.6236 -0.0922 -0.4870
   59MPD2     H  904   1.508   0.144  13.138 -0.5249  0.4019 -0.7105
   59MPD2    H1  905   1.367   4.610  13.449 -2.2094 -1.1075 -1.6139
   59MPD2    H2  906   1.175   4.612  13.082 -0.9058  2.0562 -0.5171
   59MPD2    H3  907   1.192   4.526  13.314  1.0996 -0.8244  1.2034
   59MPD2     N  908   1.559   0.058  13.388  0.2940  0.5229 -0.1602
   59MPD2    H5  909   1.557   0.019  13.482 -1.0539  1.2853  0.1324
   59MPD2    N1  910   1.328   0.076  12.963  0.5753  0.4024 -0.3881
   59MPD2    H7  911   1.403   0.139  12.933 -0.0433  1.2762 -0.1077
   60TCq2    C1  912   1.218   0.071  12.884 -0.3224  0.1744 -0.4051
   60TCq2    O2  913   1.113   0.002  12.888 -0.1786  0.7005  0.2517
   60TCq2    C2  914   1.242   0.146  12.759  0.0933 -0.0304 -0.9677
   60TCq2    C3  915   1.366   0.144  12.706  0.0913 -0.2308 -0.1962
   60TCq2    C4  916   1.399   0.248  12.619  0.2823 -0.2481  0.0609
   60TCq2    C5  917   1.316   0.357  12.598  0.5438  0.1326 -0.0425
   60TCq2    C6  918   1.187   0.350  12.652  0.8126  0.3704  0.5308
   60TCq2    C7  919   1.149   0.248  12.736  0.0936  0.3258 -0.5594
   60TCq2    C8  920   1.082   0.451  12.631  0.6186  0.4194  0.0051
   60TCq2    O4  921   0.963   0.420  12.636 -0.2648 -0.1766  0.2022
   60TCq2    C9  922   1.520   0.241  12.542 -0.7326 -0.6189 -0.2878
   60TCq2    O5  923   1.503   0.288  12.425 -0.2823  0.5801  0.3561
   60TCq2    O6  924   1.608   0.164  12.582 -0.1565 -0.3675  0.1340
   60TCq2    H2  925   1.430   0.057  12.706 -1.1632 -1.1615  0.2088
   60TCq2    H3  926   1.343   0.434  12.526  3.4169 -0.4750  0.4043
   60TCq2    H4  927   1.057   0.237  12.792  0.0720  0.5189 -0.5580
   61MPD2     C  928   0.797   1.286  14.913  0.4566 -0.1487 -0.4110
   61MPD2    C1  929   0.884   1.360  14.988  0.4119 -0.4747 -0.3957
   61MPD2    C2  930   0.916   1.483  14.937  0.7516  0.1108 -0.5283
   61MPD2    C3  931   0.859   1.542  14.825  0.2856  0.6468  0.4342
   61MPD2    C4  932   0.774   1.468  14.747  0.6244 -0.1697  0.2551
   61MPD2    C5  933   0.741   1.341  14.793  0.0495  0.6743 -0.4137
   61MPD2     H  934   0.968   1.551  15.003  0.4773  0.5041 -0.7210
   61MPD2    H1  935   0.722   1.502  14.658 -0.7922  2.2482  2.0285
   61MPD2    H2  936   0.771   1.188  14.952  0.0306  0.9214  1.9813
   61MPD2    H3  937   0.675   1.276  14.736  0.6454 -0.5173  0.2429
   61MPD2     N  938   0.868   1.678  14.782  0.5463  0.0102  0.3707
   61MPD2    H5  939   0.812   1.703  14.701 -0.7365 -0.1036  1.2159
   61MPD2    N1  940   0.945   1.323  15.111 -0.4631 -0.2255  0.5520
   61MPD2    H7  941   1.009   1.390  15.153 -1.0606 -0.1232  1.3274
   62TCq2    C1  942   0.928   1.205  15.179 -0.6835  0.2592 -0.1810
   62TCq2    O2  943   0.865   1.104  15.147  0.0964  0.6644 -0.1421
   62TCq2    C2  944   0.982   1.203  15.315  1.1138  0.1266  0.4323
   62TCq2    C3  945   0.921   1.103  15.389 -1.1098  0.2173 -0.0483
   62TCq2    C4  946   0.869   1.137  15.511 -0.3426 -0.2011  0.5707
   62TCq2    C5  947   0.883   1.257  15.559 -0.0273 -0.3654  0.4269
   62TCq2    C6  948   0.943   1.354  15.487  0.3446  0.3000 -0.7684
   62TCq2    C7  949   1.004   1.325  15.370  0.0628  0.4860  0.4319
   62TCq2    C8  950   0.866   1.471  15.476  0.2903  0.6402  0.2150
   62TCq2    O4  951   0.877   1.538  15.371  0.1452  0.0558 -0.4290
   62TCq2    C9  952   0.799   1.033  15.579  0.2903 -0.1066 -0.3750
   62TCq2    O5  953   0.686   1.068  15.626  0.7094  0.4848  0.0351
   62TCq2    O6  954   0.852   0.921  15.562  0.4423  0.1059 -0.3276
   62TCq2    H2  955   0.885   1.009  15.348 -1.3412  0.6625 -0.8632
   62TCq2    H3  956   0.856   1.256  15.664 -1.6050 -1.3474  0.0198
   62TCq2    H4  957   1.052   1.408  15.321 -0.3042 -1.0858 -2.5754
   63TMC2    C1  958   0.434   1.600  11.015  0.3368 -0.8016 -0.3214
   63TMC2    C2  959   0.550   1.631  11.089 -0.0470 -0.3788 -0.3412
   63TMC2    C3  960   0.620   1.739  11.044 -0.4094 -0.5621 -0.5111
   63TMC2    C4  961   0.404   1.664  10.891 -0.0689 -0.2279  0.1182
   63TMC2    C5  962   0.481   1.776  10.855 -0.0741 -0.2208 -0.2354
   63TMC2    C6  963   0.586   1.819  10.937 -0.1604 -0.3648  0.2174
   63TMC2     C  964   0.351   1.495  11.069 -0.9278  0.3909  0.2126
   63TMC2     O  965   0.326   1.492  11.187  0.0121  0.1940 -0.3597
   63TMC2     H  966   0.576   1.589  11.185  1.0982  1.2705  0.0655
   63TMC2    H1  967   0.324   1.628  10.828  1.3743 -0.7981 -1.3849
   63TMC2    H2  968   0.644   1.909  10.922 -1.5578  0.4090 -0.5571
   63TMC2    C7  969   0.452   1.829  10.723 -0.4392 -0.1763 -0.0651
   63TMC2    C8  970   0.732   1.781  11.128  0.3062  0.1832 -0.1591
   63TMC2    O1  971   0.422   1.748  10.636  0.8311 -0.0828 -0.2296
   63TMC2    O2  972   0.740   1.772  11.250 -0.5055 -0.2398  0.2693
   63TMC2    O5  973   0.836   1.803  11.042 -0.2428 -0.1892 -0.0574
   63TMC2    H5  974   0.832   1.768  10.951  0.5623  1.6861 -0.8188
   64MPD2     C  975   0.136   1.020  11.009  0.5296  0.2926  0.3072
   64MPD2    C1  976   0.193   1.065  10.891 -0.1090  0.0560 -0.9841
   64MPD2    C2  977   0.240   1.195  10.877 -0.1837 -0.5917  0.2520
   64MPD2    C3  978   0.248   1.280  10.983 -0.1074 -0.2717  0.2525
   64MPD2    C4  979   0.198   1.234  11.104 -0.5251 -0.2979 -0.1015
   64MPD2    C5  980   0.132   1.108  11.117  0.3625 -0.6279  0.1242
   64MPD2     H  981   0.277   1.216  10.777 -2.0096  1.1489 -0.0597
   64MPD2    H1  982   0.199   1.300  11.190 -1.1220  0.4777 -0.6942
   64MPD2    H2  983   0.093   0.921  11.020 -0.3179  0.5138 -1.0382
   64MPD2    H3  984   0.103   1.066  11.212 -0.2169 -0.3240  0.0797
   64MPD2     N  985   0.323   1.397  10.971  0.0677  1.0584  0.5012
   64MPD2    H5  986   0.354   1.426  10.879  1.1152 -1.6359  0.0082
   64MPD2    N1  987   0.208   0.982  10.780  0.4914 -0.2130  0.6536
   64MPD2    H7  988   0.268   1.019  10.708  0.8514 -0.2839  0.9187
   65MPD2     C  989   1.408   0.766  15.948  0.5271 -0.2858 -0.0822
   65MPD2    C1  990   1.388   0.729  15.815 -0.1564 -0.1807  0.2406
   65MPD2    C2  991   1.378   0.604  15.776  0.1969  0.0267 -0.1180
   65MPD2    C3  992   1.381   0.506  15.875 -0.3122 -0.1469 -0.2423
   65MPD2    C4  993   1.412   0.541  16.006  0.3990 -0.3366 -0.0492
   65MPD2    C5  994   1.424   0.674  16.039 -0.2042 -0.4226  0.0612
   65MPD2     H  995   1.361   0.573  15.674 -1.1241  0.3066  0.0154
   65MPD2    H1  996   1.431   0.465  16.082 -1.0811 -0.0537  0.5972
   65MPD2    H2  997   1.410   0.868  15.986 -0.8683  0.3714 -1.7934
   65MPD2    H3  998   1.440   0.700  16.143  0.5699 -1.1764  0.1310
   65MPD2     N  999   1.371   0.368  15.833  0.3095  0.4451 -0.4577
   65MPD2    H5 1000   1.368   0.299  15.908  0.1546  2.1889  1.1312
   65MPD2    N1 1001   1.374   0.826  15.714  0.6497  0.1022  0.4383
   65MPD2    H7 1002   1.358   0.790  15.620 -3.9216  1.5381  0.6610
   66TCq2    C1 1003   1.394   0.962  15.726 -0.7341  0.3528 -0.3059
   66TCq2    O2 1004   1.397   1.044  15.819  0.2260  0.0621  0.0166
   66TCq2    C2 1005   1.410   1.023  15.598  0.0180  0.3517 -0.2001
   66TCq2    C3 1006   1.522   0.998  15.526  0.8310  0.9842  0.6946
   66TCq2    C4 1007   1.573   1.092  15.436  0.3025  0.0453  0.0942
   66TCq2    C5 1008   1.514   1.214  15.425 -0.0286  0.1464 -0.4992
   66TCq2    C6 1009   1.402   1.240  15.504 -0.1912 -0.6041 -0.2715
   66TCq2    C7 1010   1.355   1.145  15.592  0.0489 -0.4146 -0.6224
   66TCq2    C8 1011   1.338   1.367  15.504 -0.8401  0.0569  1.0848
   66TCq2    O4 1012   1.372   1.437  15.412  0.3429 -0.3549  0.1966
   66TCq2    C9 1013   1.691   1.066  15.364  0.3242  0.7317  0.3230
   66TCq2    O5 1014   1.724   1.137  15.268 -0.3793 -0.3324 -1.0460
   66TCq2    O6 1015   1.758   0.973  15.420  0.2170 -0.1273 -0.0877
   66TCq2    H2 1016   1.568   0.900  15.526 -0.2238  0.4821  0.1886
   66TCq2    H3 1017   1.557   1.292  15.363  0.1140  1.5425  1.3718
   66TCq2    H4 1018   1.254   1.153  15.630  1.2698 -1.9796  2.8756
   67MPD2     C 1019   0.875   0.437  14.330 -0.1089  0.3107  0.2026
   67MPD2    C1 1020   0.932   0.560  14.371 -0.3299  0.2676 -0.1998
   67MPD2    C2 1021   0.894   0.670  14.293 -0.4939 -0.0611 -0.2581
   67MPD2    C3 1022   0.816   0.655  14.182  0.4657 -0.0881  0.0560
   67MPD2    C4 1023   0.769   0.533  14.146  0.7124 -0.1446 -0.2426
   67MPD2    C5 1024   0.788   0.425  14.225 -0.0706 -0.4533  0.1734
   67MPD2     H 1025   0.936   0.768  14.311  2.0749 -1.0792 -0.7836
   67MPD2    H1 1026   0.692   0.522  14.071  0.9363 -1.6576 -0.2604
   67MPD2    H2 1027   0.891   0.341  14.379  0.8248 -0.5496 -1.8228
   67MPD2    H3 1028   0.745   0.330  14.197  0.6460 -0.4544 -0.9565
   67MPD2     N 1029   0.768   0.759  14.107  0.0234  0.0231 -0.4181
   67MPD2    H5 1030   0.734   0.724  14.018  1.5660  0.6802 -1.2687
   67MPD2    N1 1031   1.004   0.576  14.492 -0.0019 -0.0882  0.3683
   67MPD2    H7 1032   1.035   0.664  14.531 -0.7580  0.3554 -0.0455
   68TCq2    C1 1033   1.079   0.471  14.550  0.1813  1.0827  0.2587
   68TCq2    O2 1034   1.082   0.354  14.517  0.0472  0.0179 -0.0294
   68TCq2    C2 1035   1.144   0.504  14.676  0.0839 -0.5100 -0.0064
   68TCq2    C3 1036   1.099   0.604  14.754  0.6354  0.3131  0.0092
   68TCq2    C4 1037   1.157   0.616  14.880 -0.0772 -0.0314  0.1583
   68TCq2    C5 1038   1.268   0.544  14.916  0.2250  0.1117 -0.0913
   68TCq2    C6 1039   1.320   0.455  14.828 -0.4071  0.0214 -0.4245
   68TCq2    C7 1040   1.246   0.424  14.717  0.1499  0.2898  0.1104
   68TCq2    C8 1041   1.423   0.367  14.864  0.1337  0.3300  0.4585
   68TCq2    O4 1042   1.451   0.274  14.788 -0.2180  0.0339 -0.0323
   68TCq2    C9 1043   1.112   0.711  14.978  0.2351 -0.6401  0.5990
   68TCq2    O5 1044   0.994   0.760  14.968 -0.3218 -0.4409 -0.2510
   68TCq2    O6 1045   1.197   0.740  15.068 -0.0085 -0.2558 -0.4443
   68TCq2    H2 1046   1.012   0.663  14.728  0.5938  0.3280  0.1828
   68TCq2    H3 1047   1.312   0.560  15.014 -2.5411 -3.0836  1.6691
   68TCq2    H4 1048   1.290   0.353  14.648  0.9817  1.6316 -0.7600
   69TMC2    C1 1049   2.977   1.845  12.523  0.1368  0.1216  0.5263
   69TMC2    C2 1050   2.849   1.888  12.495 -0.0708 -0.1397 -0.4040
   69TMC2    C3 1051   2.826   1.923  12.362 -0.0575 -0.8654 -0.0152
   69TMC2    C4 1052   3.072   1.836  12.428  0.9040  0.1334  0.6461
   69TMC2    C5 1053   3.037   1.858  12.297  0.5265 -0.7387 -0.3102
   69TMC2    C6 1054   2.912   1.894  12.265  0.1313  0.4911 -0.1625
   69TMC2     C 1055   3.010   1.807  12.663  0.4781  0.3524 -0.4556
   69TMC2     O 1056   2.920   1.778  12.743 -0.1871 -0.2399  0.0193
   69TMC2     H 1057   2.781   1.908  12.576  0.5719  2.2909 -0.4479
   69TMC2    H1 1058   3.177   1.814  12.445  0.5447 -0.8616  1.5684
   69TMC2    H2 1059   2.882   1.903  12.161  1.0859  1.7447 -0.3194
   69TMC2    C7 1060   3.144   1.843  12.201  0.3517  0.0419  0.1827
   69TMC2    C8 1061   2.688   1.957  12.327  0.1093  0.6519 -0.6126
   69TMC2    O1 1062   3.249   1.796  12.245 -0.0345 -0.5460 -0.1611
   69TMC2    O2 1063   2.590   1.905  12.382 -0.2675  0.1412 -0.4554
   69TMC2    O5 1064   2.693   2.078  12.266  0.5248  0.3985  0.0860
   69TMC2    H5 1065   2.784   2.111  12.247  2.5820 -3.3025  3.6081
   70MPD2     C 1066   3.345   1.831  12.812  1.1360 -0.0705 -0.0808
   70MPD2    C1 1067   3.209   1.807  12.807  1.0901 -0.6406 -0.4339
   70MPD2    C2 1068   3.159   1.749  12.923  0.7427 -0.5215 -0.1332
   70MPD2    C3 1069   3.245   1.720  13.032  0.2075  0.8173 -0.5163
   70MPD2    C4 1070   3.385   1.742  13.030  0.2364  0.1599 -0.2077
   70MPD2    C5 1071   3.429   1.804  12.918  0.3313  0.0898 -0.1555
   70MPD2     H 1072   3.051   1.738  12.931  1.0042 -2.7581  0.3994
   70MPD2    H1 1073   3.458   1.724  13.107  0.9744 -0.2046 -0.9956
   70MPD2    H2 1074   3.392   1.875  12.725 -0.2971 -0.1039 -0.8752
   70MPD2    H3 1075   3.530   1.842  12.925 -0.1564  1.5093 -0.6861
   70MPD2     N 1076   3.202   1.650  13.144 -0.7224  0.2294  0.2140
   70MPD2    H5 1077   3.272   1.615  13.209  2.8076  2.3019 -2.5387
   70MPD2    N1 1078   3.138   1.837  12.688 -0.1040 -0.3744 -0.6888
   70MPD2    H7 1079   3.192   1.876  12.612 -0.0462  2.2117  0.7090
   71TMC2    C1 1080   1.950   1.811   1.859 -0.5020 -0.4210 -0.6861
   71TMC2    C2 1081   1.955   1.861   1.985 -0.1465  0.2686 -0.3137
   71TMC2    C3 1082   1.902   1.782   2.089 -0.0345 -0.0766  0.1809
   71TMC2    C4 1083   1.880   1.697   1.829 -0.4070  0.1405  0.0773
   71TMC2    C5 1084   1.806   1.639   1.933  0.3040  0.7462 -0.2276
   71TMC2    C6 1085   1.824   1.675   2.063 -0.6320 -0.9094 -0.1390
   71TMC2     C 1086   1.992   1.877   1.742 -0.4759  0.5525 -0.8076
   71TMC2     O 1087   1.972   1.819   1.636  0.3018  0.1867  0.5919
   71TMC2     H 1088   2.000   1.958   2.003 -1.5011  0.5263  1.6377
   71TMC2    H1 1089   1.875   1.657   1.728  0.4078  0.9039 -0.2680
   71TMC2    H2 1090   1.784   1.613   2.143 -0.4050 -1.0535 -0.1378
   71TMC2    C7 1091   1.753   1.514   1.902 -0.1473  0.4351 -0.5035
   71TMC2    C8 1092   1.903   1.845   2.214 -0.6627  0.7479  0.0465
   71TMC2    O1 1093   1.762   1.423   1.978 -0.1900 -0.6824  0.5043
   71TMC2    O2 1094   1.817   1.822   2.301  0.3637 -0.5170 -0.9356
   71TMC2    O5 1095   2.003   1.937   2.220  0.4589  0.4954 -0.1868
   71TMC2    H5 1096   2.077   1.917   2.158 -3.3877 -5.7836 -2.7235
   72MPD2     C 1097   2.179   2.277   1.471  0.3284 -0.3438  0.2875
   72MPD2    C1 1098   2.089   2.180   1.436 -0.3487 -0.4929  0.1974
   72MPD2    C2 1099   2.053   2.079   1.522 -0.1641  0.1710  0.0791
   72MPD2    C3 1100   2.107   2.079   1.654  0.0927  0.8245 -0.0558
   72MPD2    C4 1101   2.201   2.173   1.683  0.2267 -0.6082 -0.2400
   72MPD2    C5 1102   2.241   2.268   1.591  0.2146  0.5375 -0.7009
   72MPD2     H 1103   1.980   2.002   1.498 -1.6893  1.4552  0.6074
   72MPD2    H1 1104   2.253   2.171   1.778 -0.1391 -4.3701 -0.1208
   72MPD2    H2 1105   2.209   2.356   1.403 -0.8339  0.5869  0.8542
   72MPD2    H3 1106   2.321   2.334   1.624  0.6289 -0.2098 -0.2051
   72MPD2     N 1107   2.068   1.991   1.759  0.1091 -0.5891  0.2250
   72MPD2    H5 1108   2.110   2.015   1.849  1.6859 -2.3033 -0.0750
   72MPD2    N1 1109   2.025   2.174   1.307  0.4868  0.5333  0.1288
   72MPD2    H7 1110   1.996   2.081   1.277  0.1968  0.5544  0.3345
   73TMC2    C1 1111   0.608   4.288  14.277 -0.0384  0.5618  0.4467
   73TMC2    C2 1112   0.537   4.318  14.391 -0.0577 -0.3126  0.1450
   73TMC2    C3 1113   0.486   4.215  14.461 -0.8835 -0.0998  0.0059
   73TMC2    C4 1114   0.624   4.160  14.230  0.5842  0.1902 -0.1629
   73TMC2    C5 1115   0.576   4.061  14.309 -0.4517 -0.3692 -0.7985
   73TMC2    C6 1116   0.513   4.085  14.427 -0.1597 -0.4656  0.1138
   73TMC2     C 1117   0.728   4.369  14.241  0.0194 -0.0309  0.1838
   73TMC2     O 1118   0.829   4.308  14.217  0.2601  0.4561 -0.0064
   73TMC2     H 1119   0.507   4.419  14.417  1.1768  0.3884 -1.1547
   73TMC2    H1 1120   0.687   4.135  14.146 -0.9415 -0.0964 -1.2093
   73TMC2    H2 1121   0.521   4.008  14.502  0.5158 -0.8227 -0.3230
   73TMC2    C7 1122   0.684   3.966  14.335  0.4401  0.0570  0.0062
   73TMC2    C8 1123   0.423   4.240  14.594  0.1230  0.3796 -0.4122
   73TMC2    O1 1124   0.647   3.856  14.385 -0.0038 -0.4122 -0.2427
   73TMC2    O2 1125   0.441   4.338  14.667 -0.2874  0.7721 -0.4472
   73TMC2    O5 1126   0.323   4.146  14.606 -0.6955  0.0679  0.1738
   73TMC2    H5 1127   0.310   4.096  14.522 -0.8927 -1.5640  1.1721
   74MPD2     C 1128   1.061   0.034  14.211 -0.2826 -0.2097  0.2720
   74MPD2    C1 1129   1.081   4.629  14.253 -0.4163 -1.0636 -0.1576
   74MPD2    C2 1130   0.971   4.546  14.270 -1.0898 -0.4841 -0.9052
   74MPD2    C3 1131   0.843   4.591  14.253  0.5080 -0.5037  0.3682
   74MPD2    C4 1132   0.826   0.003  14.234 -0.1222 -0.5562 -0.3274
   74MPD2    C5 1133   0.934   0.084  14.213  0.0458 -0.8708  0.6478
   74MPD2     H 1134   0.985   4.446  14.310 -1.0976  0.1152  0.5852
   74MPD2    H1 1135   0.730   0.053  14.230 -0.4802 -1.1743  0.4198
   74MPD2    H2 1136   1.141   0.106  14.197 -1.8230  1.0411 -2.1317
   74MPD2    H3 1137   0.919   0.187  14.181 -2.3489 -1.4916 -0.2287
   74MPD2     N 1138   0.730   4.512  14.263  0.1137 -0.3431 -0.1382
   74MPD2    H5 1139   0.636   4.550  14.265  0.8240  1.3401  1.5233
   74MPD2    N1 1140   1.214   4.589  14.264  0.0339 -0.1105  0.4579
   74MPD2    H7 1141   1.289   4.652  14.239  0.4485 -0.3639  1.0598
   75TCq2    C1 1142   0.758   0.891  14.134  0.2717  0.0930 -1.1000
   75TCq2    O2 1143   0.794   0.942  14.243 -0.2327  0.2207 -0.1368
   75TCq2    C2 1144   0.710   0.985  14.027 -0.2410 -1.0278 -0.3584
   75TCq2    C3 1145   0.671   1.111  14.067  0.2502  0.4501 -0.8975
   75TCq2    C4 1146   0.596   1.181  13.986  0.3142  0.6578  0.3834
   75TCq2    C5 1147   0.565   1.134  13.861  0.3530 -0.0178  0.1523
   75TCq2    C6 1148   0.607   1.014  13.831 -0.0910  0.0612  0.2282
   75TCq2    C7 1149   0.680   0.934  13.909 -0.0017 -0.0912 -0.0838
   75TCq2    C8 1150   0.607   0.970  13.692 -0.0257  1.1852  0.0003
   75TCq2    O4 1151   0.585   0.850  13.676 -0.3639  0.3132 -0.2518
   75TCq2    C9 1152   0.522   1.299  14.042 -0.1565  0.6751  0.2723
   75TCq2    O5 1153   0.543   1.327  14.162 -0.2172 -0.7227 -0.4716
   75TCq2    O6 1154   0.432   1.355  13.977 -0.0520 -0.4767 -0.0930
   75TCq2    H2 1155   0.685   1.144  14.170  1.0547 -2.3872 -0.1021
   75TCq2    H3 1156   0.485   1.185  13.808 -2.1668  0.8305  4.8376
   75TCq2    H4 1157   0.713   0.839  13.869 -0.6606 -0.8046  1.0668
   76MPD2     C 1158   4.225   1.433  12.265 -0.5846 -0.1946 -0.5956
   76MPD2    C1 1159   4.232   1.424  12.126 -0.3579 -0.2258 -0.6374
   76MPD2    C2 1160   4.330   1.359  12.063 -0.5870  0.3999 -0.5591
   76MPD2    C3 1161   4.423   1.292  12.131  0.4332  0.3767 -1.0222
   76MPD2    C4 1162   4.430   1.309  12.264  0.4409 -0.5266 -0.3131
   76MPD2    C5 1163   4.335   1.379  12.328  0.3037 -0.8007 -0.0112
   76MPD2     H 1164   4.324   1.349  11.955  0.6813  1.6671 -0.7397
   76MPD2    H1 1165   4.501   1.258  12.328  3.2270 -0.8930 -3.7081
   76MPD2    H2 1166   4.147   1.489  12.317  0.4323 -0.0583  0.7975
   76MPD2    H3 1167   4.333   1.384  12.436  2.2227  0.9871 -0.0351
   76MPD2     N 1168   4.525   1.210  12.075  0.9157 -0.2623  0.3314
   76MPD2    H5 1169   4.591   1.175  12.143  1.0036 -1.6429 -0.4734
   76MPD2    N1 1170   4.120   1.457  12.046  0.2491 -0.0100 -0.0200
   76MPD2    H7 1171   4.140   1.444  11.948  1.1254 -0.4414  0.2168
   77TCq2    C1 1172   4.549   1.185  11.941 -0.1449 -0.2181  0.6405
   77TCq2    O2 1173   4.487   1.217  11.839 -0.0355 -0.0475  0.5665
   77TCq2    C2 1174   4.647   1.083  11.923 -0.0082  0.6857 -0.1649
   77TCq2    C3 1175   4.649   1.024  11.804 -0.5274 -0.6029  0.2172
   77TCq2    C4 1176   0.030   0.952  11.761 -0.3660 -1.1366 -0.0676
   77TCq2    C5 1177   0.151   0.965  11.824 -0.2194 -0.3398  0.0157
   77TCq2    C6 1178   0.152   1.030  11.945 -0.4947 -0.5145  0.3790
   77TCq2    C7 1179   0.037   1.080  12.005  0.3202  0.6330 -0.2311
   77TCq2    C8 1180   0.281   1.019  12.019  0.5361 -0.3284 -0.4871
   77TCq2    O4 1181   0.363   0.947  11.965  0.1214  0.3156  0.0923
   77TCq2    C9 1182   0.020   0.871  11.647  0.5836  0.5962 -0.2970
   77TCq2    O5 1183   0.122   0.817  11.597  0.2214 -0.1040 -0.0473
   77TCq2    O6 1184   4.635   0.856  11.591  0.5092 -0.0109 -0.1302
   77TCq2    H2 1185   4.566   1.028  11.734 -2.0805  3.4709  2.3071
   77TCq2    H3 1186   0.228   0.908  11.773  0.6650  0.2827  0.6637
   77TCq2    H4 1187   0.028   1.121  12.105 -1.1141 -1.7186  0.5974
   78MPD1     C 1188   1.121   0.877   0.249  0.2993  0.1085 -0.5295
   78MPD1    C1 1189   0.990   0.887   0.291 -0.2099  0.1096 -0.4413
   78MPD1    C2 1190   0.982   0.919   0.429  0.0531  0.6468  0.7795
   78MPD1    C3 1191   1.089   0.948   0.509  0.3376 -0.6067  0.2204
   78MPD1    C4 1192   1.218   0.959   0.455  0.4105  0.2290 -0.5816
   78MPD1    C5 1193   1.226   0.915   0.323 -0.1865  0.1043  0.4277
   78MPD1     H 1194   0.885   0.925   0.477 -0.3827 -1.8425  0.1723
   78MPD1    H1 1195   1.307   0.986   0.511  0.9109  0.0053 -1.2660
   78MPD1    H2 1196   1.139   0.852   0.145  2.2462 -0.9726  0.0842
   78MPD1    H3 1197   1.324   0.916   0.276  0.6718 -0.8328  2.1995
   78MPD1     N 1198   1.078   0.957   0.651 -0.4138  0.4590  0.2557
   78MPD1    H5 1199   1.153   1.001   0.704  1.0991 -1.3277 -0.4473
   78MPD1    N1 1200   0.884   0.850   0.211  0.0744 -0.2059  0.2438
   78MPD1    H6 1201   0.798   0.902   0.226 -0.7168 -0.8582 -1.9889
   78MPD1    H7 1202   0.910   0.859   0.113 -0.8447 -0.5054 -0.0272
   79TCq2    C1 1203   0.970   0.914   0.719 -0.2363  0.0453  0.2952
   79TCq2    O2 1204   0.889   0.830   0.679  0.4732 -0.2225  0.2938
   79TCq2    C2 1205   0.962   0.957   0.856 -0.1828 -0.2738  0.5323
   79TCq2    C3 1206   0.856   0.913   0.925 -0.0503  0.9768  0.7787
   79TCq2    C4 1207   0.833   0.974   1.047 -0.0590 -0.6554 -0.9294
   79TCq2    C5 1208   0.917   1.069   1.103  0.0940  0.3314  0.2799
   79TCq2    C6 1209   1.008   1.127   1.021 -0.5685  0.1169  0.1801
   79TCq2    C7 1210   1.034   1.066   0.900 -1.0520  0.4455 -0.2496
   79TCq2    C8 1211   1.117   1.200   1.076  0.4917 -0.1392 -0.5698
   79TCq2    O4 1212   1.145   1.169   1.190  0.4478 -0.1530  0.5240
   79TCq2    C9 1213   0.714   0.948   1.122  0.1227  0.0648  0.5292
   79TCq2    O5 1214   0.685   0.827   1.155 -0.4085 -0.2434 -0.2490
   79TCq2    O6 1215   0.664   1.052   1.172  0.1610  0.1097 -0.2505
   79TCq2    H2 1216   0.786   0.842   0.882  2.1238 -1.1879  0.7900
   79TCq2    H3 1217   0.894   1.116   1.198  2.6342  2.3202 -0.0900
   79TCq2    H4 1218   1.111   1.111   0.838 -0.9283 -0.7299 -0.9427
   80MPD2     C 1219   3.928   0.764  12.580  0.4049  0.0620  0.3196
   80MPD2    C1 1220   3.824   0.818  12.510 -0.2914 -0.7068  0.0501
   80MPD2    C2 1221   3.712   0.862  12.574 -0.0478 -0.1764  0.3452
   80MPD2    C3 1222   3.691   0.848  12.708  0.1467 -0.5504 -0.6180
   80MPD2    C4 1223   3.797   0.796  12.780 -0.2058  0.1498 -0.0477
   80MPD2    C5 1224   3.909   0.755  12.715 -0.6056  0.1362  0.1048
   80MPD2     H 1225   3.628   0.897  12.514 -2.1511 -2.0359  2.2471
   80MPD2    H1 1226   3.782   0.799  12.888  3.4278 -1.9893  0.5185
   80MPD2    H2 1227   4.025   0.740  12.538  0.7725  1.8077  0.1536
   80MPD2    H3 1228   3.997   0.725  12.771 -1.0111 -0.9865  0.1424
   80MPD2     N 1229   3.578   0.893  12.785 -0.4507 -0.2560  0.4734
   80MPD2    H5 1230   3.587   0.877  12.885  2.0775  0.0617  0.2838
   80MPD2    N1 1231   3.824   0.813  12.370 -0.0509 -0.3808  0.1071
   80MPD2    H7 1232   3.735   0.837  12.327  0.0894  2.3555  1.3588
   81TCq2    C1 1233   3.925   0.783  12.288 -0.4765 -0.0549 -0.2628
   81TCq2    O2 1234   4.045   0.763  12.312  0.2518  0.4490  0.7317
   81TCq2    C2 1235   3.878   0.793  12.146 -0.1937 -0.2297 -0.2878
   81TCq2    C3 1236   3.969   0.777  12.040  0.1948  0.4987  0.6702
   81TCq2    C4 1237   3.927   0.779  11.907 -0.2460  0.6111  0.4268
   81TCq2    C5 1238   3.798   0.794  11.883  0.1711  0.2151  0.0387
   81TCq2    C6 1239   3.713   0.791  11.988  0.0303  0.0809 -0.1078
   81TCq2    C7 1240   3.747   0.788  12.117  0.0880  0.8534  0.7617
   81TCq2    C8 1241   3.567   0.796  11.953  0.5340 -0.7170 -0.3989
   81TCq2    O4 1242   3.532   0.815  11.841 -0.1969 -0.4664 -0.3899
   81TCq2    C9 1243   4.026   0.797  11.801 -0.5376 -0.4818  0.9727
   81TCq2    O5 1244   3.996   0.779  11.682 -0.2524 -0.3620 -0.5503
   81TCq2    O6 1245   4.142   0.826  11.836 -0.6191 -0.0690  0.0946
   81TCq2    H2 1246   4.075   0.764  12.060  0.4865 -0.8858 -1.8381
   81TCq2    H3 1247   3.751   0.797  11.785 -2.2199  0.8256  1.2132
   81TCq2    H4 1248   3.675   0.803  12.197 -1.3540 -1.0806 -0.1700
   82MPD2     C 1249   1.235   0.316  11.144 -0.4368 -0.6892 -1.0554
   82MPD2    C1 1250   1.262   0.195  11.084  0.5931  0.5549 -0.1683
   82MPD2    C2 1251   1.327   0.091  11.153  0.1568 -0.5683 -0.0766
   82MPD2    C3 1252   1.376   0.117  11.280  0.4666  0.5919  0.3319
   82MPD2    C4 1253   1.340   0.236  11.332 -0.8466  0.1851 -0.0328
   82MPD2    C5 1254   1.263   0.332  11.278  0.1117  0.5406  0.1023
   82MPD2     H 1255   1.366   0.002  11.105 -0.9121 -1.5463  0.8927
   82MPD2    H1 1256   1.358   0.260  11.437 -0.7653 -0.1734  0.0362
   82MPD2    H2 1257   1.202   0.410  11.100  1.2100 -0.1755 -1.1777
   82MPD2    H3 1258   1.246   0.424  11.333  0.0019  0.9389 -0.5884
   82MPD2     N 1259   1.455   0.027  11.348 -0.2533  0.0666  0.2276
   82MPD2    H5 1260   1.460   4.656  11.318 -0.8612  0.6214 -1.6239
   82MPD2    N1 1261   1.256   0.200  10.946 -0.5727  0.0848 -0.1900
   82MPD2    H7 1262   1.227   0.286  10.902 -1.6067 -0.8847 -1.3732
   83TCq2    C1 1263   1.532   0.061  11.453  0.0896 -0.2014  0.1508
   83TCq2    O2 1264   1.553   0.171  11.510 -0.3362 -0.4881  0.0832
   83TCq2    C2 1265   1.603   4.679  11.508  0.2422 -0.6711  0.6136
   83TCq2    C3 1266   1.726   4.699  11.569  0.1513 -0.0498  0.2957
   83TCq2    C4 1267   1.780   4.603  11.643  0.4250 -0.6732  0.6850
   83TCq2    C5 1268   1.718   4.482  11.657 -0.2504 -0.5543 -0.4143
   83TCq2    C6 1269   1.592   4.470  11.601  0.7444  0.2017 -0.6195
   83TCq2    C7 1270   1.526   4.567  11.525  0.3084 -0.3865 -0.0043
   83TCq2    C8 1271   1.511   4.367  11.661 -0.1345  0.4003  0.5453
   83TCq2    O4 1272   1.534   4.351  11.776  0.3762  0.1959  0.3493
   83TCq2    C9 1273   1.911   4.617  11.699  0.4134  0.0211 -0.4215
   83TCq2    O5 1274   1.944   4.543  11.795 -0.1183 -0.1445  0.1351
   83TCq2    O6 1275   1.991   4.710  11.661  1.1648 -0.2059 -0.1059
   83TCq2    H2 1276   1.778   0.066  11.545 -0.2711 -0.2712 -1.4879
   83TCq2    H3 1277   1.756   4.408  11.727  1.7175  2.1356  1.3269
   83TCq2    H4 1278   1.422   4.557  11.495 -0.4263  1.3238  1.9571
   84TCq2    C1 1279   2.866   3.913  10.650  0.1819 -0.1833  0.1688
   84TCq2    O2 1280   2.772   3.860  10.716  0.0686 -0.0269  0.2099
   84TCq2    C2 1281   2.940   4.020  10.715  0.2372 -0.0307  0.1624
   84TCq2    C3 1282   3.003   4.108  10.628  0.4089  0.3946  0.7978
   84TCq2    C4 1283   3.011   4.241  10.676 -0.7548  0.3113  0.0905
   84TCq2    C5 1284   2.965   4.282  10.800 -0.2449  0.1037  0.1852
   84TCq2    C6 1285   2.911   4.188  10.882 -0.0931  0.4553 -0.7004
   84TCq2    C7 1286   2.887   4.059  10.839 -0.5831  0.2538 -0.6016
   84TCq2    C8 1287   2.847   4.233  11.012 -0.4075  0.3614  0.9144
   84TCq2    O4 1288   2.848   4.346  11.051  0.1747 -0.2845 -0.1968
   84TCq2    C9 1289   3.070   4.330  10.578 -0.1067  0.3204  0.3534
   84TCq2    O5 1290   3.099   4.278  10.468 -0.2771 -0.0619  0.2694
   84TCq2    O6 1291   3.121   4.433  10.619 -0.3377 -1.1331 -0.3258
   84TCq2    H2 1292   3.021   4.093  10.522  0.8313 -0.2318  0.9571
   84TCq2    H3 1293   2.973   4.384  10.835  0.2287 -0.0486  0.5299
   84TCq2    H4 1294   2.820   3.996  10.896 -0.8695  0.8845 -0.2359
   85MPD2     C 1295   3.538   1.577  16.617 -0.1862 -0.3613  0.4649
   85MPD2    C1 1296   3.438   1.629  16.533 -0.5072  0.3394 -0.5272
   85MPD2    C2 1297   3.457   1.749  16.472  0.2251  0.0173 -0.9405
   85MPD2    C3 1298   3.572   1.825  16.490  0.2257 -0.3337 -0.5551
   85MPD2    C4 1299   3.664   1.782  16.583 -0.0062  0.0985 -0.9011
   85MPD2    C5 1300   3.643   1.662  16.654 -0.5134  0.2199 -0.1174
   85MPD2     H 1301   3.388   1.780  16.395  0.2486 -2.1759 -1.8430
   85MPD2    H1 1302   3.755   1.839  16.599  0.1448 -0.5614  0.5924
   85MPD2    H2 1303   3.540   1.483  16.672 -0.2126 -0.8667 -0.4064
   85MPD2    H3 1304   3.719   1.636  16.728  0.2761 -0.9753 -1.3566
   85MPD2     N 1305   3.587   1.940  16.422  0.1523  0.1696 -0.4193
   85MPD2    H5 1306   3.510   1.965  16.361  0.0292 -0.3103 -0.4631
   85MPD2    N1 1307   3.322   1.559  16.503  0.4167 -0.3948  0.2351
   85MPD2    H7 1308   3.265   1.596  16.427 -1.0786 -0.3329  1.3705
   86TCq2    C1 1309   3.711   1.987  16.377  0.2413 -0.0187  0.2123
   86TCq2    O2 1310   3.819   1.935  16.387 -0.2318  0.1504  0.0058
   86TCq2    C2 1311   3.705   2.105  16.290 -0.6598  0.0584  0.5985
   86TCq2    C3 1312   3.622   2.205  16.319 -0.6034  0.2951 -0.2190
   86TCq2    C4 1313   3.623   2.315  16.227 -0.3284 -0.0235 -0.0520
   86TCq2    C5 1314   3.702   2.315  16.122  0.5455 -0.5896 -0.6579
   86TCq2    C6 1315   3.793   2.215  16.113 -0.5579 -0.1343  0.3067
   86TCq2    C7 1316   3.797   2.106  16.193  0.1355 -0.2291  0.2880
   86TCq2    C8 1317   3.870   2.211  15.989  0.2786 -0.2898 -0.2956
   86TCq2    O4 1318   3.966   2.135  15.990 -0.8855  0.4283  0.2678
   86TCq2    C9 1319   3.528   2.421  16.237  0.0901 -0.1633  0.2084
   86TCq2    O5 1320   3.552   2.532  16.180  0.3060 -0.1713 -0.0875
   86TCq2    O6 1321   3.436   2.423  16.332 -0.4858  0.1086 -0.7417
   86TCq2    H2 1322   3.550   2.189  16.399  1.1318  1.0413  1.4756
   86TCq2    H3 1323   3.696   2.400  16.055  1.2851 -0.2745 -0.3182
   86TCq2    H4 1324   3.863   2.021  16.178 -0.2331 -0.4894  0.1529
   87MPD2     C 1325   1.089   0.289   0.257 -0.5246  0.0098  0.4539
   87MPD2    C1 1326   1.000   0.283   0.360 -0.5335  0.0279  0.2312
   87MPD2    C2 1327   0.873   0.340   0.347  0.3719  0.6329  0.1134
   87MPD2    C3 1328   0.848   0.419   0.239 -0.1719 -0.0975 -0.4304
   87MPD2    C4 1329   0.937   0.416   0.135 -0.2543  0.1884 -0.0574
   87MPD2    C5 1330   1.054   0.347   0.139 -0.1752 -0.2105  0.2903
   87MPD2     H 1331   0.802   0.343   0.428 -0.6138 -0.9217 -0.6785
   87MPD2    H1 1332   0.904   0.457   0.040 -0.3386  1.5777  0.5743
   87MPD2    H2 1333   1.187   0.242   0.261 -0.1674  0.6446 -0.8872
   87MPD2    H3 1334   1.120   0.348   0.054  0.7551  0.3242  1.0177
   87MPD2     N 1335   0.730   0.500   0.226  0.0998 -1.2000 -0.0286
   87MPD2    H5 1336   0.738   0.575   0.159 -3.5163 -0.3967  0.4229
   87MPD2    N1 1337   1.049   0.216   0.477 -0.1434  0.3546  0.6257
   87MPD2    H7 1338   1.144   0.180   0.481 -0.0014  0.6997  0.3211
   88TCq2    C1 1339   0.978   0.216   0.599  0.2096 -0.1963  0.1143
   88TCq2    O2 1340   0.869   0.266   0.625  0.1917  0.0482  0.5712
   88TCq2    C2 1341   1.060   0.179   0.719 -0.1738 -0.3921  0.4250
   88TCq2    C3 1342   0.990   0.143   0.828 -0.1380  0.2756  0.3642
   88TCq2    C4 1343   1.065   0.087   0.930  0.1464  0.5673 -0.1820
   88TCq2    C5 1344   1.205   0.070   0.926 -0.0653  0.0039  0.1154
   88TCq2    C6 1345   1.270   0.104   0.809  0.0970 -0.3566  1.0372
   88TCq2    C7 1346   1.190   0.151   0.705  0.5028 -0.1093 -0.5377
   88TCq2    C8 1347   1.408   0.074   0.777  0.2711 -0.1647  0.0997
   88TCq2    O4 1348   1.458   0.133   0.681 -0.2323  0.3560  0.2189
   88TCq2    C9 1349   0.980   0.039   1.037  0.1219 -0.2139  0.4549
   88TCq2    O5 1350   1.018   4.673   1.113  0.1997 -0.4363  0.2636
   88TCq2    O6 1351   0.882   0.111   1.049 -0.3846 -0.2099  0.2825
   88TCq2    H2 1352   0.883   0.157   0.828 -0.2404 -0.5825 -3.4437
   88TCq2    H3 1353   1.266   0.034   1.007 -0.7551  2.4112  1.7094
   88TCq2    H4 1354   1.252   0.185   0.623  0.7040  2.0370  0.5098
   89MPD2     C 1355   2.214   2.938   1.742  0.3564  0.0335 -0.1937
   89MPD2    C1 1356   2.125   2.974   1.844 -0.5839  0.5258 -0.2817
   89MPD2    C2 1357   2.126   3.102   1.893 -0.2503 -0.2406 -0.6144
   89MPD2    C3 1358   2.210   3.199   1.846  0.4428  0.3466 -0.0095
   89MPD2    C4 1359   2.296   3.164   1.736 -0.5098 -0.5741 -0.7885
   89MPD2    C5 1360   2.295   3.036   1.687  0.6961  0.3135 -0.0864
   89MPD2     H 1361   2.054   3.128   1.971 -0.3052 -1.5647 -0.2184
   89MPD2    H1 1362   2.357   3.238   1.686  2.5615 -2.2913  0.4409
   89MPD2    H2 1363   2.219   2.841   1.695 -0.4251  0.6537 -1.5805
   89MPD2    H3 1364   2.358   3.010   1.603  0.2988  0.5931 -0.4727
   89MPD2     N 1365   2.205   3.334   1.914 -0.3454 -0.7889 -0.4872
   89MPD2    H5 1366   2.138   3.341   1.989  0.7743  1.7190  0.2746
   89MPD2    N1 1367   2.025   2.880   1.893  0.2452 -0.3723  0.1023
   89MPD2    H7 1368   1.966   2.912   1.969  1.2826  0.1288  0.7132
   90TCq2    C1 1369   2.273   3.441   1.868  0.1047  0.7404 -0.0209
   90TCq2    O2 1370   2.350   3.452   1.774  0.3906  0.7364 -0.3456
   90TCq2    C2 1371   2.270   3.552   1.970  0.4252 -0.4285 -0.4308
   90TCq2    C3 1372   2.197   3.545   2.087 -0.1986  0.0847  0.5325
   90TCq2    C4 1373   2.190   3.644   2.175  0.3336  0.0149  0.1759
   90TCq2    C5 1374   2.247   3.765   2.147  0.0505 -0.1052 -0.3019
   90TCq2    C6 1375   2.309   3.773   2.025  0.3037 -0.2835  0.6073
   90TCq2    C7 1376   2.324   3.672   1.931  0.2318 -0.7095 -0.1924
   90TCq2    C8 1377   2.332   3.910   1.978 -0.0420  0.1979  0.3330
   90TCq2    O4 1378   2.301   4.003   2.048  0.2338 -0.2557 -0.0766
   90TCq2    C9 1379   2.123   3.623   2.303 -1.3875  0.0383 -0.1183
   90TCq2    O5 1380   2.103   3.502   2.331  0.0607 -0.3112 -0.4969
   90TCq2    O6 1381   2.110   3.723   2.376  0.0936  0.6264  0.2921
   90TCq2    H2 1382   2.167   3.447   2.123  0.7922 -0.6159 -0.5671
   90TCq2    H3 1383   2.242   3.846   2.219  0.7075  1.5741 -2.1276
   90TCq2    H4 1384   2.351   3.690   1.828  1.1545 -1.7438 -0.1386
   91TMC2    C1 1385   4.231   2.617  16.595 -0.4303 -0.0701 -0.2824
   91TMC2    C2 1386   4.249   2.642  16.465 -0.4445 -0.2984  0.1840
   91TMC2    C3 1387   4.147   2.710  16.393 -0.4295 -0.6027 -0.6909
   91TMC2    C4 1388   4.106   2.639  16.662 -0.1527 -0.0605  0.7785
   91TMC2    C5 1389   4.009   2.708  16.587  0.4769  0.0060 -0.7508
   91TMC2    C6 1390   4.027   2.738  16.450 -0.0145 -0.2265  0.1217
   91TMC2     C 1391   4.336   2.574  16.682  0.0042 -0.4822  0.3091
   91TMC2     O 1392   4.321   2.473  16.757 -0.6960  0.0431 -0.4005
   91TMC2     H 1393   4.345   2.622  16.420 -0.6800 -0.4379 -0.2584
   91TMC2    H1 1394   4.090   2.592  16.758  1.1173 -0.4589  0.8016
   91TMC2    H2 1395   3.961   2.809  16.401 -1.5469 -0.0780  2.4058
   91TMC2    C7 1396   3.889   2.747  16.659 -0.1409  0.1877  0.4936
   91TMC2    C8 1397   4.170   2.748  16.258  0.1101 -0.6279  0.0303
   91TMC2    O1 1398   3.901   2.786  16.777  0.1548 -0.4936 -0.4158
   91TMC2    O2 1399   4.278   2.778  16.204  0.6421  0.6409  0.1467
   91TMC2    O5 1400   4.053   2.726  16.202  0.4743 -0.1228 -0.1525
   91TMC2    H5 1401   3.996   2.669  16.259  1.1867 -0.7108 -0.0345
   92MPD2     C 1402   4.586   2.567  16.850  0.2695 -0.2588  0.5498
   92MPD2    C1 1403   4.558   2.663  16.754  0.1710 -0.5072 -0.0610
   92MPD2    C2 1404   4.655   2.760  16.741  0.5580 -0.1480  0.9750
   92MPD2    C3 1405   0.029   2.783  16.839  0.0695  0.7215 -0.2677
   92MPD2    C4 1406   0.054   2.680  16.930  0.2220 -0.1539 -0.2225
   92MPD2    C5 1407   4.698   2.575  16.928 -0.1606 -0.0710 -0.7173
   92MPD2     H 1408   4.648   2.843  16.671 -0.1064 -1.3419 -0.3762
   92MPD2    H1 1409   0.139   2.682  16.997  0.1407 -0.4222 -0.1117
   92MPD2    H2 1410   4.524   2.480  16.869 -2.7039  1.7851  0.1781
   92MPD2    H3 1411   4.704   2.502  17.008  0.0015 -0.0968 -0.7532
   92MPD2     N 1412   0.117   2.895  16.813  0.0966  0.1720 -0.1601
   92MPD2    H5 1413   0.090   2.957  16.737 -0.6727  1.6848  1.3477
   92MPD2    N1 1414   4.444   2.662  16.674  0.1880 -0.7783 -0.7258
   92MPD2    H7 1415   4.446   2.733  16.601 -1.8098 -1.1706 -1.1823
   93MPD2     C 1416   0.848   2.540  14.041 -0.4660 -0.3535 -0.8842
   93MPD2    C1 1417   0.764   2.636  14.084  0.1370  0.1286  0.1707
   93MPD2    C2 1418   0.641   2.662  14.023  0.2992  0.7502 -0.6603
   93MPD2    C3 1419   0.611   2.595  13.903 -0.4090 -0.9723 -0.2659
   93MPD2    C4 1420   0.697   2.498  13.866 -0.6558 -0.1436  0.1629
   93MPD2    C5 1421   0.811   2.470  13.937  0.6342  0.4436  0.1196
   93MPD2     H 1422   0.582   2.746  14.058 -2.8096 -2.2490  1.3035
   93MPD2    H1 1423   0.678   2.435  13.780 -0.2797 -1.0062  0.7059
   93MPD2    H2 1424   0.950   2.527  14.074 -0.0496  1.5946 -1.4035
   93MPD2    H3 1425   0.882   2.396  13.901  2.1393  1.0064  1.9519
   93MPD2     N 1426   0.498   2.622  13.821 -0.3622 -0.0548  0.4380
   93MPD2    H5 1427   0.501   2.592  13.724 -0.7384 -1.4719  0.8669
   93MPD2    N1 1428   0.791   2.729  14.187 -0.1337  0.6888  0.3232
   93MPD2    H7 1429   0.724   2.801  14.210 -0.1368  0.7802  0.0254
   94TCq2    C1 1430   0.909   2.730  14.256  0.4879 -0.3916 -0.1925
   94TCq2    O2 1431   1.004   2.659  14.244  0.0060  0.2264  0.2840
   94TCq2    C2 1432   0.942   2.860  14.320 -0.3111  0.6048 -0.3260
   94TCq2    C3 1433   0.834   2.932  14.359 -0.2644  0.1090 -0.7539
   94TCq2    C4 1434   0.854   3.063  14.395 -0.1689  0.1282 -0.0914
   94TCq2    C5 1435   0.981   3.123  14.399  0.4032  0.0405  0.1024
   94TCq2    C6 1436   1.088   3.043  14.358  0.4596 -0.5696  0.7231
   94TCq2    C7 1437   1.067   2.910  14.314  0.0397 -0.0523  0.5305
   94TCq2    C8 1438   1.220   3.093  14.363 -0.6813  0.1552 -0.4478
   94TCq2    O4 1439   1.317   3.025  14.330  0.1026  0.3831 -0.0672
   94TCq2    C9 1440   0.752   3.141  14.456  0.0785  0.2006  0.0765
   94TCq2    O5 1441   0.772   3.256  14.486 -0.3113 -0.1003  0.0423
   94TCq2    O6 1442   0.639   3.092  14.444  0.3177  0.2505 -0.7592
   94TCq2    H2 1443   0.735   2.898  14.386 -0.6467 -0.3913 -2.7883
   94TCq2    H3 1444   0.981   3.229  14.422  1.4895  0.0658  0.0055
   94TCq2    H4 1445   1.149   2.850  14.277  1.0128  1.2192  0.6275
   95TMC2    C1 1446   0.671   0.079  16.354 -1.2451  0.0295 -0.4294
   95TMC2    C2 1447   0.713   0.010  16.467  0.0647 -0.2548 -0.1957
   95TMC2    C3 1448   0.730   0.085  16.583  0.5870  0.4003  0.2816
   95TMC2    C4 1449   0.649   0.215  16.358 -0.1461  0.0086 -0.4029
   95TMC2    C5 1450   0.667   0.283  16.476  0.4069 -0.3280 -0.0265
   95TMC2    C6 1451   0.715   0.225  16.586  0.3720  0.3991  0.8189
   95TMC2     C 1452   0.708   0.025  16.225  0.2576 -0.1760  0.2434
   95TMC2     O 1453   0.735   0.109  16.139 -0.7758 -0.0949 -0.8377
   95TMC2     H 1454   0.748   4.633  16.470  0.2312 -0.2623 -2.7399
   95TMC2    H1 1455   0.623   0.272  16.270 -0.4563  0.2891 -0.1305
   95TMC2    H2 1456   0.727   0.279  16.679 -0.9985 -0.8312  1.7180
   95TMC2    C7 1457   0.661   0.429  16.462 -0.2778 -0.0836  0.4046
   95TMC2    C8 1458   0.752   0.010  16.704  0.2274  0.8184  0.1321
   95TMC2    O1 1459   0.683   0.471  16.348 -0.4968 -0.2731 -0.1669
   95TMC2    O2 1460   0.697   4.629  16.730  0.5528 -0.1113 -0.3562
   95TMC2    O5 1461   0.806   0.102  16.787 -0.2580  1.0853  0.3869
   95TMC2    H5 1462   0.865   0.166  16.743  2.2599 -0.7346  1.1087
   96MPD2     C 1463   0.918   4.382  15.951 -0.5106 -0.1741 -0.4379
   96MPD2    C1 1464   0.946   4.517  15.960 -0.6393 -0.5487  0.2046
   96MPD2    C2 1465   0.876   4.595  16.043  1.1416  0.9189  0.1907
   96MPD2    C3 1466   0.777   4.537  16.125 -0.5891  0.0423  0.1584
   96MPD2    C4 1467   0.762   4.402  16.124 -0.1253 -0.0375  0.6978
   96MPD2    C5 1468   0.828   4.324  16.034  0.0260 -0.2601  1.3883
   96MPD2     H 1469   0.893   4.702  16.046  3.0613  0.6237  0.0739
   96MPD2    H1 1470   0.697   4.361  16.200  0.9325 -0.8339  1.1806
   96MPD2    H2 1471   0.975   4.309  15.895 -0.5295 -2.8154  2.9613
   96MPD2    H3 1472   0.813   4.217  16.039 -0.9529 -0.1981 -0.2567
   96MPD2     N 1473   0.712   4.614  16.225  0.2663  0.0618  0.0688
   96MPD2    H5 1474   0.660   4.566  16.298  0.5485  1.3535  1.1302
   96MPD2    N1 1475   1.044   4.569  15.875  0.0115 -0.5382 -0.6680
   96MPD2    H7 1476   1.073   4.503  15.803  1.1280 -0.0871 -0.6387
   97MPD2     C 1477   1.955   2.038   0.432 -0.5435  0.4900  0.6259
   97MPD2    C1 1478   2.018   2.152   0.447  0.1425  0.5901 -0.2500
   97MPD2    C2 1479   2.132   2.181   0.371 -0.1944 -0.2004 -0.0883
   97MPD2    C3 1480   2.179   2.090   0.275  0.7461  0.6461 -0.4919
   97MPD2    C4 1481   2.097   1.985   0.251  0.4238  0.0567  0.2522
   97MPD2    C5 1482   1.987   1.957   0.330  0.3048 -0.3442 -0.3240
   97MPD2     H 1483   2.190   2.265   0.406 -0.7737  0.5981 -1.0524
   97MPD2    H1 1484   2.117   1.929   0.161 -1.4764 -0.8017  0.3673
   97MPD2    H2 1485   1.862   2.020   0.485  0.3412  1.0376  2.3554
   97MPD2    H3 1486   1.913   1.883   0.301  1.6722 -2.3939  1.4155
   97MPD2     N 1487   2.311   2.088   0.218  0.2372  0.0261 -0.3068
   97MPD2    H5 1488   2.336   2.000   0.174  4.1283  0.4949  0.9877
   97MPD2    N1 1489   1.969   2.229   0.556  0.3890 -0.3673  0.4924
   97MPD2    H7 1490   1.915   2.178   0.626  1.4083 -0.2956  1.3302
   98TCq2    C1 1491   2.406   2.183   0.228 -0.3855 -0.4279 -1.1935
   98TCq2    O2 1492   2.388   2.304   0.245 -0.0470 -0.6366 -0.7821
   98TCq2    C2 1493   2.540   2.136   0.216 -0.1170 -0.1045  0.1961
   98TCq2    C3 1494   2.568   2.004   0.243  0.0824 -0.2567 -0.0789
   98TCq2    C4 1495   2.696   1.964   0.236 -0.0094 -0.8356 -0.3409
   98TCq2    C5 1496   2.801   2.048   0.199  0.3785 -0.2275  0.0681
   98TCq2    C6 1497   2.765   2.178   0.169  0.3026  0.5907  0.0734
   98TCq2    C7 1498   2.635   2.223   0.176 -0.0980  0.6434  0.1897
   98TCq2    C8 1499   2.875   2.267   0.143 -0.2544  0.0566  0.0503
   98TCq2    O4 1500   2.989   2.238   0.186 -0.4102 -0.5469  0.0927
   98TCq2    C9 1501   2.727   1.831   0.281 -0.3806  0.7024 -0.2011
   98TCq2    O5 1502   2.626   1.771   0.331 -0.2915  0.5182 -0.7725
   98TCq2    O6 1503   2.838   1.779   0.259  0.6018  0.1389 -0.3567
   98TCq2    H2 1504   2.487   1.943   0.281  0.5524  0.5349  2.1712
   98TCq2    H3 1505   2.902   2.012   0.191  0.3062 -0.6354  1.0042
   98TCq2    H4 1506   2.611   2.328   0.178  0.6230  0.8461 -1.5770
   99MPD2     C 1507   1.458   4.148   2.277  0.5356 -0.2547  0.5076
   99MPD2    C1 1508   1.328   4.191   2.239 -0.5226 -0.2823 -0.5932
   99MPD2    C2 1509   1.306   4.196   2.103  0.4666 -0.2191  0.6867
   99MPD2    C3 1510   1.401   4.169   2.006  0.6581 -0.4748 -0.6166
   99MPD2    C4 1511   1.527   4.122   2.048  0.3958  0.5458  0.3990
   99MPD2    C5 1512   1.549   4.112   2.182 -0.3684  1.3267 -0.1840
   99MPD2     H 1513   1.207   4.231   2.074  1.2951  0.4419 -1.3864
   99MPD2    H1 1514   1.611   4.094   1.985 -1.4193 -0.4656 -1.5705
   99MPD2    H2 1515   1.490   4.134   2.379  2.5482  0.2233 -0.0568
   99MPD2    H3 1516   1.647   4.073   2.207 -0.4083  1.5959  0.3817
   99MPD2     N 1517   1.357   4.181   1.876 -0.5837  0.2036  0.8791
   99MPD2    H5 1518   1.269   4.229   1.859 -1.3251 -1.3185  0.4078
   99MPD2    N1 1519   1.219   4.227   2.319  0.5135  0.3666 -0.1256
   99MPD2    H7 1520   1.138   4.280   2.289 -0.5122 -1.2484 -0.1619
  100TCq2    C1 1521   1.228   4.219   2.453 -0.3687  0.2980 -1.1610
  100TCq2    O2 1522   1.318   4.178   2.524 -0.2406  0.0786  0.0832
  100TCq2    C2 1523   1.111   4.265   2.522 -0.0116  0.0833  0.5263
  100TCq2    C3 1524   1.119   4.277   2.660  0.8184 -0.1446 -0.0312
  100TCq2    C4 1525   1.014   4.312   2.733  0.6013 -0.3653  0.9689
  100TCq2    C5 1526   0.901   4.357   2.664 -0.1257 -0.5854  0.4153
  100TCq2    C6 1527   0.894   4.344   2.529  0.3141  1.0605  0.6603
  100TCq2    C7 1528   0.995   4.300   2.453 -0.1408 -0.4854 -0.2118
  100TCq2    C8 1529   0.758   4.367   2.473 -0.1761  0.0278  0.3633
  100TCq2    O4 1530   0.673   4.430   2.531  0.1091 -0.1651  0.3649
  100TCq2    C9 1531   1.020   4.316   2.874 -0.6157 -0.5146  0.5920
  100TCq2    O5 1532   0.915   4.360   2.935  0.4691  0.3038  0.4737
  100TCq2    O6 1533   1.119   4.258   2.934 -0.0769 -0.3896  0.3786
  100TCq2    H2 1534   1.201   4.233   2.715  0.0522 -0.6306  0.7027
  100TCq2    H3 1535   0.830   4.409   2.727  0.2505  0.3749  0.0397
  100TCq2    H4 1536   0.986   4.314   2.346  0.2289  0.2965 -0.1380
  101MPD2     C 1537   2.441   0.548  13.366 -0.3548 -0.7764  0.0392
  101MPD2    C1 1538   2.310   0.593  13.367  0.1628  0.7356 -0.2077
  101MPD2    C2 1539   2.209   0.498  13.379 -0.1091  0.3996  0.0536
  101MPD2    C3 1540   2.243   0.367  13.399  0.8153 -0.3309 -0.0555
  101MPD2    C4 1541   2.375   0.327  13.393  1.0261 -0.5387  0.0975
  101MPD2    C5 1542   2.474   0.417  13.380 -0.2906 -0.0206  0.1041
  101MPD2     H 1543   2.109   0.523  13.411 -0.2974 -1.4869  0.8977
  101MPD2    H1 1544   2.402   0.224  13.413 -1.0297 -1.3663 -1.3479
  101MPD2    H2 1545   2.524   0.618  13.366 -1.2842  0.3205 -0.7425
  101MPD2    H3 1546   2.578   0.386  13.372 -0.0716  0.1988  2.1146
  101MPD2     N 1547   2.140   0.285  13.447 -0.1338  0.1138  0.0655
  101MPD2    H5 1548   2.053   0.334  13.461 -0.5786 -0.2365 -1.5761
  101MPD2    N1 1549   2.287   0.732  13.358 -0.4253 -0.2407 -0.4852
  101MPD2    H7 1550   2.370   0.786  13.338  0.1312 -0.4643  1.1639
  102TCq2    C1 1551   2.319   1.174  13.096  0.1364 -0.9308  0.2973
  102TCq2    O2 1552   2.428   1.116  13.089  0.0200 -0.2252 -0.0109
  102TCq2    C2 1553   2.221   1.114  13.188  0.7031 -0.3745 -0.2674
  102TCq2    C3 1554   2.122   1.200  13.238  0.0708  0.2978 -0.2411
  102TCq2    C4 1555   2.038   1.144  13.330 -0.6226  0.0300  0.3822
  102TCq2    C5 1556   2.044   1.014  13.365 -0.4705  0.0216 -0.7643
  102TCq2    C6 1557   2.146   0.936  13.324 -0.0238 -1.2086 -0.3480
  102TCq2    C7 1558   2.240   0.989  13.239 -0.1887 -1.0297 -0.5557
  102TCq2    C8 1559   2.164   0.799  13.379  0.3571 -0.3314  0.2738
  102TCq2    O4 1560   2.076   0.753  13.447  0.2946 -0.5150  0.9843
  102TCq2    C9 1561   1.945   1.224  13.401 -0.3817 -0.2339  0.1487
  102TCq2    O5 1562   1.951   1.351  13.385 -0.6387 -0.2949  0.2487
  102TCq2    O6 1563   1.846   1.162  13.453 -0.1490  0.0558 -0.0006
  102TCq2    H2 1564   2.108   1.305  13.213 -0.1853  0.1086 -0.8960
  102TCq2    H3 1565   1.975   0.976  13.440  0.5166 -1.4397 -0.6018
  102TCq2    H4 1566   2.321   0.927  13.201  0.8228  0.6782 -1.1460
  103TMC2    C1 1567   0.370   1.337  12.750 -0.2178 -0.0092  0.1896
  103TMC2    C2 1568   0.495   1.383  12.767  0.0938 -0.2464  0.1725
  103TMC2    C3 1569   0.540   1.395  12.895 -0.2479  0.1295  0.5967
  103TMC2    C4 1570   0.287   1.298  12.857  0.7890  0.6007  0.4701
  103TMC2    C5 1571   0.352   1.293  12.978 -0.8079 -0.1764 -0.1567
  103TMC2    C6 1572   0.473   1.352  13.007  0.3877  0.0854  0.3569
  103TMC2     C 1573   0.341   1.265  12.632  0.1971  0.0062 -0.2957
  103TMC2     O 1574   0.221   1.276  12.597 -0.0728  0.4543  0.2343
  103TMC2     H 1575   0.559   1.408  12.683  1.2327  2.4935  1.8462
  103TMC2    H1 1576   0.182   1.282  12.836  1.6642 -1.0863 -2.5906
  103TMC2    H2 1577   0.524   1.337  13.102 -1.0946 -3.1382  0.6012
  103TMC2    C7 1578   0.282   1.248  13.097 -0.3055  0.0602 -0.3856
  103TMC2    C8 1579   0.672   1.451  12.910  0.0997 -0.2094 -0.0347
  103TMC2    O1 1580   0.303   1.307  13.202  0.2352  0.3884  0.9411
  103TMC2    O2 1581   0.746   1.473  12.815  0.4468  0.7051 -0.4110
  103TMC2    O5 1582   0.669   1.540  13.018 -0.0391  0.3560 -0.5317
  103TMC2    H5 1583   0.616   1.510  13.095  0.2541 -3.4024 -1.8048
  104MPD2     C 1584   0.585   1.083  12.420 -0.4697  0.1263 -0.1509
  104MPD2    C1 1585   0.464   1.141  12.452  0.1471 -0.2627  1.2143
  104MPD2    C2 1586   0.365   1.145  12.357 -0.3789  0.4434  0.3856
  104MPD2    C3 1587   0.386   1.084  12.234  0.2328  0.4958 -0.1125
  104MPD2    C4 1588   0.510   1.029  12.203 -0.7261  0.4183 -0.5464
  104MPD2    C5 1589   0.604   1.035  12.298  0.1783  0.2294 -0.0166
  104MPD2     H 1590   0.270   1.196  12.365 -0.8371 -0.3384 -0.1045
  104MPD2    H1 1591   0.530   0.964  12.118 -0.4176  0.4667 -0.5114
  104MPD2    H2 1592   0.656   1.077  12.502  0.0636  1.7083 -0.5019
  104MPD2    H3 1593   0.702   0.994  12.279 -0.2129 -1.2834  1.2101
  104MPD2     N 1594   0.278   1.086  12.138  0.6248 -0.0923 -0.2047
  104MPD2    H5 1595   0.194   1.135  12.164  1.7940 -0.0643  3.5495
  104MPD2    N1 1596   0.455   1.215  12.573 -0.2772 -0.6037  0.8288
  104MPD2    H7 1597   0.536   1.220  12.633  0.4592 -0.0270 -0.2216
  105MPD2     C 1598   2.380   4.431  17.440 -0.4861 -0.2928  0.0345
  105MPD2    C1 1599   2.316   4.547  17.425 -0.2124 -0.0310  0.3513
  105MPD2    C2 1600   2.281   4.610  17.540  0.2721  0.3810 -0.0114
  105MPD2    C3 1601   2.318   4.563  17.660  0.3701  0.6794 -0.3505
  105MPD2    C4 1602   2.390   4.437  17.681  0.9636 -0.5028  0.3446
  105MPD2    C5 1603   2.420   4.375  17.559 -0.1335  0.5408  0.6401
  105MPD2     H 1604   2.216   4.697  17.533 -2.0286 -1.3463 -0.0549
  105MPD2    H1 1605   2.405   4.388   0.072  1.7376 -2.0374 -0.5769
  105MPD2    H2 1606   2.409   4.374  17.353  1.8682  0.6502  0.2119
  105MPD2    H3 1607   2.483   4.287  17.548 -1.1857 -0.0316 -0.8881
  105MPD2     N 1608   2.255   4.630   0.066 -0.0744 -0.8079 -0.8066
  105MPD2    H5 1609   2.193   4.708   0.046  1.7250  0.5137 -1.2003
  105MPD2    N1 1610   2.291   4.594  17.298  0.4400  0.1284 -0.3772
  105MPD2    H7 1611   2.313   4.535  17.218  0.1869 -2.3812  1.3984
  106TCq2    C1 1612   2.274   4.591   0.199  0.1678  0.4265 -0.2949
  106TCq2    O2 1613   2.334   4.507   0.254 -0.2625 -0.1463 -0.4469
  106TCq2    C2 1614   2.209   4.680   0.300 -0.7141 -0.3230 -0.0383
  106TCq2    C3 1615   2.148   0.066   0.251  0.8009  0.6611  0.3405
  106TCq2    C4 1616   2.062   0.130   0.330  0.2799  0.3379 -0.3592
  106TCq2    C5 1617   2.020   0.089   0.453 -0.6936  0.1014 -0.8612
  106TCq2    C6 1618   2.079   4.694   0.494  0.2729  1.2606  0.5455
  106TCq2    C7 1619   2.169   4.626   0.417  0.0898 -0.4094  0.7477
  106TCq2    C8 1620   2.013   4.622   0.610  0.0571  0.3078 -0.1282
  106TCq2    O4 1621   2.080   4.530   0.651 -0.4953  0.6676 -0.6719
  106TCq2    C9 1622   1.998   0.246   0.269  0.3000 -0.7417  0.1872
  106TCq2    O5 1623   1.890   0.286   0.312 -0.1600 -0.2069 -0.3904
  106TCq2    O6 1624   2.054   0.283   0.158  0.2187 -0.1599 -0.5983
  106TCq2    H2 1625   2.183   0.109   0.158  0.9603 -0.6959 -0.2254
  106TCq2    H3 1626   1.955   0.151   0.514 -0.3850  0.1380 -0.5704
  106TCq2    H4 1627   2.221   4.535   0.445  4.1302  1.2148 -1.6148
  107TMC2    C1 1628   2.698   4.655  11.830  0.5272  0.2387 -0.2397
  107TMC2    C2 1629   2.802   0.002  11.776  0.5475 -0.3679  0.5443
  107TMC2    C3 1630   2.886   4.664  11.692 -0.3049 -0.2201  0.0732
  107TMC2    C4 1631   2.682   4.527  11.789 -0.0108  0.9258  0.0824
  107TMC2    C5 1632   2.773   4.465  11.708 -0.5797 -0.6812 -0.1377
  107TMC2    C6 1633   2.880   4.531  11.659 -0.1207  0.3483 -0.0249
  107TMC2     C 1634   2.593   0.004  11.885  0.2619  0.6927 -0.5060
  107TMC2     O 1635   2.608   0.123  11.868  0.1025 -0.2840 -0.7734
  107TMC2     H 1636   2.829   0.102  11.808  0.4636 -0.0689 -0.3195
  107TMC2    H1 1637   2.600   4.463  11.819 -0.3679  1.6250  0.5941
  107TMC2    H2 1638   2.963   4.488  11.604 -1.1881 -1.6562 -0.0627
  107TMC2    C7 1639   2.737   4.338  11.659 -0.6876 -0.5206 -0.2445
  107TMC2    C8 1640   2.994   0.016  11.639 -0.4458  0.2441 -0.3795
  107TMC2    O1 1641   2.670   4.264  11.730 -0.2356 -0.3355  0.4714
  107TMC2    O2 1642   3.104   0.018  11.696  0.6924  0.6244  0.2768
  107TMC2    O5 1643   2.977   0.020  11.511  0.1065 -0.1084 -0.3579
  107TMC2    H5 1644   2.882   0.009  11.488  0.0974 -0.2309 -0.2638
  108MPD2     C 1645   2.392   0.110  12.065 -0.0876  0.4115  0.6477
  108MPD2    C1 1646   2.431   4.700  12.067  0.2450 -0.0442 -0.1710
  108MPD2    C2 1647   2.376   4.622  12.160  0.0038 -0.2301  0.4663
  108MPD2    C3 1648   2.292   4.664  12.265  0.5506  0.7248  0.2584
  108MPD2    C4 1649   2.261   0.075  12.261 -0.0531 -0.3781  0.4849
  108MPD2    C5 1650   2.310   0.163  12.164 -0.2815 -0.4382  0.4546
  108MPD2     H 1651   2.400   4.517  12.150 -1.9674 -0.6569  0.0747
  108MPD2    H1 1652   2.202   0.116  12.342  1.2463 -0.0418  1.2645
  108MPD2    H2 1653   2.427   0.179  11.989  1.8556 -0.4408  0.7778
  108MPD2    H3 1654   2.277   0.266  12.164 -0.4592 -0.4971 -0.2511
  108MPD2     N 1655   2.231   4.585  12.361 -0.3695 -0.2149  0.2538
  108MPD2    H5 1656   2.177   4.626  12.437 -1.9570 -0.8736 -0.5231
  108MPD2    N1 1657   2.521   4.656  11.974  0.9805  0.0264  0.0761
  108MPD2    H7 1658   2.547   4.558  11.985 -0.9486 -0.4838  0.1443
  109MPD2     C 1659   2.136   1.374   1.877 -0.2321 -1.2588 -0.1311
  109MPD2    C1 1660   2.103   1.442   1.759 -0.4229 -0.2423  0.3772
  109MPD2    C2 1661   2.170   1.556   1.724 -0.0550  0.3415 -0.3867
  109MPD2    C3 1662   2.267   1.613   1.804  0.5867 -0.0519  0.4222
  109MPD2    C4 1663   2.310   1.539   1.914  0.3066 -0.3518 -0.4398
  109MPD2    C5 1664   2.239   1.425   1.955  0.3909  0.0892  0.2417
  109MPD2     H 1665   2.137   1.620   1.643 -3.0842 -3.3650 -2.0820
  109MPD2    H1 1666   2.376   1.586   1.986 -1.0629  1.0634 -0.0908
  109MPD2    H2 1667   2.087   1.282   1.907 -1.5472 -1.2692 -2.3039
  109MPD2    H3 1668   2.270   1.377   2.047 -2.0296  2.0491  2.0903
  109MPD2     N 1669   2.323   1.740   1.767 -0.5506  0.7237  0.2679
  109MPD2    H5 1670   2.291   1.776   1.678 -2.0196 -0.8417  0.1715
  109MPD2    N1 1671   2.009   1.369   1.684 -0.0497  0.1431 -0.5423
  109MPD2    H7 1672   1.966   1.283   1.717 -0.9235  1.5814  2.1397
  110TCq2    C1 1673   2.413   1.816   1.835 -0.6054 -0.0282 -0.2349
  110TCq2    O2 1674   2.447   1.806   1.949 -0.6551  0.6529 -0.1559
  110TCq2    C2 1675   2.441   1.938   1.762  0.5777 -0.4082 -0.3406
  110TCq2    C3 1676   2.473   2.050   1.834  0.1033  0.5593 -0.7942
  110TCq2    C4 1677   2.530   2.154   1.770 -0.2620 -0.4875 -0.2890
  110TCq2    C5 1678   2.534   2.154   1.631  0.3654 -0.2019 -0.6396
  110TCq2    C6 1679   2.484   2.044   1.562 -0.0586 -0.2889  0.1687
  110TCq2    C7 1680   2.443   1.934   1.630  0.5879 -0.5492 -0.0981
  110TCq2    C8 1681   2.461   2.054   1.420  0.1994 -0.2252  0.0505
  110TCq2    O4 1682   2.513   2.152   1.369  0.4261  0.5146  0.4127
  110TCq2    C9 1683   2.568   2.269   1.852  0.4516  0.2702 -0.6618
  110TCq2    O5 1684   2.555   2.254   1.974 -0.5915  0.3589  0.3859
  110TCq2    O6 1685   2.592   2.378   1.786  0.3534 -0.1987  0.4601
  110TCq2    H2 1686   2.464   2.051   1.942  0.0094  1.3838 -0.8081
  110TCq2    H3 1687   2.567   2.247   1.585 -0.5220  0.5862  0.3499
  110TCq2    H4 1688   2.429   1.842   1.575  1.1527 -0.5164 -0.2963
  111TMC2    C1 1689   2.707   1.797  11.633  0.6287 -0.9964  0.1548
  111TMC2    C2 1690   2.793   1.809  11.522 -1.0145 -0.3593 -0.2340
  111TMC2    C3 1691   2.921   1.761  11.537 -0.1367 -0.4747  0.9704
  111TMC2    C4 1692   2.752   1.739  11.751 -0.1005  0.1302 -0.2282
  111TMC2    C5 1693   2.889   1.702  11.761 -0.0159 -0.1302  0.1105
  111TMC2    C6 1694   2.966   1.706  11.652 -0.2865  0.1719  0.9376
  111TMC2     C 1695   2.567   1.838  11.610  0.5507  0.3513 -0.5366
  111TMC2     O 1696   2.536   1.850  11.495 -0.1646  0.1315  0.0953
  111TMC2     H 1697   2.749   1.857  11.435 -1.4073  1.2788  0.8576
  111TMC2    H1 1698   2.691   1.716  11.837 -1.4191  0.5508 -1.0492
  111TMC2    H2 1699   3.068   1.669  11.646 -0.5750 -0.4632 -0.0240
  111TMC2    C7 1700   2.943   1.640  11.886  0.1711 -0.5478  0.5857
  111TMC2    C8 1701   3.000   1.752  11.417  0.9668  0.4042  0.7640
  111TMC2    O1 1702   2.861   1.647  11.982 -0.0748  0.2850 -0.3030
  111TMC2    O2 1703   3.124   1.754  11.411  0.1203  0.4973 -0.0103
  111TMC2    O5 1704   2.930   1.716  11.311 -0.9237 -0.2341  0.0303
  111TMC2    H5 1705   2.849   1.667  11.337 -1.0410  0.1089  0.3184
  112MPD2     C 1706   2.086   1.937  11.759  0.5102  0.3091  0.6563
  112MPD2    C1 1707   2.140   1.939  11.635 -0.1584  0.6539 -0.0933
  112MPD2    C2 1708   2.278   1.914  11.629 -0.7550 -0.4710  0.8641
  112MPD2    C3 1709   2.350   1.890  11.737 -0.6864 -0.1157 -0.3084
  112MPD2    C4 1710   2.296   1.876  11.858  0.2348 -0.2884  0.2891
  112MPD2    C5 1711   2.165   1.901  11.868  0.0268 -0.0807  0.6564
  112MPD2     H 1712   2.318   1.902  11.529 -2.8224 -0.5759  0.0460
  112MPD2    H1 1713   2.363   1.835  11.934 -0.9033 -0.1067  1.3926
  112MPD2    H2 1714   1.979   1.933  11.775  0.5049  0.2431  0.6074
  112MPD2    H3 1715   2.111   1.877  11.959 -2.2902  0.4905 -0.5581
  112MPD2     N 1716   2.489   1.849  11.729  0.9050 -0.2155 -0.6609
  112MPD2    H5 1717   2.530   1.833  11.820 -0.7156  0.0440  0.1095
  112MPD2    N1 1718   2.071   1.953  11.509 -0.4098 -0.2490 -0.7186
  112MPD2    H7 1719   2.133   1.933  11.431  0.7821  1.2689 -0.1424
  113MPD2     C 1720   0.681   3.892   1.657  0.6448 -0.7600 -0.4311
  113MPD2    C1 1721   0.582   3.973   1.607 -0.1845  0.7616 -0.9750
  113MPD2    C2 1722   0.504   3.932   1.500  0.1969 -0.6496  0.8300
  113MPD2    C3 1723   0.525   3.809   1.440  0.0432 -0.6967  0.2123
  113MPD2    C4 1724   0.627   3.728   1.489 -0.1945  0.5683 -0.0063
  113MPD2    C5 1725   0.707   3.769   1.594 -0.5468  0.1980 -0.1854
  113MPD2     H 1726   0.431   4.002   1.462  0.0840 -0.9704  0.4513
  113MPD2    H1 1727   0.645   3.627   1.455  0.5444  0.5215  0.5358
  113MPD2    H2 1728   0.741   3.918   1.744  0.2732 -2.8396  0.4638
  113MPD2    H3 1729   0.779   3.699   1.635 -0.4963  0.0881 -0.4622
  113MPD2     N 1730   0.459   3.772   1.316 -0.5259 -0.6284 -0.5541
  113MPD2    H5 1731   0.465   3.674   1.290  0.0642 -0.5017 -0.8901
  113MPD2    N1 1732   0.559   4.100   1.654 -0.3421  0.0881 -0.1998
  113MPD2    H7 1733   0.476   4.143   1.616  1.2555  4.4610  1.2806
  114TCq2    C1 1734   0.383   3.854   1.234 -0.0042 -0.3517 -0.3715
  114TCq2    O2 1735   0.386   3.974   1.231  0.2913 -0.2654 -0.1665
  114TCq2    C2 1736   0.322   3.784   1.117 -0.2207 -0.1580 -0.4927
  114TCq2    C3 1737   0.309   3.860   1.006 -0.6764 -0.2597  0.8143
  114TCq2    C4 1738   0.287   3.803   0.886 -0.3263  0.2146 -0.1257
  114TCq2    C5 1739   0.283   3.671   0.882 -0.5585  0.3769 -0.3450
  114TCq2    C6 1740   0.289   3.594   0.994 -0.0664  0.6104 -0.8130
  114TCq2    C7 1741   0.318   3.646   1.118 -0.0044 -0.1991  0.7507
  114TCq2    C8 1742   0.284   3.443   0.974  0.8633 -0.2541 -0.7222
  114TCq2    O4 1743   0.307   3.397   0.866 -0.4923 -0.2762 -1.1574
  114TCq2    C9 1744   0.293   3.880   0.759 -0.4814  0.4781 -0.4159
  114TCq2    O5 1745   0.297   4.008   0.769  0.3349 -0.7805  0.0815
  114TCq2    O6 1746   0.324   3.812   0.651 -0.8995  0.2318  0.1081
  114TCq2    H2 1747   0.312   3.969   1.011 -1.4554 -0.2152  0.2061
  114TCq2    H3 1748   0.246   3.621   0.793  0.1184 -0.1697 -0.3191
  114TCq2    H4 1749   0.317   3.586   1.208 -0.5168 -0.9960  0.2154
  115TMC2    C1 1750   1.224   2.575  17.557 -0.3843  0.1462  0.4582
  115TMC2    C2 1751   1.196   2.639  17.438  0.1399  0.1098 -0.5765
  115TMC2    C3 1752   1.225   2.777  17.439  0.2226  0.1314 -0.0699
  115TMC2    C4 1753   1.269   2.639  17.666  0.1705 -0.0860  0.1577
  115TMC2    C5 1754   1.308   2.769  17.658 -0.6293  0.1006  0.9385
  115TMC2    C6 1755   1.277   2.844  17.549  0.0548  0.1562 -0.3263
  115TMC2     C 1756   1.199   2.430  17.559  0.3093  0.3334 -0.4274
  115TMC2     O 1757   1.164   2.368  17.457  0.1816  0.2375 -0.3909
  115TMC2     H 1758   1.161   2.585  17.351 -3.4886  1.0590  0.2971
  115TMC2    H1 1759   1.274   2.595   0.060 -0.7877 -2.1483 -0.7309
  115TMC2    H2 1760   1.298   2.950  17.539 -0.6041  0.2840 -0.3574
  115TMC2    C7 1761   1.413   2.810   0.043  0.3584  0.6537  1.0478
  115TMC2    C8 1762   1.146   2.868  17.352  0.2317  0.1113  0.4914
  115TMC2    O1 1763   1.423   2.751   0.150 -0.2412 -0.0373  0.0640
  115TMC2    O2 1764   1.192   2.948  17.277  0.2314  0.1960 -0.2053
  115TMC2    O5 1765   1.031   2.891  17.419 -0.2968  0.1525 -0.4758
  115TMC2    H5 1766   1.007   2.811  17.471  0.4667  0.3049  0.1065
  116MPD2     C 1767   1.286   1.984   0.092 -0.3307  0.6156  0.5281
  116MPD2    C1 1768   1.256   2.001  17.667  0.1187  0.6042 -0.0991
  116MPD2    C2 1769   1.227   2.130  17.633 -0.5600  0.2640  0.1608
  116MPD2    C3 1770   1.238   2.241   0.011 -0.2046 -0.4490  0.2692
  116MPD2    C4 1771   1.270   2.219   0.142  0.0296 -0.4355 -0.1110
  116MPD2    C5 1772   1.301   2.092   0.175  0.4484  0.5761  1.2475
  116MPD2     H 1773   1.204   2.139  17.528 -1.7399  0.2123  0.4070
  116MPD2    H1 1774   1.270   2.295   0.220 -1.2458 -1.4681  0.8834
  116MPD2    H2 1775   1.305   1.886   0.134 -0.7997  0.6660  0.8717
  116MPD2    H3 1776   1.320   2.076   0.280 -1.6118 -3.8455  0.9738
  116MPD2     N 1777   1.230   2.376  17.681  0.0220  0.4187 -0.0314
  116MPD2    H5 1778   1.268   2.439   0.047 -0.5859 -1.2472  1.8035
  116MPD2    N1 1779   1.237   1.904  17.564 -0.3802  0.9329 -0.2833
  116MPD2    H7 1780   1.232   1.935  17.468 -0.7346 -0.9344 -0.8638
  117TMC2    C1 1781   0.162   3.547  14.251  0.1664 -1.4373 -0.3718
  117TMC2    C2 1782   0.296   3.521  14.232  0.3375 -0.1537 -0.7119
  117TMC2    C3 1783   0.384   3.616  14.271  0.0269  0.1056 -0.0296
  117TMC2    C4 1784   0.116   3.669  14.288 -0.3003 -0.0456  0.1196
  117TMC2    C5 1785   0.206   3.769  14.319 -0.4422 -0.0728 -0.3960
  117TMC2    C6 1786   0.342   3.735  14.321  0.5640  0.1301 -0.1883
  117TMC2     C 1787   0.070   3.439  14.206  0.0535 -0.2604  0.0346
  117TMC2     O 1788   0.136   3.340  14.172 -0.8380  0.0154 -0.1884
  117TMC2     H 1789   0.329   3.429  14.185 -0.8608 -1.5218  1.1227
  117TMC2    H1 1790   0.009   3.686  14.287 -0.6241 -2.0960  0.8920
  117TMC2    H2 1791   0.417   3.811  14.342 -1.9409  2.1713  1.3011
  117TMC2    C7 1792   0.164   3.906  14.360 -0.1771 -0.0408 -0.3957
  117TMC2    C8 1793   0.499   3.612  14.194  0.0220  0.0572 -0.1492
  117TMC2    O1 1794   0.245   3.979  14.412  0.7729 -0.9312  0.2672
  117TMC2    O2 1795   0.548   3.707  14.135 -0.1941  0.0629 -0.2886
  117TMC2    O5 1796   0.554   3.492  14.199  0.1040 -0.2765 -0.2339
  117TMC2    H5 1797   0.522   3.447  14.280  0.9146 -0.9025 -0.2611
  118MPD2     C 1798   4.562   4.069  14.274 -0.0299 -0.3601  0.1163
  118MPD2    C1 1799   4.690   4.062  14.324 -0.6017  0.4161 -0.1790
  118MPD2    C2 1800   0.020   4.180  14.374  0.9177  0.2927  0.0798
  118MPD2    C3 1801   4.672   4.298  14.372 -0.3605 -0.0308 -0.6419
  118MPD2    C4 1802   4.547   4.296  14.327  0.4945 -0.4996  0.4064
  118MPD2    C5 1803   4.488   4.179  14.292  0.8328 -0.2694 -0.4983
  118MPD2     H 1804   0.126   4.190  14.397  0.5019  0.0623  2.0765
  118MPD2    H1 1805   4.481   4.375  14.361 -0.1997 -0.3451 -1.3163
  118MPD2    H2 1806   4.516   3.986  14.222  0.8989 -1.1267  0.5211
  118MPD2    H3 1807   4.383   4.185  14.267  0.8018  0.9503 -0.0718
  118MPD2     N 1808   0.005   4.421  14.410  0.0991  1.1254 -1.1112
  118MPD2    H5 1809   4.662   4.495  14.413 -1.3675 -0.2231 -1.3305
  118MPD2    N1 1810   0.039   3.938  14.312  0.0730 -0.4081  0.5015
  118MPD2    H7 1811   4.711   3.860  14.276  0.4284  0.6977 -2.4321
  119MPD2     C 1812   2.948   0.479  13.359  0.7197 -0.1557  0.4489
  119MPD2    C1 1813   2.961   0.371  13.452  0.2545  0.3043  0.1432
  119MPD2    C2 1814   2.895   0.252  13.410  0.1765 -0.0754 -0.0982
  119MPD2    C3 1815   2.819   0.247  13.298  0.3175 -0.0827  0.4942
  119MPD2    C4 1816   2.801   0.354  13.213 -0.6540 -0.2616 -0.2527
  119MPD2    C5 1817   2.864   0.471  13.250 -0.2889 -0.4359  0.1731
  119MPD2     H 1818   2.912   0.167  13.475 -0.1501 -0.1997 -0.1731
  119MPD2    H1 1819   2.734   0.352  13.127 -0.2512 -3.0797 -0.5106
  119MPD2    H2 1820   2.995   0.573  13.383 -2.0499  1.4002 -0.1309
  119MPD2    H3 1821   2.861   0.558  13.186 -0.7127  0.0155  0.8046
  119MPD2     N 1822   2.734   0.134  13.276 -0.0142 -0.0368 -0.0011
  119MPD2    H5 1823   2.680   0.129  13.190  0.6707 -0.7982 -0.3926
  119MPD2    N1 1824   3.028   0.402  13.566 -0.3517 -0.4876  0.2254
  119MPD2    H7 1825   3.079   0.490  13.566 -0.7148 -0.2744  1.2772
  120TCq2    C1 1826   2.702   0.036  13.363  0.2276 -0.7865 -0.4008
  120TCq2    O2 1827   2.736   0.020  13.479 -0.1052  0.2299 -0.1670
  120TCq2    C2 1828   2.599   4.673  13.310  0.2363  0.3267 -0.2979
  120TCq2    C3 1829   2.619   4.621  13.188 -0.2629 -0.2744  0.7927
  120TCq2    C4 1830   2.566   4.497  13.157  0.1193 -0.3694 -0.2928
  120TCq2    C5 1831   2.490   4.436  13.246 -0.1380 -0.3637 -0.0124
  120TCq2    C6 1832   2.453   4.500  13.363 -0.3336 -0.7281 -0.6831
  120TCq2    C7 1833   2.519   4.612  13.406 -0.7080 -0.2287 -0.3795
  120TCq2    C8 1834   2.385   4.421  13.463 -0.2634 -0.6174  0.0302
  120TCq2    O4 1835   2.372   4.300  13.456  0.0725 -0.1004 -0.0926
  120TCq2    C9 1836   2.615   4.441  13.040  0.1159  0.1755  0.4276
  120TCq2    O5 1837   2.648   4.318  13.050 -0.5332  0.1494 -0.2621
  120TCq2    O6 1838   2.646   4.521  12.944  0.5179  0.4705  0.2707
  120TCq2    H2 1839   2.680   4.673  13.115 -2.3885  0.3295 -0.5596
  120TCq2    H3 1840   2.462   4.333  13.229  0.9099 -0.3236 -1.9374
  120TCq2    H4 1841   2.510   4.659  13.503  1.3566 -0.6181 -0.0061
  121TMC2    C1 1842   4.221   1.463  14.347  0.2614 -0.0635 -0.1790
  121TMC2    C2 1843   4.252   1.327  14.365 -0.1132 -0.7681  0.2420
  121TMC2    C3 1844   4.159   1.240  14.319 -0.8186 -0.4913  0.2789
  121TMC2    C4 1845   4.106   1.510  14.287 -0.5747 -0.1871  0.0068
  121TMC2    C5 1846   4.021   1.419  14.245  0.8208 -0.4733 -0.4870
  121TMC2    C6 1847   4.046   1.282  14.255 -0.3850  0.0144 -0.4418
  121TMC2     C 1848   4.334   1.549  14.334 -0.1341 -0.8042  0.0566
  121TMC2     O 1849   4.437   1.497  14.367  0.8042  0.6631 -0.3349
  121TMC2     H 1850   4.352   1.294  14.391  0.3350  1.1308  0.9829
  121TMC2    H1 1851   4.079   1.615  14.287  0.5084  0.0941  1.9340
  121TMC2    H2 1852   3.975   1.208  14.221 -1.0341  1.1375 -1.5296
  121TMC2    C7 1853   3.892   1.451  14.193 -0.1500 -0.2504 -0.2976
  121TMC2    C8 1854   4.175   1.104  14.329  0.1485  0.9554 -0.3867
  121TMC2    O1 1855   3.829   1.355  14.148  0.1313  0.0764  0.0496
  121TMC2    O2 1856   4.112   1.017  14.267 -0.0608 -0.2690 -0.0031
  121TMC2    O5 1857   4.240   1.075  14.445  0.6803 -0.1563 -0.1789
  121TMC2    H5 1858   4.262   1.143  14.513 -0.7395  0.6189 -0.4902
  122MPD2     C 1859   4.550   1.745  14.276 -0.4035 -0.2959 -0.3563
  122MPD2    C1 1860   4.423   1.736  14.223  0.0920  1.0000  0.2939
  122MPD2    C2 1861   4.393   1.800  14.106  0.6387 -0.8485  0.2767
  122MPD2    C3 1862   4.495   1.862  14.031 -0.4538  0.0057 -0.4277
  122MPD2    C4 1863   4.621   1.860  14.080  0.1980 -0.3202  0.5973
  122MPD2    C5 1864   4.654   1.812  14.205  0.3266 -0.4216 -0.3641
  122MPD2     H 1865   4.294   1.801  14.062 -0.2055 -0.6359  2.1869
  122MPD2    H1 1866   4.695   1.912  14.021  1.0759 -1.2275  0.8858
  122MPD2    H2 1867   4.577   1.700  14.371 -2.5970  1.1547  0.9652
  122MPD2    H3 1868   0.027   1.799  14.248  1.7325  1.6415 -2.9906
  122MPD2     N 1869   4.479   1.925  13.904  0.0073 -0.1710 -0.0686
  122MPD2    H5 1870   4.567   1.954  13.862  0.2969  0.1144  0.7340
  122MPD2    N1 1871   4.310   1.672  14.283  0.6720 -0.3445 -0.2424
  122MPD2    H7 1872   4.219   1.694  14.244  0.4237 -2.5629 -0.9231
  123MPD2     C 1873   2.368   0.090  11.103  0.7677  0.5836 -0.9635
  123MPD2    C1 1874   2.439   0.085  10.984 -0.3586 -1.3285 -0.7018
  123MPD2    C2 1875   2.545   0.174  10.970  0.0286 -0.6249  0.2941
  123MPD2    C3 1876   2.584   0.261  11.073  0.6719  0.4125 -0.7780
  123MPD2    C4 1877   2.511   0.265  11.181  0.1904  0.3821  0.4285
  123MPD2    C5 1878   2.403   0.179  11.197  0.5368 -0.4547 -0.7372
  123MPD2     H 1879   2.591   0.186  10.872 -2.8968 -1.6709 -1.2047
  123MPD2    H1 1880   2.536   0.345  11.249 -0.6540  2.0411 -1.2009
  123MPD2    H2 1881   2.278   0.030  11.116  1.5890 -0.7053 -1.1428
  123MPD2    H3 1882   2.336   0.191  11.282  0.2737  1.2995 -1.1930
  123MPD2     N 1883   2.693   0.343  11.046  0.1681 -0.1307  0.3415
  123MPD2    H5 1884   2.719   0.344  10.948 -0.0132 -0.6938  0.2902
  123MPD2    N1 1885   2.401   4.710  10.887  0.5046  0.0030  0.5073
  123MPD2    H7 1886   2.321   4.653  10.912  3.5023 -3.3959  2.3985
  124TCq2    C1 1887   2.772   0.402  11.133 -0.0283 -0.3311 -0.2374
  124TCq2    O2 1888   2.755   0.392  11.257 -0.6789 -0.3160  0.1216
  124TCq2    C2 1889   2.893   0.467  11.074 -0.6761 -0.4571 -0.0744
  124TCq2    C3 1890   2.985   0.522  11.156 -0.0525 -0.4525 -0.3660
  124TCq2    C4 1891   3.088   0.597  11.098 -0.9369 -0.7760  0.6998
  124TCq2    C5 1892   3.119   0.594  10.967 -0.3002  0.4939 -0.4106
  124TCq2    C6 1893   3.027   0.525  10.888 -0.7818 -0.1043  0.1532
  124TCq2    C7 1894   2.916   0.468  10.941 -0.3608  0.3027 -0.0076
  124TCq2    C8 1895   3.055   0.473  10.759  0.1971  0.3140 -0.8673
  124TCq2    O4 1896   3.004   0.366  10.727  0.3418 -0.2473 -0.2483
  124TCq2    C9 1897   3.155   0.684  11.192  0.2468 -0.1831 -0.6791
  124TCq2    O5 1898   3.197   0.794  11.147  0.3449  0.4786  0.8517
  124TCq2    O6 1899   3.159   0.652  11.315 -0.5648 -0.2614  0.0272
  124TCq2    H2 1900   2.964   0.524  11.263  0.1454 -0.5080 -0.3272
  124TCq2    H3 1901   3.207   0.640  10.923  0.3595 -0.2603  0.1101
  124TCq2    H4 1902   2.852   0.435  10.860 -0.4801  0.5462 -0.0112
  125TMC2    C1 1903   3.882   1.768  10.102 -0.3037  0.1999  0.2753
  125TMC2    C2 1904   3.974   1.782  10.199 -1.0019 -0.5237  0.5027
  125TMC2    C3 1905   4.110   1.796  10.175 -0.4237  0.1833 -0.2547
  125TMC2    C4 1906   3.921   1.795   9.973 -0.4968  0.2644  0.5610
  125TMC2    C5 1907   4.057   1.812   9.948 -0.9841  0.3631 -0.0383
  125TMC2    C6 1908   4.153   1.802  10.048  1.1982  0.1282  0.1752
  125TMC2     C 1909   3.759   1.690  10.135  0.2198 -0.0510 -0.1999
  125TMC2     O 1910   3.709   1.703  10.245 -0.1972 -0.4521  0.2696
  125TMC2     H 1911   3.953   1.758  10.303  0.9918  0.9614  1.2607
  125TMC2    H1 1912   3.841   1.793   9.900 -2.1462  0.7557  2.3566
  125TMC2    H2 1913   4.260   1.813  10.033  1.5130 -1.8172  0.9389
  125TMC2    C7 1914   4.086   1.847   9.807 -0.0165  0.6163  0.5545
  125TMC2    C8 1915   4.206   1.766  10.281 -0.3970  0.2558  0.3598
  125TMC2    O1 1916   3.997   1.877   9.730 -0.4388 -0.4987  0.5262
  125TMC2    O2 1917   4.317   1.722  10.254 -0.0892  0.4218 -0.1463
  125TMC2    O5 1918   4.173   1.850  10.383 -0.2810 -0.0097 -0.6290
  125TMC2    H5 1919   4.089   1.900  10.375 -1.0552 -1.3372 -0.7791
  126MPD1     C 1920   3.420   1.322  10.012  0.6717  0.6117 -0.1923
  126MPD1    C1 1921   3.485   1.354   9.897  0.3169 -0.0548  0.3994
  126MPD1    C2 1922   3.591   1.451   9.904 -0.0113  0.6414 -0.3651
  126MPD1    C3 1923   3.612   1.524  10.017  0.0159 -0.7033 -0.1670
  126MPD1    C4 1924   3.533   1.502  10.127 -0.1713 -0.3412  0.0057
  126MPD1    C5 1925   3.439   1.407  10.117  0.0884  0.5012 -0.1976
  126MPD1     H 1926   3.655   1.465   9.818  1.3338  2.1566  0.8714
  126MPD1    H1 1927   3.535   1.560  10.218 -1.2011  1.9037 -1.4106
  126MPD1    H2 1928   3.345   1.244  10.023  2.6357 -1.4542 -1.6236
  126MPD1    H3 1929   3.372   1.394  10.202 -1.0931  1.8051 -0.9113
  126MPD1     N 1930   3.717   1.617  10.023 -0.0591  0.0501  0.1962
  126MPD1    H5 1931   3.785   1.632   9.949  1.4407 -2.1388  1.1310
  126MPD1    N1 1932   3.488   1.270   9.786 -0.5409  0.3140  0.5242
  126MPD1    H6 1933   3.538   1.309   9.706 -0.2565 -0.3880  0.3578
  126MPD1    H7 1934   3.399   1.230   9.755 -0.4013  0.6528 -0.3257
  127MPD2     C 1935   1.005   0.653   9.582  0.1027  0.2438 -0.8773
  127MPD2    C1 1936   1.043   0.654   9.714  0.4141 -0.5600 -0.1193
  127MPD2    C2 1937   1.068   0.772   9.787 -0.4257  0.0660  0.1870
  127MPD2    C3 1938   1.033   0.890   9.725  0.2971  0.1316  0.6224
  127MPD2    C4 1939   1.007   0.891   9.592 -0.1331 -0.2891 -1.1582
  127MPD2    C5 1940   0.987   0.777   9.520 -0.1257  0.1793  0.2343
  127MPD2     H 1941   1.080   0.764   9.894 -0.1474 -0.8662  0.0839
  127MPD2    H1 1942   1.003   0.985   9.539 -0.2427 -0.2401 -1.0617
  127MPD2    H2 1943   0.989   0.557   9.534  2.4524 -0.4238 -0.3381
  127MPD2    H3 1944   0.958   0.773   9.416 -0.3437  1.2086  0.2608
  127MPD2     N 1945   1.031   1.004   9.815 -0.9675  0.1580  0.2189
  127MPD2    H5 1946   1.049   0.990   9.914  1.3331  1.2931 -0.0301
  127MPD2    N1 1947   1.074   0.527   9.773  0.9069  0.1291  0.3069
  127MPD2    H7 1948   1.047   0.443   9.722 -0.7787  0.4818  0.6406
  128TCq2    C1 1949   1.131   0.507   9.895  0.4676  0.4189  0.2520
  128TCq2    O2 1950   1.215   0.579   9.949 -0.2427  0.2755 -1.0224
  128TCq2    C2 1951   1.100   0.375   9.956  0.0801  0.2935 -0.1519
  128TCq2    C3 1952   1.146   0.373  10.090  1.0211 -0.0162  0.3020
  128TCq2    C4 1953   1.068   0.307  10.183  0.8202 -0.0782  0.2475
  128TCq2    C5 1954   0.951   0.245  10.147  0.3649  0.4488 -0.3226
  128TCq2    C6 1955   0.911   0.239  10.014  0.1185  0.0350 -0.3127
  128TCq2    C7 1956   0.990   0.304   9.917  0.8029  0.7386 -0.1294
  128TCq2    C8 1957   0.768   0.224   9.980 -0.1767  0.4557  0.2149
  128TCq2    O4 1958   0.735   0.287   9.879  0.3782 -0.5597  0.3537
  128TCq2    C9 1959   1.111   0.313  10.321  0.1081 -0.4419 -0.4382
  128TCq2    O5 1960   1.034   0.273  10.418  0.1069 -0.4107  0.1657
  128TCq2    O6 1961   1.201   0.401  10.342 -0.0150  0.0662  0.3212
  128TCq2    H2 1962   1.237   0.425  10.116  2.0398 -1.4490 -0.4058
  128TCq2    H3 1963   0.886   0.210  10.227  0.8953 -0.5974 -0.3478
  128TCq2    H4 1964   0.962   0.313   9.813  1.0502  1.1536 -0.1584
  129MPD2     C 1965   2.423   1.433   0.848  0.3926 -0.0967 -0.4269
  129MPD2    C1 1966   2.539   1.494   0.894 -0.3908 -0.0917  0.4915
  129MPD2    C2 1967   2.580   1.610   0.828  0.0656  0.5158  0.6832
  129MPD2    C3 1968   2.502   1.678   0.736 -0.0956  0.6532  0.1310
  129MPD2    C4 1969   2.382   1.618   0.697  0.5819  0.1403 -0.1366
  129MPD2    C5 1970   2.344   1.498   0.758  0.6592 -0.3795  0.1821
  129MPD2     H 1971   2.670   1.661   0.862  0.5864  0.7257 -1.0139
  129MPD2    H1 1972   2.316   1.666   0.627  3.2744 -0.6989 -3.2598
  129MPD2    H2 1973   2.380   1.343   0.891 -0.8218  0.5325 -0.3199
  129MPD2    H3 1974   2.259   1.440   0.722  2.8614 -1.0242 -3.9487
  129MPD2     N 1975   2.545   1.802   0.690 -0.8201 -0.8474 -0.0344
  129MPD2    H5 1976   2.626   1.837   0.741 -0.5825 -2.9232  0.9994
  129MPD2    N1 1977   2.617   1.443   1.010  0.7905 -0.6535  0.7225
  129MPD2    H7 1978   2.698   1.496   1.040  0.9933  0.4918 -1.7886
  130TCq2    C1 1979   2.585   1.327   1.077 -0.3820 -0.1799  0.0778
  130TCq2    O2 1980   2.496   1.246   1.052 -0.6776 -0.4039  0.3640
  130TCq2    C2 1981   2.673   1.298   1.194  0.4319  0.1155 -0.1392
  130TCq2    C3 1982   2.772   1.391   1.231  0.3484 -0.9495  0.1111
  130TCq2    C4 1983   2.828   1.372   1.359  0.2753 -0.5488  0.0519
  130TCq2    C5 1984   2.790   1.267   1.439  0.2722 -0.6966 -1.1572
  130TCq2    C6 1985   2.701   1.177   1.385  0.1905  0.0340 -0.0454
  130TCq2    C7 1986   2.638   1.188   1.269  0.2740 -0.3845  0.0626
  130TCq2    C8 1987   2.660   1.062   1.463  0.6337 -0.3659 -0.4871
  130TCq2    O4 1988   2.567   0.994   1.434 -0.0048  0.2482 -0.2247
  130TCq2    C9 1989   2.931   1.463   1.406  1.4302  0.2829  0.1383
  130TCq2    O5 1990   2.979   1.544   1.320 -0.2329 -0.1406 -0.2337
  130TCq2    O6 1991   2.978   1.442   1.519  0.2410 -0.5122 -0.3452
  130TCq2    H2 1992   2.804   1.465   1.158  0.4417  1.8849  3.0384
  130TCq2    H3 1993   2.818   1.265   1.543  1.0683  2.0192 -1.3175
  130TCq2    H4 1994   2.554   1.123   1.244  1.2492 -0.7583 -2.2382
  131MPD2     C 1995   2.594   0.204   9.934  0.2212  0.1167  0.3099
  131MPD2    C1 1996   2.639   0.248  10.056 -0.6550  0.1051 -0.5004
  131MPD2    C2 1997   2.632   0.173  10.170  0.0579  0.3988  0.2014
  131MPD2    C3 1998   2.561   0.054  10.165  0.2004  0.4404 -0.3590
  131MPD2    C4 1999   2.509   0.010  10.046 -0.5000  0.0716 -0.2900
  131MPD2    C5 2000   2.536   0.081   9.926  0.0360  0.0193 -0.0524
  131MPD2     H 2001   2.676   0.199  10.265 -2.4810  0.1800  1.4444
  131MPD2    H1 2002   2.471   4.636  10.028 -2.8891  1.0649 -0.9004
  131MPD2    H2 2003   2.601   0.265   9.845 -0.0848  3.2233  2.3911
  131MPD2    H3 2004   2.529   0.030   9.830 -0.7390  2.7260 -1.4386
  131MPD2     N 2005   2.539   4.711  10.284 -0.2684  0.1306  0.1236
  131MPD2    H5 2006   2.585   0.016  10.369  0.2625  1.1065 -0.5102
  131MPD2    N1 2007   2.719   0.366  10.051 -0.2353 -0.2832  0.3161
  131MPD2    H7 2008   2.727   0.401   9.956 -2.0079  1.5714  0.8641
  132TCq2    C1 2009   2.968   0.849  10.244  0.4630 -0.9178 -1.0508
  132TCq2    O2 2010   2.873   0.881  10.319 -0.1438 -0.0483  0.1549
  132TCq2    C2 2011   2.956   0.750  10.137  0.5535  0.0243 -0.0948
  132TCq2    C3 2012   3.051   0.715  10.049 -0.1514 -0.3618 -1.1259
  132TCq2    C4 2013   3.049   0.590   9.985  0.3649 -0.5589  0.0046
  132TCq2    C5 2014   2.945   0.506  10.015  0.2671 -0.1579 -0.0056
  132TCq2    C6 2015   2.860   0.547  10.117 -0.0840 -0.1067 -0.7438
  132TCq2    C7 2016   2.860   0.666  10.179  0.1222  0.0359  0.2923
  132TCq2    C8 2017   2.764   0.442  10.158 -0.0048 -0.1239  1.4433
  132TCq2    O4 2018   2.741   0.440  10.277 -0.9777 -0.0795 -0.5137
  132TCq2    C9 2019   3.145   0.561   9.872  0.0286 -0.1496 -0.1167
  132TCq2    O5 2020   3.124   0.454   9.811 -0.3473 -0.1070 -0.4737
  132TCq2    O6 2021   3.238   0.642   9.856  0.4814  0.5958  0.4286
  132TCq2    H2 2022   3.132   0.784  10.026  1.0520 -0.9830  1.3322
  132TCq2    H3 2023   2.941   0.408   9.968 -0.5862 -0.2789  0.3172
  132TCq2    H4 2024   2.789   0.685  10.259 -1.7600 -0.0104 -1.3536
  133MPD2     C 2025   1.539   1.822   9.188 -0.5203 -0.0265 -0.0198
  133MPD2    C1 2026   1.667   1.797   9.225  0.5770  0.2632 -0.8262
  133MPD2    C2 2027   1.714   1.670   9.207 -0.0247 -0.3315  0.3335
  133MPD2    C3 2028   1.638   1.576   9.139 -0.2139 -0.3473 -0.0464
  133MPD2    C4 2029   1.512   1.606   9.098  0.3352 -0.3714 -0.2906
  133MPD2    C5 2030   1.465   1.731   9.118 -0.4710  0.0946  0.9875
  133MPD2     H 2031   1.811   1.642   9.245  0.3035 -1.9495 -1.7574
  133MPD2    H1 2032   1.456   1.531   9.042 -1.0780  0.0977  0.4965
  133MPD2    H2 2033   1.506   1.924   9.203  0.5305  0.4350 -0.8705
  133MPD2    H3 2034   1.368   1.768   9.088 -0.3824 -1.5778 -1.3770
  133MPD2     N 2035   1.678   1.443   9.134  0.1977  0.0326 -0.5903
  133MPD2    H5 2036   1.602   1.377   9.117  0.1868 -0.6716  2.0965
  133MPD2    N1 2037   1.740   1.896   9.302 -0.0677 -0.0448  0.3667
  133MPD2    H7 2038   1.683   1.978   9.323 -0.7546 -0.1345 -1.1912
  134TCq2    C1 2039   1.864   1.881   9.344  0.4319  0.7273  0.0077
  134TCq2    O2 2040   1.958   1.799   9.323 -0.5627  0.0320 -0.4065
  134TCq2    C2 2041   1.919   2.001   9.411 -0.1452 -0.4680  0.0750
  134TCq2    C3 2042   1.861   2.115   9.367  0.6889 -0.2282 -0.7540
  134TCq2    C4 2043   1.884   2.224   9.447 -0.1377  0.5485 -0.1411
  134TCq2    C5 2044   1.966   2.227   9.554 -0.5074 -0.2927 -0.2024
  134TCq2    C6 2045   2.012   2.104   9.600  0.7849  0.6885  0.2071
  134TCq2    C7 2046   1.985   1.993   9.527 -0.3808 -0.0033  1.0092
  134TCq2    C8 2047   2.034   2.083   9.741  0.3975 -0.0356 -0.1436
  134TCq2    O4 2048   2.060   1.969   9.778 -0.1642  0.6879  0.1273
  134TCq2    C9 2049   1.838   2.355   9.414  0.1358 -0.3385  0.2541
  134TCq2    O5 2050   1.832   2.441   9.503 -0.4300  0.3558 -0.2548
  134TCq2    O6 2051   1.771   2.365   9.310  0.2524  0.8189  0.3453
  134TCq2    H2 2052   1.794   2.122   9.282 -0.4407 -0.8205  0.1024
  134TCq2    H3 2053   1.986   2.323   9.599  0.6300 -0.0171 -1.2942
  134TCq2    H4 2054   2.032   1.900   9.557  0.0097  0.2612  1.2118
  135MPD2     C 2055   4.089   2.406   9.567 -0.0279  0.0789 -0.8338
  135MPD2    C1 2056   4.196   2.337   9.630  0.1776 -0.7532  0.3794
  135MPD2    C2 2057   4.309   2.330   9.551  0.2352  0.0326  0.4938
  135MPD2    C3 2058   4.313   2.369   9.416  0.3653  0.1653 -0.0090
  135MPD2    C4 2059   4.202   2.424   9.357  0.0240  0.7188 -0.1882
  135MPD2    C5 2060   4.093   2.445   9.433  0.0757  0.6332  0.0029
  135MPD2     H 2061   4.396   2.279   9.591  0.3069 -0.8313 -0.7475
  135MPD2    H1 2062   4.195   2.441   9.251 -2.5386  1.1799  0.0581
  135MPD2    H2 2063   3.988   2.414   9.605  0.7989  0.5937  1.3153
  135MPD2    H3 2064   4.001   2.481   9.388  0.1148 -0.4314 -0.9195
  135MPD2     N 2065   4.427   2.349   9.336 -0.6736  1.0264  0.4279
  135MPD2    H5 2066   4.421   2.376   9.238  0.3678 -1.1603 -0.2486
  135MPD2    N1 2067   4.203   2.296   9.765  0.5195 -0.1113  0.3225
  135MPD2    H7 2068   4.300   2.278   9.789  0.1595  1.0914  2.5944
  136TCq2    C1 2069   4.091   2.276   9.844  0.1931  0.0055  0.3409
  136TCq2    O2 2070   3.973   2.306   9.823  0.0813 -0.1436 -0.9104
  136TCq2    C2 2071   4.123   2.204   9.964  0.2769 -0.8948 -0.4916
  136TCq2    C3 2072   4.015   2.189  10.053 -0.3015 -0.4819  1.0862
  136TCq2    C4 2073   4.038   2.140  10.184  0.1142  0.2143  0.3786
  136TCq2    C5 2074   4.164   2.133  10.232 -0.3052  0.0860  0.1994
  136TCq2    C6 2075   4.269   2.151  10.146  0.6121 -0.1316 -0.7433
  136TCq2    C7 2076   4.254   2.184  10.013  0.2384 -0.2439  0.4824
  136TCq2    C8 2077   4.404   2.109  10.185  0.9648 -0.4487 -0.2636
  136TCq2    O4 2078   4.499   2.128  10.109 -0.4757 -0.2433 -0.0153
  136TCq2    C9 2079   3.935   2.101  10.277  0.8254 -0.4151  0.4026
  136TCq2    O5 2080   3.819   2.119  10.239 -1.0817  0.1263  0.2408
  136TCq2    O6 2081   3.972   2.021  10.367 -0.2674  0.0761  0.1967
  136TCq2    H2 2082   3.914   2.179  10.016  0.2981 -1.3255 -0.3363
  136TCq2    H3 2083   4.170   2.116  10.339  0.1423  0.7411  0.2794
  136TCq2    H4 2084   4.340   2.200   9.950  0.2655  0.0582  0.5944
  137MPD2     C 2085   0.074   0.338   9.625  0.4124 -0.3689  0.1041
  137MPD2    C1 2086   4.712   0.437   9.670  0.1385 -0.5413  0.0890
  137MPD2    C2 2087   0.034   0.538   9.748  0.0015  0.8906  0.3717
  137MPD2    C3 2088   0.171   0.549   9.783 -0.1262  0.0705 -0.4415
  137MPD2    C4 2089   0.256   0.456   9.733  0.0638 -0.6753 -0.2717
  137MPD2    C5 2090   0.208   0.356   9.651 -0.4304  0.0430  0.1844
  137MPD2     H 2091   4.682   0.587   9.806 -1.3649 -1.5137  0.5406
  137MPD2    H1 2092   0.363   0.468   9.743  0.0719  0.3904 -1.7255
  137MPD2    H2 2093   0.032   0.268   9.553  0.2515 -1.7530  1.5617
  137MPD2    H3 2094   0.281   0.293   9.602  0.5594  2.1480 -1.0335
  137MPD2     N 2095   0.218   0.657   9.866  0.2773  0.3185 -0.7307
  137MPD2    H5 2096   0.149   0.726   9.892  0.4107 -0.0326  0.5734
  137MPD2    N1 2097   4.577   0.422   9.634 -0.5969 -0.1059  0.1724
  137MPD2    H7 2098   4.557   0.343   9.574  1.8345 -1.1084  0.6946
  138TCq2    C1 2099   4.472   0.495   9.674  0.0961  0.0004  0.2791
  138TCq2    O2 2100   4.477   0.597   9.741 -0.3773  0.6964 -0.2219
  138TCq2    C2 2101   4.354   0.465   9.592 -0.5713 -0.5692  0.3078
  138TCq2    C3 2102   4.345   0.366   9.496  0.5024  0.3302 -0.5807
  138TCq2    C4 2103   4.233   0.355   9.421  0.4973  0.1550 -0.2890
  138TCq2    C5 2104   4.134   0.447   9.426 -0.0197  0.2431  0.3935
  138TCq2    C6 2105   4.151   0.552   9.510 -0.5021  0.5330 -0.3694
  138TCq2    C7 2106   4.250   0.558   9.603 -0.0818  0.7546  0.0016
  138TCq2    C8 2107   4.071   0.665   9.479 -0.0504 -0.2818 -0.0733
  138TCq2    O4 2108   4.040   0.692   9.359 -0.0370  0.2481  0.4741
  138TCq2    C9 2109   4.224   0.241   9.325 -0.4045  0.2368 -0.0253
  138TCq2    O5 2110   4.336   0.182   9.308  0.1416 -0.2770 -0.2683
  138TCq2    O6 2111   4.133   0.248   9.236  0.7636 -0.1190 -0.2345
  138TCq2    H2 2112   4.415   0.283   9.491 -0.9591 -0.8240 -2.0691
  138TCq2    H3 2113   4.059   0.437   9.348  1.1696 -1.4380 -0.5350
  138TCq2    H4 2114   4.264   0.648   9.662  2.0297  0.8387 -0.6338
  139TMC2    C1 2115   4.184   3.933  13.701 -0.3694  0.0780 -0.0139
  139TMC2    C2 2116   4.183   3.905  13.564  0.1380 -0.3389 -0.6082
  139TMC2    C3 2117   4.111   3.984  13.489 -0.1362  0.5548  0.0184
  139TMC2    C4 2118   4.116   4.041  13.753 -0.3254 -0.1773  0.3461
  139TMC2    C5 2119   4.038   4.118  13.673  0.5821  0.2395  0.1709
  139TMC2    C6 2120   4.046   4.095  13.538 -0.6364  0.2207 -0.5457
  139TMC2     C 2121   4.296   3.870  13.777  0.5793 -0.8346 -0.1253
  139TMC2     O 2122   4.333   3.939  13.873  0.3622 -0.1188  0.4204
  139TMC2     H 2123   4.250   3.834  13.516  0.7412 -2.1850  2.8931
  139TMC2    H1 2124   4.119   4.067  13.858  1.7154  0.8362  0.0364
  139TMC2    H2 2125   3.991   4.159  13.471  0.5575  1.0491 -0.7373
  139TMC2    C7 2126   3.953   4.231  13.713  0.3016  0.0613  0.1119
  139TMC2    C8 2127   4.127   3.959  13.349 -0.2412  0.1144  0.3782
  139TMC2    O1 2128   3.937   4.320  13.630  0.4076  0.0759  0.5834
  139TMC2    O2 2129   4.147   3.850  13.305  0.2069 -0.3783 -0.5325
  139TMC2    O5 2130   4.189   4.070  13.307  0.3644 -0.1678 -0.3586
  139TMC2    H5 2131   4.164   4.153  13.354  0.2910 -0.8428  0.7939
  140MPD2     C 2132   4.428   3.521  13.751  0.9958 -0.3968  0.1757
  140MPD2    C1 2133   4.430   3.661  13.770 -0.1580 -0.2019  0.2521
  140MPD2    C2 2134   4.541   3.723  13.825  0.0329  0.2752 -0.1942
  140MPD2    C3 2135   4.654   3.649  13.856  0.8718 -0.3907 -1.1184
  140MPD2    C4 2136   4.656   3.514  13.835 -0.0928 -0.3468 -0.4078
  140MPD2    C5 2137   4.539   3.452  13.779 -0.2813  0.0131 -0.0923
  140MPD2     H 2138   4.545   3.831  13.838  0.8783  0.0987  1.0110
  140MPD2    H1 2139   0.019   3.456  13.855 -0.0163  0.4610  1.6031
  140MPD2    H2 2140   4.345   3.474  13.700  1.0881 -0.5310  0.1509
  140MPD2    H3 2141   4.529   3.346  13.759  0.0637  0.2723 -1.6884
  140MPD2     N 2142   0.038   3.720  13.900 -0.6550 -0.0649 -0.2242
  140MPD2    H5 2143   0.036   3.821  13.904  1.3843 -0.0099 -0.5330
  140MPD2    N1 2144   4.317   3.737  13.738  0.1835 -0.1691  0.4406
  140MPD2    H7 2145   4.249   3.691  13.678  0.6312 -1.0490  0.6114
  141TCq2    C1 2146   0.299   0.901  14.641 -0.4241  0.2914  0.3242
  141TCq2    O2 2147   0.275   0.991  14.562 -0.0544  0.0540 -0.4792
  141TCq2    C2 2148   0.359   0.944  14.769 -0.7788 -0.0332  0.5673
  141TCq2    C3 2149   0.434   0.858  14.844  0.2683  0.2779 -0.5254
  141TCq2    C4 2150   0.528   0.912  14.930 -0.7961 -0.0983 -0.3730
  141TCq2    C5 2151   0.529   1.049  14.955 -0.0622 -0.5384 -0.6463
  141TCq2    C6 2152   0.447   1.129  14.890 -0.5175 -0.2529  0.9714
  141TCq2    C7 2153   0.371   1.085  14.784  0.4092 -0.1132 -0.2153
  141TCq2    C8 2154   0.442   1.274  14.913 -0.3896  0.2934 -0.0868
  141TCq2    O4 2155   0.400   1.348  14.827 -0.0960  0.3952  0.0937
  141TCq2    C9 2156   0.616   0.825  15.013  0.3355  0.2356 -0.0156
  141TCq2    O5 2157   0.717   0.872  15.068  0.4542  0.3285 -0.0944
  141TCq2    O6 2158   0.603   0.703  14.985  0.2781  0.2401  0.1885
  141TCq2    H2 2159   0.432   0.751  14.827 -1.8990  0.5083 -1.6713
  141TCq2    H3 2160   0.601   1.094  15.023  0.3620 -1.1085 -0.7182
  141TCq2    H4 2161   0.312   1.159  14.731  0.6769 -0.3519 -0.8514
  142MPD2     C 2162   2.608   4.223  10.632  0.6117  0.2769 -0.0120
  142MPD2    C1 2163   2.649   4.181  10.510 -0.4136  0.4793 -1.1066
  142MPD2    C2 2164   2.718   4.261  10.419 -0.7476  0.5649 -0.3632
  142MPD2    C3 2165   2.739   4.394  10.464 -0.2227  0.6512  0.3433
  142MPD2    C4 2166   2.710   4.431  10.592 -0.4490  0.0821 -0.4080
  142MPD2    C5 2167   2.634   4.351  10.677  0.2771 -0.2617 -0.3115
  142MPD2     H 2168   2.734   4.231  10.316 -1.7496  3.2693 -1.3021
  142MPD2    H1 2169   2.723   4.533  10.625  1.0545  0.2853 -1.6341
  142MPD2    H2 2170   2.545   4.164  10.698 -0.5695  0.3354 -1.0887
  142MPD2    H3 2171   2.598   4.380  10.775 -0.9362 -0.9757 -0.5473
  142MPD2     N 2172   2.824   4.483  10.397 -0.0379 -0.5702 -0.0747
  142MPD2    H5 2173   2.838   4.574  10.441  4.9516 -1.4865  0.2530
  142MPD2    N1 2174   2.602   4.049  10.480 -0.1268 -0.2893 -0.1599
  142MPD2    H7 2175   2.538   4.003  10.545 -0.2635  2.2384  1.4887
  143TCq2    C1 2176   2.873   4.466  10.269  0.5679  0.8336 -0.6009
  143TCq2    O2 2177   2.840   4.377  10.195  0.0900 -0.4924 -0.1537
  143TCq2    C2 2178   2.956   4.572  10.215 -0.0064  0.2852 -0.4038
  143TCq2    C3 2179   2.995   4.571  10.080 -0.5190  0.0692 -0.0976
  143TCq2    C4 2180   3.050   4.686  10.027 -0.1373 -0.7503  0.7100
  143TCq2    C5 2181   3.062   0.073  10.105 -0.2761  0.6504  0.3832
  143TCq2    C6 2182   3.025   0.070  10.237  0.5986  0.4355 -0.2840
  143TCq2    C7 2183   2.975   4.682  10.293  0.0605 -0.1946  0.1354
  143TCq2    C8 2184   3.029   0.192  10.319 -0.0960 -0.2695  0.3488
  143TCq2    O4 2185   2.960   0.188  10.424 -0.1110  0.0744  0.2270
  143TCq2    C9 2186   3.069   4.700   9.885  0.4125 -0.1075  1.1713
  143TCq2    O5 2187   3.094   0.090   9.833 -0.0542  0.2027 -0.0647
  143TCq2    O6 2188   3.035   4.601   9.814  0.4847  0.3228 -0.0984
  143TCq2    H2 2189   2.980   4.489  10.010 -0.6684 -0.8296  0.9910
  143TCq2    H3 2190   3.067   0.173  10.063 -1.0673  0.0070 -1.2258
  143TCq2    H4 2191   2.947   4.680  10.397 -1.1813 -1.4159 -0.2259
  144MPD2     C 2192   0.618   3.541   0.963  0.1967  0.2960 -0.1852
  144MPD2    C1 2193   0.629   3.414   0.907 -0.8371  0.3841  0.2078
  144MPD2    C2 2194   0.694   3.313   0.978  0.7452  0.0455 -0.7436
  144MPD2    C3 2195   0.735   3.346   1.108 -0.3754 -0.0836  0.7735
  144MPD2    C4 2196   0.716   3.471   1.158 -1.2358  0.9340  0.0968
  144MPD2    C5 2197   0.658   3.568   1.086 -0.5260 -0.3115 -0.0373
  144MPD2     H 2198   0.698   3.213   0.935 -2.0129 -0.5203  0.3116
  144MPD2    H1 2199   0.736   3.503   1.260  0.3122  0.7430 -0.1409
  144MPD2    H2 2200   0.576   3.625   0.907 -3.1844  0.2379  2.2761
  144MPD2    H3 2201   0.630   3.669   1.115 -1.0713 -0.1226 -1.1898
  144MPD2     N 2202   0.813   3.271   1.194 -0.3794  0.2618  0.2341
  144MPD2    H5 2203   0.837   3.305   1.287  1.1796 -0.3904  0.0739
  144MPD2    N1 2204   0.586   3.389   0.773 -0.1307  0.5983 -0.1043
  144MPD2    H7 2205   0.587   3.292   0.742 -2.4996  0.0418  1.5518
  145TCq2    C1 2206   0.862   3.147   1.169  0.6156  0.6274  0.0937
  145TCq2    O2 2207   0.848   3.067   1.077  0.2352  0.0800  0.2109
  145TCq2    C2 2208   0.938   3.093   1.284  0.7313  0.1205 -0.8419
  145TCq2    C3 2209   1.054   3.022   1.261  0.6680 -0.0861  0.0709
  145TCq2    C4 2210   1.137   2.990   1.367  0.0292  1.0366  0.5186
  145TCq2    C5 2211   1.115   3.037   1.486  0.3128  0.1573 -0.5907
  145TCq2    C6 2212   1.003   3.110   1.508  0.0911  0.0514 -0.6288
  145TCq2    C7 2213   0.913   3.139   1.410 -0.3394 -0.3206 -1.0082
  145TCq2    C8 2214   0.961   3.140   1.642  0.2673  0.2410  0.2109
  145TCq2    O4 2215   1.032   3.095   1.734 -0.2323  0.3184  0.0076
  145TCq2    C9 2216   1.256   2.915   1.346 -0.3136 -0.3274  0.4922
  145TCq2    O5 2217   1.328   2.880   1.446 -0.7443 -0.7542  0.3024
  145TCq2    O6 2218   1.282   2.907   1.228 -0.2439  0.2304 -0.4894
  145TCq2    H2 2219   1.067   2.978   1.163  0.6760 -2.1588  1.0033
  145TCq2    H3 2220   1.183   3.022   1.569 -1.0294 -0.4038  0.4119
  145TCq2    H4 2221   0.815   3.182   1.425 -0.4740 -0.3698 -1.7454
  146TMC2    C1 2222   1.869   2.376  13.041  0.5989  0.7841 -0.3818
  146TMC2    C2 2223   1.759   2.443  12.988  0.4047  0.2716 -0.4274
  146TMC2    C3 2224   1.656   2.369  12.933  0.5157 -0.4410 -1.0720
  146TMC2    C4 2225   1.869   2.238  13.044  0.0959 -0.1959 -0.6159
  146TMC2    C5 2226   1.772   2.172  12.974  0.0033 -0.4358  0.3071
  146TMC2    C6 2227   1.657   2.229  12.921  0.1964 -0.0261  0.2078
  146TMC2     C 2228   1.960   2.457  13.118  0.0798  0.2045  0.4191
  146TMC2     O 2229   1.955   2.577  13.098  0.2241 -0.3151 -0.6977
  146TMC2     H 2230   1.755   2.552  12.991  0.7160  0.2610  0.5180
  146TMC2    H1 2231   1.965   2.190  13.061 -0.2635 -0.4564  0.7094
  146TMC2    H2 2232   1.572   2.168  12.894  0.0481  1.0025 -1.6864
  146TMC2    C7 2233   1.782   2.025  12.967  0.0913 -0.4375 -0.2042
  146TMC2    C8 2234   1.549   2.438  12.871 -0.0668  0.0860 -0.3661
  146TMC2    O1 2235   1.713   1.964  12.890  0.2240  0.1783  0.6128
  146TMC2    O2 2236   1.545   2.558  12.842 -0.5971  0.3133 -0.3297
  146TMC2    O5 2237   1.442   2.364  12.917  0.2108 -0.7286 -0.0119
  146TMC2    H5 2238   1.462   2.282  12.967  0.6924 -0.3200  0.4658
  147MPD2     C 2239   1.899   1.569  13.166 -0.2743  0.5267 -0.1688
  147MPD2    C1 2240   1.972   1.654  13.243 -0.2665 -0.4175 -0.9586
  147MPD2    C2 2241   1.952   1.791  13.208  0.5100 -0.1501 -0.1345
  147MPD2    C3 2242   1.872   1.837  13.099  0.5484  0.4257 -0.0143
  147MPD2    C4 2243   1.825   1.737  13.016  0.0838 -0.2563  0.5649
  147MPD2    C5 2244   1.842   1.605  13.047  0.2408 -0.5989 -0.3531
  147MPD2     H 2245   2.002   1.863  13.272 -0.0989  1.2089 -1.2022
  147MPD2    H1 2246   1.768   1.755  12.926 -1.3656  0.1326  1.5752
  147MPD2    H2 2247   1.894   1.462  13.185 -1.4983  0.0190 -3.2672
  147MPD2    H3 2248   1.800   1.527  12.986 -1.5675  1.8879 -2.3050
  147MPD2     N 2249   1.851   1.973  13.075 -0.1239  0.1640 -0.3145
  147MPD2    H5 2250   1.887   2.042  13.140 -0.2296 -1.1839  1.1825
  147MPD2    N1 2251   2.049   1.599  13.354  0.1379 -0.1503  0.2364
  147MPD2    H7 2252   2.031   1.502  13.379 -0.1050  0.3463  1.9913
  148MPD2     C 2253   2.099   0.370  11.372 -0.5083  0.4846 -0.3182
  148MPD2    C1 2254   2.152   0.430  11.257 -0.3477  0.2004 -1.0576
  148MPD2    C2 2255   2.091   0.405  11.134 -0.8941 -0.5072  0.2655
  148MPD2    C3 2256   1.977   0.321  11.137  0.0988  0.2344  0.2314
  148MPD2    C4 2257   1.931   0.258  11.254  0.5265 -0.6368 -0.5057
  148MPD2    C5 2258   1.990   0.291  11.370  0.4739  0.3037 -0.2236
  148MPD2     H 2259   2.126   0.447  11.040 -1.8630  1.4190  0.7759
  148MPD2    H1 2260   1.843   0.195  11.258 -0.4788  0.6858 -1.8360
  148MPD2    H2 2261   2.137   0.386  11.472 -1.2312 -0.3398  0.0942
  148MPD2    H3 2262   1.967   0.251  11.468 -0.9557  0.5095 -0.4728
  148MPD2     N 2263   1.899   0.301  11.017 -0.0179  0.5149 -0.0576
  148MPD2    H5 2264   1.869   0.206  10.999  0.9982 -0.0174  1.0167
  148MPD2    N1 2265   2.267   0.516  11.254 -0.1893  0.3233 -0.0673
  148MPD2    H7 2266   2.299   0.560  11.169 -0.5778  1.0605  0.1626
  149TCq2    C1 2267   2.346   0.547  11.362  0.0753  1.2556 -0.2828
  149TCq2    O2 2268   2.344   0.514  11.479 -0.3292 -0.2370 -0.2454
  149TCq2    C2 2269   2.445   0.639  11.325 -0.7509 -0.6315  0.3907
  149TCq2    C3 2270   2.563   0.632  11.395  0.4234  0.2616  0.2688
  149TCq2    C4 2271   2.665   0.710  11.348  0.5010 -0.5130  0.3201
  149TCq2    C5 2272   2.669   0.762  11.218  0.5683 -0.7450  0.4388
  149TCq2    C6 2273   2.554   0.753  11.147  0.0475 -0.1017 -0.3021
  149TCq2    C7 2274   2.439   0.702  11.200  0.3449  0.4545  0.4207
  149TCq2    C8 2275   2.565   0.722  11.002  0.8397  0.1788 -0.4784
  149TCq2    O4 2276   2.470   0.656  10.960  0.3996 -0.0862 -0.1936
  149TCq2    C9 2277   2.789   0.706  11.413 -0.0063 -0.8744  0.0788
  149TCq2    O5 2278   2.788   0.643  11.520 -0.2082 -0.1452 -0.3231
  149TCq2    O6 2279   2.886   0.762  11.363 -0.4361  0.1336  0.5278
  149TCq2    H2 2280   2.577   0.558  11.472 -0.7801  1.1878  1.3767
  149TCq2    H3 2281   2.762   0.799  11.178  0.0452  0.7632  0.6352
  149TCq2    H4 2282   2.347   0.713  11.143 -0.3196  0.6447  1.5440
  150MPD2     C 2283   4.152   4.636  12.665 -0.0380  0.6927  0.3281
  150MPD2    C1 2284   4.131   4.709  12.547  0.5108  0.3053 -0.7893
  150MPD2    C2 2285   4.228   0.076  12.515 -0.2800  0.0813  0.0018
  150MPD2    C3 2286   4.342   0.094  12.591  0.4486 -0.5858  0.5168
  150MPD2    C4 2287   4.348   0.019  12.707 -0.6896  0.3478  0.3974
  150MPD2    C5 2288   4.253   4.659  12.750 -0.1006  0.0186  0.3115
  150MPD2     H 2289   4.220   0.137  12.426 -0.2828 -2.4178 -1.6832
  150MPD2    H1 2290   4.436   0.035  12.768 -1.1265  0.6402  0.9416
  150MPD2    H2 2291   4.081   4.559  12.693 -0.0672  1.0369  1.1908
  150MPD2    H3 2292   4.261   4.606  12.844 -0.3391 -0.2755  0.1650
  150MPD2     N 2293   4.437   0.181  12.538 -0.4010 -0.3865  0.1799
  150MPD2    H5 2294   4.411   0.226  12.451 -1.0545  0.3085  0.7259
  150MPD2    N1 2295   4.008   4.698  12.474 -0.7300  0.6862 -0.1858
  150MPD2    H7 2296   3.928   4.655  12.519 -0.2769 -0.6569 -0.6538
  151TCq2    C1 2297   4.560   0.216  12.599  0.0224  0.1974  0.0047
  151TCq2    O2 2298   4.586   0.216  12.718 -0.0610 -0.0583 -0.1364
  151TCq2    C2 2299   4.643   0.291  12.505  0.1619  0.7128  0.3826
  151TCq2    C3 2300   4.612   0.277  12.371  0.5743  0.4921 -0.3224
  151TCq2    C4 2301   4.681   0.348  12.272 -0.3947 -1.0661  0.7490
  151TCq2    C5 2302   0.058   0.434  12.313  0.0604 -0.4891  0.5186
  151TCq2    C6 2303   0.082   0.448  12.448  0.1940 -0.0456  0.2091
  151TCq2    C7 2304   0.021   0.367  12.545  0.5829  0.4021  0.4932
  151TCq2    C8 2305   0.216   0.483  12.477  0.5261  0.4116  0.1881
  151TCq2    O4 2306   0.271   0.567  12.407 -0.2262  0.5468  0.4067
  151TCq2    C9 2307   4.648   0.333  12.129 -0.3316 -0.4434 -0.6548
  151TCq2    O5 2308   4.592   0.227  12.094  0.0021 -0.2434  0.4434
  151TCq2    O6 2309   4.686   0.425  12.051 -0.2724 -0.5124 -0.0414
  151TCq2    H2 2310   4.541   0.210  12.323  0.5556 -0.1376  0.5918
  151TCq2    H3 2311   0.115   0.494  12.243  0.2555 -2.5935 -1.1358
  151TCq2    H4 2312   0.033   0.373  12.652 -0.4244 -0.8621  0.6845
  152MPD2     C 2313   3.750   4.595  12.780 -0.0708 -0.0207 -0.7560
  152MPD2    C1 2314   3.755   0.004  12.750 -0.8547  0.5058 -0.5531
  152MPD2    C2 2315   3.646   0.053  12.679 -0.1028 -0.2220  0.0418
  152MPD2    C3 2316   3.542   4.696  12.642 -0.1894 -0.3871 -0.3905
  152MPD2    C4 2317   3.536   4.563  12.674  0.3856 -0.7363  0.1894
  152MPD2    C5 2318   3.645   4.513  12.742  0.0906  0.1301 -0.8649
  152MPD2     H 2319   3.656   0.153  12.636  1.1711 -1.7555 -3.2402
  152MPD2    H1 2320   3.463   4.492  12.637  0.4370 -0.8754  0.3549
  152MPD2    H2 2321   3.841   4.546  12.812 -0.1479  0.5992  0.4107
  152MPD2    H3 2322   3.654   4.409  12.768  0.5823  0.1973 -0.7654
  152MPD2     N 2323   3.437   0.027  12.571 -0.0212 -0.3627 -0.1610
  152MPD2    H5 2324   3.447   0.121  12.533 -1.1929 -0.6749 -1.2621
  152MPD2    N1 2325   3.875   0.075  12.774 -0.4986 -0.4460 -0.7443
  152MPD2    H7 2326   3.936   0.033  12.843 -0.9198  0.5199  0.2214
  153TCq2    C1 2327   3.891   0.204  12.743 -0.3570 -0.1281 -0.7897
  153TCq2    O2 2328   3.836   0.275  12.662  0.0080 -0.1285 -0.1926
  153TCq2    C2 2329   4.016   0.261  12.809  0.5897 -0.1261  0.6542
  153TCq2    C3 2330   4.069   0.197  12.919 -0.4275  0.0310 -0.0416
  153TCq2    C4 2331   4.186   0.232  12.971 -0.3250  0.6848  0.3436
  153TCq2    C5 2332   4.254   0.337  12.908 -1.2152  0.2642  0.1341
  153TCq2    C6 2333   4.201   0.393  12.797 -0.2208 -0.1896 -0.1326
  153TCq2    C7 2334   4.076   0.365  12.753  0.1331  0.6220  0.2074
  153TCq2    C8 2335   4.290   0.464  12.703 -0.0342 -0.1895 -1.1282
  153TCq2    O4 2336   4.237   0.506  12.600 -0.1160 -0.0597 -0.4994
  153TCq2    C9 2337   4.241   0.159  13.082  0.3030  0.9106 -0.2386
  153TCq2    O5 2338   4.348   0.202  13.126  0.1755  0.0345 -0.1819
  153TCq2    O6 2339   4.162   0.090  13.148  0.2711 -0.9221 -0.3124
  153TCq2    H2 2340   4.018   0.117  12.971 -0.3004  0.4872  0.7824
  153TCq2    H3 2341   4.346   0.368  12.957 -0.5537 -0.1355 -0.8408
  153TCq2    H4 2342   4.039   0.421  12.668 -0.1540 -1.0447 -0.7432
  154MPD2     C 2343   0.773   4.592   0.690 -0.4185 -0.0780  0.1613
  154MPD2    C1 2344   0.741   4.471   0.752  0.0441  0.1697  0.5317
  154MPD2    C2 2345   0.609   4.450   0.792  0.0269 -0.1374  0.0376
  154MPD2    C3 2346   0.509   4.545   0.771 -0.1213  0.1594 -0.7519
  154MPD2    C4 2347   0.546   4.671   0.727  0.1353  0.3810 -0.6584
  154MPD2    C5 2348   0.679   4.695   0.694 -0.0773 -0.2611 -0.5728
  154MPD2     H 2349   0.583   4.354   0.837  0.9462  1.4128  3.9312
  154MPD2    H1 2350   0.479   0.031   0.730 -0.7876 -0.4365  3.0108
  154MPD2    H2 2351   0.876   4.613   0.661  0.1734 -1.6492  1.0936
  154MPD2    H3 2352   0.710   0.067   0.662  0.6250 -0.5758 -0.8541
  154MPD2     N 2353   0.373   4.507   0.806 -0.2127  0.0688  0.8564
  154MPD2    H5 2354   0.364   4.415   0.846  0.5548  0.6085  2.2930
  154MPD2    N1 2355   0.846   4.382   0.765 -0.1627  0.4616 -0.0373
  154MPD2    H7 2356   0.934   4.410   0.722 -0.1602 -0.3706 -0.5715
  155TCq2    C1 2357   0.846   4.257   0.820  0.1312  0.1921  0.5636
  155TCq2    O2 2358   0.752   4.193   0.864 -0.2228 -0.5123  0.0133
  155TCq2    C2 2359   0.978   4.200   0.810 -0.1142 -0.0794 -0.4716
  155TCq2    C3 2360   0.997   4.082   0.879  0.6560  0.1535  0.0366
  155TCq2    C4 2361   1.118   4.028   0.894  0.5504 -0.3228  0.5934
  155TCq2    C5 2362   1.219   4.079   0.821  0.2309  0.8717  0.2494
  155TCq2    C6 2363   1.196   4.189   0.744 -0.9715 -0.4823 -0.1134
  155TCq2    C7 2364   1.077   4.255   0.735  0.2625  0.0590  0.2040
  155TCq2    C8 2365   1.309   4.260   0.693 -0.8612  1.0256  0.1591
  155TCq2    O4 2366   1.310   4.382   0.679 -0.2036 -0.2341  0.1915
  155TCq2    C9 2367   1.139   3.912   0.981  0.1856  0.7685  0.0789
  155TCq2    O5 2368   1.257   3.863   0.972  0.2828  0.0803  0.1570
  155TCq2    O6 2369   1.041   3.889   1.059 -0.2318 -0.2213  0.2994
  155TCq2    H2 2370   0.914   4.037   0.932  0.6143 -0.9170 -0.9356
  155TCq2    H3 2371   1.319   4.038   0.832  0.3075  0.0616 -3.7548
  155TCq2    H4 2372   1.066   4.340   0.668 -2.9522 -1.9478 -1.7974
  156MPD2     C 2373   3.996   2.333  11.480  0.2570 -0.1642  0.7852
  156MPD2    C1 2374   3.860   2.348  11.470  0.0191  1.0661  0.2305
  156MPD2    C2 2375   3.774   2.322  11.578 -0.1267  0.6418  0.2050
  156MPD2    C3 2376   3.830   2.314  11.706 -0.5900 -0.0071  0.3233
  156MPD2    C4 2377   3.972   2.307  11.713 -0.1877 -0.5140 -0.3159
  156MPD2    C5 2378   4.050   2.309  11.604 -0.2857 -0.0514  0.1935
  156MPD2     H 2379   3.666   2.329  11.565  0.1850  1.4622 -1.9966
  156MPD2    H1 2380   4.018   2.288  11.810 -0.2958  0.8331 -0.0022
  156MPD2    H2 2381   4.058   2.359  11.395 -1.0395 -0.7228 -0.3341
  156MPD2    H3 2382   4.158   2.307  11.616 -0.2999 -0.1220  0.3128
  156MPD2     N 2383   3.750   2.334  11.819  0.3861  0.3713  0.9150
  156MPD2    H5 2384   3.652   2.347  11.798  1.1152  1.7916 -1.5153
  156MPD2    N1 2385   3.806   2.364  11.339 -0.1225  0.2059  0.0892
  156MPD2    H7 2386   3.875   2.373  11.265  0.0835  0.3747  0.3023
  157TCq2    C1 2387   3.674   2.349  11.297 -1.1232 -0.2867 -0.2170
  157TCq2    O2 2388   3.572   2.314  11.352  0.8685  0.2111 -0.0365
  157TCq2    C2 2389   3.658   2.391  11.162  0.0300  0.5432  0.8804
  157TCq2    C3 2390   3.573   2.321  11.086 -0.4790  0.3195 -0.0559
  157TCq2    C4 2391   3.539   2.368  10.960 -0.0627  0.3009 -0.5124
  157TCq2    C5 2392   3.596   2.481  10.909 -0.0522 -0.1648 -0.0906
  157TCq2    C6 2393   3.695   2.535  10.986  0.3427 -0.1665 -0.0400
  157TCq2    C7 2394   3.732   2.499  11.112 -0.2299 -0.5156  0.8744
  157TCq2    C8 2395   3.689   2.685  10.991 -0.4307  1.1670  0.2188
  157TCq2    O4 2396   3.791   2.747  11.011 -0.1938 -0.0128 -0.0524
  157TCq2    C9 2397   3.442   2.301  10.876 -0.4036  0.5044 -0.1965
  157TCq2    O5 2398   3.355   2.226  10.931 -0.1638 -0.5176 -0.4134
  157TCq2    O6 2399   3.429   2.360  10.763  0.1239 -0.2532 -0.1615
  157TCq2    H2 2400   3.535   2.229  11.128  0.0998  0.4675  0.8004
  157TCq2    H3 2401   3.580   2.522  10.809 -2.2897 -0.4628  0.1518
  157TCq2    H4 2402   3.795   2.560  11.176  1.7390 -0.2450 -1.3334
  158TMC2    C1 2403   4.435   1.156  13.863 -0.7877 -0.3934  0.9290
  158TMC2    C2 2404   4.500   1.253  13.792  0.6002  0.5804  0.4068
  158TMC2    C3 2405   4.505   1.231  13.657 -0.1752 -0.8266 -0.0672
  158TMC2    C4 2406   4.377   1.050  13.805  0.2878  0.6034 -0.2449
  158TMC2    C5 2407   4.384   1.031  13.669  0.3224 -0.1741 -0.3425
  158TMC2    C6 2408   4.460   1.121  13.593 -0.4585  0.2494  0.0056
  158TMC2     C 2409   4.466   1.167  14.005  0.5497  0.0736  0.4176
  158TMC2     O 2410   4.483   1.281  14.047  0.0357  0.1972 -0.2891
  158TMC2     H 2411   4.540   1.337  13.848  1.6550  1.5836 -1.8633
  158TMC2    H1 2412   4.314   0.986  13.866 -0.3779  2.7294  1.2709
  158TMC2    H2 2413   4.474   1.109  13.486 -0.0606  1.8438 -0.1112
  158TMC2    C7 2414   4.320   0.913  13.602  0.1821 -0.0234  0.3766
  158TMC2    C8 2415   4.593   1.331  13.589 -0.2649 -0.4300  0.2210
  158TMC2    O1 2416   4.371   0.869  13.500  0.3933 -0.2646  0.0470
  158TMC2    O2 2417   4.711   1.349  13.623  0.2172  0.0657  0.3545
  158TMC2    O5 2418   4.550   1.330  13.463  0.2354  0.1744 -0.1544
  158TMC2    H5 2419   4.459   1.298  13.447  1.2191 -2.9669  0.6394
  159MPD2     C 2420   4.592   0.945  14.450  0.0265  0.8937  0.5278
  159MPD2    C1 2421   4.541   0.852  14.364 -0.2185 -0.3086 -0.2730
  159MPD2    C2 2422   4.488   0.886  14.244 -0.0361  0.3745  0.5649
  159MPD2    C3 2423   4.502   1.023  14.203 -0.1856 -0.0919  0.6235
  159MPD2    C4 2424   4.563   1.112  14.282  1.0701  0.1004 -0.3704
  159MPD2    C5 2425   4.614   1.072  14.402  0.3487 -0.0406 -0.4616
  159MPD2     H 2426   4.427   0.816  14.187  1.7021 -1.3470  0.8090
  159MPD2    H1 2427   4.575   1.216  14.255  0.5739  0.5198  1.0198
  159MPD2    H2 2428   4.628   0.911  14.547  0.6828  0.7700  0.2406
  159MPD2    H3 2429   4.666   1.137  14.472 -2.6253  0.2921  1.4599
  159MPD2     N 2430   4.457   1.050  14.067  0.6273  0.0900 -0.3352
  159MPD2    H5 2431   4.423   0.972  14.012  1.6081  1.3692 -2.7754
  159MPD2    N1 2432   4.530   0.723  14.421 -0.2195  0.4672  0.1603
  159MPD2    H7 2433   4.559   0.707  14.517 -1.2492  2.5252  0.8069
  160TMC2    C1 2434   4.548   3.161   1.288  0.4647 -0.1210  0.1935
  160TMC2    C2 2435   4.552   3.025   1.278 -0.2497 -0.1132 -0.5343
  160TMC2    C3 2436   4.608   2.971   1.164  0.1519  0.4525  0.1314
  160TMC2    C4 2437   4.592   3.237   1.181  0.3918  0.2638  0.6951
  160TMC2    C5 2438   4.636   3.173   1.066  0.1966  0.9629 -1.0521
  160TMC2    C6 2439   4.655   3.035   1.057  0.0189 -0.5785 -0.4548
  160TMC2     C 2440   4.517   3.216   1.419  0.0117  0.1442 -0.9063
  160TMC2     O 2441   4.493   3.134   1.510  0.1814  0.7749  0.1297
  160TMC2     H 2442   4.538   2.964   1.367 -1.0133 -0.5223 -0.9331
  160TMC2    H1 2443   4.597   3.345   1.183  1.9328  0.1935  0.3446
  160TMC2    H2 2444   4.702   2.989   0.971  1.5699 -1.4703  0.8880
  160TMC2    C7 2445   4.682   3.251   0.949  0.2491 -0.3941  1.6082
  160TMC2    C8 2446   4.632   2.830   1.157  0.4243 -1.4321  0.3642
  160TMC2    O1 2447   0.002   3.192   0.851 -0.3948 -0.2891  0.5423
  160TMC2    O2 2448   0.005   2.783   1.103 -0.0996  0.2521  0.3286
  160TMC2    O5 2449   4.545   2.765   1.235 -0.5117  0.8754  0.0831
  160TMC2    H5 2450   4.459   2.811   1.244 -1.5827 -0.9824 -0.7840
  161MPD2     C 2451   4.428   3.391   1.634  0.8714 -0.7473  0.0160
  161MPD2    C1 2452   4.417   3.428   1.502 -0.0278  0.3168  0.3003
  161MPD2    C2 2453   4.330   3.523   1.460 -0.0078  0.2324 -0.5814
  161MPD2    C3 2454   4.254   3.587   1.553  0.7595 -0.5232 -0.1405
  161MPD2    C4 2455   4.266   3.557   1.688  0.2809  0.2063 -0.0496
  161MPD2    C5 2456   4.354   3.460   1.724  0.5979  0.1749 -0.4804
  161MPD2     H 2457   4.306   3.525   1.354 -0.3802  0.4000 -0.4935
  161MPD2    H1 2458   4.208   3.615   1.759  1.6087  1.3208  0.1297
  161MPD2    H2 2459   4.493   3.310   1.666 -0.3280 -1.3679  0.8443
  161MPD2    H3 2460   4.359   3.431   1.829  1.4807 -1.5612 -0.9955
  161MPD2     N 2461   4.159   3.690   1.512 -0.2470  0.4088  0.2632
  161MPD2    H5 2462   4.087   3.718   1.578 -2.9776 -0.2965 -2.3507
  161MPD2    N1 2463   4.475   3.350   1.403 -0.5024 -0.3065  0.0632
  161MPD2    H7 2464   4.463   3.379   1.306 -0.3779 -1.7395 -0.3844
  162TMC2    C1 2465   1.607   0.644   1.304  0.4737  0.1568 -0.8397
  162TMC2    C2 2466   1.524   0.685   1.208 -0.1930 -0.1166  1.2101
  162TMC2    C3 2467   1.453   0.799   1.230  0.2303 -0.6110 -0.3267
  162TMC2    C4 2468   1.619   0.711   1.422  0.0829  0.6476 -0.1547
  162TMC2    C5 2469   1.525   0.809   1.444  0.5458 -0.9135 -0.0915
  162TMC2    C6 2470   1.447   0.855   1.352 -0.5914  0.2582  0.0918
  162TMC2     C 2471   1.735   0.606   1.243 -0.7531 -0.0168 -0.1772
  162TMC2     O 2472   1.766   0.641   1.131 -0.3822  0.4605 -0.4084
  162TMC2     H 2473   1.547   0.654   1.107 -1.0085  0.6877  0.7738
  162TMC2    H1 2474   1.674   0.663   1.503 -1.9168 -2.0767 -0.4168
  162TMC2    H2 2475   1.374   0.932   1.376 -0.8756  0.9166 -2.9185
  162TMC2    C7 2476   1.506   0.854   1.575 -0.3131  0.5452 -0.1655
  162TMC2    C8 2477   1.374   0.855   1.126  0.1453  0.2925 -1.0880
  162TMC2    O1 2478   1.389   0.851   1.615  0.2434  0.3741  0.4385
  162TMC2    O2 2479   1.323   0.786   1.040  0.2277 -0.7577  0.6168
  162TMC2    O5 2480   1.408   0.982   1.116 -0.3526 -0.3003  0.2086
  162TMC2    H5 2481   1.447   1.018   1.198 -1.1956 -1.3081  1.0491
  163MPD2     C 2482   2.196   0.395   1.294 -0.8093 -0.1086 -0.3966
  163MPD2    C1 2483   2.158   0.498   1.214  0.6480  0.4795  0.6973
  163MPD2    C2 2484   2.028   0.540   1.216  0.4044 -0.4380 -0.6950
  163MPD2    C3 2485   1.935   0.482   1.300  0.0575 -0.5612  0.4608
  163MPD2    C4 2486   1.979   0.384   1.384  0.1859 -0.9965  0.7103
  163MPD2    C5 2487   2.108   0.333   1.386 -0.2709 -0.4567 -0.0647
  163MPD2     H 2488   2.000   0.626   1.156  0.6787  1.6386  2.1159
  163MPD2    H1 2489   1.911   0.350   1.462 -3.6355  2.4170 -1.1345
  163MPD2    H2 2490   2.293   0.347   1.304 -0.7352 -0.2000 -1.5368
  163MPD2    H3 2491   2.138   0.251   1.449  1.0143 -0.0738 -0.1819
  163MPD2     N 2492   1.807   0.528   1.328 -0.6538 -0.1534 -0.5378
  163MPD2    H5 2493   1.752   0.491   1.405 -0.2512 -1.2029 -0.7659
  163MPD2    N1 2494   2.254   0.548   1.127 -0.1248  0.4541 -0.6553
  163MPD2    H7 2495   2.349   0.514   1.143 -0.4139  0.3880  0.9069
  164TCq2    C1 2496   2.730   0.815  11.843 -0.2854  0.2029  0.5722
  164TCq2    O2 2497   2.672   0.862  11.938 -0.1616  0.7154  0.6441
  164TCq2    C2 2498   2.813   0.903  11.768  0.1921  0.4334  0.8182
  164TCq2    C3 2499   2.922   0.857  11.695 -0.0860  0.5438  0.1296
  164TCq2    C4 2500   2.986   0.953  11.620 -0.5826  0.3208  0.2534
  164TCq2    C5 2501   2.926   1.067  11.584  0.0113 -0.0321 -0.2925
  164TCq2    C6 2502   2.808   1.096  11.644 -0.2391 -0.1849 -0.3273
  164TCq2    C7 2503   2.757   1.023  11.744  0.0519 -0.0521  0.2193
  164TCq2    C8 2504   2.748   1.223  11.617 -0.3539 -0.2245 -0.3199
  164TCq2    O4 2505   2.727   1.260  11.500 -0.4528 -0.2866  0.3664
  164TCq2    C9 2506   3.115   0.913  11.558 -0.4818 -0.1706  0.5361
  164TCq2    O5 2507   3.147   0.792  11.569  0.2265  0.4081 -0.4161
  164TCq2    O6 2508   3.189   1.000  11.500  0.7196 -0.1878  0.3198
  164TCq2    H2 2509   2.975   0.767  11.726 -1.1600  0.0480  0.5225
  164TCq2    H3 2510   2.968   1.136  11.512  2.2232  2.2112  3.1370
  164TCq2    H4 2511   2.672   1.056  11.803  0.3887 -0.9839  1.2093
  165MPD2     C 2512   3.383   2.834   1.230 -0.4906  0.1143  0.5514
  165MPD2    C1 2513   3.340   2.967   1.238  0.1819 -0.1636 -0.4026
  165MPD2    C2 2514   3.430   3.062   1.292 -0.0530  0.2676 -0.2759
  165MPD2    C3 2515   3.549   3.024   1.357  0.2981  0.0829  0.2424
  165MPD2    C4 2516   3.583   2.891   1.351  0.1816 -0.2680 -0.2004
  165MPD2    C5 2517   3.501   2.803   1.286  0.0649  0.2600 -0.2946
  165MPD2     H 2518   3.392   3.164   1.290 -0.6932 -0.0427 -3.4557
  165MPD2    H1 2519   3.670   2.852   1.404 -0.1060 -0.1316  0.3640
  165MPD2    H2 2520   3.318   2.756   1.192  0.0519 -0.6424  1.1669
  165MPD2    H3 2521   3.544   2.703   1.296 -1.3269 -0.0910  2.2102
  165MPD2     N 2522   3.629   3.114   1.430  0.7463  0.3345  0.1987
  165MPD2    H5 2523   3.712   3.073   1.474  0.1481  0.6915  1.6527
  165MPD2    N1 2524   3.214   2.998   1.197  0.3890 -0.6192  0.2496
  165MPD2    H7 2525   3.162   2.913   1.181 -0.0248 -0.6356  1.6930
  166TCq2    C1 2526   3.619   3.255   1.434  0.2920  0.1288  0.0354
  166TCq2    O2 2527   3.536   3.332   1.396 -0.6407  0.1932 -0.1946
  166TCq2    C2 2528   3.737   3.310   1.503 -0.2924 -0.5664 -0.2319
  166TCq2    C3 2529   3.738   3.446   1.520  0.6667  0.1379  0.0504
  166TCq2    C4 2530   3.836   3.515   1.594 -0.5607 -0.1752  0.2105
  166TCq2    C5 2531   3.933   3.439   1.651 -0.3537  0.5992 -0.1380
  166TCq2    C6 2532   3.936   3.305   1.639  0.8332  0.2104 -0.5949
  166TCq2    C7 2533   3.832   3.236   1.570 -0.7344  0.6564  0.1019
  166TCq2    C8 2534   4.038   3.223   1.695 -0.6808 -0.3802 -0.7526
  166TCq2    O4 2535   4.075   3.132   1.626  0.1743  0.1294  0.0835
  166TCq2    C9 2536   3.838   3.661   1.613 -0.3274  0.0577  0.1624
  166TCq2    O5 2537   3.738   3.726   1.571  0.1873 -0.2712 -0.0410
  166TCq2    O6 2538   3.935   3.711   1.676  0.5298  0.2581  0.2891
  166TCq2    H2 2539   3.655   3.504   1.481  0.0801 -0.4460  0.4462
  166TCq2    H3 2540   3.998   3.497   1.716 -0.3736 -0.4321  0.7925
  166TCq2    H4 2541   3.834   3.128   1.567  0.8386  0.7455 -2.5758
  167TMC2    C1 2542   1.773   0.936  13.161  0.5932 -0.6145  0.4859
  167TMC2    C2 2543   1.707   0.962  13.281  0.4285 -0.0668 -0.1732
  167TMC2    C3 2544   1.701   0.866  13.372 -0.1897 -0.3293 -0.1471
  167TMC2    C4 2545   1.844   0.818  13.142 -0.2033  0.1365  0.1945
  167TMC2    C5 2546   1.828   0.721  13.236  0.0589  0.3559 -0.0321
  167TMC2    C6 2547   1.759   0.740  13.352  0.3114 -0.2320  0.8133
  167TMC2     C 2548   1.783   1.047  13.071  0.0714  0.1954  0.4791
  167TMC2     O 2549   1.721   1.143  13.109 -0.4362 -0.0262 -0.3970
  167TMC2     H 2550   1.642   1.048  13.287 -1.5650 -1.8231  3.0992
  167TMC2    H1 2551   1.883   0.782  13.048  0.0270  1.0352 -0.0538
  167TMC2    H2 2552   1.769   0.665  13.429  0.2600  2.3335  3.3254
  167TMC2    C7 2553   1.876   0.590  13.214  0.1204 -0.4005  0.1535
  167TMC2    C8 2554   1.620   0.884  13.495  0.0940  0.6451 -0.8439
  167TMC2    O1 2555   1.842   0.503  13.295 -0.3088 -0.0265  0.1547
  167TMC2    O2 2556   1.591   0.799  13.581 -0.2208 -0.6177  0.0991
  167TMC2    O5 2557   1.648   1.007  13.537 -0.4114  0.1685 -0.3588
  167TMC2    H5 2558   1.695   1.070  13.478 -0.5529  1.3554  0.7872
  168MPD2     C 2559   1.853   1.261  12.875 -0.3380 -0.5882  0.0704
  168MPD2    C1 2560   1.884   1.124  12.856 -0.5604  0.0446 -0.6797
  168MPD2    C2 2561   1.936   1.078  12.737 -0.1957  0.0687  0.1238
  168MPD2    C3 2562   1.952   1.161  12.630  0.9488  0.6354 -0.3838
  168MPD2    C4 2563   1.911   1.287  12.641 -0.7267  0.4849  0.2803
  168MPD2    C5 2564   1.868   1.337  12.762  0.3343 -0.2837 -0.7073
  168MPD2     H 2565   1.969   0.975  12.742 -0.3100  0.0660  0.8905
  168MPD2    H1 2566   1.906   1.361  12.562 -0.5124  0.8301  0.5902
  168MPD2    H2 2567   1.806   1.306  12.962  1.0021 -0.7710  0.8708
  168MPD2    H3 2568   1.822   1.435  12.760 -0.6900 -0.8238 -3.0587
  168MPD2     N 2569   2.008   1.126  12.509 -0.5343  0.5141  0.7818
  168MPD2    H5 2570   2.040   1.201  12.449 -1.5609  0.5809  0.3078
  168MPD2    N1 2571   1.867   1.027  12.963 -0.2684 -1.2513  0.0004
  168MPD2    H7 2572   1.901   0.934  12.941 -1.0858 -1.7885  1.0519
  169MPD1     C 2573   3.886   0.479   9.736  0.0289 -0.3805 -0.4983
  169MPD1    C1 2574   3.997   0.470   9.813 -0.7370  0.3194  0.0224
  169MPD1    C2 2575   4.071   0.352   9.810 -0.8140 -0.9258  0.2046
  169MPD1    C3 2576   4.035   0.252   9.725  0.4901 -0.2547 -0.0888
  169MPD1    C4 2577   3.923   0.269   9.644  0.6794 -0.6089 -0.3088
  169MPD1    C5 2578   3.850   0.387   9.645  0.2485  0.8813 -1.0157
  169MPD1     H 2579   4.163   0.335   9.866  1.0556 -0.3147 -2.6573
  169MPD1    H1 2580   3.910   0.194   9.567 -0.0302  1.4585 -2.2314
  169MPD1    H2 2581   3.831   0.572   9.734  0.4982 -0.1110 -0.9594
  169MPD1    H3 2582   3.773   0.413   9.574 -1.3253  1.0309  0.7593
  169MPD1     N 2583   4.112   0.139   9.723 -0.1787 -0.1242  0.0596
  169MPD1    H5 2584   4.196   0.131   9.779 -0.0841  2.1070  0.2451
  169MPD1    N1 2585   4.043   0.585   9.873 -0.0847  0.2814  0.2262
  169MPD1    H6 2586   3.966   0.636   9.915 -0.8363 -0.2479 -0.5350
  169MPD1    H7 2587   4.117   0.577   9.943 -0.2251 -2.0896  0.0903
  170MPD1     C 2588   3.371   2.540  12.757 -0.0984 -0.1345 -0.2647
  170MPD1    C1 2589   3.239   2.586  12.764  0.5003  0.2503 -0.0318
  170MPD1    C2 2590   3.211   2.634  12.893  0.0254 -0.6054  0.3165
  170MPD1    C3 2591   3.295   2.632  13.003  0.3867 -0.4737  0.1054
  170MPD1    C4 2592   3.416   2.571  12.990 -0.4362 -0.3509  0.7569
  170MPD1    C5 2593   3.451   2.529  12.864 -0.9901  0.2551  0.2403
  170MPD1     H 2594   3.114   2.678  12.909  0.1498 -0.6147  1.0966
  170MPD1    H1 2595   3.486   2.560  13.071 -0.6443  3.4024  1.4264
  170MPD1    H2 2596   3.407   2.504  12.661  2.3820  0.1071  0.5745
  170MPD1    H3 2597   3.552   2.493  12.857 -0.8188  0.5707  1.0916
  170MPD1     N 2598   3.256   2.688  13.131 -0.1306  0.5364 -0.2329
  170MPD1    H5 2599   3.164   2.731  13.125 -0.2647  0.2546 -0.1898
  170MPD1    N1 2600   3.146   2.600  12.662  0.6727  0.6905 -0.0468
  170MPD1    H6 2601   3.152   2.540  12.580 -1.1684  0.3640  0.0680
  170MPD1    H7 2602   3.047   2.593  12.684  1.0152 -1.6569  0.7171
  171MPD1     C 2603   1.919   4.174  15.623 -0.6837  0.2215  0.2966
  171MPD1    C1 2604   1.813   4.094  15.654 -0.8720  0.4031  0.1920
  171MPD1    C2 2605   1.829   3.957  15.644 -0.2649 -0.0697  1.0793
  171MPD1    C3 2606   1.957   3.900  15.634  0.1947 -0.3066 -0.7212
  171MPD1    C4 2607   2.063   3.983  15.623 -0.4029 -0.3151 -0.3547
  171MPD1    C5 2608   2.044   4.118  15.622 -0.2963 -0.7291 -0.0117
  171MPD1     H 2609   1.741   3.897  15.663 -1.1144  0.5787 -0.7918
  171MPD1    H1 2610   2.167   3.956  15.608  0.1328  1.4370  0.2400
  171MPD1    H2 2611   1.908   4.280  15.605  1.7605  0.6912  1.6610
  171MPD1    H3 2612   2.119   4.184  15.580 -0.9174 -1.6755 -2.6136
  171MPD1     N 2613   1.991   3.762  15.658 -0.3713  0.2583  0.0744
  171MPD1    H5 2614   2.087   3.731  15.654 -0.4543  0.2399 -1.9173
  171MPD1    N1 2615   1.685   4.149  15.670  0.1263  0.1259 -0.5117
  171MPD1    H6 2616   1.669   4.241  15.711  2.5405 -0.6362  2.1706
  171MPD1    H7 2617   1.617   4.092  15.721  0.7052 -0.3296 -0.2494
  172MPD1     C 2618   0.754   2.880   0.598  0.1034  0.1701  0.5474
  172MPD1    C1 2619   0.775   2.958   0.489 -0.3677  0.5025  0.3868
  172MPD1    C2 2620   0.829   3.081   0.512  0.4220 -0.1287 -1.0004
  172MPD1    C3 2621   0.850   3.130   0.643 -0.4491  0.4471  0.1569
  172MPD1    C4 2622   0.840   3.044   0.749 -0.1718 -0.5508 -0.6017
  172MPD1    C5 2623   0.784   2.916   0.725  0.5978  0.6927 -0.1444
  172MPD1     H 2624   0.837   3.152   0.431 -0.9808  2.4263  1.0950
  172MPD1    H1 2625   0.874   3.064   0.850  0.3317  0.5269 -0.9945
  172MPD1    H2 2626   0.708   2.784   0.581  1.0377 -0.1400 -0.2004
  172MPD1    H3 2627   0.766   2.838   0.798 -2.3572  2.4396  0.9809
  172MPD1     N 2628   0.899   3.255   0.676 -0.6336  0.2875 -0.2435
  172MPD1    H5 2629   0.933   3.275   0.770  2.1003  2.8426 -1.7456
  172MPD1    N1 2630   0.736   2.917   0.363  0.1403 -0.1289 -0.6138
  172MPD1    H6 2631   0.812   2.951   0.305 -0.9124  0.7024 -1.5297
  172MPD1    H7 2632   0.734   2.815   0.365 -0.3325 -0.1207 -0.6486
  173MPD1     C 2633   2.669   2.914  14.483 -0.3161  0.1476 -0.1497
  173MPD1    C1 2634   2.554   2.925  14.416 -0.0967 -0.4677 -0.1461
  173MPD1    C2 2635   2.448   2.843  14.457  0.6764 -0.3960 -0.0105
  173MPD1    C3 2636   2.460   2.761  14.572 -0.1289 -0.4905  0.4140
  173MPD1    C4 2637   2.577   2.751  14.637 -0.3713  0.1172 -0.2916
  173MPD1    C5 2638   2.681   2.826  14.593 -0.1394 -0.4064  0.5775
  173MPD1     H 2639   2.356   2.836  14.400 -0.0118 -1.2699  1.2114
  173MPD1    H1 2640   2.591   2.685  14.722  0.2020 -0.8001 -1.1071
  173MPD1    H2 2641   2.756   2.975  14.461 -1.6626  2.1639  0.1675
  173MPD1    H3 2642   2.773   2.822  14.650  1.3235 -0.2643 -1.7653
  173MPD1     N 2643   2.350   2.679  14.614  0.0968  0.7936 -0.4526
  173MPD1    H5 2644   2.263   2.694  14.564  0.4650  1.4597 -0.8900
  173MPD1    N1 2645   2.544   3.007  14.306 -0.7481  0.3073  0.2826
  173MPD1    H6 2646   2.453   3.029  14.266 -0.8194 -1.1121 -0.3428
  173MPD1    H7 2647   2.608   3.086  14.309  1.2709 -1.3228  0.2645
  174MPD1     C 2648   2.080   1.726  14.798  0.1133  0.8882 -0.7559
  174MPD1    C1 2649   1.965   1.803  14.766  0.0326 -0.4712  0.0496
  174MPD1    C2 2650   1.968   1.942  14.768 -0.6712 -0.0704 -0.4847
  174MPD1    C3 2651   2.087   2.009  14.812 -0.6584  0.3395 -0.1116
  174MPD1    C4 2652   2.189   1.928  14.845  0.4552  0.1529  0.0274
  174MPD1    C5 2653   2.197   1.790  14.842 -0.0914 -0.1328 -0.4959
  174MPD1     H 2654   1.880   1.996  14.735 -0.6452 -1.1986 -2.4016
  174MPD1    H1 2655   2.284   1.972  14.874  1.3031 -1.9010  0.3264
  174MPD1    H2 2656   2.074   1.618  14.790  1.0563  0.8298 -0.6316
  174MPD1    H3 2657   2.289   1.735  14.857 -0.5481 -1.0384 -1.0118
  174MPD1     N 2658   2.105   2.142  14.811 -0.5253 -0.1623 -0.2415
  174MPD1    H5 2659   2.201   2.170  14.826 -0.2438  0.2532 -2.7968
  174MPD1    N1 2660   1.857   1.731  14.714  0.6610  0.6402 -0.1668
  174MPD1    H6 2661   1.838   1.648  14.770 -1.5996  1.6121  0.4783
  174MPD1    H7 2662   1.774   1.789  14.717 -0.9805 -1.6505 -1.5031
  175MPD1     C 2663   1.072   3.782  15.998  0.1061 -0.3583  0.4931
  175MPD1    C1 2664   0.940   3.804  16.021 -1.1949 -0.7339  0.1578
  175MPD1    C2 2665   0.888   3.853  16.136 -0.3739 -0.5362 -0.0326
  175MPD1    C3 2666   0.984   3.904  16.231  0.1081 -0.7364  0.2058
  175MPD1    C4 2667   1.121   3.894  16.207  0.2828  0.2421  0.4262
  175MPD1    C5 2668   1.166   3.830  16.093 -0.0669 -0.4403 -0.3643
  175MPD1     H 2669   0.780   3.856  16.145 -0.3489  0.3832 -0.0276
  175MPD1    H1 2670   1.198   3.936  16.270  0.8635 -3.0273  1.9120
  175MPD1    H2 2671   1.109   3.728  15.912 -0.2559  0.2156 -0.0233
  175MPD1    H3 2672   1.272   3.814  16.077  0.1482  0.3021  0.3423
  175MPD1     N 2673   0.947   3.955  16.356 -0.6566 -0.2166  0.9126
  175MPD1    H5 2674   1.019   3.971  16.426  0.4849  1.1042 -0.5747
  175MPD1    N1 2675   0.858   3.757  15.920  0.1585 -0.1819 -0.2507
  175MPD1    H6 2676   0.897   3.759  15.825 -0.9220 -1.6045 -0.7301
  175MPD1    H7 2677   0.771   3.809  15.916 -0.3622 -0.9618  1.0649
  176MPD1     C 2678   2.216   0.550   0.013 -0.2698 -0.2022  0.4102
  176MPD1    C1 2679   2.087   0.590   0.004  0.4275  0.5295 -0.1816
  176MPD1    C2 2680   2.059   0.715  17.652  0.3760  0.0477 -0.5596
  176MPD1    C3 2681   2.158   0.791  17.586 -0.0609 -0.2009  0.0264
  176MPD1    C4 2682   2.283   0.736  17.579  0.3745  0.1000 -0.5116
  176MPD1    C5 2683   2.317   0.615  17.644  0.2266 -1.0513  0.3235
  176MPD1     H 2684   1.960   0.760  17.647  0.0840 -0.6744 -1.3371
  176MPD1    H1 2685   2.364   0.777  17.521 -1.1344 -0.4997 -3.0669
  176MPD1    H2 2686   2.246   0.450   0.043  1.1196 -0.7427 -2.7316
  176MPD1    H3 2687   2.422   0.589  17.643  0.4642 -0.1019  0.7100
  176MPD1     N 2688   2.126   0.913  17.525 -0.1452 -0.6420 -0.1133
  176MPD1    H5 2689   2.027   0.936  17.525 -0.7190 -3.0999 -5.6292
  176MPD1    N1 2690   1.982   0.520   0.070 -0.0897 -0.3769 -0.2301
  176MPD1    H6 2691   1.892   0.526   0.023 -0.0572  0.1158 -0.2217
  176MPD1    H7 2692   2.004   0.427   0.106  1.2143 -0.4164 -1.1250
  177MPD1     C 2693   1.356   1.206  10.672  0.9199 -0.4908  0.6264
  177MPD1    C1 2694   1.340   1.335  10.639  0.0957  0.3088 -0.4582
  177MPD1    C2 2695   1.326   1.360  10.505 -0.5778  0.1481 -0.8814
  177MPD1    C3 2696   1.319   1.260  10.413 -0.5809 -0.2604 -0.3579
  177MPD1    C4 2697   1.329   1.136  10.451  0.3626  0.8932 -0.8410
  177MPD1    C5 2698   1.356   1.106  10.578 -0.0501 -0.0164 -0.1499
  177MPD1     H 2699   1.314   1.461  10.469 -3.4124  0.7005  1.6383
  177MPD1    H1 2700   1.322   1.057  10.377  1.6181 -1.1439  1.2300
  177MPD1    H2 2701   1.367   1.181  10.776  1.2929 -0.3609  0.6190
  177MPD1    H3 2702   1.383   1.002  10.595  1.9963  0.1420 -2.3938
  177MPD1     N 2703   1.260   1.297  10.289  0.0148  0.7399 -0.0958
  177MPD1    H5 2704   1.218   1.389  10.279  0.9482  1.1612 -0.1663
  177MPD1    N1 2705   1.365   1.435  10.732 -0.6466 -0.3686 -0.1155
  177MPD1    H6 2706   1.331   1.411  10.825 -1.0160  2.3088  0.4659
  177MPD1    H7 2707   1.326   1.525  10.705 -0.2012 -0.3756 -0.7681
  178MPD1     C 2708   3.095   1.509   0.690 -1.0685  0.3145  0.5359
  178MPD1    C1 2709   3.219   1.561   0.658 -0.4574  0.4323  0.0397
  178MPD1    C2 2710   3.216   1.649   0.558  0.3576 -0.7847  0.5476
  178MPD1    C3 2711   3.105   1.673   0.476 -0.0838  0.0314  0.0111
  178MPD1    C4 2712   2.987   1.607   0.505  0.2658  0.5092 -0.6714
  178MPD1    C5 2713   2.986   1.522   0.610  0.0295  0.8372 -0.5166
  178MPD1     H 2714   3.308   1.702   0.537  1.2473 -2.5054  0.1348
  178MPD1    H1 2715   2.896   1.617   0.448  0.5530 -1.9878 -1.5870
  178MPD1    H2 2716   3.080   1.456   0.784 -0.2070 -0.7901  0.0522
  178MPD1    H3 2717   2.891   1.485   0.645  1.3475 -2.6365 -0.5534
  178MPD1     N 2718   3.101   1.760   0.367  0.4334  0.3809 -0.0374
  178MPD1    H5 2719   3.009   1.776   0.328 -0.2494 -3.0443  0.1613
  178MPD1    N1 2720   3.331   1.540   0.737 -0.2343  0.1090  1.1641
  178MPD1    H6 2721   3.424   1.558   0.699 -0.4028  0.8123  1.0851
  178MPD1    H7 2722   3.328   1.466   0.805 -2.0639  1.7959  2.9210
  179MPD1     C 2723   2.216   0.220  15.654  0.0535  0.0720  0.0744
  179MPD1    C1 2724   2.300   0.229  15.757  0.4802 -0.0401  0.8039
  179MPD1    C2 2725   2.412   0.142  15.756  0.6430  0.0275 -0.4079
  179MPD1    C3 2726   2.435   0.052  15.648 -0.2155 -0.5251  0.4931
  179MPD1    C4 2727   2.344   0.054  15.553 -0.1542 -0.1262  0.1555
  179MPD1    C5 2728   2.237   0.131  15.550 -0.2782  0.6468 -0.4699
  179MPD1     H 2729   2.480   0.133  15.840  0.1131 -1.9408 -0.1891
  179MPD1    H1 2730   2.371   4.717  15.469  0.7952  0.9931 -0.3655
  179MPD1    H2 2731   2.140   0.297  15.650  0.2129  0.1354 -2.0031
  179MPD1    H3 2732   2.161   0.123  15.474 -1.5527  0.1640  0.8444
  179MPD1     N 2733   2.540   4.688  15.630 -0.6008 -0.3114  0.0384
  179MPD1    H5 2734   2.529   4.618  15.557  1.3516  0.2074 -0.7483
  179MPD1    N1 2735   2.265   0.310  15.863 -0.1536 -0.4289  0.2491
  179MPD1    H6 2736   2.206   0.385  15.828 -0.6347 -1.7870 -1.8615
  179MPD1    H7 2737   2.348   0.356  15.899 -1.3722  0.9046  1.3371
  180MPD1     C 2738   3.355   2.069  14.939 -0.1336 -0.2689  1.0912
  180MPD1    C1 2739   3.329   2.008  14.819  0.3934 -0.1857 -0.1971
  180MPD1    C2 2740   3.229   1.912  14.813  0.1249 -0.4023 -0.4222
  180MPD1    C3 2741   3.163   1.854  14.927 -0.0208  0.1311 -0.8724
  180MPD1    C4 2742   3.194   1.910  15.048  0.2515 -1.0620 -0.2576
  180MPD1    C5 2743   3.293   2.014  15.052  0.0061  0.2175 -0.3309
  180MPD1     H 2744   3.213   1.876  14.712  1.4571 -1.5837 -0.2112
  180MPD1    H1 2745   3.163   1.859  15.138 -0.4301 -1.0145 -0.4613
  180MPD1    H2 2746   3.423   2.154  14.939 -2.7458  1.8193  3.1818
  180MPD1    H3 2747   3.319   2.053  15.150 -0.3994 -1.5786  0.5044
  180MPD1     N 2748   3.080   1.740  14.915  0.2498 -0.0320 -0.1957
  180MPD1    H5 2749   3.079   1.699  14.822 -0.0292  0.3199 -0.3451
  180MPD1    N1 2750   3.378   2.066  14.699 -1.1672 -0.0204 -0.4816
  180MPD1    H6 2751   3.445   2.141  14.707 -0.6423 -0.2249 -3.0679
  180MPD1    H7 2752   3.394   1.996  14.627 -2.1954 -0.8775  0.1185
  181MPD1     C 2753   3.879   2.871  10.516  0.1712  0.4741 -0.7287
  181MPD1    C1 2754   3.899   2.988  10.588  0.3874 -0.1162 -0.6741
  181MPD1    C2 2755   4.018   3.048  10.555 -0.2833 -0.0502  0.0560
  181MPD1    C3 2756   4.108   2.995  10.468  0.4035 -0.3214 -0.9717
  181MPD1    C4 2757   4.091   2.879  10.410  0.2560 -0.0327  0.1221
  181MPD1    C5 2758   3.972   2.818  10.424  0.4386 -0.0718  0.1852
  181MPD1     H 2759   4.054   3.129  10.618 -1.0498  0.5469 -0.2801
  181MPD1    H1 2760   4.164   2.826  10.350 -0.6934  0.0188 -1.0746
  181MPD1    H2 2761   3.784   2.818  10.523  0.3736  0.4280  1.7190
  181MPD1    H3 2762   3.961   2.726  10.368 -0.2082 -0.3332  0.7414
  181MPD1     N 2763   4.234   3.062  10.447 -0.1761  0.2844  0.6538
  181MPD1    H5 2764   4.306   3.002  10.409  0.3704  2.3315 -1.5708
  181MPD1    N1 2765   3.797   3.046  10.666 -0.1983  0.7188  0.0784
  181MPD1    H6 2766   3.829   3.109  10.739  0.5282  1.6392 -1.0433
  181MPD1    H7 2767   3.742   2.972  10.709  1.7646 -1.8720 -1.8404
  182MPD1     C 2768   0.959   1.942   1.418 -0.0681  0.0254  0.2454
  182MPD1    C1 2769   1.028   1.901   1.315  0.1869  0.1948 -0.1782
  182MPD1    C2 2770   0.968   1.911   1.185 -0.2472 -0.1837  0.2560
  182MPD1    C3 2771   0.833   1.937   1.168 -0.0546 -0.1175 -0.0646
  182MPD1    C4 2772   0.767   1.982   1.277  0.2389 -0.0330 -0.0753
  182MPD1    C5 2773   0.827   1.979   1.399 -0.0196  0.0842  0.4945
  182MPD1     H 2774   1.024   1.875   1.099  0.8158 -0.2809  0.9822
  182MPD1    H1 2775   0.667   2.024   1.270 -0.1214 -0.8813 -0.0094
  182MPD1    H2 2776   1.007   1.953   1.515 -0.2769 -0.3528  0.3922
  182MPD1    H3 2777   0.778   2.016   1.488 -0.7859 -0.2028  0.1935
  182MPD1     N 2778   0.751   1.940   1.052 -0.1626  0.0226  0.5593
  182MPD1    H5 2779   0.657   1.975   1.068 -0.9892 -1.0517 -1.9543
  182MPD1    N1 2780   1.169   1.884   1.326 -0.1665  0.2736 -0.6564
  182MPD1    H6 2781   1.195   1.863   1.422 -1.4309  0.8352 -0.1846
  182MPD1    H7 2782   1.205   1.821   1.254 -1.1957  1.0410 -1.8527
  183MPD1     C 2783   1.036   3.385   9.052 -1.0019  0.6616  0.7768
  183MPD1    C1 2784   0.972   3.489   9.114  0.0824 -0.4806 -0.2819
  183MPD1    C2 2785   0.952   3.473   9.254 -0.0919  0.0484  0.5445
  183MPD1    C3 2786   0.962   3.353   9.320 -0.5886 -0.3048 -0.0243
  183MPD1    C4 2787   1.012   3.246   9.250 -0.9395 -0.3141 -0.3136
  183MPD1    C5 2788   1.057   3.266   9.119 -0.1827 -0.3302  0.0202
  183MPD1     H 2789   0.902   3.550   9.311 -1.8019  0.5677 -1.6461
  183MPD1    H1 2790   1.015   3.147   9.295  0.4378 -0.0880  0.0717
  183MPD1    H2 2791   1.073   3.403   8.952  0.3304 -0.7168  1.0286
  183MPD1    H3 2792   1.100   3.178   9.073  0.5984  2.3315 -4.2597
  183MPD1     N 2793   0.918   3.341   9.453  0.3085  0.3398 -0.2034
  183MPD1    H5 2794   0.869   3.423   9.487  1.3009  1.1184 -0.6519
  183MPD1    N1 2795   0.950   3.607   9.042  0.3578 -0.1419  0.1318
  183MPD1    H6 2796   0.916   3.590   8.947 -2.4464 -0.5632  1.2228
  183MPD1    H7 2797   0.875   3.662   9.085 -1.2481 -1.4898 -0.9487
  184MPD1     C 2798   0.561   0.352  10.440  0.1321 -0.1230 -0.4422
  184MPD1    C1 2799   0.693   0.368  10.405 -0.1571  0.1318 -0.6004
  184MPD1    C2 2800   0.727   0.457  10.305  0.3664 -0.0127 -0.1898
  184MPD1    C3 2801   0.631   0.501  10.219  0.9965 -0.2052 -0.2482
  184MPD1    C4 2802   0.498   0.472  10.241 -0.4135 -0.9185  0.4756
  184MPD1    C5 2803   0.463   0.399  10.349  0.8162  0.9030  0.6456
  184MPD1     H 2804   0.832   0.471  10.285  0.7166 -1.8917  0.3645
  184MPD1    H1 2805   0.419   0.478  10.167 -2.9142 -2.2334  3.0307
  184MPD1    H2 2806   0.518   0.301  10.525  2.0557  0.0896  0.6768
  184MPD1    H3 2807   0.363   0.360  10.368  1.8777 -1.4132  1.4291
  184MPD1     N 2808   0.663   0.566  10.093 -0.0843 -0.5850  0.6228
  184MPD1    H5 2809   0.585   0.569  10.027 -0.0763 -0.3795  0.6228
  184MPD1    N1 2810   0.781   0.333  10.508  0.1014 -0.3554  0.3587
  184MPD1    H6 2811   0.870   0.316  10.462 -0.7556 -2.9409 -0.3425
  184MPD1    H7 2812   0.745   0.249  10.552 -0.2533 -1.1977 -1.5478
  185MPD1     C 2813   0.556   0.187   9.370  0.6205  0.3698 -0.0721
  185MPD1    C1 2814   0.539   0.318   9.322 -0.2346 -0.4098  0.2373
  185MPD1    C2 2815   0.561   0.421   9.413 -0.3341  0.0936  0.2911
  185MPD1    C3 2816   0.604   0.393   9.543  0.4074 -0.2686 -0.2333
  185MPD1    C4 2817   0.617   0.266   9.583 -0.0249  0.1374 -0.0414
  185MPD1    C5 2818   0.594   0.160   9.499 -0.6579 -0.6198  1.0724
  185MPD1     H 2819   0.543   0.521   9.375  0.6707 -0.9051 -2.8256
  185MPD1    H1 2820   0.634   0.245   9.688  0.4943  1.3078  0.1045
  185MPD1    H2 2821   0.532   0.110   9.297 -3.1178  1.1050  0.4052
  185MPD1    H3 2822   0.586   0.057   9.531 -0.3719 -1.0937 -0.4052
  185MPD1     N 2823   0.639   0.494   9.639  0.0635  0.1310  0.1314
  185MPD1    H5 2824   0.679   0.462   9.726  1.9227 -1.8333 -1.4594
  185MPD1    N1 2825   0.527   0.338   9.181 -0.0350 -0.2569 -0.3187
  185MPD1    H6 2826   0.489   0.428   9.152 -0.4892  0.0728  1.3167
  185MPD1    H7 2827   0.483   0.260   9.132 -0.7451  1.3645 -2.2881
  186MPD1     C 2828   2.552   1.071  15.962  0.5271 -0.4310 -0.6659
  186MPD1    C1 2829   2.504   1.061  16.089  0.0994  0.0483 -0.7077
  186MPD1    C2 2830   2.575   0.989  16.190 -0.6110  0.3884  0.4691
  186MPD1    C3 2831   2.682   0.901  16.149 -0.1172  0.4967 -0.4146
  186MPD1    C4 2832   2.726   0.909  16.020  0.4339 -0.4103 -0.3705
  186MPD1    C5 2833   2.669   0.997  15.929 -0.7958 -0.4235 -0.4843
  186MPD1     H 2834   2.533   0.990  16.290 -2.3651 -0.1673 -0.2640
  186MPD1    H1 2835   2.804   0.840  15.993  0.9423 -0.0607  0.2132
  186MPD1    H2 2836   2.511   1.142  15.892 -2.0905  1.0533  2.4196
  186MPD1    H3 2837   2.702   0.991  15.826 -0.6392 -1.2444 -0.3841
  186MPD1     N 2838   2.750   0.807  16.229  0.3214 -0.2362 -0.0210
  186MPD1    H5 2839   2.819   0.745  16.188 -1.6794 -0.9635 -2.2472
  186MPD1    N1 2840   2.397   1.140  16.131  0.2882 -0.2436 -0.2426
  186MPD1    H6 2841   2.330   1.161  16.057  0.4861  1.8586  0.1828
  186MPD1    H7 2842   2.347   1.109  16.214  1.5253 -1.0238  0.2024
  187MPD1     C 2843   1.477   2.749   0.703  0.0830  0.5609  0.8216
  187MPD1    C1 2844   1.591   2.811   0.743  0.0792 -0.2653 -0.2855
  187MPD1    C2 2845   1.696   2.820   0.655 -0.0786  0.1127  0.3703
  187MPD1    C3 2846   1.690   2.759   0.533  0.0665  0.4937  0.2831
  187MPD1    C4 2847   1.570   2.698   0.491  0.1250  0.6424 -0.3823
  187MPD1    C5 2848   1.463   2.704   0.576 -0.5867 -0.0684 -0.6404
  187MPD1     H 2849   1.783   2.873   0.693  1.7796 -2.3687 -0.4484
  187MPD1    H1 2850   1.554   2.652   0.394  2.3645  1.4400 -1.1466
  187MPD1    H2 2851   1.395   2.743   0.775 -0.1129 -0.8341  0.4854
  187MPD1    H3 2852   1.375   2.647   0.550  1.5983 -3.8394  0.3138
  187MPD1     N 2853   1.801   2.744   0.449 -1.0232  0.4335  0.5331
  187MPD1    H5 2854   1.787   2.690   0.364  1.6989 -1.1858  1.1184
  187MPD1    N1 2855   1.603   2.869   0.870 -1.0430  0.2117  0.1281
  187MPD1    H6 2856   1.538   2.825   0.936 -3.2471  0.7597 -1.6686
  187MPD1    H7 2857   1.693   2.869   0.917 -1.0630 -0.6387  0.1675
  188MPD1     C 2858   1.570   2.803  10.247  0.3737 -0.5732 -0.7446
  188MPD1    C1 2859   1.477   2.749  10.165  0.4459  0.5913  0.0970
  188MPD1    C2 2860   1.495   2.621  10.129 -0.0512 -0.5870  0.0411
  188MPD1    C3 2861   1.608   2.548  10.168 -0.2026  0.3664 -0.1096
  188MPD1    C4 2862   1.685   2.600  10.268  0.1165  0.0568 -0.2068
  188MPD1    C5 2863   1.675   2.733  10.297  0.1063  0.5825  0.1651
  188MPD1     H 2864   1.418   2.574  10.070  0.9777 -0.8365 -1.1086
  188MPD1    H1 2865   1.782   2.555  10.288 -0.1342 -1.0657 -1.5248
  188MPD1    H2 2866   1.584   2.910  10.252 -0.4527 -0.5578  1.2914
  188MPD1    H3 2867   1.754   2.789  10.347 -0.3069  0.5553  0.8458
  188MPD1     N 2868   1.643   2.417  10.129  0.2095  0.8436  0.2171
  188MPD1    H5 2869   1.723   2.377  10.177 -0.5586  0.8699  1.5178
  188MPD1    N1 2870   1.380   2.830  10.104  0.1142 -0.4902 -0.4124
  188MPD1    H6 2871   1.344   2.907  10.160  2.1850 -1.2264  1.9067
  188MPD1    H7 2872   1.300   2.779  10.065 -1.6324  1.5525  0.4972
  189MPD1     C 2873   4.022   2.462   0.667 -0.3470 -1.0120  0.1997
  189MPD1    C1 2874   3.912   2.384   0.632  0.0830 -0.5817  0.4831
  189MPD1    C2 2875   3.803   2.446   0.571 -0.8081 -0.0449  0.5987
  189MPD1    C3 2876   3.788   2.584   0.556  0.1779  0.1037  0.1553
  189MPD1    C4 2877   3.891   2.660   0.609  0.2110  0.1221 -0.1752
  189MPD1    C5 2878   4.000   2.594   0.660 -1.1118  0.0128 -0.6882
  189MPD1     H 2879   3.715   2.385   0.551 -0.0671 -0.9510  0.1125
  189MPD1    H1 2880   3.887   2.769   0.609  0.6727  0.1183  4.5784
  189MPD1    H2 2881   4.111   2.416   0.708  2.0160  1.7206 -1.8453
  189MPD1    H3 2882   4.079   2.656   0.701 -3.2560 -0.2513  3.7765
  189MPD1     N 2883   3.676   2.631   0.480  0.4650 -0.1113  0.3593
  189MPD1    H5 2884   3.601   2.564   0.464  0.5510 -0.2966  0.7478
  189MPD1    N1 2885   3.918   2.242   0.633 -0.4574 -0.3162  0.1832
  189MPD1    H6 2886   3.823   2.207   0.638 -0.2639 -1.1189 -1.6732
  189MPD1    H7 2887   3.951   2.226   0.728  1.4079 -1.9233 -0.7430
  190MPD1     C 2888   1.872   1.918  15.836  0.6532 -0.4390  0.4604
  190MPD1    C1 2889   1.887   1.838  15.948  0.1182 -0.0738 -0.7506
  190MPD1    C2 2890   1.983   1.733  15.939  0.4086  0.0225 -0.0047
  190MPD1    C3 2891   2.074   1.727  15.836  0.0034  0.7558  0.9178
  190MPD1    C4 2892   2.059   1.802  15.726  0.0820 -0.3774  0.1678
  190MPD1    C5 2893   1.955   1.895  15.730  0.0750  0.8419  0.1396
  190MPD1     H 2894   1.991   1.670  16.026  1.0546 -1.6693 -1.2911
  190MPD1    H1 2895   2.125   1.807  15.641 -0.1201 -0.7478 -0.0123
  190MPD1    H2 2896   1.808   2.005  15.831  1.2349 -0.0885 -0.7874
  190MPD1    H3 2897   1.959   1.963  15.645 -1.4110  0.4576 -0.2331
  190MPD1     N 2898   2.182   1.630  15.858 -0.0508  0.4031  0.5763
  190MPD1    H5 2899   2.187   1.578  15.945  1.3327 -0.8917 -0.2734
  190MPD1    N1 2900   1.788   1.852  16.044 -0.0567 -0.3845 -0.2149
  190MPD1    H6 2901   1.706   1.801  16.012 -0.9059  0.1142  1.1584
  190MPD1    H7 2902   1.766   1.952  16.048  1.4675  0.1320 -4.4750
  191MPD1     C 2903   2.113   3.294  13.284  0.0382  0.4414  0.0529
  191MPD1    C1 2904   2.205   3.355  13.208 -0.4866  0.5958 -0.5837
  191MPD1    C2 2905   2.153   3.432  13.104 -0.7016 -0.1811 -0.6668
  191MPD1    C3 2906   2.017   3.444  13.080 -0.8108 -0.6949 -0.4713
  191MPD1    C4 2907   1.933   3.382  13.164 -0.9766 -0.3825 -0.2920
  191MPD1    C5 2908   1.982   3.303  13.262 -0.0255 -0.1271 -0.6740
  191MPD1     H 2909   2.216   3.489  13.037 -2.0325 -1.1205 -2.7315
  191MPD1    H1 2910   1.826   3.380  13.148 -0.6320  1.2564 -2.8235
  191MPD1    H2 2911   2.148   3.229  13.364  0.2985  0.5853  0.0552
  191MPD1    H3 2912   1.917   3.254  13.334 -1.3861  2.2380 -0.3010
  191MPD1     N 2913   1.976   3.533  12.972  0.2518 -0.2853  0.1261
  191MPD1    H5 2914   2.044   3.553  12.900  1.3644 -2.0334  0.6865
  191MPD1    N1 2915   2.346   3.340  13.229  0.0275 -0.1752  0.3398
  191MPD1    H6 2916   2.406   3.372  13.153 -0.8127 -1.3516 -0.8043
  191MPD1    H7 2917   2.374   3.245  13.255  1.7875  0.3234  0.2891
  192MPD1     C 2918   1.665   4.403  13.129  0.5013 -0.4250 -0.7732
  192MPD1    C1 2919   1.603   4.384  13.002 -0.3760  0.4058  0.5058
  192MPD1    C2 2920   1.620   4.264  12.935 -1.0567 -0.3267 -0.3934
  192MPD1    C3 2921   1.713   4.176  12.989 -0.6712  0.2663  0.7177
  192MPD1    C4 2922   1.783   4.203  13.101 -0.2378 -0.3825 -0.2065
  192MPD1    C5 2923   1.751   4.316  13.170 -0.2763 -0.1948  0.3732
  192MPD1     H 2924   1.571   4.251  12.839 -0.5899 -0.2631 -0.6433
  192MPD1    H1 2925   1.863   4.139  13.135  0.4549  1.0983  0.9411
  192MPD1    H2 2926   1.639   4.490  13.188 -0.5757 -1.7103  0.6438
  192MPD1    H3 2927   1.800   4.315  13.267  0.1409  0.3018  0.1648
  192MPD1     N 2928   1.755   4.056  12.925 -0.3184  0.5815 -0.0450
  192MPD1    H5 2929   1.810   3.987  12.976  0.8689  2.4256  1.1509
  192MPD1    N1 2930   1.496   4.468  12.956  0.6725 -0.6737  0.2091
  192MPD1    H6 2931   1.490   4.473  12.855  1.1823 -2.3959  0.1042
  192MPD1    H7 2932   1.495   4.564  12.992 -1.4992 -1.2516  1.7213
  193MPD1     C 2933   1.825   3.619  16.221  0.1176  0.6838  0.2773
  193MPD1    C1 2934   1.831   3.722  16.312  0.9823 -0.3790  0.1646
  193MPD1    C2 2935   1.887   3.701  16.436  0.5392  0.0257 -0.4620
  193MPD1    C3 2936   1.958   3.580  16.456 -0.5270 -0.1587  0.0779
  193MPD1    C4 2937   1.950   3.482  16.358 -0.1348 -0.8207  0.5398
  193MPD1    C5 2938   1.878   3.495  16.242  0.1074 -0.2857  0.0311
  193MPD1     H 2939   1.897   3.782  16.507 -0.3766 -1.2187  1.1001
  193MPD1    H1 2940   1.989   3.382  16.373 -0.2607 -1.0139 -0.4446
  193MPD1    H2 2941   1.781   3.642  16.125 -3.2566 -0.1625  1.5968
  193MPD1    H3 2942   1.865   3.413  16.173  0.6287  2.6096 -3.5168
  193MPD1     N 2943   2.042   3.552  16.565 -0.4316 -0.5706  0.2331
  193MPD1    H5 2944   2.085   3.460  16.563 -1.6316 -1.0900 -0.6847
  193MPD1    N1 2945   1.767   3.846  16.282  0.0061  0.1610 -0.5064
  193MPD1    H6 2946   1.780   3.872  16.184 -0.4794 -1.4414 -0.9905
  193MPD1    H7 2947   1.815   3.910  16.345  0.3700  1.2717 -1.8967
  194MPD1     C 2948   0.288   1.062  16.522  0.3593 -0.7732  0.2001
  194MPD1    C1 2949   0.156   1.048  16.504 -0.8307 -0.0196 -0.6252
  194MPD1    C2 2950   0.076   1.038  16.612 -0.2738  0.4278  0.0814
  194MPD1    C3 2951   0.122   1.054  16.746 -0.2929  0.4290  1.1247
  194MPD1    C4 2952   0.255   1.062  16.759 -0.4218  0.2699 -0.1521
  194MPD1    C5 2953   0.342   1.066  16.652  0.0981  0.2037  0.2845
  194MPD1     H 2954   4.700   1.003  16.593 -0.2522  0.3206  0.1700
  194MPD1    H1 2955   0.301   1.078  16.856 -0.1490  0.5627 -0.3261
  194MPD1    H2 2956   0.356   1.076  16.438  1.1539 -0.7817  0.8451
  194MPD1    H3 2957   0.444   1.100  16.668  0.0762  0.9536 -1.1151
  194MPD1     N 2958   0.041   1.045  16.863 -0.0905 -0.0692 -0.4691
  194MPD1    H5 2959   0.087   0.995  16.938  0.4945 -1.1452 -1.5374
  194MPD1    N1 2960   0.110   1.019  16.376  0.2845  0.8871  0.7695
  194MPD1    H6 2961   0.159   1.061  16.298  0.2520 -0.8702 -0.2047
  194MPD1    H7 2962   0.011   1.014  16.356  0.0431 -0.7023  2.3499
  195MPD1     C 2963   1.490   2.762  17.210 -0.5176 -0.7784  0.0227
  195MPD1    C1 2964   1.551   2.764  17.332 -0.3557 -0.3228 -0.4928
  195MPD1    C2 2965   1.550   2.645  17.406  0.2607  0.8790 -0.7842
  195MPD1    C3 2966   1.487   2.531  17.358  0.5667 -0.9326  0.2641
  195MPD1    C4 2967   1.419   2.538  17.239 -0.3047 -0.8161  0.2844
  195MPD1    C5 2968   1.425   2.649  17.165 -0.2174 -0.0728 -0.9135
  195MPD1     H 2969   1.578   2.643  17.511  1.0491  2.0894 -0.9661
  195MPD1    H1 2970   1.371   2.453  17.193  2.9802 -2.4426 -0.1269
  195MPD1    H2 2971   1.494   2.849  17.145 -1.5882  1.4492  2.8974
  195MPD1    H3 2972   1.364   2.656  17.076  0.6050  2.6587 -1.2709
  195MPD1     N 2973   1.491   2.409  17.425  0.2434  0.7566  0.0684
  195MPD1    H5 2974   1.448   2.328  17.381  1.0115 -0.1008  0.8822
  195MPD1    N1 2975   1.583   2.890  17.389  0.5590  0.0321  0.0958
  195MPD1    H6 2976   1.623   2.948  17.316 -0.7579  0.9756  0.1313
  195MPD1    H7 2977   1.650   2.876  17.465  0.4134 -2.1111 -0.1567
  196MPD1     C 2978   1.986   1.581   0.704  0.9113 -0.2442  0.4850
  196MPD1    C1 2979   1.900   1.666   0.638  0.0263  0.2119 -0.3065
  196MPD1    C2 2980   1.867   1.781   0.713 -0.1605  0.2979  0.4406
  196MPD1    C3 2981   1.908   1.806   0.841  0.1372 -0.0753  0.3623
  196MPD1    C4 2982   1.979   1.711   0.903 -0.0722  0.3545  0.1976
  196MPD1    C5 2983   2.027   1.606   0.835  0.3432  0.1407 -0.4190
  196MPD1     H 2984   1.804   1.850   0.658  1.3556  0.4884 -1.0625
  196MPD1    H1 2985   2.021   1.742   0.998  0.1561  0.3673  0.0923
  196MPD1    H2 2986   2.028   1.500   0.646  1.1210 -0.3318  0.7598
  196MPD1    H3 2987   2.086   1.534   0.890 -1.7779  0.8685  2.8097
  196MPD1     N 2988   1.885   1.925   0.907 -0.7849 -0.3811 -0.2445
  196MPD1    H5 2989   1.904   1.926   1.006  1.2049 -0.6579 -0.6185
  196MPD1    N1 2990   1.838   1.630   0.515 -0.1745  0.3517 -0.0975
  196MPD1    H6 2991   1.801   1.714   0.470 -2.1834 -0.6749 -0.3819
  196MPD1    H7 2992   1.883   1.558   0.460  0.5596 -0.2191  1.2588
  197MPD1     C 2993   1.378   4.635   0.405  0.3099 -0.0061 -0.7676
  197MPD1    C1 2994   1.377   0.028   0.340 -0.3163 -0.3033  0.2882
  197MPD1    C2 2995   1.321   0.034   0.212 -0.1803  0.4037  0.0258
  197MPD1    C3 2996   1.244   4.659   0.157 -0.4243 -0.2961  0.4293
  197MPD1    C4 2997   1.230   4.545   0.233  0.1131 -0.4523  0.2151
  197MPD1    C5 2998   1.295   4.533   0.353  0.1808  0.0708 -0.3476
  197MPD1     H 2999   1.324   0.134   0.168  0.0079  0.1774 -0.4783
  197MPD1    H1 3000   1.174   4.457   0.204 -1.8676  0.5424  1.0925
  197MPD1    H2 3001   1.443   4.623   0.490 -1.8190  2.5557  1.2233
  197MPD1    H3 3002   1.303   4.430   0.387 -0.2342 -0.1888 -1.0190
  197MPD1     N 3003   1.180   4.665   0.030  0.6566 -0.0544 -0.6496
  197MPD1    H5 3004   1.123   4.584   0.009  0.2321 -0.0686  0.5370
  197MPD1    N1 3005   1.453   0.142   0.386 -0.0666 -0.2586  0.4883
  197MPD1    H6 3006   1.425   0.229   0.342  0.3418 -0.5539 -0.3470
  197MPD1    H7 3007   1.451   0.155   0.487 -0.8830 -1.5433  0.6341
  198MPD1     C 3008   2.579   2.281  15.776 -0.9274  0.3750 -1.0349
  198MPD1    C1 3009   2.705   2.229  15.748 -0.2913  0.1631 -0.0711
  198MPD1    C2 3010   2.799   2.266  15.836  0.4261 -0.6440 -0.7974
  198MPD1    C3 3011   2.781   2.363  15.932 -0.0175 -0.1273  0.1535
  198MPD1    C4 3012   2.657   2.419  15.942  0.3179  0.1784 -0.1906
  198MPD1    C5 3013   2.558   2.381  15.865 -0.1755  0.1202 -0.8696
  198MPD1     H 3014   2.901   2.230  15.834  0.4722 -0.4698 -1.4860
  198MPD1    H1 3015   2.630   2.492  16.017  1.4096  0.1349  0.2524
  198MPD1    H2 3016   2.491   2.257  15.718  0.4195 -0.3221 -2.7676
  198MPD1    H3 3017   2.459   2.423  15.879  0.7128  1.0544  2.5816
  198MPD1     N 3018   2.894   2.393  16.010 -0.3022 -0.6384 -0.3610
  198MPD1    H5 3019   2.983   2.350  15.988  0.2435  1.0283 -1.4689
  198MPD1    N1 3020   2.723   2.115  15.678 -0.5842 -0.1117 -0.7308
  198MPD1    H6 3021   2.661   2.113  15.597  0.9457  2.6589 -1.9938
  198MPD1    H7 3022   2.821   2.110  15.650 -0.6077  1.4839 -1.0851
  199MPD1     C 3023   0.911   3.631   9.966 -0.1776 -0.2091 -0.3135
  199MPD1    C1 3024   0.849   3.736   9.901 -0.4069 -0.3828  0.0235
  199MPD1    C2 3025   0.712   3.760   9.914 -0.5401 -0.6612  0.7215
  199MPD1    C3 3026   0.635   3.661   9.981  0.3738  0.4005 -0.8184
  199MPD1    C4 3027   0.699   3.555  10.043 -0.4352  0.5796  0.3638
  199MPD1    C5 3028   0.833   3.541  10.028 -0.4407 -0.0018  0.0084
  199MPD1     H 3029   0.668   3.852   9.876  0.2230  0.0321  1.5103
  199MPD1    H1 3030   0.647   3.477  10.097  1.9328 -0.0973  1.6624
  199MPD1    H2 3031   1.019   3.624   9.971 -0.1095 -0.1255 -1.6579
  199MPD1    H3 3032   0.871   3.454  10.081  0.9568  0.7498  0.2573
  199MPD1     N 3033   0.499   3.658   9.992  0.5540  0.4922  0.4268
  199MPD1    H5 3034   0.458   3.580  10.044 -0.9389  0.7239 -0.4214
  199MPD1    N1 3035   0.934   3.827   9.837 -0.5807 -0.4177  0.2742
  199MPD1    H6 3036   1.013   3.773   9.802  1.6572  2.4274  1.0295
  199MPD1    H7 3037   0.889   3.884   9.766 -2.3968 -0.8863  1.0458
  200MPD1     C 3038   2.842   3.360  15.589 -0.3198 -0.1501 -0.0828
  200MPD1    C1 3039   2.856   3.485  15.640  0.6656  0.1980 -0.5640
  200MPD1    C2 3040   2.950   3.567  15.579 -0.1363 -0.3996  0.3450
  200MPD1    C3 3041   3.018   3.531  15.460 -0.4248  0.3015  0.1835
  200MPD1    C4 3042   3.005   3.398  15.423  0.7851  0.0602  0.0737
  200MPD1    C5 3043   2.922   3.315  15.491 -0.0033  0.4607  0.4641
  200MPD1     H 3044   2.957   3.665  15.623  0.8801 -0.2863 -0.0738
  200MPD1    H1 3045   3.057   3.366  15.333  1.0176 -0.5317  0.4131
  200MPD1    H2 3046   2.764   3.298  15.631  0.2227 -0.2097  0.8261
  200MPD1    H3 3047   2.911   3.213  15.459  0.8666  0.6725 -0.5137
  200MPD1     N 3048   3.102   3.627  15.394  0.1724  0.4964  0.4286
  200MPD1    H5 3049   3.090   3.725  15.421  3.0063  0.8214  0.5227
  200MPD1    N1 3050   2.781   3.515  15.753 -0.1118 -0.3756  0.1353
  200MPD1    H6 3051   2.778   3.617  15.759 -0.5603 -0.2379 -2.1613
  200MPD1    H7 3052   2.691   3.469  15.763 -0.8682  1.2994  1.1246
  201MPD1     C 3053   0.716   3.215  14.033  0.3449  0.2567 -0.2687
  201MPD1    C1 3054   0.669   3.108  13.956  0.4192  0.6400 -0.2706
  201MPD1    C2 3055   0.753   3.009  13.927 -0.0121 -0.5202  0.2488
  201MPD1    C3 3056   0.882   3.020  13.970 -0.6046  0.0181  0.3065
  201MPD1    C4 3057   0.932   3.133  14.018 -0.5282 -0.5047  0.5992
  201MPD1    C5 3058   0.843   3.219  14.063 -0.5579  0.4306  0.0032
  201MPD1     H 3059   0.722   2.922  13.870  1.8626 -1.5305  0.7497
  201MPD1    H1 3060   1.036   3.155  14.041 -0.5223  0.6711 -0.5859
  201MPD1    H2 3061   0.653   3.297  14.066 -0.7061 -1.9994  3.2200
  201MPD1    H3 3062   0.873   3.301  14.127  0.3451  0.8493 -0.9595
  201MPD1     N 3063   0.961   2.903  13.931  0.0638 -0.2220  0.0722
  201MPD1    H5 3064   0.909   2.823  13.898  0.5792 -0.0364 -1.1950
  201MPD1    N1 3065   0.532   3.091  13.926  0.4439  0.0288 -0.7191
  201MPD1    H6 3066   0.499   3.035  13.847  1.5186 -0.5938 -0.7236
  201MPD1    H7 3067   0.485   3.182  13.930  0.8962  0.3777 -3.4471
  202MPD1     C 3068   1.166   1.809   9.289 -0.6778 -0.8620  0.7331
  202MPD1    C1 3069   1.095   1.920   9.324 -0.3785  0.1322 -0.2378
  202MPD1    C2 3070   1.132   1.998   9.434  0.2781 -0.1450  0.0008
  202MPD1    C3 3071   1.226   1.947   9.533  0.3686 -0.4136  0.1130
  202MPD1    C4 3072   1.290   1.829   9.501  1.1376 -0.0490  0.0676
  202MPD1    C5 3073   1.255   1.766   9.382 -0.5638 -1.2320 -0.3930
  202MPD1     H 3074   1.087   2.096   9.445 -0.1187 -0.5469  2.0177
  202MPD1    H1 3075   1.354   1.784   9.576 -1.9317  0.2175  2.8500
  202MPD1    H2 3076   1.160   1.742   9.203 -1.9387 -0.6802  0.6799
  202MPD1    H3 3077   1.298   1.671   9.352  0.5666 -1.1096  0.8623
  202MPD1     N 3078   1.252   2.009   9.655 -1.0923 -0.4688 -0.6127
  202MPD1    H5 3079   1.310   1.956   9.719  0.5242  0.6302 -1.1591
  202MPD1    N1 3080   1.023   1.972   9.213 -0.0884  0.5614 -0.7297
  202MPD1    H6 3081   0.950   2.035   9.245  1.3834  2.2351 -0.7111
  202MPD1    H7 3082   0.977   1.911   9.146  2.5488 -1.2939 -0.8532
  203MPD1     C 3083   4.621   3.331  13.414  0.1010 -0.3386  0.8293
  203MPD1    C1 3084   4.592   3.202  13.446  0.3580  0.3619  0.1718
  203MPD1    C2 3085   4.542   3.122  13.343 -0.4423 -0.5222  0.1529
  203MPD1    C3 3086   4.528   3.167  13.215  1.1694  0.4144  0.3899
  203MPD1    C4 3087   4.572   3.291  13.182 -0.1974  0.0171 -0.1336
  203MPD1    C5 3088   4.614   3.376  13.284  0.8752  0.1848 -0.7928
  203MPD1     H 3089   4.494   3.027  13.363 -1.6061 -0.1686 -0.9394
  203MPD1    H1 3090   4.561   3.338  13.085  0.5646 -0.3313 -0.3925
  203MPD1    H2 3091   4.626   3.403  13.495  0.7890  1.1056 -0.5060
  203MPD1    H3 3092   4.632   3.480  13.258  0.0097 -0.1309 -2.6094
  203MPD1     N 3093   4.471   3.074  13.126 -0.1360 -0.2851  0.3130
  203MPD1    H5 3094   4.447   2.984  13.166  1.3413 -1.0219 -0.4315
  203MPD1    N1 3095   4.577   3.164  13.579 -0.3596 -0.7055 -0.3933
  203MPD1    H6 3096   4.637   3.216  13.643 -0.7602 -0.3472 -0.3092
  203MPD1    H7 3097   4.614   3.069  13.590  2.7351  0.7766  2.0766
  204MPD1     C 3098   3.559   4.134   0.517  0.2506  0.4855 -0.2265
  204MPD1    C1 3099   3.689   4.130   0.560 -0.1088 -0.2366 -0.2348
  204MPD1    C2 3100   3.786   4.138   0.464  0.3536 -0.1470 -0.2536
  204MPD1    C3 3101   3.756   4.118   0.331 -0.4973  0.1391 -0.8725
  204MPD1    C4 3102   3.619   4.102   0.294  0.0765  0.3808 -0.4887
  204MPD1    C5 3103   3.521   4.114   0.389 -0.1525 -0.8172  0.0017
  204MPD1     H 3104   3.884   4.180   0.482 -0.5096  1.4483  0.6925
  204MPD1    H1 3105   3.588   4.078   0.192 -0.2095  0.5019 -0.4289
  204MPD1    H2 3106   3.482   4.124   0.592 -0.8465  0.3203 -1.3674
  204MPD1    H3 3107   3.416   4.102   0.364  0.0404  0.9338 -1.6042
  204MPD1     N 3108   3.867   4.103   0.246 -0.2115 -1.0794 -0.1888
  204MPD1    H5 3109   3.958   4.102   0.290  0.1003 -2.7667 -0.8459
  204MPD1    N1 3110   3.718   4.146   0.701  0.3660  0.7286 -0.2720
  204MPD1    H6 3111   3.809   4.120   0.739  0.1509  0.7614  0.2702
  204MPD1    H7 3112   3.643   4.104   0.756 -0.4327  1.3240 -0.9069
  205MPD1     C 3113   4.665   2.353   0.554 -0.7778 -0.3195  0.2247
  205MPD1    C1 3114   4.548   2.418   0.583 -0.2836  0.6878 -0.8084
  205MPD1    C2 3115   4.526   2.542   0.532  0.0621  0.9196  0.5281
  205MPD1    C3 3116   4.617   2.603   0.446 -0.2534 -0.3539  0.2112
  205MPD1    C4 3117   0.004   2.534   0.410  0.1967 -1.5713 -0.0364
  205MPD1    C5 3118   0.031   2.415   0.469  0.5795 -1.0706  0.7995
  205MPD1     H 3119   4.431   2.593   0.548 -0.5188 -0.4439  1.3987
  205MPD1    H1 3120   0.069   2.573   0.333 -0.3743 -0.6679 -0.0572
  205MPD1    H2 3121   4.685   2.254   0.594 -0.7326  0.2715  1.6433
  205MPD1    H3 3122   0.116   2.356   0.435  0.8821  0.2878 -0.8140
  205MPD1     N 3123   4.590   2.724   0.369 -0.1412  0.1258 -0.5821
  205MPD1    H5 3124   4.660   2.744   0.299 -0.4221 -0.4862 -1.0323
  205MPD1    N1 3125   4.445   2.350   0.640 -0.1305  0.3670  0.5256
  205MPD1    H6 3126   4.490   2.275   0.691  0.7823  0.5347 -0.0206
  205MPD1    H7 3127   4.392   2.414   0.699 -1.2158  1.1114 -1.2441
  206MPD1     C 3128   4.250   1.204  17.179 -1.2610 -0.7584 -0.2856
  206MPD1    C1 3129   4.189   1.091  17.139 -0.9244  0.5138  0.2440
  206MPD1    C2 3130   4.161   1.056  17.007 -0.0901  0.6077 -0.0360
  206MPD1    C3 3131   4.206   1.145  16.913 -0.0146 -0.0433 -0.7410
  206MPD1    C4 3132   4.276   1.257  16.947 -0.5464  0.2021  0.2246
  206MPD1    C5 3133   4.293   1.286  17.082  0.4277 -0.3314  0.2974
  206MPD1     H 3134   4.122   0.959  16.981 -0.0921  0.4539  0.5584
  206MPD1    H1 3135   4.312   1.326  16.872  0.5551 -0.8795 -0.2308
  206MPD1    H2 3136   4.268   1.234  17.282 -2.1918  1.5361 -0.8039
  206MPD1    H3 3137   4.349   1.375  17.108 -2.5531  1.0851  1.8577
  206MPD1     N 3138   4.199   1.118  16.772  0.5885  0.1663  0.3836
  206MPD1    H5 3139   4.224   1.189  16.704 -0.6961 -0.1567 -0.4360
  206MPD1    N1 3140   4.138   1.000  17.235 -0.5224  0.7695 -0.1531
  206MPD1    H6 3141   4.197   0.991  17.318  0.6302 -0.2724 -1.0890
  206MPD1    H7 3142   4.130   0.906  17.199 -0.9194 -0.1029  2.2369
  207MPD1     C 3143   2.174   3.407   9.699 -0.1786  0.5956  0.0316
  207MPD1    C1 3144   2.287   3.487   9.691 -0.1642  0.2747 -0.5466
  207MPD1    C2 3145   2.332   3.549   9.804 -0.0259  0.2065  0.4614
  207MPD1    C3 3146   2.279   3.525   9.926  0.3435  0.4214 -0.6828
  207MPD1    C4 3147   2.178   3.430   9.941  0.8740  0.2606  0.5200
  207MPD1    C5 3148   2.123   3.380   9.828  0.4908 -0.1917 -0.7007
  207MPD1     H 3149   2.398   3.634   9.793 -1.0934  0.9067 -0.5446
  207MPD1    H1 3150   2.135   3.394  10.033 -0.7965  2.7119  0.6795
  207MPD1    H2 3151   2.119   3.358   9.619 -1.3282  0.3053  1.0163
  207MPD1    H3 3152   2.047   3.304   9.832 -0.3388  0.6735 -0.2122
  207MPD1     N 3153   2.332   3.566  10.052  0.3134 -0.0983 -0.0800
  207MPD1    H5 3154   2.288   3.521  10.132  1.4611 -2.8823 -1.0060
  207MPD1    N1 3155   2.320   3.537   9.563  0.1612 -0.3054  0.4805
  207MPD1    H6 3156   2.319   3.461   9.495  1.1476  0.5795 -0.5131
  207MPD1    H7 3157   2.403   3.594   9.547  0.2467 -0.5488  0.0674
  208MPD1     C 3158   1.106   2.826   0.310 -0.4948  0.1021 -0.2353
  208MPD1    C1 3159   1.068   2.697   0.337 -0.6358 -0.4942  0.1931
  208MPD1    C2 3160   1.015   2.614   0.236  0.5302  0.5829 -0.0205
  208MPD1    C3 3161   0.973   2.669   0.120 -0.0802 -0.2125 -0.3190
  208MPD1    C4 3162   1.003   2.799   0.104  0.4438 -0.4807  0.0951
  208MPD1    C5 3163   1.073   2.877   0.192  0.0920 -0.1498  0.4113
  208MPD1     H 3164   1.006   2.509   0.259 -2.3231  1.3094  2.0729
  208MPD1    H1 3165   0.965   2.847   0.014 -0.6525 -1.9922 -0.2584
  208MPD1    H2 3166   1.169   2.883   0.378  0.9834  0.4655 -1.9065
  208MPD1    H3 3167   1.100   2.977   0.159 -1.1841  0.5037  1.3696
  208MPD1     N 3168   0.899   2.584   0.040  0.2014  0.2056  0.0846
  208MPD1    H5 3169   0.874   2.501   0.091  2.9598 -0.7199 -0.0628
  208MPD1    N1 3170   1.116   2.640   0.456 -0.0352  0.3758  0.3013
  208MPD1    H6 3171   1.125   2.713   0.527  0.2508  0.3436  0.3015
  208MPD1    H7 3172   1.046   2.576   0.492 -2.3258  2.2496 -0.8135
  209MPD1     C 3173   2.225   2.658  11.731  0.0327  1.0289 -0.6750
  209MPD1    C1 3174   2.118   2.739  11.737  0.1957  0.0686 -0.4961
  209MPD1    C2 3175   2.121   2.859  11.674  0.5089 -0.2267  0.2914
  209MPD1    C3 3176   2.235   2.896  11.593  0.1234  0.4713 -0.1949
  209MPD1    C4 3177   2.346   2.809  11.579  1.0872 -0.2219 -0.4834
  209MPD1    C5 3178   2.332   2.693  11.651  0.7726  0.1672  0.0369
  209MPD1     H 3179   2.040   2.931  11.686 -0.1516 -0.8019 -0.7151
  209MPD1    H1 3180   2.431   2.828  11.514  0.5503  1.8521 -0.5573
  209MPD1    H2 3181   2.225   2.569  11.792 -1.3243  1.5505  0.0843
  209MPD1    H3 3182   2.413   2.622  11.640  0.0015 -0.4546 -1.5326
  209MPD1     N 3183   2.229   3.027  11.533 -0.6035  0.3968  0.4301
  209MPD1    H5 3184   2.149   3.084  11.559 -3.5957 -2.8491 -1.6030
  209MPD1    N1 3185   2.025   2.715  11.832 -0.1464  0.1976 -0.1140
  209MPD1    H6 3186   2.013   2.614  11.835  0.9747  0.0455 -0.6280
  209MPD1    H7 3187   1.933   2.753  11.815 -0.8912 -1.8080 -0.6232
  210MPD1     C 3188   2.332   3.994  11.682  0.7958  0.1511 -0.3628
  210MPD1    C1 3189   2.275   3.881  11.737 -0.5960  0.5561 -0.0846
  210MPD1    C2 3190   2.289   3.762  11.681 -0.1677  0.1887  0.3202
  210MPD1    C3 3191   2.338   3.756  11.549 -0.3802 -0.5192 -0.7957
  210MPD1    C4 3192   2.393   3.867  11.492  0.0194  0.1265  0.2761
  210MPD1    C5 3193   2.397   3.986  11.563  0.0604  0.3491 -0.2384
  210MPD1     H 3194   2.263   3.672  11.736  0.1104 -1.0319 -1.5302
  210MPD1    H1 3195   2.447   3.849  11.400 -1.1381  1.2267 -0.6146
  210MPD1    H2 3196   2.336   4.087  11.738  3.2145  0.1771 -0.5969
  210MPD1    H3 3197   2.447   4.074  11.525 -0.6032  0.4757 -0.8132
  210MPD1     N 3198   2.334   3.632  11.481  1.1216 -0.2536  0.5180
  210MPD1    H5 3199   2.382   3.627  11.392  1.1477 -1.9836  0.6243
  210MPD1    N1 3200   2.230   3.883  11.866 -0.3308 -0.0696  0.0232
  210MPD1    H6 3201   2.175   3.799  11.886 -0.1819  0.1207  1.2623
  210MPD1    H7 3202   2.179   3.968  11.891  1.3471  1.1104 -0.5672
  211MPD1     C 3203   1.083   3.137  16.781 -0.3128 -0.4184 -0.1798
  211MPD1    C1 3204   1.022   3.059  16.877 -0.7425 -0.3731  0.0030
  211MPD1    C2 3205   0.882   3.041  16.881 -0.3057  0.0272 -0.0134
  211MPD1    C3 3206   0.797   3.106  16.795  0.5917  0.7711  1.1462
  211MPD1    C4 3207   0.864   3.184  16.698 -0.0025 -0.1637  0.4529
  211MPD1    C5 3208   0.996   3.209  16.703  0.0641  0.4822 -0.0273
  211MPD1     H 3209   0.838   2.959  16.936  0.5534 -0.4332 -0.0167
  211MPD1    H1 3210   0.810   3.248  16.629  0.4872  4.0963  4.0921
  211MPD1    H2 3211   1.188   3.161  16.774 -0.4643 -0.2147 -1.6802
  211MPD1    H3 3212   1.044   3.284  16.640 -0.6399 -0.1828 -1.3540
  211MPD1     N 3213   0.657   3.090  16.793 -0.0941 -0.3935 -0.1375
  211MPD1    H5 3214   0.610   3.027  16.857  0.6863 -0.9032 -0.0668
  211MPD1    N1 3215   1.099   2.973  16.955 -0.2604 -0.3039 -0.1289
  211MPD1    H6 3216   1.182   3.020  16.991 -0.1757  1.0434 -2.0623
  211MPD1    H7 3217   1.053   2.939  17.039 -0.3400 -0.0690 -0.0762
  212MPD1     C 3218   3.846   1.213  16.574 -0.3385  0.6052  0.7295
  212MPD1    C1 3219   3.809   1.258  16.696  0.4838  0.0817 -0.0244
  212MPD1    C2 3220   3.732   1.171  16.771 -0.3394 -0.3873  0.0005
  212MPD1    C3 3221   3.699   1.042  16.726  0.4186 -0.0351  0.0876
  212MPD1    C4 3222   3.725   1.013  16.592  0.1733 -0.5554 -0.6018
  212MPD1    C5 3223   3.807   1.091  16.528  0.0539  0.5977  0.1909
  212MPD1     H 3224   3.709   1.204  16.872  0.3156  0.6068 -0.1743
  212MPD1    H1 3225   3.693   0.919  16.548  0.7114 -0.9551 -0.1408
  212MPD1    H2 3226   3.913   1.274  16.514 -0.5591  0.1086 -0.0186
  212MPD1    H3 3227   3.845   1.057  16.432  0.7484 -0.4409  0.8403
  212MPD1     N 3228   3.617   0.952  16.804 -0.1328 -0.5608  0.2640
  212MPD1    H5 3229   3.592   0.867  16.755 -2.0245  0.1695 -0.0335
  212MPD1    N1 3230   3.862   1.372  16.760  0.3878  0.1992  0.1283
  212MPD1    H6 3231   3.786   1.424  16.802 -1.5497 -2.3582 -0.2431
  212MPD1    H7 3232   3.898   1.433  16.687 -0.9907 -1.5329 -2.0048
  213MPD1     C 3233   1.932   2.935  15.758  0.6856  0.8341 -0.0068
  213MPD1    C1 3234   2.054   2.916  15.694 -0.2023 -0.6453  0.6010
  213MPD1    C2 3235   2.037   2.824  15.589  0.3164  0.1927  0.0133
  213MPD1    C3 3236   1.918   2.775  15.537 -0.0225  1.4088 -1.1800
  213MPD1    C4 3237   1.797   2.831  15.593  0.0021  0.0285  0.0893
  213MPD1    C5 3238   1.812   2.917  15.696  0.3856  0.4754  0.0137
  213MPD1     H 3239   2.127   2.775  15.554 -0.1035 -0.8864  0.4580
  213MPD1    H1 3240   1.700   2.808  15.552  0.3565  0.8566 -1.2261
  213MPD1    H2 3241   1.934   2.986  15.854 -0.8234  0.6831  0.0926
  213MPD1    H3 3242   1.726   2.966  15.740  0.1176  0.0881 -0.0775
  213MPD1     N 3243   1.919   2.678  15.438  0.7407  0.8108  0.0281
  213MPD1    H5 3244   2.012   2.646  15.412  1.1495  0.7816  1.5222
  213MPD1    N1 3245   2.176   2.925  15.766  0.1660 -0.1914 -0.4370
  213MPD1    H6 3246   2.176   3.009  15.825  2.3137 -0.2509 -0.3611
  213MPD1    H7 3247   2.254   2.928  15.701  0.8898 -1.3549  0.3972
  214MPD1     C 3248   1.557   1.765  15.500 -0.7570 -0.0943 -0.0111
  214MPD1    C1 3249   1.557   1.782  15.360 -0.3788 -0.1991 -0.3493
  214MPD1    C2 3250   1.619   1.896  15.306  0.3727  0.1447  0.0105
  214MPD1    C3 3251   1.678   1.994  15.385 -0.2940  0.1967  0.1908
  214MPD1    C4 3252   1.663   1.980  15.521  0.4672  0.5570  0.3698
  214MPD1    C5 3253   1.605   1.869  15.573  0.4484 -0.2672  0.4675
  214MPD1     H 3254   1.620   1.887  15.198  1.1497 -1.2411  0.1305
  214MPD1    H1 3255   1.715   2.050  15.585 -0.2819  2.3588 -1.0289
  214MPD1    H2 3256   1.510   1.678  15.545 -0.1588 -0.6391 -0.4304
  214MPD1    H3 3257   1.596   1.868  15.681 -2.4253 -0.8380  0.2264
  214MPD1     N 3258   1.727   2.116  15.339  0.1221 -0.3758 -0.3282
  214MPD1    H5 3259   1.751   2.183  15.412 -2.6933 -0.2398  0.4877
  214MPD1    N1 3260   1.530   1.684  15.271 -0.0812 -0.6719  0.4911
  214MPD1    H6 3261   1.490   1.721  15.184  0.4868  0.2061  0.6045
  214MPD1    H7 3262   1.460   1.624  15.314  0.0252 -1.3759 -0.3066
  215MPD1     C 3263   1.019   3.183  11.687 -0.1751  0.5500 -0.1028
  215MPD1    C1 3264   1.117   3.158  11.782  0.4803  0.1990  0.4099
  215MPD1    C2 3265   1.243   3.214  11.765 -0.3023 -0.3257 -0.3694
  215MPD1    C3 3266   1.265   3.316  11.670  0.0282  0.3867 -0.8966
  215MPD1    C4 3267   1.157   3.358  11.590  0.2348  0.4520  0.2533
  215MPD1    C5 3268   1.036   3.291  11.601  0.2285 -0.0306  0.5971
  215MPD1     H 3269   1.325   3.184  11.829 -0.4821  2.2696  1.0924
  215MPD1    H1 3270   1.163   3.437  11.516  1.2034  1.9114  1.8908
  215MPD1    H2 3271   0.932   3.119  11.677 -0.5057  1.0518 -0.4458
  215MPD1    H3 3272   0.948   3.312  11.540  1.3317  1.3767 -0.4789
  215MPD1     N 3273   1.392   3.374  11.661 -0.3369  0.2954  0.5667
  215MPD1    H5 3274   1.455   3.340  11.733  0.7099 -0.8192 -0.8639
  215MPD1    N1 3275   1.098   3.047  11.867  0.4891 -0.3986 -0.0737
  215MPD1    H6 3276   1.000   3.033  11.889  0.4451 -0.9910 -0.6386
  215MPD1    H7 3277   1.154   3.062  11.951  1.7867  0.4076 -1.0760
  216MPD1     C 3278   3.809   0.677  16.549 -1.3547  0.1037  0.3919
  216MPD1    C1 3279   3.761   0.557  16.498  0.4012  0.7950  0.9907
  216MPD1    C2 3280   3.775   0.441  16.569  0.0829 -0.3228 -0.2971
  216MPD1    C3 3281   3.831   0.450  16.696 -0.8562 -0.2392  0.2723
  216MPD1    C4 3282   3.880   0.571  16.739  0.5048 -0.0494  0.5113
  216MPD1    C5 3283   3.872   0.681  16.669  0.5907 -0.2427 -0.7778
  216MPD1     H 3284   3.741   0.345  16.531 -1.3141  0.8538 -2.0217
  216MPD1    H1 3285   3.950   0.590  16.821  0.7808  0.0836  0.2450
  216MPD1    H2 3286   3.810   0.766  16.488  0.1064  2.1253  3.3519
  216MPD1    H3 3287   3.918   0.774  16.700 -0.9182  0.8471 -1.8002
  216MPD1     N 3288   3.849   0.330  16.764  0.3421  0.1690  0.3847
  216MPD1    H5 3289   3.818   0.248  16.713 -0.7328  0.7187  0.1677
  216MPD1    N1 3290   3.714   0.550  16.363  0.1813  0.8147 -0.2798
  216MPD1    H6 3291   3.641   0.481  16.347 -0.3407  1.1974  0.4446
  216MPD1    H7 3292   3.683   0.638  16.323 -0.7600  1.0514  0.9687
  217MPD1     C 3293   4.271   2.292   8.517  0.0171 -0.6855  0.3559
  217MPD1    C1 3294   4.349   2.181   8.545  0.1728  0.5004 -0.0118
  217MPD1    C2 3295   4.438   2.183   8.652 -0.7121  0.0175  0.0331
  217MPD1    C3 3296   4.434   2.277   8.748  0.1357 -0.0492  0.1258
  217MPD1    C4 3297   4.337   2.374   8.733 -1.4833 -0.2243 -0.1942
  217MPD1    C5 3298   4.261   2.387   8.620  0.3617 -0.1491  0.6575
  217MPD1     H 3299   4.495   2.093   8.665  1.4818  1.4360  0.2304
  217MPD1    H1 3300   4.327   2.447   8.812 -2.3301 -0.4474 -0.0955
  217MPD1    H2 3301   4.224   2.309   8.421 -0.5188 -1.1295  0.5418
  217MPD1    H3 3302   4.212   2.479   8.591  1.3508  0.1082 -0.1391
  217MPD1     N 3303   4.504   2.274   8.868  0.2384 -0.3200  0.4438
  217MPD1    H5 3304   4.485   2.356   8.924  1.5169 -0.1724  0.6672
  217MPD1    N1 3305   4.351   2.081   8.444 -0.9859  0.2353 -0.2822
  217MPD1    H6 3306   4.268   2.056   8.391 -1.7978 -0.1662  1.1741
  217MPD1    H7 3307   4.394   1.992   8.470  0.1077  1.7425  3.0847
  218MPD1     C 3308   1.527   2.500  13.323  0.2505 -0.1027 -0.4272
  218MPD1    C1 3309   1.648   2.514  13.380 -0.1215 -0.4806 -0.1744
  218MPD1    C2 3310   1.734   2.603  13.316  0.0810 -0.0018 -0.2952
  218MPD1    C3 3311   1.682   2.696  13.230 -0.1736 -0.0587 -1.0917
  218MPD1    C4 3312   1.554   2.686  13.176  0.6662 -0.1931 -0.7720
  218MPD1    C5 3313   1.487   2.577  13.219  0.6953 -0.3558  0.4327
  218MPD1     H 3314   1.840   2.603  13.338 -0.1188 -0.6173  0.6568
  218MPD1    H1 3315   1.508   2.753  13.103  0.7911  1.8180  0.9851
  218MPD1    H2 3316   1.465   2.422  13.365 -1.7232  1.4255 -0.4766
  218MPD1    H3 3317   1.390   2.559  13.173  0.6807  1.3441 -0.2152
  218MPD1     N 3318   1.778   2.772  13.161  0.4604 -0.6979 -0.2978
  218MPD1    H5 3319   1.874   2.751  13.184  0.0036 -1.4633  0.8768
  218MPD1    N1 3320   1.700   2.422  13.473 -0.1015 -0.2687 -0.1085
  218MPD1    H6 3321   1.786   2.458  13.512  0.2511 -0.5290 -0.6374
  218MPD1    H7 3322   1.627   2.402  13.541 -1.6374  0.5853 -1.5052
  219MPD1     C 3323   1.700   3.541  12.470 -0.3452 -0.1649  0.0640
  219MPD1    C1 3324   1.817   3.478  12.464 -0.0176  0.5751 -0.3419
  219MPD1    C2 3325   1.858   3.396  12.567  1.0106  0.7089  0.1023
  219MPD1    C3 3326   1.776   3.378  12.676 -0.3081 -0.0540 -0.1813
  219MPD1    C4 3327   1.652   3.439  12.683 -0.8592 -0.4567  0.4417
  219MPD1    C5 3328   1.620   3.523  12.577  0.6898 -0.2375  0.3298
  219MPD1     H 3329   1.954   3.347  12.562  0.7785  0.5454 -2.6285
  219MPD1    H1 3330   1.584   3.436  12.767  1.1268 -0.7355  2.0282
  219MPD1    H2 3331   1.664   3.586  12.378 -1.3017  2.0962  1.5581
  219MPD1    H3 3332   1.523   3.570  12.576  0.1402 -1.4125 -0.9537
  219MPD1     N 3333   1.809   3.304  12.792 -0.1265 -0.4044  0.0830
  219MPD1    H5 3334   1.730   3.281  12.851  0.9591 -0.9378  1.3228
  219MPD1    N1 3335   1.879   3.478  12.337 -0.0043  0.1673  0.5195
  219MPD1    H6 3336   1.973   3.439  12.337  0.2899  0.9025  2.8966
  219MPD1    H7 3337   1.880   3.565  12.285 -0.0891  0.0505  0.3220
  220MPD1     C 3338   1.289   3.839   9.779  0.2746 -0.3771 -0.2169
  220MPD1    C1 3339   1.259   3.707   9.793 -0.2429 -0.6501 -0.1596
  220MPD1    C2 3340   1.295   3.644   9.908  0.0332  0.2541 -0.4861
  220MPD1    C3 3341   1.370   3.714  10.006  0.3996 -0.7162  0.3835
  220MPD1    C4 3342   1.397   3.846   9.993  0.8279  0.0042 -0.2078
  220MPD1    C5 3343   1.351   3.909   9.878 -0.0824 -0.0261 -0.0351
  220MPD1     H 3344   1.249   3.547   9.925 -2.2949  1.4092 -0.2112
  220MPD1    H1 3345   1.445   3.906  10.069 -0.5989 -1.0184  1.4897
  220MPD1    H2 3346   1.238   3.901   9.707  1.1436 -0.1112 -0.6114
  220MPD1    H3 3347   1.366   4.017   9.877  2.4977 -0.3888  0.2592
  220MPD1     N 3348   1.409   3.643  10.123  0.1918  0.3925  0.0465
  220MPD1    H5 3349   1.360   3.555  10.133  0.5379  0.1551 -0.3676
  220MPD1    N1 3350   1.159   3.647   9.718 -0.0012  0.3985  0.0734
  220MPD1    H6 3351   1.142   3.550   9.743 -0.4143  0.7001  0.9640
  220MPD1    H7 3352   1.189   3.659   9.622 -1.3143  1.4983 -0.2066
  221MPD1     C 3353   0.627   2.270  16.865 -0.0757  0.4928 -0.0424
  221MPD1    C1 3354   0.529   2.173  16.887  0.1029  0.5506 -0.6862
  221MPD1    C2 3355   0.402   2.189  16.844  0.2358  0.3773 -0.4243
  221MPD1    C3 3356   0.363   2.304  16.782  0.2637  0.1114 -0.2155
  221MPD1    C4 3357   0.461   2.400  16.754 -0.0855  0.1981  0.6018
  221MPD1    C5 3358   0.593   2.382  16.795  0.4086 -0.0227  0.1149
  221MPD1     H 3359   0.333   2.106  16.855  0.4554  0.2771  0.2178
  221MPD1    H1 3360   0.437   2.490  16.698  1.0493  1.2625  1.8504
  221MPD1    H2 3361   0.728   2.264  16.902 -0.4273  3.1423  1.3040
  221MPD1    H3 3362   0.665   2.461  16.778  0.6503 -0.2022  0.2893
  221MPD1     N 3363   0.235   2.327  16.729  0.4550  0.3559 -0.9296
  221MPD1    H5 3364   0.234   2.412  16.673 -0.9547  0.3420 -0.9108
  221MPD1    N1 3365   0.570   2.046  16.943  0.3603 -0.0773  0.1241
  221MPD1    H6 3366   0.655   2.051  16.997  2.1891  2.0801 -2.9279
  221MPD1    H7 3367   0.496   1.997  16.992  0.1038 -0.1109 -0.2955
  222MPD1     C 3368   3.829   0.716  17.128  0.7633  0.5120 -0.5607
  222MPD1    C1 3369   3.735   0.652  17.202 -0.1922  0.6994 -0.2735
  222MPD1    C2 3370   3.648   0.720  17.285  0.5504 -0.0122  0.4789
  222MPD1    C3 3371   3.653   0.855  17.298  0.6744 -0.1496  0.3477
  222MPD1    C4 3372   3.742   0.925  17.220  0.2793  0.0507  0.0234
  222MPD1    C5 3373   3.820   0.853  17.131 -0.1825  0.9820  0.1706
  222MPD1     H 3374   3.579   0.663  17.345  1.5675 -2.2665 -0.4950
  222MPD1    H1 3375   3.748   1.033  17.212 -0.1502 -0.0348 -1.3658
  222MPD1    H2 3376   3.899   0.655  17.072  0.5872 -0.1507 -0.0606
  222MPD1    H3 3377   3.879   0.914  17.064 -2.2457  0.0652 -2.4602
  222MPD1     N 3378   3.573   0.928  17.388 -0.5999  0.4590 -0.0422
  222MPD1    H5 3379   3.574   1.029  17.376  0.3326  0.4226 -0.2609
  222MPD1    N1 3380   3.739   0.512  17.201  0.0083 -0.2054 -0.0002
  222MPD1    H6 3381   3.794   0.475  17.124 -0.0024 -2.2698  0.9913
  222MPD1    H7 3382   3.650   0.464  17.210  0.8382 -1.6156  0.7070
  223MPD1     C 3383   3.120   0.903   0.684 -0.1014 -0.5559  0.2831
  223MPD1    C1 3384   3.132   1.037   0.648 -0.2501 -0.4389  0.4547
  223MPD1    C2 3385   3.175   1.077   0.527  0.6525  0.0068 -0.6084
  223MPD1    C3 3386   3.200   0.985   0.436 -0.3965 -0.1171 -0.1793
  223MPD1    C4 3387   3.185   0.853   0.467  0.4317  0.3503  0.0557
  223MPD1    C5 3388   3.138   0.807   0.585 -0.1256 -0.4156 -0.7223
  223MPD1     H 3389   3.177   1.181   0.496 -1.1818  0.7434  1.7369
  223MPD1    H1 3390   3.206   0.773   0.397 -1.3543  1.2402 -1.5003
  223MPD1    H2 3391   3.098   0.870   0.785 -1.6655 -1.0475 -0.2199
  223MPD1    H3 3392   3.141   0.701   0.607  0.5208 -0.8667 -2.9683
  223MPD1     N 3393   3.251   1.031   0.311  0.2037  0.9478 -0.1262
  223MPD1    H5 3394   3.263   1.131   0.303  1.4758  0.7652 -0.4246
  223MPD1    N1 3395   3.129   1.124   0.750  0.3540  0.5849 -0.5349
  223MPD1    H6 3396   3.110   1.221   0.724  0.8690  1.7004  3.1255
  223MPD1    H7 3397   3.077   1.091   0.831  0.1525  1.3535 -0.3475
  224MPD1     C 3398   0.436   3.384   9.285  0.8773  0.3119  0.1342
  224MPD1    C1 3399   0.553   3.316   9.317 -0.5298  0.2141  0.3485
  224MPD1    C2 3400   0.554   3.223   9.412 -0.6844 -0.9291 -0.6510
  224MPD1    C3 3401   0.437   3.187   9.485  0.1447 -0.2894  0.1408
  224MPD1    C4 3402   0.324   3.252   9.448  0.6859 -0.4642  0.3965
  224MPD1    C5 3403   0.324   3.355   9.357  0.2827  0.2177 -0.5613
  224MPD1     H 3404   0.645   3.172   9.442  0.2081  0.6933 -0.5670
  224MPD1    H1 3405   0.231   3.223   9.494  0.2090  0.0212 -0.2580
  224MPD1    H2 3406   0.428   3.441   9.193  0.0384  1.3443  0.8425
  224MPD1    H3 3407   0.239   3.421   9.343  0.4802  0.3590 -1.0737
  224MPD1     N 3408   0.428   3.079   9.580  0.3731  0.2358  0.1752
  224MPD1    H5 3409   0.337   3.059   9.620  1.2281 -1.1388  1.4362
  224MPD1    N1 3410   0.662   3.327   9.230 -0.0108  0.3345 -0.3449
  224MPD1    H6 3411   0.752   3.309   9.274 -0.9055  0.3745  1.5283
  224MPD1    H7 3412   0.670   3.422   9.194  0.4332  1.2184  2.0117
  225MPD1     C 3413   0.989   2.878  12.980  0.6541  0.1807  0.4078
  225MPD1    C1 3414   1.095   2.964  13.014  0.6646 -0.3873  0.3249
  225MPD1    C2 3415   1.089   3.094  12.990  0.3574  0.9370  0.5880
  225MPD1    C3 3416   0.980   3.144  12.930 -0.1224 -0.3131  0.2878
  225MPD1    C4 3417   0.871   3.064  12.893 -0.4643 -0.4285 -0.4263
  225MPD1    C5 3418   0.881   2.931  12.923 -0.0017  0.4807  1.3816
  225MPD1     H 3419   1.171   3.158  13.023  1.7676 -1.3733  1.5387
  225MPD1    H1 3420   0.786   3.115  12.849 -2.1855 -1.9469  1.1653
  225MPD1    H2 3421   0.999   2.772  13.001 -0.0404  0.5412  2.6313
  225MPD1    H3 3422   0.811   2.857  12.888  1.3677 -0.0950 -0.1587
  225MPD1     N 3423   0.970   3.279  12.909  0.1884 -0.3348 -0.2224
  225MPD1    H5 3424   0.879   3.307  12.872  0.5733  1.6775  0.3621
  225MPD1    N1 3425   1.206   2.903  13.073 -0.3006 -0.5504 -0.2425
  225MPD1    H6 3426   1.205   2.802  13.060  1.6403 -0.6542  0.3652
  225MPD1    H7 3427   1.287   2.943  13.025  0.2493 -2.4430 -0.8815
  226MPD1     C 3428   0.201   2.609   9.689  0.2620 -0.5933 -0.2674
  226MPD1    C1 3429   0.225   2.704   9.591  0.7209  0.3365  0.2898
  226MPD1    C2 3430   0.137   2.810   9.587 -0.1127  0.2145 -0.1044
  226MPD1    C3 3431   0.029   2.824   9.675  0.4554 -0.5070 -0.4002
  226MPD1    C4 3432   0.025   2.745   9.786  0.3620  0.6058  0.3722
  226MPD1    C5 3433   0.106   2.636   9.784  0.3252  0.0699 -0.7054
  226MPD1     H 3434   0.142   2.875   9.500 -1.5590  0.0869 -0.2856
  226MPD1    H1 3435   4.681   2.764   9.866 -1.1297 -2.5363 -0.2022
  226MPD1    H2 3436   0.248   2.512   9.683  1.3255 -0.0687 -0.3952
  226MPD1    H3 3437   0.081   2.560   9.857  0.5298  1.6905  1.0467
  226MPD1     N 3438   4.662   2.927   9.656  0.1688  0.9062  0.1504
  226MPD1    H5 3439   4.693   2.990   9.583  0.9034  0.2710 -0.0840
  226MPD1    N1 3440   0.322   2.685   9.486 -0.5892  0.1806  0.5456
  226MPD1    H6 3441   0.408   2.640   9.514 -1.0767 -0.9564  0.2034
  226MPD1    H7 3442   0.353   2.764   9.430 -0.0523 -0.9815 -0.7958
  227MPD1     C 3443   3.712   3.225   9.804 -0.5951  0.3721  0.1946
  227MPD1    C1 3444   3.761   3.103   9.769 -0.2555  0.1800 -1.0917
  227MPD1    C2 3445   3.897   3.094   9.740  0.5678 -0.0352  0.3006
  227MPD1    C3 3446   3.980   3.199   9.772 -0.1578 -0.5160  0.3204
  227MPD1    C4 3447   3.924   3.318   9.811  0.2068  0.1421  0.3035
  227MPD1    C5 3448   3.787   3.338   9.816  0.7413  0.6069  0.1228
  227MPD1     H 3449   3.937   3.001   9.701 -0.3028  0.0678 -0.8398
  227MPD1    H1 3450   3.972   3.411   9.839  0.3240  0.0006  0.5727
  227MPD1    H2 3451   3.609   3.231   9.834 -0.9581 -0.7716 -0.8071
  227MPD1    H3 3452   3.743   3.433   9.843 -0.4412  0.1600 -0.2315
  227MPD1     N 3453   4.117   3.173   9.777  0.0305  0.6102 -0.0380
  227MPD1    H5 3454   4.151   3.080   9.757  0.2084  0.3342  1.5981
  227MPD1    N1 3455   3.674   2.996   9.734 -0.5109 -0.1862 -0.1515
  227MPD1    H6 3456   3.716   2.907   9.760  1.3700  0.9227  0.6172
  227MPD1    H7 3457   3.584   3.007   9.781 -0.5071  1.7324 -0.6029
  228MPD1     C 3458   3.024   1.795  13.517  0.8513 -0.2142  0.9727
  228MPD1    C1 3459   2.931   1.835  13.421  0.0159 -0.0231  0.5761
  228MPD1    C2 3460   2.795   1.803  13.432 -0.6573  0.8542  0.0914
  228MPD1    C3 3461   2.757   1.720  13.536  0.7845 -0.1991 -0.1255
  228MPD1    C4 3462   2.858   1.657  13.618  0.3208  0.5810 -0.0859
  228MPD1    C5 3463   2.989   1.703  13.609 -0.5819 -0.3391  1.2448
  228MPD1     H 3464   2.718   1.837  13.363 -1.0589 -1.4713 -0.5949
  228MPD1    H1 3465   2.847   1.583  13.696  2.9518  0.7884  0.4947
  228MPD1    H2 3466   3.120   1.842  13.536  0.8141  0.8715 -1.4285
  228MPD1    H3 3467   3.063   1.681  13.685  0.8120  1.5811  0.4492
  228MPD1     N 3468   2.618   1.685  13.544 -0.1901 -0.4957  0.0722
  228MPD1    H5 3469   2.556   1.702  13.465  1.3837 -0.1256 -1.0807
  228MPD1    N1 3470   2.970   1.941  13.346  0.4139  0.2637 -0.5968
  228MPD1    H6 3471   2.919   1.958  13.259 -0.5923  1.6198  0.2456
  228MPD1    H7 3472   3.071   1.950  13.335  0.1282  1.9123 -1.9221
  229MPD1     C 3473   2.443   0.386  14.666  0.3633 -0.0106  0.1454
  229MPD1    C1 3474   2.541   0.288  14.670  0.5536  0.0470  1.0495
  229MPD1    C2 3475   2.583   0.238  14.800 -0.1135 -0.7628  0.0595
  229MPD1    C3 3476   2.526   0.288  14.919 -0.9229 -0.0701  0.0922
  229MPD1    C4 3477   2.424   0.378  14.910  0.1888 -0.4857  0.5813
  229MPD1    C5 3478   2.381   0.424  14.783  0.1013  0.0048  0.1823
  229MPD1     H 3479   2.663   0.166  14.800 -0.1809 -0.8371 -0.6962
  229MPD1    H1 3480   2.362   0.399  14.996  1.4509  1.2559  1.0629
  229MPD1    H2 3481   2.403   0.426  14.574  1.4709  1.8841  0.4953
  229MPD1    H3 3482   2.287   0.478  14.773 -0.6056 -1.2097  0.1789
  229MPD1     N 3483   2.557   0.232  15.043 -0.3184 -0.3138 -0.0838
  229MPD1    H5 3484   2.529   0.292  15.120  1.2657 -0.4458  0.6100
  229MPD1    N1 3485   2.596   0.226  14.550 -0.1997  0.0129 -0.1114
  229MPD1    H6 3486   2.690   0.190  14.563 -0.5254 -1.1022 -0.9103
  229MPD1    H7 3487   2.603   0.290  14.471  0.7041  0.1415  0.0815
  230MPD1     C 3488   2.501   0.609  15.891  0.0881 -0.4059  0.6717
  230MPD1    C1 3489   2.558   0.492  15.936  0.1789  0.3811  0.7068
  230MPD1    C2 3490   2.625   0.415  15.846  0.3878 -0.1838 -0.7784
  230MPD1    C3 3491   2.617   0.434  15.713 -0.4878 -0.3740 -0.4299
  230MPD1    C4 3492   2.540   0.543  15.664  0.0429  0.1836 -1.0174
  230MPD1    C5 3493   2.483   0.625  15.755 -0.4745 -0.6064  0.1534
  230MPD1     H 3494   2.681   0.327  15.876  1.8342  2.0591  3.1525
  230MPD1    H1 3495   2.521   0.573  15.562  1.5228 -0.2186 -1.4192
  230MPD1    H2 3496   2.465   0.690  15.954  1.1415  0.2182  0.4655
  230MPD1    H3 3497   2.425   0.711  15.722  1.2549  0.2402 -0.6863
  230MPD1     N 3498   2.654   0.330  15.619 -0.0541 -0.1427 -0.2543
  230MPD1    H5 3499   2.673   0.241  15.664  1.2075  0.1784 -0.1384
  230MPD1    N1 3500   2.581   0.475  16.072 -0.4741 -0.3230 -0.3384
  230MPD1    H6 3501   2.587   0.376  16.098 -2.6520 -0.6880 -1.2174
  230MPD1    H7 3502   2.508   0.523  16.124 -1.8997 -1.0897 -1.6399
  231MPD1     C 3503   1.248   2.844  16.331  0.3378  0.0527  0.2393
  231MPD1    C1 3504   1.187   2.736  16.271  0.0639  0.8137 -0.0138
  231MPD1    C2 3505   1.227   2.698  16.150  0.0839 -0.4843  0.6279
  231MPD1    C3 3506   1.309   2.774  16.069  0.0197  0.0668  0.2367
  231MPD1    C4 3507   1.363   2.884  16.120  0.1189  0.3562  0.2168
  231MPD1    C5 3508   1.326   2.926  16.250 -0.5273  0.0671 -0.0520
  231MPD1     H 3509   1.190   2.609  16.102  1.8301 -1.3974  0.9626
  231MPD1    H1 3510   1.438   2.943  16.070 -0.8174 -0.4485 -2.1407
  231MPD1    H2 3511   1.231   2.883  16.430  0.3824  0.0568  0.2452
  231MPD1    H3 3512   1.367   3.018  16.292  0.8455 -1.7890  2.6793
  231MPD1     N 3513   1.328   2.733  15.934  0.2292  0.1463 -0.1293
  231MPD1    H5 3514   1.291   2.644  15.903  0.2490  0.1921 -0.2847
  231MPD1    N1 3515   1.119   2.645  16.353  0.4492 -0.1988 -0.2300
  231MPD1    H6 3516   1.067   2.691  16.428  0.6436  0.7572 -0.6855
  231MPD1    H7 3517   1.045   2.601  16.298  2.7980  0.2568 -3.7456
  232MPD1     C 3518   3.341   0.383   0.130  0.3180  0.5619  0.8248
  232MPD1    C1 3519   3.326   0.246   0.149 -0.7433 -0.0098 -0.5740
  232MPD1    C2 3520   3.218   0.197   0.212  0.5706  0.2659  0.4182
  232MPD1    C3 3521   3.109   0.276   0.245 -0.3605  0.0049  0.6838
  232MPD1    C4 3522   3.125   0.408   0.231 -0.7797 -0.3240  0.5624
  232MPD1    C5 3523   3.237   0.459   0.179  0.3205  0.1776 -0.4916
  232MPD1     H 3524   3.198   0.091   0.223  3.4756 -0.3172  0.0857
  232MPD1    H1 3525   3.046   0.480   0.250  1.2905  1.5388  2.1717
  232MPD1    H2 3526   3.429   0.430   0.087  1.8641 -2.1773  1.0615
  232MPD1    H3 3527   3.234   0.567   0.176  0.3247  0.2145  0.7341
  232MPD1     N 3528   2.996   0.210   0.291  0.3676  0.2320 -0.2757
  232MPD1    H5 3529   3.004   0.113   0.318 -1.4232 -0.3207 -1.7051
  232MPD1    N1 3530   3.427   0.153   0.123  0.1497 -0.5705  0.4846
  232MPD1    H6 3531   3.501   0.208   0.080 -0.2908  0.9591  1.6876
  232MPD1    H7 3532   3.396   0.078   0.061  3.5958 -1.1752 -0.5205
  233MPD1     C 3533   4.571   2.693   2.085  0.1664  1.1973  0.0509
  233MPD1    C1 3534   4.549   2.708   1.948 -0.0535 -0.8874  0.5902
  233MPD1    C2 3535   4.612   2.619   1.863  0.2971 -0.4801  0.1354
  233MPD1    C3 3536   4.715   2.541   1.902 -0.3260 -0.0080 -0.4498
  233MPD1    C4 3537   0.024   2.540   2.033  0.3355  0.5587 -0.3631
  233MPD1    C5 3538   4.677   2.607   2.122 -0.5026 -0.2867 -0.4135
  233MPD1     H 3539   4.591   2.629   1.757  0.6786  1.1736  0.2126
  233MPD1    H1 3540   0.109   2.481   2.065  0.8729  0.3809 -2.1272
  233MPD1    H2 3541   4.517   2.744   2.164  0.9961  2.1421  0.0079
  233MPD1    H3 3542   4.699   2.608   2.228 -2.2661 -1.3706 -0.0280
  233MPD1     N 3543   0.056   2.457   1.819 -0.0284 -0.2117  0.3876
  233MPD1    H5 3544   0.127   2.396   1.860  0.6086  1.2642  1.4743
  233MPD1    N1 3545   4.433   2.773   1.913 -0.2218  0.5904 -0.0053
  233MPD1    H6 3546   4.411   2.795   1.816  1.2837 -2.7558 -1.0788
  233MPD1    H7 3547   4.413   2.853   1.973 -0.4925  0.0080  0.6752
  234MPD1     C 3548   1.382   1.323   9.749 -0.0298  0.5283 -0.1280
  234MPD1    C1 3549   1.383   1.414   9.857 -0.0675  0.4317 -0.1069
  234MPD1    C2 3550   1.282   1.514   9.857 -0.5459  0.0030  0.2827
  234MPD1    C3 3551   1.188   1.521   9.762 -0.2775  0.2080  0.1719
  234MPD1    C4 3552   1.174   1.408   9.677 -0.3046 -0.2340  0.8873
  234MPD1    C5 3553   1.269   1.312   9.672  0.0398 -0.3727 -0.3633
  234MPD1     H 3554   1.309   1.591   9.928  0.7304 -0.8789  0.7714
  234MPD1    H1 3555   1.092   1.403   9.606  0.8352 -1.1302 -0.3654
  234MPD1    H2 3556   1.457   1.245   9.734 -0.6883 -0.4948  1.8034
  234MPD1    H3 3557   1.263   1.239   9.593 -0.0917  0.4190 -1.0869
  234MPD1     N 3558   1.094   1.627   9.768  0.0050 -0.1763 -0.2828
  234MPD1    H5 3559   1.110   1.698   9.838 -0.4744  0.3219 -0.6774
  234MPD1    N1 3560   1.492   1.425   9.944  0.5779 -0.2062 -0.6357
  234MPD1    H6 3561   1.523   1.329   9.951  1.0475 -0.1073 -1.3041
  234MPD1    H7 3562   1.467   1.455  10.038  1.3994  2.5672 -1.3046
  235MPD1     C 3563   2.116   3.810  10.569 -0.0453 -0.3701 -0.1620
  235MPD1    C1 3564   2.057   3.886  10.471 -0.0563  0.5228 -0.9779
  235MPD1    C2 3565   2.104   4.016  10.451  0.1640  0.5163  0.0548
  235MPD1    C3 3566   2.209   4.065  10.532  0.0576  0.2197  0.3847
  235MPD1    C4 3567   2.264   3.986  10.631 -0.0100 -0.8479  0.1460
  235MPD1    C5 3568   2.215   3.860  10.654  0.5587  0.0589  0.3775
  235MPD1     H 3569   2.052   4.075  10.377  1.3125 -0.6989 -1.7185
  235MPD1    H1 3570   2.338   4.021  10.702  1.0217 -0.6614 -1.0040
  235MPD1    H2 3571   2.079   3.708  10.570 -1.6441  0.2278  2.0627
  235MPD1    H3 3572   2.255   3.793  10.729  0.4667 -1.2757 -0.7612
  235MPD1     N 3573   2.237   4.205  10.530  0.0608 -0.7146  0.8114
  235MPD1    H5 3574   2.204   4.252  10.446 -0.2277 -0.6377  0.9650
  235MPD1    N1 3575   1.962   3.828  10.393 -0.4763 -0.1146  0.1536
  235MPD1    H6 3576   1.902   3.895  10.345 -2.4676 -0.9057  1.5094
  235MPD1    H7 3577   1.895   3.776  10.450  0.1681 -0.0752  0.9497
  236MPD1     C 3578   1.956   0.814  10.151  0.0283 -0.3233 -0.1921
  236MPD1    C1 3579   1.846   0.729  10.144  0.5453  0.6985 -0.4335
  236MPD1    C2 3580   1.844   0.620  10.224  0.5363 -0.2841  0.2810
  236MPD1    C3 3581   1.935   0.610  10.337  0.5385 -0.1332 -0.7810
  236MPD1    C4 3582   2.035   0.699  10.353 -0.2185  0.0602 -0.8508
  236MPD1    C5 3583   2.045   0.799  10.254  0.0470  0.0277  0.4638
  236MPD1     H 3584   1.757   0.555  10.221 -0.3865  1.0318 -1.4228
  236MPD1    H1 3585   2.106   0.687  10.434  0.2171  2.6024 -0.8449
  236MPD1    H2 3586   1.965   0.899  10.084  0.6912  0.0401  0.3567
  236MPD1    H3 3587   2.126   0.870  10.270 -0.1749  0.2617  0.5550
  236MPD1     N 3588   1.930   0.504  10.429 -0.3236  0.1802  0.1796
  236MPD1    H5 3589   1.999   0.516  10.503  0.9030  1.2448 -1.1428
  236MPD1    N1 3590   1.759   0.742  10.034  0.6019 -0.1590 -0.4008
  236MPD1    H6 3591   1.739   0.840  10.016 -0.6362 -0.0948  1.3227
  236MPD1    H7 3592   1.671   0.691  10.041  1.6426 -1.7522  1.0422
  237MPD1     C 3593   1.976   3.755  15.164 -0.1825  0.4337 -0.7583
  237MPD1    C1 3594   1.948   3.651  15.090  0.0609  0.5957  0.3258
  237MPD1    C2 3595   1.828   3.582  15.119 -0.0691 -0.4146 -0.4076
  237MPD1    C3 3596   1.752   3.624  15.230 -0.3192  0.3345 -0.5018
  237MPD1    C4 3597   1.788   3.726  15.308  0.0338  0.8149 -0.2094
  237MPD1    C5 3598   1.895   3.801  15.268 -0.7285 -0.6063  0.2566
  237MPD1     H 3599   1.800   3.487  15.075 -2.6610  0.2890 -0.2200
  237MPD1    H1 3600   1.728   3.776  15.383  0.1991  1.0098 -0.2085
  237MPD1    H2 3601   2.061   3.818  15.141 -0.3536  0.4813 -1.2705
  237MPD1    H3 3602   1.918   3.893  15.321 -0.2077  0.6890 -2.2350
  237MPD1     N 3603   1.638   3.558  15.275 -1.0134 -0.1389  0.5419
  237MPD1    H5 3604   1.599   3.577  15.367 -0.8431  0.0061  0.5838
  237MPD1    N1 3605   2.029   3.620  14.979  0.0668  0.3368  0.1250
  237MPD1    H6 3606   2.127   3.611  15.007  0.1506 -0.5396 -0.4294
  237MPD1    H7 3607   2.006   3.528  14.942  0.0907 -0.4186  1.9873
  238MPD1     C 3608   3.104   2.436  15.558 -0.4387  0.5503  0.6110
  238MPD1    C1 3609   3.087   2.480  15.424 -0.0913  0.1122 -0.2298
  238MPD1    C2 3610   3.028   2.394  15.329 -0.8134  0.2155  0.6297
  238MPD1    C3 3611   3.014   2.263  15.361  0.2213  0.2808 -0.6902
  238MPD1    C4 3612   3.037   2.220  15.488  0.1481 -0.1336 -0.6406
  238MPD1    C5 3613   3.068   2.304  15.586  0.0182  0.4853  0.6156
  238MPD1     H 3614   3.003   2.423  15.228  0.6040  0.8652  0.4645
  238MPD1    H1 3615   3.035   2.114  15.509 -1.3295 -0.3628 -1.9682
  238MPD1    H2 3616   3.148   2.493  15.640  0.5356  1.7403 -0.7379
  238MPD1    H3 3617   3.090   2.263  15.684 -0.9788  0.4715  0.8316
  238MPD1     N 3618   2.964   2.162  15.275 -0.3287 -0.0861  0.5041
  238MPD1    H5 3619   2.940   2.069  15.309 -0.7136  0.2098  1.0344
  238MPD1    N1 3620   3.086   2.616  15.403 -0.5281  0.3599 -0.1642
  238MPD1    H6 3621   3.152   2.667  15.461  2.4199 -2.4455 -1.0643
  238MPD1    H7 3622   3.102   2.628  15.303  1.1772 -0.7667 -0.0278
  239MPD1     C 3623   3.952   2.807  14.554 -0.0252 -0.2498  0.5256
  239MPD1    C1 3624   3.823   2.808  14.603  0.3858 -0.1769 -0.7741
  239MPD1    C2 3625   3.730   2.842  14.506 -1.1920 -0.7072  0.5931
  239MPD1    C3 3626   3.765   2.917  14.390 -0.2461  0.2018 -0.0700
  239MPD1    C4 3627   3.892   2.911  14.345  0.3572 -0.1601 -0.3413
  239MPD1    C5 3628   3.982   2.850  14.425  0.4156 -0.3700 -0.3227
  239MPD1     H 3629   3.626   2.845  14.537 -0.9448 -1.0113  1.4568
  239MPD1    H1 3630   3.919   2.954  14.249 -0.2411  0.4255 -0.2528
  239MPD1    H2 3631   4.026   2.761  14.619  2.3127 -2.1269 -3.4783
  239MPD1    H3 3632   4.086   2.865  14.399  0.9863  2.1505  3.2380
  239MPD1     N 3633   3.675   2.982  14.300  0.1014 -0.2694 -0.7145
  239MPD1    H5 3634   3.715   3.030  14.220 -0.4596 -0.0167 -0.8464
  239MPD1    N1 3635   3.795   2.746  14.726 -0.5929  0.3127  0.3705
  239MPD1    H6 3636   3.873   2.752  14.792 -1.5590  0.3987  1.5062
  239MPD1    H7 3637   3.708   2.766  14.776  0.3788 -1.2719  2.6769
  240MPD1     C 3638   2.035   3.106  13.734 -0.0244  0.1058  0.3948
  240MPD1    C1 3639   1.991   3.014  13.826  0.6038 -0.1449  0.2371
  240MPD1    C2 3640   2.082   2.934  13.890  0.1687 -0.1740 -0.1410
  240MPD1    C3 3641   2.211   2.970  13.895  0.0577  0.0297  0.8772
  240MPD1    C4 3642   2.259   3.062  13.805 -0.3386  0.4399  0.8764
  240MPD1    C5 3643   2.170   3.114  13.714  0.0666  1.0152  0.2238
  240MPD1     H 3644   2.045   2.859  13.958  0.0811 -0.7030 -0.7753
  240MPD1    H1 3645   2.359   3.101  13.794  0.4062 -1.4896  1.0306
  240MPD1    H2 3646   1.978   3.173  13.671  0.2683 -2.2836 -2.3987
  240MPD1    H3 3647   2.209   3.195  13.653 -0.8843 -0.2515 -2.0745
  240MPD1     N 3648   2.294   2.894  13.980  1.0066 -0.2615  0.4897
  240MPD1    H5 3649   2.248   2.843  14.055 -1.2965  0.3031 -0.5218
  240MPD1    N1 3650   1.856   2.981  13.845 -0.4322 -0.1181  0.4989
  240MPD1    H6 3651   1.788   3.039  13.797 -0.5859 -0.9183 -0.2458
  240MPD1    H7 3652   1.831   2.961  13.942 -1.7873 -0.7346  0.0344
  241MPD1     C 3653   3.205   2.715  14.494  0.2924 -0.1275  0.0465
  241MPD1    C1 3654   3.191   2.748  14.362  0.1086  0.4378  0.1135
  241MPD1    C2 3655   3.076   2.718  14.295  0.0781 -0.2214 -0.9998
  241MPD1    C3 3656   2.971   2.670  14.371 -0.0041  0.1080 -0.3459
  241MPD1    C4 3657   2.975   2.643  14.501  0.7574 -0.6282  0.2639
  241MPD1    C5 3658   3.100   2.665  14.564 -0.5860  0.0911  0.0418
  241MPD1     H 3659   3.077   2.750  14.191 -0.2309  1.7777 -0.3936
  241MPD1    H1 3660   2.899   2.602  14.566 -0.0079  2.9664  1.6463
  241MPD1    H2 3661   3.302   2.716  14.542  1.8441  1.6441 -3.1016
  241MPD1    H3 3662   3.111   2.636  14.668 -4.0759  0.4951  0.5477
  241MPD1     N 3663   2.839   2.654  14.312 -0.1545 -0.6267 -0.9353
  241MPD1    H5 3664   2.763   2.619  14.370 -0.3839  1.4130  0.0220
  241MPD1    N1 3665   3.297   2.801  14.285 -0.2865 -0.3058 -0.7839
  241MPD1    H6 3666   3.343   2.732  14.226 -1.1248 -0.1174 -1.6628
  241MPD1    H7 3667   3.374   2.834  14.342  0.8865 -0.6488 -2.1663
  242MPD1     C 3668   2.176   0.644  16.211  0.4814 -0.8518  0.1409
  242MPD1    C1 3669   2.095   0.580  16.125  0.0698  0.0566 -0.4954
  242MPD1    C2 3670   2.101   0.619  15.996  0.0104  0.0334  0.6928
  242MPD1    C3 3671   2.166   0.737  15.954 -0.3458 -0.0298 -0.7800
  242MPD1    C4 3672   2.232   0.808  16.046 -0.8584  0.6971 -0.5872
  242MPD1    C5 3673   2.242   0.755  16.175  0.2818 -0.5693  0.6081
  242MPD1     H 3674   2.028   0.562  15.939 -0.5172  0.8901  0.5121
  242MPD1    H1 3675   2.269   0.909  16.034 -1.2479  1.0330  0.9363
  242MPD1    H2 3676   2.191   0.602  16.310  0.3577 -0.2283  0.4280
  242MPD1    H3 3677   2.320   0.803  16.234  1.2982 -0.4911 -0.7998
  242MPD1     N 3678   2.159   0.791  15.822 -0.6675  0.2209 -0.1954
  242MPD1    H5 3679   2.205   0.880  15.809  2.1448 -1.2974 -0.6224
  242MPD1    N1 3680   2.028   0.460  16.160  0.0692  0.2080  0.2178
  242MPD1    H6 3681   1.943   0.458  16.105  1.6007  0.5620 -2.1293
  242MPD1    H7 3682   2.002   0.465  16.259  1.6649 -0.0659  0.6575
  243MPD1     C 3683   3.753   3.306   0.035  0.1989 -0.1935  0.0372
  243MPD1    C1 3684   3.837   3.237  17.657 -0.3462  0.0016 -0.1753
  243MPD1    C2 3685   3.916   3.311  17.577  0.5643  0.6467  0.7907
  243MPD1    C3 3686   3.908   3.447  17.569 -0.0447 -0.0233 -0.4587
  243MPD1    C4 3687   3.821   3.518  17.642 -0.8582  0.6028 -0.1635
  243MPD1    C5 3688   3.744   3.449   0.023  0.4590 -0.1447  0.0491
  243MPD1     H 3689   3.990   3.257  17.517  0.7009  1.1490  0.5064
  243MPD1    H1 3690   3.807   3.625  17.638 -1.0947  0.5845  0.1497
  243MPD1    H2 3691   3.695   3.252   0.110  0.6943  0.6461  1.0174
  243MPD1    H3 3692   3.675   3.507   0.084 -0.4937 -2.5384  1.2218
  243MPD1     N 3693   3.994   3.508  17.476  0.0321 -0.4673  0.0779
  243MPD1    H5 3694   4.068   3.452  17.437  1.3435  0.3579  1.3879
  243MPD1    N1 3695   3.861   3.106  17.671  0.0889 -0.1817 -0.6273
  243MPD1    H6 3696   3.861   3.053  17.584  0.8632 -0.4917 -0.4411
  243MPD1    H7 3697   3.801   3.063   0.036 -0.8794 -0.4014 -1.5918
  244MPD1     C 3698   0.127   3.413  17.378 -1.0212  0.2404  0.3587
  244MPD1    C1 3699   0.022   3.339  17.434  0.4070 -0.6877 -0.4147
  244MPD1    C2 3700   4.621   3.395  17.416  0.1019  0.1119  0.0168
  244MPD1    C3 3701   4.598   3.496  17.329  0.2248 -0.1714 -0.4231
  244MPD1    C4 3702   4.701   3.563  17.271 -0.1481  0.0162  0.1801
  244MPD1    C5 3703   0.101   3.518  17.300 -0.6086 -0.4822  0.2979
  244MPD1     H 3704   4.536   3.347  17.463 -1.0521  0.4147 -1.7318
  244MPD1    H1 3705   4.694   3.659  17.221 -1.5065 -0.8067 -1.2337
  244MPD1    H2 3706   0.229   3.388  17.405 -0.3831  1.4683 -0.9050
  244MPD1    H3 3707   0.185   3.583  17.277 -0.1475 -0.0003  3.2534
  244MPD1     N 3708   4.463   3.527  17.304  0.2451 -0.0005  0.4742
  244MPD1    H5 3709   4.396   3.479  17.364 -1.7236  2.8612  0.5343
  244MPD1    N1 3710   0.050   3.223  17.517  0.4774  0.4883  0.4650
  244MPD1    H6 3711   0.131   3.167  17.491  1.7354  1.9108  1.3170
  244MPD1    H7 3712   4.702   3.153  17.512  1.5310 -0.3910 -2.5891
  245MPD1     C 3713   0.321   0.162  13.464  0.4333  0.2487  0.3440
  245MPD1    C1 3714   0.412   0.233  13.385 -0.1719 -0.7988  0.7329
  245MPD1    C2 3715   0.521   0.299  13.445 -0.1457 -0.3910 -0.2467
  245MPD1    C3 3716   0.543   0.285  13.579  0.5114  0.0682 -0.0941
  245MPD1    C4 3717   0.446   0.217  13.662  0.0569  0.2178  0.4169
  245MPD1    C5 3718   0.333   0.159  13.607  0.5804  0.1445 -0.6371
  245MPD1     H 3719   0.592   0.363  13.393  1.2546 -1.0393  0.8902
  245MPD1    H1 3720   0.445   0.221  13.770  0.5390 -0.0184  0.4307
  245MPD1    H2 3721   0.230   0.128  13.415  1.7573 -2.7728 -0.0211
  245MPD1    H3 3722   0.261   0.114  13.674  0.9316  0.6441  0.0801
  245MPD1     N 3723   0.643   0.371  13.628  0.6110 -0.3898 -0.0116
  245MPD1    H5 3724   0.693   0.426  13.559 -0.5623  0.6038 -0.0858
  245MPD1    N1 3725   0.376   0.265  13.252  0.0334  0.1670 -0.2346
  245MPD1    H6 3726   0.330   0.187  13.204  0.1899  0.7869 -1.3996
  245MPD1    H7 3727   0.456   0.304  13.203  1.1703 -0.9399  0.7552
  246MPD1     C 3728   2.057   2.263  10.209  0.5266 -0.7057  0.5947
  246MPD1    C1 3729   2.028   2.368  10.124  0.5383  0.3227  0.2076
  246MPD1    C2 3730   2.022   2.345   9.988  0.2779  0.2628  0.7816
  246MPD1    C3 3731   2.041   2.216   9.943 -1.0646  0.1291  0.0728
  246MPD1    C4 3732   2.066   2.113  10.030  0.1404 -0.4131  0.3987
  246MPD1    C5 3733   2.084   2.144  10.165 -0.3576 -0.3344 -0.9118
  246MPD1     H 3734   2.001   2.428   9.922  1.9638 -1.6738 -2.2269
  246MPD1    H1 3735   2.104   2.016  10.000 -0.3828 -1.0917  1.9576
  246MPD1    H2 3736   2.070   2.276  10.316  0.6199 -1.4440  0.6696
  246MPD1    H3 3737   2.118   2.067  10.233 -0.3153  1.1753  0.7728
  246MPD1     N 3738   2.025   2.202   9.807  0.2497 -0.6176  0.7729
  246MPD1    H5 3739   1.998   2.285   9.755 -0.6374 -1.4791 -0.1251
  246MPD1    N1 3740   1.988   2.490  10.176 -0.4409  0.1586  0.3546
  246MPD1    H6 3741   2.039   2.569  10.137  1.2366  0.9699  4.1087
  246MPD1    H7 3742   1.999   2.497  10.277 -1.1869  0.0847  0.4420
  247MPD1     C 3743   0.641   0.883  16.666  0.5184 -0.0374 -0.0365
  247MPD1    C1 3744   0.704   0.840  16.551 -0.5837  0.1469 -0.6777
  247MPD1    C2 3745   0.681   0.711  16.518 -0.4701  0.7369 -0.9143
  247MPD1    C3 3746   0.627   0.621  16.609  0.2722  0.0880 -0.5872
  247MPD1    C4 3747   0.568   0.664  16.722 -0.1635 -0.3191  0.2301
  247MPD1    C5 3748   0.571   0.798  16.749  0.2853  0.0104  0.0944
  247MPD1     H 3749   0.716   0.682  16.420 -1.6867 -3.7721  0.0131
  247MPD1    H1 3750   0.518   0.603  16.796  1.3338 -2.8171 -0.8340
  247MPD1    H2 3751   0.641   0.986  16.699  3.0165 -0.1636  0.3726
  247MPD1    H3 3752   0.509   0.839  16.828  2.2198 -0.0216  1.6413
  247MPD1     N 3753   0.620   0.484  16.583  0.4423  0.2280 -0.2765
  247MPD1    H5 3754   0.583   0.418  16.650 -0.0667  2.4826  1.6477
  247MPD1    N1 3755   0.756   0.935  16.455 -0.2645  0.3738  0.2433
  247MPD1    H6 3756   0.833   0.895  16.402 -1.6539  0.1069 -1.5687
  247MPD1    H7 3757   0.793   1.019  16.501  1.5051  0.3865 -1.2043
  248MPD1     C 3758   1.777   4.256   0.506 -1.2303 -0.1943 -0.0802
  248MPD1    C1 3759   1.741   4.123   0.522  0.5373 -0.3144  0.4209
  248MPD1    C2 3760   1.611   4.100   0.572  0.6986 -0.3228  1.1068
  248MPD1    C3 3761   1.535   4.207   0.604 -0.0907 -0.0360 -0.5844
  248MPD1    C4 3762   1.584   4.341   0.603  0.0959  0.4871 -0.6390
  248MPD1    C5 3763   1.704   4.360   0.550 -0.5035 -0.2358  0.3884
  248MPD1     H 3764   1.572   3.999   0.580  0.3233 -0.2963 -0.2995
  248MPD1    H1 3765   1.531   4.434   0.620 -0.7056 -0.2029  0.6378
  248MPD1    H2 3766   1.872   4.286   0.463 -2.4785  0.2645 -2.5205
  248MPD1    H3 3767   1.727   4.465   0.534 -1.7861 -0.0410 -0.1879
  248MPD1     N 3768   1.402   4.170   0.637  0.2585  0.1364  0.4982
  248MPD1    H5 3769   1.383   4.072   0.623 -0.6355  0.3871 -0.0296
  248MPD1    N1 3770   1.819   4.031   0.461 -0.1780  0.3162  0.8269
  248MPD1    H6 3771   1.821   3.935   0.495  1.3143  0.0720  0.0443
  248MPD1    H7 3772   1.913   4.069   0.457 -0.1375  0.1270  0.0970
  249MPD1     C 3773   2.769   3.260  11.309  0.4523  0.5212 -0.0247
  249MPD1    C1 3774   2.780   3.364  11.217  0.5367  0.5888 -0.0412
  249MPD1    C2 3775   2.726   3.344  11.093  0.3426  0.2191  0.2690
  249MPD1    C3 3776   2.667   3.225  11.053  0.4499 -0.6129 -0.0481
  249MPD1    C4 3777   2.660   3.129  11.148 -0.3746 -0.4411 -0.1096
  249MPD1    C5 3778   2.710   3.146  11.275 -0.3840  0.0009 -1.1743
  249MPD1     H 3779   2.741   3.417  11.014 -2.5846 -0.8870 -1.2799
  249MPD1    H1 3780   2.605   3.038  11.125 -1.4049  0.7220 -2.2763
  249MPD1    H2 3781   2.804   3.261  11.411 -0.7335  0.9643  0.3716
  249MPD1    H3 3782   2.700   3.064  11.345  0.8748  1.5041  0.7781
  249MPD1     N 3783   2.621   3.218  10.916 -0.1673 -0.3018 -0.1491
  249MPD1    H5 3784   2.634   3.303  10.862 -2.3730  0.4397  0.5116
  249MPD1    N1 3785   2.831   3.488  11.264  0.4814 -0.0939 -0.2590
  249MPD1    H6 3786   2.883   3.529  11.188  0.8100  1.1543  0.6396
  249MPD1    H7 3787   2.886   3.476  11.349 -0.3676 -1.4542  0.1051
  250MPD2     C 3788   4.255   3.344  13.349  0.4498 -0.2523  0.5237
  250MPD2    C1 3789   4.190   3.395  13.240  0.4798 -0.1405 -0.2595
  250MPD2    C2 3790   4.079   3.332  13.186  0.1809  0.0171 -0.2616
  250MPD2    C3 3791   4.032   3.221  13.248  0.0743 -0.8051 -0.1267
  250MPD2    C4 3792   4.095   3.166  13.359  0.1790 -1.2399  0.1078
  250MPD2    C5 3793   4.207   3.224  13.410 -0.0209  0.1021  0.1951
  250MPD2     H 3794   4.028   3.371  13.099 -1.0016 -0.0271  0.4165
  250MPD2    H1 3795   4.069   3.070  13.403 -0.1167 -0.8046  0.8755
  250MPD2    H2 3796   4.347   3.382  13.390 -0.0013  1.0669  0.3349
  250MPD2    H3 3797   4.253   3.179  13.497 -0.2716 -0.4393  0.0446
  250MPD2     N 3798   3.917   3.149  13.200  0.1576 -0.0718 -0.3887
  250MPD2    H5 3799   3.894   3.071  13.260  1.6377  0.8146  1.3645
  250MPD2    N1 3800   4.255   3.505  13.183  0.7113  0.2370 -0.2440
  250MPD2    H7 3801   4.324   3.557  13.237  1.4085 -0.9458 -0.0125
  251TMC3    C1 3802   4.325   3.654  13.017  0.6026  0.0373  0.4625
  251TMC3    C2 3803   4.251   3.753  12.946 -0.1026 -0.2167  0.3688
  251TMC3    C3 3804   4.279   3.881  12.979  0.3909  0.4743  0.1562
  251TMC3    C4 3805   4.421   3.690  13.111 -0.6850  0.4008  0.1192
  251TMC3    C5 3806   4.445   3.821  13.133 -0.3770  0.5918  0.4859
  251TMC3    C6 3807   4.388   3.914  13.058 -0.1669  0.2052  0.0897
  251TMC3     C 3808   4.236   3.551  13.057  0.0766 -0.4500 -0.0909
  251TMC3     O 3809   4.174   3.501  12.961 -0.3048 -0.6702 -0.4236
  251TMC3     H 3810   4.162   3.728  12.890  0.5034 -0.6857 -0.4016
  251TMC3    H1 3811   4.492   3.617  13.149 -2.4324 -1.5486 -0.3644
  251TMC3    H2 3812   4.416   4.017  13.081  0.1939  0.2733 -0.6847
  251TMC3    C7 3813   4.529   3.862  13.249  0.1950  0.4246  0.7498
  251TMC3    C8 3814   4.167   3.979  12.978 -0.2850  0.0533 -0.1755
  251TMC3    O1 3815   4.617   3.782  13.280 -0.2447 -0.1070  0.1463
  251TMC3    O2 3816   4.060   3.917  12.979 -0.2300  0.0234 -0.2570
  252TMC3    C1 3817   4.182   4.653   9.637  0.1324  0.4967 -0.1205
  252TMC3    C2 3818   4.311   4.703   9.628 -0.2315 -0.1291 -0.1339
  252TMC3    C3 3819   4.408   4.607   9.621 -0.2317 -0.4340  0.4214
  252TMC3    C4 3820   4.155   4.514   9.643 -0.2745 -0.3594 -0.5099
  252TMC3    C5 3821   4.266   4.429   9.639 -0.3302 -0.5901 -0.2186
  252TMC3    C6 3822   4.394   4.472   9.634 -0.2729 -0.6310 -0.5353
  252TMC3     C 3823   4.072   0.021   9.659 -0.1524 -0.1519 -0.1846
  252TMC3     O 3824   3.963   4.700   9.637 -0.2231  0.8661  0.4846
  252TMC3     H 3825   4.322   0.084   9.613 -2.5018  0.1258  0.0332
  252TMC3    H1 3826   4.053   4.479   9.654 -0.8367  0.7787 -2.1216
  252TMC3    H2 3827   4.478   4.405   9.617  1.9719  1.7770  1.1620
  252TMC3    C7 3828   4.240   4.286   9.635  0.3608 -0.0794 -0.1041
  252TMC3    C8 3829   4.539   4.664   9.617 -0.8723 -0.1526  0.1432
  252TMC3    O1 3830   4.125   4.245   9.627 -0.0857  1.0861  0.1097
  252TMC3    O2 3831   4.548   0.028   9.534  0.0599 -0.6346 -0.2987
  253MPD2     C 3832   0.782   3.377  15.541 -0.2370  0.1728 -0.1187
  253MPD2    C1 3833   0.670   3.322  15.603 -0.7470 -0.3140  0.2198
  253MPD2    C2 3834   0.658   3.334  15.740  0.4780  0.2584 -0.1783
  253MPD2    C3 3835   0.745   3.415  15.815  0.0659 -0.5414  0.6019
  253MPD2    C4 3836   0.855   3.470  15.749  0.0508 -0.3507  0.2584
  253MPD2    C5 3837   0.876   3.444  15.616 -0.6899  0.5129 -0.0498
  253MPD2     H 3838   0.559   3.307  15.777  1.2511 -1.2287  0.8218
  253MPD2    H1 3839   0.925   3.532  15.803  1.4905 -1.6631 -0.0992
  253MPD2    H2 3840   0.796   3.374  15.434  1.4327 -1.6446  0.1543
  253MPD2    H3 3841   0.954   3.494  15.559 -0.9366  0.5217 -0.3832
  253MPD2     N 3842   0.729   3.453  15.950 -0.3639 -0.3809 -0.1591
  253MPD2    H5 3843   0.788   3.530  15.982 -2.7103  1.1036  0.5738
  253MPD2    N1 3844   0.562   3.272  15.527 -0.1548 -0.1131  0.1198
  253MPD2    H7 3845   0.483   3.241  15.584 -0.1557 -0.1807  0.0811
  254TMC3    C1 3846   0.609   3.501  16.139 -0.6622 -0.4681  0.2445
  254TMC3    C2 3847   0.487   3.555  16.162  0.0798 -0.2317 -0.5546
  254TMC3    C3 3848   0.479   3.643  16.268 -0.2271  0.5797  0.0214
  254TMC3    C4 3849   0.718   3.516  16.218  0.6223  0.0987  0.2410
  254TMC3    C5 3850   0.703   3.599  16.325  0.1633  0.1935  0.0825
  254TMC3    C6 3851   0.587   3.667  16.356 -0.1867  0.1755  0.4867
  254TMC3     C 3852   0.612   3.422  16.019 -0.1627 -0.7599  0.8580
  254TMC3     O 3853   0.516   3.353  15.988 -0.1367  0.5024  0.2285
  254TMC3     H 3854   0.399   3.540  16.100 -0.4663  1.9225 -0.3033
  254TMC3    H1 3855   0.811   3.463  16.204 -0.3101 -1.2253 -0.9009
  254TMC3    H2 3856   0.577   3.736  16.439  1.6377  0.0893  0.7758
  254TMC3    C7 3857   0.795   3.587  16.439  0.2127 -0.1007 -0.2540
  254TMC3    C8 3858   0.358   3.703  16.313  0.2650 -0.2505  0.2090
  254TMC3    O1 3859   0.739   3.585  16.544  0.4284 -0.3060  0.1995
  254TMC3    O2 3860   0.349   3.738  16.430  0.7719 -0.6854 -0.6570
  255MPD2     C 3861   4.575   0.955  10.673  0.4414  0.1952  0.0808
  255MPD2    C1 3862   4.627   1.076  10.631  0.5880  0.6477 -0.4766
  255MPD2    C2 3863   4.721   1.080  10.528  0.4210 -0.3622  0.0144
  255MPD2    C3 3864   0.019   0.958  10.455  0.1554 -0.1022  0.4945
  255MPD2    C4 3865   4.683   0.845  10.497 -0.2041 -0.7107 -0.0429
  255MPD2    C5 3866   4.601   0.843  10.606 -0.3613  0.0876 -0.2255
  255MPD2     H 3867   0.060   1.162  10.503 -3.3543  2.1262 -1.5120
  255MPD2    H1 3868   4.692   0.745  10.455 -0.4617  0.5197 -2.9994
  255MPD2    H2 3869   4.518   0.958  10.765 -0.1590  0.9971 -0.3185
  255MPD2    H3 3870   4.573   0.745  10.642 -1.6477 -0.0024 -1.5033
  255MPD2     N 3871   0.100   0.965  10.333  0.2274 -0.0898 -0.4390
  255MPD2    H5 3872   0.136   1.057  10.308  1.1313 -0.0659  0.9551
  255MPD2    N1 3873   4.606   1.190  10.709  0.0716 -0.5283 -0.1708
  255MPD2    H7 3874   4.528   1.187  10.774  0.4295  0.0094  0.2889
  256TMC3    C1 3875   4.585   1.429  10.770  0.1460 -0.0666  0.0682
  256TMC3    C2 3876   4.655   1.542  10.805  0.0703  0.2196  0.5006
  256TMC3    C3 3877   4.578   1.660  10.811  1.0426  0.0989 -0.1693
  256TMC3    C4 3878   4.456   1.420  10.758 -0.1742  0.7217  0.1386
  256TMC3    C5 3879   4.386   1.541  10.772 -0.3040 -0.9204  0.0666
  256TMC3    C6 3880   4.441   1.662  10.796  0.5250 -0.2808  0.0449
  256TMC3     C 3881   4.663   1.319  10.701  0.3972  0.7564  0.2157
  256TMC3     O 3882   0.037   1.351  10.638 -0.2818  0.2807  0.2075
  256TMC3     H 3883   0.037   1.542  10.811  0.0307 -2.2822  1.0242
  256TMC3    H1 3884   4.401   1.335  10.720 -1.2603  1.0184  1.0367
  256TMC3    H2 3885   4.385   1.754  10.789 -2.1806 -1.8293  1.5405
  256TMC3    C7 3886   4.245   1.530  10.725  0.0751 -0.5257  0.1022
  256TMC3    C8 3887   4.656   1.768  10.761  0.1401 -0.5300  0.1124
  256TMC3    O1 3888   4.202   1.422  10.687 -0.3706  0.1519  0.1541
  256TMC3    O2 3889   0.051   1.779  10.780  0.5494 -0.4571  0.5600
  257MPD2     C 3890   2.700   3.337  13.219 -0.1087  0.1173  0.4674
  257MPD2    C1 3891   2.806   3.322  13.136 -0.3028  0.6494 -1.0133
  257MPD2    C2 3892   2.907   3.230  13.165  0.1224 -0.2820  0.0909
  257MPD2    C3 3893   2.901   3.165  13.292 -0.0234  0.4771  0.0931
  257MPD2    C4 3894   2.801   3.200  13.385 -0.1011 -0.1184  0.0461
  257MPD2    C5 3895   2.705   3.285  13.344  0.5688  0.0641 -0.1168
  257MPD2     H 3896   2.986   3.210  13.094  1.1510 -0.8300  1.3852
  257MPD2    H1 3897   2.797   3.164  13.487 -0.9877  1.0670  0.4268
  257MPD2    H2 3898   2.614   3.396  13.187 -0.4563 -0.4114  0.4203
  257MPD2    H3 3899   2.617   3.304  13.404  0.1822  0.5368 -0.8324
  257MPD2     N 3900   3.008   3.076  13.332 -0.2033  0.1735  0.4292
  257MPD2    H5 3901   3.058   3.041  13.251 -0.2058  1.6721 -0.2302
  257MPD2    N1 3902   2.797   3.392  13.017 -0.2101  0.8399 -0.1901
  257MPD2    H7 3903   2.712   3.444  13.003 -0.8475 -0.4623 -1.1933
  258TMC3    C1 3904   3.132   2.905  13.445 -0.2006  0.3438 -0.0888
  258TMC3    C2 3905   3.191   2.859  13.334  0.7002  0.1657 -0.2071
  258TMC3    C3 3906   3.274   2.759  13.352  0.5608  0.5785 -0.4931
  258TMC3    C4 3907   3.153   2.851  13.569  0.2825 -0.0698 -0.3975
  258TMC3    C5 3908   3.254   2.768  13.590 -0.5156 -0.2836 -0.0267
  258TMC3    C6 3909   3.320   2.718  13.476 -0.2091  0.2679 -0.2059
  258TMC3     C 3910   3.027   3.015  13.453  0.7917 -0.7881 -0.3856
  258TMC3     O 3911   2.982   3.046  13.560 -0.6459  0.4496 -0.2394
  258TMC3     H 3912   3.162   2.887  13.234  0.3461 -0.6670 -0.3385
  258TMC3    H1 3913   3.107   2.897  13.655 -0.4388  0.0674 -0.8534
  258TMC3    H2 3914   3.389   2.636  13.494 -0.5561  0.1099  0.3969
  258TMC3    C7 3915   3.255   2.689  13.716  0.5124 -0.5433  0.3661
  258TMC3    C8 3916   3.339   2.708  13.241 -0.4538 -0.3520 -0.1951
  258TMC3    O1 3917   3.144   2.687  13.770 -0.3412 -0.3584 -0.5939
  258TMC3    O2 3918   3.460   2.696  13.252 -0.0653 -0.6506  0.1738
  259MPD2     C 3919   1.358   4.718   1.520 -1.0830 -0.4862  0.4051
  259MPD2    C1 3920   1.493   4.688   1.529 -0.4796 -0.6091 -0.0812
  259MPD2    C2 3921   1.583   0.020   1.443 -0.4410 -0.6765  0.4264
  259MPD2    C3 3922   1.539   0.086   1.332  0.5953 -0.4058  0.6633
  259MPD2    C4 3923   1.401   0.100   1.312  1.0490 -0.3196  0.6177
  259MPD2    C5 3924   1.312   0.053   1.406 -0.4436  0.4375  0.3222
  259MPD2     H 3925   1.688   0.003   1.465 -0.1421 -0.1416 -0.5803
  259MPD2    H1 3926   1.362   0.156   1.229  0.0591  2.0300  2.6652
  259MPD2    H2 3927   1.289   4.687   1.597  0.0634  0.7971  1.9602
  259MPD2    H3 3928   1.205   0.066   1.403 -0.6384 -1.2107  0.0120
  259MPD2     N 3929   1.634   0.141   1.242  0.3323  0.0392  0.2288
  259MPD2    H5 3930   1.733   0.128   1.258  0.1134 -0.3672  1.2782
  259MPD2    N1 3931   1.538   4.614   1.639 -0.4671 -0.0505  0.2249
  259MPD2    H7 3932   1.469   4.583   1.707 -0.3590  0.6023  0.6272
  260TMC3    C1 3933   1.730   0.222   1.042  0.0705  0.1118 -0.1124
  260TMC3    C2 3934   1.771   0.339   0.987 -0.1164 -0.5687 -0.0391
  260TMC3    C3 3935   1.905   0.365   0.970 -0.1539 -0.0793 -0.3732
  260TMC3    C4 3936   1.824   0.127   1.073  0.1634  0.7880  0.1103
  260TMC3    C5 3937   1.959   0.159   1.056  0.8149  0.0043 -0.4585
  260TMC3    C6 3938   2.001   0.276   1.004 -0.1459 -0.0024  0.5789
  260TMC3     C 3939   1.613   0.219   1.126  0.1713 -0.4046 -0.5350
  260TMC3     O 3940   1.510   0.286   1.105  0.9613 -0.5115 -0.4366
  260TMC3     H 3941   1.691   0.406   0.955  0.4415 -0.1382 -0.5403
  260TMC3    H1 3942   1.802   0.025   1.103 -3.3791  0.8886 -2.2622
  260TMC3    H2 3943   2.105   0.303   1.021 -0.0081 -1.4594  1.9803
  260TMC3    C7 3944   2.044   0.051   1.034  0.2035  0.0430  0.3160
  260TMC3    C8 3945   1.928   0.431   0.841  0.2852 -0.6414 -0.0527
  260TMC3    O1 3946   2.114   0.070   0.935 -0.3181  0.2434  0.3504
  260TMC3    O2 3947   1.850   0.509   0.792 -0.0619  0.0641  0.1384
  261MPD2     C 3948   3.354   3.182  12.565  0.4104  0.5598 -0.1027
  261MPD2    C1 3949   3.461   3.241  12.624 -0.5096  0.3412 -0.6592
  261MPD2    C2 3950   3.529   3.340  12.562  0.0917 -0.1097 -0.0530
  261MPD2    C3 3951   3.492   3.387  12.442 -0.1050  0.0254 -0.1077
  261MPD2    C4 3952   3.391   3.321  12.374  0.5158 -0.0448 -0.9773
  261MPD2    C5 3953   3.319   3.222  12.440  0.2204  0.5374 -0.1301
  261MPD2     H 3954   3.617   3.381  12.610  0.2850 -2.5921  1.7087
  261MPD2    H1 3955   3.355   3.348  12.276 -0.8946 -1.6595 -0.9179
  261MPD2    H2 3956   3.299   3.099  12.607  2.4433 -1.8054 -2.0973
  261MPD2    H3 3957   3.230   3.181  12.395 -0.6067 -0.0293  2.0259
  261MPD2     N 3958   3.575   3.484  12.381 -0.2887  0.1919  0.3689
  261MPD2    H5 3959   3.625   3.535  12.454  0.3878  1.5867 -1.0666
  261MPD2    N1 3960   3.511   3.191  12.751  0.6090  0.0114  0.5404
  261MPD2    H7 3961   3.590   3.240  12.792  1.1124 -1.1303  0.9590
  262TMC3    C1 3962   3.679   3.611  12.222  0.4749 -0.3479  0.5255
  262TMC3    C2 3963   3.712   3.701  12.312  0.8424 -0.6627  0.5587
  262TMC3    C3 3964   3.807   3.800  12.280 -0.1355  0.7962  0.4220
  262TMC3    C4 3965   3.745   3.601  12.098  0.0463 -0.3478 -0.1928
  262TMC3    C5 3966   3.834   3.697  12.075  0.7908  0.0333  0.2979
  262TMC3    C6 3967   3.879   3.789  12.166 -0.3229  0.7212 -0.8053
  262TMC3     C 3968   3.583   3.510  12.245 -0.1253  1.0088  0.3787
  262TMC3     O 3969   3.542   3.439  12.153 -0.8830  0.1224 -0.1127
  262TMC3     H 3970   3.654   3.711  12.404 -0.5004 -0.6290 -0.2921
  262TMC3    H1 3971   3.718   3.521  12.030 -1.3303  0.6040 -0.7739
  262TMC3    H2 3972   3.936   3.876  12.138 -2.6952  2.4252 -0.3573
  262TMC3    C7 3973   3.869   3.706  11.933  0.4472 -0.4618 -0.1151
  262TMC3    C8 3974   3.770   3.939  12.307  0.1890  0.0541 -0.4361
  262TMC3    O1 3975   3.801   3.640  11.855 -0.7649  0.1277  0.6393
  262TMC3    O2 3976   3.851   4.028  12.279 -0.7088  0.3408  0.1077
  263MPD2     C 3977   4.194   2.950  11.660 -0.0869  0.0689  0.3265
  263MPD2    C1 3978   4.313   2.907  11.616  0.2268 -0.5964  0.2832
  263MPD2    C2 3979   4.355   2.943  11.491  0.4261  0.3697  0.1551
  263MPD2    C3 3980   4.284   3.039  11.420  0.4323  0.6616 -0.2148
  263MPD2    C4 3981   4.162   3.087  11.469  0.0625 -0.9641  0.2963
  263MPD2    C5 3982   4.115   3.039  11.587 -0.6858  0.0475 -0.0682
  263MPD2     H 3983   4.448   2.898  11.456  0.8318  1.2254  0.1429
  263MPD2    H1 3984   4.104   3.166  11.424 -1.1679 -1.6916  0.6195
  263MPD2    H2 3985   4.164   2.923  11.761  1.7550 -1.7291  0.4079
  263MPD2    H3 3986   4.018   3.068  11.626 -0.4197 -0.5672  1.0347
  263MPD2     N 3987   4.336   3.084  11.302  0.0594  0.0113  0.1601
  263MPD2    H5 3988   4.429   3.049  11.282  0.6761  1.5690  0.3272
  263MPD2    N1 3989   4.388   2.823  11.700  0.2705 -0.0691  0.0680
  263MPD2    H7 3990   4.334   2.760  11.758  0.2737 -0.3926 -0.2800
  264TMC3    C1 3991   4.393   3.246  11.150 -0.2114  0.2906 -0.0015
  264TMC3    C2 3992   4.388   3.377  11.158  1.1190 -0.1867  0.7891
  264TMC3    C3 3993   4.498   3.446  11.123  0.0962 -0.8977 -0.9164
  264TMC3    C4 3994   4.496   3.177  11.107 -0.3372  0.1972  0.7754
  264TMC3    C5 3995   4.610   3.249  11.081  0.3661  0.2245 -0.5897
  264TMC3    C6 3996   4.618   3.386  11.089  0.6467  0.6133  0.1111
  264TMC3     C 3997   4.281   3.174  11.213 -0.3621 -0.2115  0.2434
  264TMC3     O 3998   4.168   3.217  11.203  0.0834  0.2769  0.5652
  264TMC3     H 3999   4.302   3.429  11.199  0.5902  0.5400 -1.2106
  264TMC3    H1 4000   4.482   3.070  11.104 -1.5572  0.4091 -1.3762
  264TMC3    H2 4001   4.712   3.438  11.095 -0.0145  1.8644 -0.2898
  264TMC3    C7 4002   4.710   3.184  11.002  0.5261  0.1111 -0.1356
  264TMC3    C8 4003   4.506   3.591  11.135 -0.0897  0.6321  0.3511
  264TMC3    O1 4004   0.043   3.266  10.938  0.1848 -0.5154  0.4002
  264TMC3    O2 4005   4.615   3.640  11.113  0.1649 -0.2744 -0.1618
  265MPD2     C 4006   1.955   3.257  15.142 -0.3717 -0.2992 -0.3152
  265MPD2    C1 4007   2.061   3.321  15.195 -0.5185  0.5601 -0.3062
  265MPD2    C2 4008   2.180   3.352  15.127 -0.4212  0.2173  0.2602
  265MPD2    C3 4009   2.195   3.282  15.010  0.1170  0.0122 -0.7726
  265MPD2    C4 4010   2.086   3.214  14.955  0.2947  1.1012 -0.0892
  265MPD2    C5 4011   1.966   3.210  15.015 -0.4468 -0.1356  0.4138
  265MPD2     H 4012   2.258   3.403  15.182 -0.7962  1.1819 -0.0944
  265MPD2    H1 4013   2.093   3.161  14.861  1.2743 -0.3169  0.7781
  265MPD2    H2 4014   1.861   3.264  15.197  0.4364  0.4745  0.9711
  265MPD2    H3 4015   1.880   3.179  14.957 -0.0924 -0.7850  0.2384
  265MPD2     N 4016   2.320   3.261  14.940  0.0516  0.3984 -0.1290
  265MPD2    H5 4017   2.314   3.195  14.863 -2.6912  1.3393 -0.7291
  265MPD2    N1 4018   2.064   3.357  15.330  0.3964  0.0057  0.3078
  265MPD2    H7 4019   2.140   3.411  15.370 -1.9105  2.6118  1.1456
  266TMC3    C1 4020   2.022   3.359  15.554  0.1263  0.2309  0.2705
  266TMC3    C2 4021   2.038   3.279  15.666 -0.2374  0.2630  0.3016
  266TMC3    C3 4022   2.005   3.334  15.790 -0.4397 -0.1846  0.7958
  266TMC3    C4 4023   1.985   3.490  15.565  0.0809 -1.1955  0.2120
  266TMC3    C5 4024   1.946   3.534  15.685 -0.0373 -0.5533 -0.3591
  266TMC3    C6 4025   1.962   3.464  15.802 -0.0506  0.0168  0.0741
  266TMC3     C 4026   1.987   3.306  15.427  0.6383 -0.2001  0.0512
  266TMC3     O 4027   1.920   3.203  15.413  0.0634 -0.7796  0.5076
  266TMC3     H 4028   2.079   3.179  15.665  2.2348  1.2483  2.3878
  266TMC3    H1 4029   1.967   3.544  15.473 -0.8535 -0.4893  0.8117
  266TMC3    H2 4030   1.925   3.504  15.895  1.5615  0.2192  0.6223
  266TMC3    C7 4031   1.891   3.668  15.683 -0.9820  0.1799  0.0499
  266TMC3    C8 4032   2.089   3.280  15.895 -0.3652 -0.1674 -0.1406
  266TMC3    O1 4033   1.779   3.691  15.726  0.2402  0.1969  0.3974
  266TMC3    O2 4034   2.108   3.161  15.909 -0.6520  0.2503 -0.3106
  267MPD2     C 4035   4.552   4.469  17.357 -0.8278 -0.5309 -0.0169
  267MPD2    C1 4036   4.505   4.580  17.400 -0.3436  0.1078  0.2401
  267MPD2    C2 4037   4.408   4.649  17.329  1.1893  0.0687 -0.0558
  267MPD2    C3 4038   4.348   4.584  17.220  0.4381 -0.4200  0.3615
  267MPD2    C4 4039   4.393   4.462  17.176 -0.2321 -0.5807  0.0005
  267MPD2    C5 4040   4.501   4.410  17.239  0.3455  0.2651  0.0371
  267MPD2     H 4041   4.375   0.020  17.364 -1.1749 -0.7940  0.1092
  267MPD2    H1 4042   4.357   4.412  17.087 -0.7682 -0.5117  0.1806
  267MPD2    H2 4043   4.620   4.409  17.416  1.3856  1.3723 -0.6739
  267MPD2    H3 4044   4.539   4.314  17.205 -2.3887 -0.6485 -0.4650
  267MPD2     N 4045   4.239   4.640  17.149  0.2687  0.6764 -0.2424
  267MPD2    H5 4046   4.212   4.599  17.060 -2.1859  0.2692  0.6784
  267MPD2    N1 4047   4.559   4.625  17.527 -0.1557  0.3899  0.3824
  267MPD2    H7 4048   4.619   4.561  17.579 -0.9309 -1.1232 -0.5801
  268TMC3    C1 4049   4.648   0.076  17.667 -0.9655  0.3271  0.0488
  268TMC3    C2 4050   4.683   0.209  17.677  0.2828 -0.8042 -0.7705
  268TMC3    C3 4051   4.723   0.256   0.101  0.2579 -0.0960  0.3986
  268TMC3    C4 4052   4.647   0.003   0.074  0.4387 -0.1861 -0.4963
  268TMC3    C5 4053   4.678   0.056   0.198  0.0247 -0.3685 -0.6264
  268TMC3    C6 4054   4.709   0.185   0.216 -0.7093 -0.2856  0.4569
  268TMC3     C 4055   4.561   0.038  17.559  0.1618  0.1348 -0.8652
  268TMC3     O 4056   4.527   0.128  17.480 -0.2010 -0.7545  0.0194
  268TMC3     H 4057   4.699   0.269  17.588 -0.5960  1.8119  0.8537
  268TMC3    H1 4058   4.606   4.628   0.072 -2.4411  1.0040 -0.4692
  268TMC3    H2 4059   0.011   0.229   0.311 -0.7579  1.2113 -0.2165
  268TMC3    C7 4060   4.642   4.703   0.315 -0.8411  0.6982 -0.3358
  268TMC3    C8 4061   0.022   0.399   0.107 -0.3254 -0.5021 -0.8726
  268TMC3    O1 4062   4.677   4.583   0.311  0.4540 -0.2051  0.2969
  268TMC3    O2 4063   0.086   0.441   0.200 -0.6026 -0.5170  0.0195
  269MPD2     C 4064   4.354   3.765  16.284 -0.0520  0.3806  0.0691
  269MPD2    C1 4065   4.305   3.740  16.159  0.6181 -0.6890 -0.2685
  269MPD2    C2 4066   4.263   3.851  16.084  0.0762 -0.0210  0.3006
  269MPD2    C3 4067   4.277   3.979  16.134  1.0536 -0.5060 -0.0054
  269MPD2    C4 4068   4.332   3.991  16.259 -1.0268 -0.5956 -0.2839
  269MPD2    C5 4069   4.372   3.888  16.333 -0.3116  0.5578 -0.4404
  269MPD2     H 4070   4.220   3.840  15.985  2.8117  2.4464 -1.1588
  269MPD2    H1 4071   4.347   4.090  16.301 -1.4004 -0.3289 -0.7789
  269MPD2    H2 4072   4.386   3.673  16.332 -1.3022 -0.2458 -0.2863
  269MPD2    H3 4073   4.401   3.912  16.435  0.0783  0.6218 -0.5666
  269MPD2     N 4074   4.240   4.088  16.051 -0.6923  0.0478 -0.3625
  269MPD2    H5 4075   4.208   4.073  15.956  0.7796 -0.7705 -0.7283
  269MPD2    N1 4076   4.294   3.602  16.117 -0.0795  0.5371 -0.3389
  269MPD2    H7 4077   4.340   3.541  16.184  0.8047 -0.9360 -2.2842
  270TMC3    C1 4078   4.221   3.419  15.982 -0.3568 -0.3178 -0.4082
  270TMC3    C2 4079   4.135   3.382  15.883  0.1418 -0.4388 -0.1045
  270TMC3    C3 4080   4.169   3.262  15.823  0.5121  0.3434  0.3264
  270TMC3    C4 4081   4.340   3.353  16.007  1.0712 -0.4823 -0.4998
  270TMC3    C5 4082   4.371   3.245  15.943  0.0994  0.3646 -0.6658
  270TMC3    C6 4083   4.277   3.194  15.858  0.0978  0.3738 -0.3504
  270TMC3     C 4084   4.211   3.553  16.022  0.3143  0.1554  0.0128
  270TMC3     O 4085   4.126   3.614  15.966  0.3398  0.3859 -0.4739
  270TMC3     H 4086   4.043   3.434  15.858  0.3737  0.0822  0.1263
  270TMC3    H1 4087   4.407   3.402  16.077  1.9107  1.6207 -2.7569
  270TMC3    H2 4088   4.286   3.095  15.814 -0.7904 -0.5671  1.6346
  270TMC3    C7 4089   4.514   3.213  15.915  0.1739 -0.1271  0.0108
  270TMC3    C8 4090   4.136   3.263  15.689 -0.0458 -0.2502  0.9975
  270TMC3    O1 4091   4.597   3.248  15.995  0.7061  0.2683  0.3698
  270TMC3    O2 4092   4.220   3.206  15.614 -0.7969  0.3536  0.3108
  271MPD2     C 4093   3.755   3.293  13.849 -0.3273 -0.5365 -0.4983
  271MPD2    C1 4094   3.702   3.389  13.930 -0.4727 -0.0127 -0.2103
  271MPD2    C2 4095   3.611   3.481  13.881 -0.5514  0.1411 -0.3970
  271MPD2    C3 4096   3.572   3.489  13.745 -0.6453  0.2089 -0.2788
  271MPD2    C4 4097   3.639   3.393  13.665 -0.6321 -0.7531  0.6274
  271MPD2    C5 4098   3.732   3.305  13.717  0.0080  0.0151  0.0570
  271MPD2     H 4099   3.563   3.542  13.956 -1.7895 -0.6978 -0.5068
  271MPD2    H1 4100   3.618   3.388  13.559  0.1212 -1.8963  0.5275
  271MPD2    H2 4101   3.829   3.221  13.881  1.4095  0.4995 -2.1847
  271MPD2    H3 4102   3.772   3.225  13.655  0.3174 -0.9053  1.4373
  271MPD2     N 4103   3.475   3.579  13.713  0.0193  0.2174  0.4534
  271MPD2    H5 4104   3.444   3.582  13.616 -1.6097  2.4390  1.0505
  271MPD2    N1 4105   3.731   3.383  14.067  0.3526 -0.4831  0.4568
  271MPD2    H7 4106   3.706   3.467  14.119  0.4657 -1.0514  1.4466
  272TMC3    C1 4107   3.842   3.320  14.266 -1.0621 -0.1660  1.0477
  272TMC3    C2 4108   3.969   3.279  14.298 -0.7040  0.3383 -0.0708
  272TMC3    C3 4109   3.993   3.237  14.423  0.4720 -0.2416  0.6118
  272TMC3    C4 4110   3.744   3.313  14.363  0.0669 -1.0944  0.4564
  272TMC3    C5 4111   3.771   3.284  14.492 -0.1135 -0.8820 -0.1320
  272TMC3    C6 4112   3.901   3.247  14.523 -0.0763 -0.2434 -0.9730
  272TMC3     C 4113   3.811   3.286  14.130  0.0169  0.4132  0.0326
  272TMC3     O 4114   3.859   3.181  14.089 -0.0306 -0.2614 -0.2776
  272TMC3     H 4115   4.035   3.267  14.213  0.5161 -3.3237  1.4339
  272TMC3    H1 4116   3.644   3.337  14.331 -0.0855 -2.0269  0.2518
  272TMC3    H2 4117   3.928   3.222  14.625  2.8691 -3.0908 -2.4552
  272TMC3    C7 4118   3.670   3.307  14.591  0.0251  0.5501  0.2130
  272TMC3    C8 4119   4.111   3.152  14.445  0.7020  0.3251  0.1341
  272TMC3    O1 4120   3.552   3.295  14.550 -0.4679  0.7165  0.1755
  272TMC3    O2 4121   4.195   3.165  14.357  0.2023  0.3004  0.0745
  273MPD2     C 4122   0.351   1.481  11.981 -0.9015 -0.0303 -0.0267
  273MPD2    C1 4123   0.400   1.611  11.955 -0.1796  0.4646  0.0316
  273MPD2    C2 4124   0.425   1.654  11.827  0.2906 -0.5057  0.3162
  273MPD2    C3 4125   0.402   1.568  11.727 -0.1882  0.3343 -0.0554
  273MPD2    C4 4126   0.355   1.441  11.752  0.5538 -0.2321  0.5248
  273MPD2    C5 4127   0.335   1.396  11.876  0.2257  0.1979 -0.1410
  273MPD2     H 4128   0.454   1.758  11.819 -0.3463 -0.3439  0.1174
  273MPD2    H1 4129   0.361   1.361  11.679  1.9269 -0.1593  0.5688
  273MPD2    H2 4130   0.344   1.445  12.083 -1.1067 -1.0262 -0.3894
  273MPD2    H3 4131   0.314   1.290  11.888  2.9278 -0.3473 -0.1726
  273MPD2     N 4132   0.410   1.602  11.588 -0.0219  0.2102  1.2868
  273MPD2    H5 4133   0.358   1.536  11.532  0.2673 -0.6529  2.0391
  273MPD2    N1 4134   0.437   1.683  12.063 -0.7698 -0.1084  0.6385
  273MPD2    H7 4135   0.399   1.649  12.150  2.8081 -0.0843  2.2099
  274TMC3    C1 4136   0.414   1.753  11.396  0.6284  0.0004  0.8479
  274TMC3    C2 4137   0.283   1.731  11.378 -0.5868  0.5928 -0.2344
  274TMC3    C3 4138   0.198   1.834  11.340 -0.9371 -0.2004 -0.7528
  274TMC3    C4 4139   0.462   1.876  11.362  0.4237 -0.4992 -0.7083
  274TMC3    C5 4140   0.377   1.981  11.336  0.5299 -0.2802 -0.0072
  274TMC3    C6 4141   0.248   1.958  11.307  0.6852 -0.5089 -0.6192
  274TMC3     C 4142   0.459   1.725  11.532 -0.0111 -0.0003  0.2969
  274TMC3     O 4143   0.516   1.811  11.593  0.1747 -0.2508 -0.6422
  274TMC3     H 4144   0.231   1.639  11.401  0.6167 -0.0920 -0.2424
  274TMC3    H1 4145   0.566   1.894  11.390  0.0677  1.4673 -0.6088
  274TMC3    H2 4146   0.175   2.038  11.309  0.3740 -0.7707 -1.4815
  274TMC3    C7 4147   0.395   2.098  11.418  0.0054 -0.6577 -0.2816
  274TMC3    C8 4148   0.059   1.803  11.320  0.4092  0.5275  0.2199
  274TMC3    O1 4149   0.337   2.202  11.375  0.5745  0.0607  0.0429
  274TMC3    O2 4150   4.707   1.899  11.341  0.1041  0.2261  0.1068
  275MPD2     C 4151   0.295   4.598  15.103 -0.1121  0.0303 -0.2100
  275MPD2    C1 4152   0.302   4.500  15.011 -0.1595  0.6261 -0.0058
  275MPD2    C2 4153   0.188   4.442  14.959  0.0689  0.2096  0.6731
  275MPD2    C3 4154   0.062   4.491  14.993  0.5038  0.0660  1.3964
  275MPD2    C4 4155   0.059   4.593  15.088 -0.0487 -0.3783  0.3127
  275MPD2    C5 4156   0.175   4.649  15.139 -0.0995 -1.1911 -0.4117
  275MPD2     H 4157   0.204   4.360  14.890  0.7337  0.5906  0.3738
  275MPD2    H1 4158   4.696   4.652  15.107 -0.1250  0.3383 -2.3787
  275MPD2    H2 4159   0.378   4.643  15.156  1.2161 -1.9254 -0.6533
  275MPD2    H3 4160   0.175   0.008  15.206 -0.7358 -1.4835 -0.0347
  275MPD2     N 4161   4.668   4.439  14.933  0.1487 -0.0857 -0.8260
  275MPD2    H5 4162   4.587   4.487  14.972  2.1562  1.9519  0.7603
  275MPD2    N1 4163   0.422   4.440  14.971  0.1441  0.4359 -0.1821
  275MPD2    H7 4164   0.423   4.370  14.898 -0.8562 -2.2132  2.3581
  276TMC3    C1 4165   0.627   4.352  14.968  0.0386  0.5517 -0.4347
  276TMC3    C2 4166   0.573   4.226  14.945 -0.1040 -0.2626 -0.8654
  276TMC3    C3 4167   0.660   4.126  14.909 -0.2899 -0.5050  0.3951
  276TMC3    C4 4168   0.762   4.379  14.983 -0.5067  0.5598 -0.1286
  276TMC3    C5 4169   0.841   4.273  14.949  0.2047 -0.3939 -0.4197
  276TMC3    C6 4170   0.795   4.150  14.912  0.2361  0.0815  0.4771
  276TMC3     C 4171   0.545   4.453  15.019 -0.2009 -0.1315  0.3463
  276TMC3     O 4172   0.596   4.534  15.093 -0.0418 -0.0274  0.7353
  276TMC3     H 4173   0.468   4.205  14.927 -0.0127 -1.2897 -0.2032
  276TMC3    H1 4174   0.804   4.478  14.995  1.7753 -0.6696  1.8572
  276TMC3    H2 4175   0.866   4.071  14.893 -0.6033 -0.0224 -2.2242
  276TMC3    C7 4176   0.987   4.274  14.975  0.6413 -0.2804  0.3443
  276TMC3    C8 4177   0.607   4.028  14.826  0.6143 -0.2909 -0.1185
  276TMC3    O1 4178   1.058   4.198  14.908  0.6346  0.0990 -0.2274
  276TMC3    O2 4179   0.656   4.010  14.714 -0.4893 -0.4121 -0.1492
  277MPD2     C 4180   2.320   3.441  13.594 -0.1329  0.2989  0.2377
  277MPD2    C1 4181   2.198   3.464  13.638 -0.1211 -0.3174  0.5627
  277MPD2    C2 4182   2.167   3.446  13.769 -0.2083 -0.4229 -0.2230
  277MPD2    C3 4183   2.251   3.398  13.868  0.1059  0.2098 -0.3327
  277MPD2    C4 4184   2.378   3.366  13.815  0.3214  0.7435 -0.2042
  277MPD2    C5 4185   2.412   3.390  13.685 -0.5362  0.5793  0.3751
  277MPD2     H 4186   2.068   3.478  13.797 -0.1415 -0.7652  0.3973
  277MPD2    H1 4187   2.457   3.329  13.880  1.1872  1.9515 -0.5712
  277MPD2    H2 4188   2.345   3.442  13.488  0.4694 -0.4728  0.3730
  277MPD2    H3 4189   2.502   3.344  13.647 -1.3503  0.1856 -1.0682
  277MPD2     N 4190   2.204   3.378  13.999 -0.6061 -0.0594 -0.1771
  277MPD2    H5 4191   2.107   3.406  14.013 -0.2989  0.6495  0.5044
  277MPD2    N1 4192   2.102   3.521  13.545  0.3115  0.0718  0.2683
  277MPD2    H7 4193   2.137   3.523  13.450  0.4147  0.4303  0.3174
  278TMC3    C1 4194   2.157   3.247  14.181 -0.7586 -0.9528  0.7332
  278TMC3    C2 4195   2.156   3.115  14.200  0.7502  0.0316 -0.5942
  278TMC3    C3 4196   2.031   3.065  14.235 -0.6574  0.5272  0.0815
  278TMC3    C4 4197   2.053   3.332  14.196  0.4878 -0.2037  0.0790
  278TMC3    C5 4198   1.931   3.276  14.228  0.2480  0.3859  0.5017
  278TMC3    C6 4199   1.917   3.142  14.256  0.3999  0.2896 -0.1953
  278TMC3     C 4200   2.258   3.282  14.084  0.0657 -0.0950 -0.5224
  278TMC3     O 4201   2.367   3.229  14.089  0.6284  0.2344  0.0777
  278TMC3     H 4202   2.245   3.055  14.187  1.2150  0.2776  1.3591
  278TMC3    H1 4203   2.061   3.439  14.185  2.1912 -0.0667  2.5160
  278TMC3    H2 4204   1.838   3.106  14.321  1.3914 -1.4602  0.0295
  278TMC3    C7 4205   1.831   3.365  14.277 -0.6223  0.0130 -0.6143
  278TMC3    C8 4206   2.014   2.926  14.217  0.0204 -0.0479  0.3686
  278TMC3    O1 4207   1.855   3.479  14.308  0.1637  0.1119  0.0731
  278TMC3    O2 4208   2.114   2.854  14.216 -0.0534 -0.2898 -0.1232
  279MPD2     C 4209   1.570   3.760   0.842 -0.1631 -0.5183  0.0883
  279MPD2    C1 4210   1.505   3.679   0.750  0.3056 -0.2004 -0.4944
  279MPD2    C2 4211   1.567   3.641   0.626 -0.2273  0.5819 -0.3100
  279MPD2    C3 4212   1.697   3.671   0.608  0.3248  1.2588  0.4812
  279MPD2    C4 4213   1.771   3.733   0.705  0.4245 -0.6783  0.2369
  279MPD2    C5 4214   1.705   3.787   0.814 -0.3580  0.6872 -0.1332
  279MPD2     H 4215   1.502   3.593   0.554 -0.8844  0.6740  0.2199
  279MPD2    H1 4216   1.879   3.733   0.703  0.4164 -0.8603 -0.2859
  279MPD2    H2 4217   1.530   3.795   0.937 -1.5447  0.1288 -0.7299
  279MPD2    H3 4218   1.759   3.834   0.896 -0.2142  1.1769 -0.5089
  279MPD2     N 4219   1.758   3.641   0.486 -0.6866  0.1044  0.8844
  279MPD2    H5 4220   1.844   3.691   0.467 -0.5439 -0.0497  1.1379
  279MPD2    N1 4221   1.366   3.671   0.777  0.0934 -0.8724  0.4067
  279MPD2    H7 4222   1.329   3.728   0.853 -1.2307 -2.5940  1.0468
  280TMC3    C1 4223   1.148   3.578   0.746  0.2231 -0.0240  0.1689
  280TMC3    C2 4224   1.082   3.467   0.705 -0.0861 -0.0076  0.0668
  280TMC3    C3 4225   0.958   3.478   0.653 -0.2848  0.7094  0.3942
  280TMC3    C4 4226   1.103   3.703   0.709 -0.4702 -0.1693 -0.5155
  280TMC3    C5 4227   0.979   3.706   0.649 -0.7207 -0.4350  0.5278
  280TMC3    C6 4228   0.905   3.595   0.622  0.5710  0.3035  0.2386
  280TMC3     C 4229   1.288   3.569   0.720  0.7727  0.4928  0.4395
  280TMC3     O 4230   1.326   3.465   0.671 -0.0061  0.0337 -0.2264
  280TMC3     H 4231   1.113   3.364   0.721  1.2942  0.1397 -1.7216
  280TMC3    H1 4232   1.165   3.791   0.725  1.4693 -1.6722  0.2431
  280TMC3    H2 4233   0.800   3.599   0.596  1.0303  1.3451 -1.4813
  280TMC3    C7 4234   0.924   3.829   0.601  0.6675 -0.2120  0.7364
  280TMC3    C8 4235   0.897   3.359   0.592  0.1733 -0.6532  0.1323
  280TMC3    O1 4236   0.802   3.841   0.606 -0.5781 -0.5974 -0.2465
  280TMC3    O2 4237   0.828   3.372   0.491 -0.0600 -0.2516 -0.0022
  281TMC3    C1 4238   0.267   3.762  13.914 -0.1408  0.6458  0.2338
  281TMC3    C2 4239   0.220   3.878  13.851 -0.0657 -0.2360  0.2992
  281TMC3    C3 4240   0.284   3.909  13.730  0.6631  0.1426  0.0944
  281TMC3    C4 4241   0.385   3.702  13.875  0.0170 -0.1562 -0.4344
  281TMC3    C5 4242   0.453   3.746  13.765 -0.5045  0.0856  0.6426
  281TMC3    C6 4243   0.395   3.848  13.691 -0.4748  0.4190  0.1205
  281TMC3     C 4244   0.164   3.664  13.925 -0.1998 -0.4309  1.1475
  281TMC3     O 4245   0.207   3.551  13.929 -0.1636 -0.3831  0.1296
  281TMC3     H 4246   0.136   3.937  13.887  1.2823  1.4673  0.6505
  281TMC3    H1 4247   0.422   3.612  13.923  0.3720  0.5016  0.5255
  281TMC3    H2 4248   0.429   3.874  13.591  2.2869 -1.5693  0.5372
  281TMC3    C7 4249   0.561   3.667  13.701  0.0008 -0.4965  0.3997
  281TMC3    C8 4250   0.176   3.930  13.636  0.5277  0.1809 -0.6651
  281TMC3    O1 4251   0.662   3.722  13.666 -0.4271  0.8883  0.0485
  281TMC3    O2 4252   0.172   3.855  13.537 -0.0803  0.0223  0.5465
  282MPD2     C 4253   1.790   0.186  15.191 -0.2093 -0.1721  0.2289
  282MPD2    C1 4254   1.723   0.301  15.252  0.2678 -0.1114  0.4019
  282MPD2    C2 4255   1.630   0.371  15.173 -0.5323 -0.4326  0.3208
  282MPD2    C3 4256   1.593   0.319  15.051 -0.4025 -0.5779  0.2281
  282MPD2    C4 4257   1.656   0.210  14.997  0.2455 -0.5237  0.2282
  282MPD2    C5 4258   1.760   0.151  15.062  0.4590  0.0903 -0.0172
  282MPD2     H 4259   1.583   0.462  15.210 -0.5202  0.8867 -2.9518
  282MPD2    H1 4260   1.628   0.183  14.896  0.6121 -0.9941  0.2505
  282MPD2    H2 4261   1.860   0.127  15.249  0.3614  1.1519  0.9025
  282MPD2    H3 4262   1.804   0.070  15.004 -0.8436 -0.6470  0.0295
  282MPD2     N 4263   1.489   0.399  14.981  0.0512 -0.2343  0.0812
  282MPD2    H5 4264   1.436   0.470  15.031 -0.7123  0.0974 -1.2032
  282MPD2    N1 4265   1.735   0.344  15.387 -0.4789  0.0907 -0.0430
  282MPD2    H7 4266   1.684   0.426  15.415 -3.2487 -0.9910 -1.9728
  283TMC3    C1 4267   1.795   0.299  15.607 -0.3946 -0.4280  0.1595
  283TMC3    C2 4268   1.788   0.421  15.669  0.2959 -0.2096 -0.3738
  283TMC3    C3 4269   1.746   0.417  15.793 -0.1324 -0.5851 -0.4140
  283TMC3    C4 4270   1.759   0.181  15.658 -0.3741 -0.1897  0.6435
  283TMC3    C5 4271   1.714   0.187  15.785 -0.0957  0.3313  0.6913
  283TMC3    C6 4272   1.708   0.305  15.855 -0.4086  0.0350  0.0007
  283TMC3     C 4273   1.827   0.285  15.467  0.0311  0.2591 -0.1420
  283TMC3     O 4274   1.912   0.200  15.447 -0.2011 -0.1085 -0.1897
  283TMC3     H 4275   1.814   0.504  15.604 -1.0276 -0.6718 -1.5009
  283TMC3    H1 4276   1.753   0.089  15.601 -1.7939  0.4388 -0.2333
  283TMC3    H2 4277   1.682   0.312  15.960  0.5685  1.0439  0.1691
  283TMC3    C7 4278   1.679   0.068  15.856 -0.2162  0.0113  0.4388
  283TMC3    C8 4279   1.760   0.540  15.876  0.0930  0.1072 -0.7299
  283TMC3    O1 4280   1.677   0.076  15.981 -0.2462 -0.5018  0.0883
  283TMC3    O2 4281   1.779   0.531  15.996  0.3790 -0.7947 -0.3362
  284MPD2     C 4282   0.115   4.700  12.592 -0.5242  0.2284 -0.3656
  284MPD2    C1 4283   0.081   4.681  12.460  0.1459  0.5447  0.7855
  284MPD2    C2 4284   4.684   4.621  12.446 -0.0361 -0.9920  0.7623
  284MPD2    C3 4285   4.607   4.566  12.546  0.4644  0.3027 -0.6679
  284MPD2    C4 4286   4.649   4.576  12.675  0.3450 -0.0171  0.0606
  284MPD2    C5 4287   0.040   4.648  12.698 -0.2198 -0.4273 -0.3072
  284MPD2     H 4288   4.636   4.610  12.349  1.4174 -1.3644  0.0887
  284MPD2    H1 4289   4.599   4.528  12.759  0.9451 -0.6015  0.0763
  284MPD2    H2 4290   0.197   0.040  12.620 -0.1188  0.2362 -1.5884
  284MPD2    H3 4291   0.065   4.671  12.801 -0.3719  1.3822 -0.6826
  284MPD2     N 4292   4.502   4.482  12.511  1.0835  0.0162 -0.2680
  284MPD2    H5 4293   4.502   4.472  12.410 -0.1303 -1.1526 -0.1396
  284MPD2    N1 4294   0.143   0.012  12.350  0.4487 -0.2755 -0.2280
  284MPD2    H7 4295   0.089   0.006  12.264  0.7760 -1.2190 -0.3689
  285TMC3    C1 4296   0.309   0.110  12.216  0.4942  0.2896 -0.2515
  285TMC3    C2 4297   0.274   0.024  12.115  0.0142 -0.5689 -0.4301
  285TMC3    C3 4298   0.311   0.065  11.987 -1.0148 -0.2876  0.5785
  285TMC3    C4 4299   0.371   0.230  12.195  0.3326 -0.5170 -0.0416
  285TMC3    C5 4300   0.382   0.273  12.066  0.1114 -0.6566  0.1936
  285TMC3    C6 4301   0.350   0.189  11.958 -0.5747  0.1811 -0.5872
  285TMC3     C 4302   0.271   0.065  12.344 -0.1146 -0.2010  0.6789
  285TMC3     O 4303   0.338   0.105  12.437 -0.1661  0.3504  0.4282
  285TMC3     H 4304   0.243   4.646  12.127 -1.6647 -0.0058  0.0079
  285TMC3    H1 4305   0.403   0.293  12.278 -2.7121  2.8616 -1.3884
  285TMC3    H2 4306   0.333   0.232  11.860 -0.8892  1.4369  0.0255
  285TMC3    C7 4307   0.442   0.402  12.032  0.2293 -0.5777 -0.0856
  285TMC3    C8 4308   0.316   4.685  11.891 -0.7293 -0.9158  0.0208
  285TMC3    O1 4309   0.423   0.448  11.918  0.3554  0.2820  0.2318
  285TMC3    O2 4310   0.238   4.590  11.889 -0.1712  0.3932 -0.6099
  286MPD2     C 4311   0.454   2.501   1.889 -0.2003  0.0345 -0.2510
  286MPD2    C1 4312   0.441   2.561   1.760  0.1906 -0.2217  0.4495
  286MPD2    C2 4313   0.528   2.506   1.664 -0.6104 -0.4509  0.6294
  286MPD2    C3 4314   0.615   2.404   1.691 -0.1126 -0.6587 -0.3477
  286MPD2    C4 4315   0.618   2.343   1.813  0.1653  0.4494  0.9649
  286MPD2    C5 4316   0.547   2.404   1.915  0.3332  0.2037  0.0930
  286MPD2     H 4317   0.538   2.563   1.572  0.7540 -2.1187 -0.2658
  286MPD2    H1 4318   0.676   2.253   1.828  0.9097  0.6551 -0.6518
  286MPD2    H2 4319   0.393   2.532   1.973 -2.0458  1.7972 -2.2423
  286MPD2    H3 4320   0.535   2.372   2.017 -0.2796 -1.6686 -0.5689
  286MPD2     N 4321   0.701   2.348   1.594  0.1676  0.7329 -0.6254
  286MPD2    H5 4322   0.764   2.274   1.624 -0.3875 -0.1497 -1.6595
  286MPD2    N1 4323   0.355   2.673   1.744  0.5602  0.0089  0.3820
  286MPD2    H7 4324   0.322   2.706   1.654  0.6864 -2.1350 -0.4383
  287TMC3    C1 4325   0.821   2.314   1.400  0.0215 -0.2055  0.1332
  287TMC3    C2 4326   0.817   2.299   1.260 -0.2471 -0.1028 -0.0502
  287TMC3    C3 4327   0.940   2.272   1.193  0.2743 -0.0850  0.2265
  287TMC3    C4 4328   0.935   2.284   1.467  0.5212 -0.1039 -0.3013
  287TMC3    C5 4329   1.052   2.254   1.403 -0.2496 -0.1035 -0.1706
  287TMC3    C6 4330   1.058   2.251   1.269  0.4929  0.2211  0.0843
  287TMC3     C 4331   0.712   2.382   1.465  0.1493  0.2790 -0.4382
  287TMC3     O 4332   0.636   2.450   1.400  0.7058  0.3838 -0.2166
  287TMC3     H 4333   0.722   2.324   1.214  0.0147  0.3285 -0.3577
  287TMC3    H1 4334   0.956   2.323   1.566  0.1848 -1.8533  0.4502
  287TMC3    H2 4335   1.155   2.249   1.219  0.9893 -0.0464  1.0586
  287TMC3    C7 4336   1.177   2.271   1.475 -0.9048  0.0129  0.0897
  287TMC3    C8 4337   0.964   2.257   1.049 -0.1236 -0.2115  0.1989
  287TMC3    O1 4338   1.171   2.324   1.583  0.4354  0.5755  0.2332
  287TMC3    O2 4339   1.056   2.190   1.008  0.6861  0.1100 -0.0639
  288TMC3    C1 4340   2.046   2.369  14.790  0.5362  0.7891 -0.7770
  288TMC3    C2 4341   1.955   2.468  14.805  0.0131  0.5125 -0.5353
  288TMC3    C3 4342   1.988   2.598  14.766 -0.3635 -0.2476 -0.0994
  288TMC3    C4 4343   2.181   2.400  14.757  0.8366  0.6029  0.3784
  288TMC3    C5 4344   2.211   2.531  14.720 -0.3232  0.5903 -0.3675
  288TMC3    C6 4345   2.116   2.632  14.721 -0.0253  0.0183  0.5919
  288TMC3     C 4346   2.002   2.234  14.801 -0.4060 -0.1711 -0.3484
  288TMC3     O 4347   1.881   2.219  14.809 -0.1256  0.4577 -0.3074
  288TMC3     H 4348   1.855   2.446  14.840  1.1892 -1.5210  1.5468
  288TMC3    H1 4349   2.252   2.319  14.744  0.2424  0.2728 -0.8291
  288TMC3    H2 4350   2.125   2.735  14.689  0.2625 -0.5012 -0.9700
  288TMC3    C7 4351   2.349   2.558  14.683  0.8599  0.2036 -0.3521
  288TMC3    C8 4352   1.912   2.716  14.821 -0.2847 -0.3833  1.0947
  288TMC3    O1 4353   2.441   2.494  14.722 -0.0085  0.6481 -0.5903
  288TMC3    O2 4354   1.975   2.818  14.815 -0.0197 -0.3001 -0.7917
  289MPD2     C 4355   2.416   2.239  14.510  0.2562 -0.9185 -0.3458
  289MPD2    C1 4356   2.346   2.319  14.420  0.6167 -0.1873 -0.2808
  289MPD2    C2 4357   2.211   2.287  14.409  0.2825  0.1900 -0.0444
  289MPD2    C3 4358   2.158   2.166  14.465 -0.0788  0.3709 -0.3124
  289MPD2    C4 4359   2.239   2.078  14.539 -1.0698  0.0261 -0.3453
  289MPD2    C5 4360   2.363   2.120  14.559 -0.2846 -0.5401 -0.3047
  289MPD2     H 4361   2.156   2.350  14.339 -0.1754 -0.6041 -0.3966
  289MPD2    H1 4362   2.211   1.980  14.577 -0.7916 -0.3134 -1.0186
  289MPD2    H2 4363   2.522   2.250  14.527  0.0340  0.0890  0.4433
  289MPD2    H3 4364   2.427   2.053  14.616  1.8033  0.3305 -1.6434
  289MPD2     N 4365   2.025   2.120  14.447 -0.4822 -0.4690  0.0737
  289MPD2    H5 4366   2.002   2.026  14.478 -1.2025 -0.6186 -0.9040
  289MPD2    N1 4367   2.410   2.436  14.365  0.3138 -0.1640  0.0353
  289MPD2    H7 4368   2.506   2.447  14.397 -0.0045  0.2521  0.8589
  290TMC3    C1 4369   1.796   2.118  14.370  0.1047 -0.3080  0.2958
  290TMC3    C2 4370   1.696   2.172  14.284 -0.6056 -0.2368  0.3156
  290TMC3    C3 4371   1.573   2.117  14.306 -0.2549  0.2812 -0.1787
  290TMC3    C4 4372   1.776   2.000  14.439  0.5793 -0.1277  0.0152
  290TMC3    C5 4373   1.653   1.934  14.419 -0.2451 -0.0264 -0.5619
  290TMC3    C6 4374   1.550   1.996  14.363 -0.3877 -0.2461  0.1697
  290TMC3     C 4375   1.922   2.192  14.377  0.8836  0.0407 -0.1272
  290TMC3     O 4376   1.924   2.304  14.334 -0.2619 -0.2723  0.4921
  290TMC3     H 4377   1.715   2.261  14.225 -0.5640 -0.5985 -0.2101
  290TMC3    H1 4378   1.848   1.949  14.501 -0.5735  0.2543  1.6651
  290TMC3    H2 4379   1.452   1.948  14.367 -0.3702 -0.1402  2.0977
  290TMC3    C7 4380   1.617   1.845  14.528  0.3908 -0.8947  0.2226
  290TMC3    C8 4381   1.468   2.219  14.307 -0.0115 -0.4358  0.1348
  290TMC3    O1 4382   1.648   1.883  14.641  0.3712  0.7786 -0.2053
  290TMC3    O2 4383   1.356   2.174  14.280  0.3852  0.0810  0.0883
  291MPD2     C 4384   1.447   1.889   0.527  0.0081  0.2931  0.5017
  291MPD2    C1 4385   1.495   1.803   0.432  0.1137 -0.1135 -0.0892
  291MPD2    C2 4386   1.567   1.857   0.325 -0.1751  0.5762 -0.5655
  291MPD2    C3 4387   1.585   1.993   0.310 -0.1550  0.2195 -0.2332
  291MPD2    C4 4388   1.536   2.077   0.410  0.5082  0.1210  0.5602
  291MPD2    C5 4389   1.477   2.020   0.520  0.4687  0.0884  0.0193
  291MPD2     H 4390   1.604   1.791   0.248 -1.2917  1.6496 -1.9946
  291MPD2    H1 4391   1.554   2.184   0.399 -0.1099  0.1649 -0.0828
  291MPD2    H2 4392   1.389   1.859   0.614  2.2077 -2.7098  0.9264
  291MPD2    H3 4393   1.452   2.089   0.600  1.1185  1.0419 -0.6007
  291MPD2     N 4394   1.632   2.061   0.199 -0.5534 -0.0867 -0.0901
  291MPD2    H5 4395   1.592   2.155   0.196 -1.6800 -0.5412  0.4865
  291MPD2    N1 4396   1.466   1.664   0.423  0.1228  0.5855  0.0091
  291MPD2    H7 4397   1.488   1.621   0.333 -0.6902  1.5745 -0.6740
  292TMC3    C1 4398   1.350   1.458   0.481 -0.4971 -0.0149  0.6043
  292TMC3    C2 4399   1.237   1.422   0.550  0.1010 -0.3169  0.2160
  292TMC3    C3 4400   1.154   1.324   0.510 -0.1881 -0.1395 -1.5416
  292TMC3    C4 4401   1.372   1.406   0.360  0.2272 -0.1522 -0.8403
  292TMC3    C5 4402   1.279   1.320   0.313 -0.5202  0.1356  0.0110
  292TMC3    C6 4403   1.173   1.276   0.390  0.8278  0.4277  0.0193
  292TMC3     C 4404   1.401   1.589   0.519 -0.5941  0.5274  0.1827
  292TMC3     O 4405   1.353   1.630   0.623 -0.1342  0.2242 -0.5755
  292TMC3     H 4406   1.206   1.469   0.643 -0.0221  0.3221 -0.1471
  292TMC3    H1 4407   1.459   1.428   0.299  0.8077 -1.3193 -0.4215
  292TMC3    H2 4408   1.115   1.190   0.357 -0.9390  2.2504 -1.5872
  292TMC3    C7 4409   1.302   1.257   0.180 -0.5827  0.3892 -0.0273
  292TMC3    C8 4410   1.042   1.291   0.591 -0.1012 -0.3435 -0.2490
  292TMC3    O1 4411   1.415   1.235   0.136  0.2631 -0.1056 -0.2918
  292TMC3    O2 4412   1.059   1.306   0.711 -0.4846 -0.6110  0.1825
  293MPD2     C 4413   3.097   3.545  12.377 -0.8075 -0.9361  0.9267
  293MPD2    C1 4414   3.051   3.442  12.452  0.3043  0.2169  0.2489
  293MPD2    C2 4415   3.105   3.420  12.575  0.2262 -0.1332 -0.1430
  293MPD2    C3 4416   3.207   3.499  12.622  0.2984  0.6854  0.1311
  293MPD2    C4 4417   3.257   3.597  12.550 -0.2566  0.4278  0.0848
  293MPD2    C5 4418   3.197   3.625  12.427 -0.1833  0.0314  0.0567
  293MPD2     H 4419   3.076   3.333  12.632  0.0860  0.8313  1.2759
  293MPD2    H1 4420   3.344   3.656  12.575 -0.5376  1.0400 -0.3702
  293MPD2    H2 4421   3.037   3.566  12.290  1.7349 -0.1631 -0.6571
  293MPD2    H3 4422   3.211   3.717  12.372  0.7888  0.2599  0.6865
  293MPD2     N 4423   3.236   3.476  12.760 -0.2034  0.1483 -0.4640
  293MPD2    H5 4424   3.199   3.398  12.815  0.8275  0.6094  0.8973
  293MPD2    N1 4425   2.931   3.379  12.416  0.0571 -0.3337 -0.7148
  293MPD2    H7 4426   2.888   3.432  12.341 -0.1442 -0.6273 -0.8056
  294TMC3    C1 4427   2.737   3.238  12.401  0.7419  1.2363 -0.3066
  294TMC3    C2 4428   2.648   3.167  12.471  0.8282 -0.3575  0.1692
  294TMC3    C3 4429   2.520   3.142  12.420 -0.0809  0.7000  0.0334
  294TMC3    C4 4430   2.714   3.277  12.273 -0.0850  0.2481  0.5402
  294TMC3    C5 4431   2.579   3.262  12.229 -0.0238 -0.0487  0.1453
  294TMC3    C6 4432   2.483   3.196  12.297 -0.0890 -0.1889 -0.2633
  294TMC3     C 4433   2.864   3.265  12.466 -0.5453 -0.1552  0.2652
  294TMC3     O 4434   2.880   3.210  12.573 -0.6948 -0.1362  0.1864
  294TMC3     H 4435   2.683   3.107  12.554 -1.3054  0.2560  1.5123
  294TMC3    H1 4436   2.797   3.306  12.211  0.7158 -2.0123  0.5620
  294TMC3    H2 4437   2.389   3.183  12.245  0.8945  1.0666 -2.3604
  294TMC3    C7 4438   2.574   3.245  12.086 -0.0450 -0.6852 -0.1985
  294TMC3    C8 4439   2.411   3.080  12.498 -0.3269  0.2165 -0.1095
  294TMC3    O1 4440   2.474   3.295  12.033 -0.9622  0.0166  0.4051
  294TMC3    O2 4441   2.446   3.002  12.582  0.1077 -0.3784 -0.5273
  295MPD2     C 4442   3.396   2.221   0.703  0.3929  0.3997 -0.1950
  295MPD2    C1 4443   3.350   2.136   0.605 -0.9839  0.0408 -0.5356
  295MPD2    C2 4444   3.207   2.122   0.596  1.2913 -0.0780  0.9435
  295MPD2    C3 4445   3.120   2.182   0.680 -0.4377  0.3320 -0.2885
  295MPD2    C4 4446   3.171   2.260   0.781  0.1336  0.0330  0.4709
  295MPD2    C5 4447   3.304   2.289   0.779  0.0542 -0.1743 -0.3808
  295MPD2     H 4448   3.171   2.075   0.505  1.7585  2.6907 -0.6564
  295MPD2    H1 4449   3.102   2.320   0.838 -1.1886 -0.3420 -0.7225
  295MPD2    H2 4450   3.498   2.246   0.728  0.3378  2.6855 -2.2433
  295MPD2    H3 4451   3.337   2.374   0.838  2.0365 -1.9308  1.0389
  295MPD2     N 4452   2.976   2.178   0.669 -0.2858 -0.3353 -0.4832
  295MPD2    H5 4453   2.926   2.242   0.730  2.2834 -0.3027  1.5760
  295MPD2    N1 4454   3.441   2.075   0.508  0.1178 -0.2491  0.0600
  295MPD2    H7 4455   3.402   2.004   0.447 -1.8083 -0.2312  1.2756
  296TMC3    C1 4456   2.753   2.124   0.598 -0.3947  0.2359 -0.5545
  296TMC3    C2 4457   2.694   2.233   0.659 -0.1195  0.0107  0.1867
  296TMC3    C3 4458   2.557   2.233   0.678  0.4145 -0.1444 -0.0090
  296TMC3    C4 4459   2.679   2.015   0.560  0.3433 -0.1631 -0.5810
  296TMC3    C5 4460   2.548   2.020   0.576  0.0927 -0.0477 -0.4597
  296TMC3    C6 4461   2.487   2.122   0.637 -0.0337  0.9825 -0.6377
  296TMC3     C 4462   2.897   2.105   0.584 -0.1863 -0.5520  0.1031
  296TMC3     O 4463   2.944   2.024   0.502 -0.3534  0.6525  0.0893
  296TMC3     H 4464   2.749   2.326   0.658  0.1502 -0.1339  1.8421
  296TMC3    H1 4465   2.711   1.918   0.522  0.9474 -0.3414  0.3688
  296TMC3    H2 4466   2.379   2.123   0.645  0.2579 -1.9385  3.0958
  296TMC3    C7 4467   2.481   1.892   0.602  0.0266  0.2984  0.1262
  296TMC3    C8 4468   2.493   2.364   0.702  0.2660  0.2744  0.1532
  296TMC3    O1 4469   2.370   1.878   0.556 -0.2941 -0.1693  0.1942
  296TMC3    O2 4470   2.382   2.378   0.660 -0.6573 -0.6082  0.0509
  297MPD2     C 4471   1.179   3.815  17.014 -0.1923  1.2085 -0.2355
  297MPD2    C1 4472   1.188   3.879  16.893 -0.3005  0.2839 -0.1145
  297MPD2    C2 4473   1.301   3.945  16.859  0.3738 -0.5340  0.0031
  297MPD2    C3 4474   1.413   3.955  16.941 -0.2653  0.5047 -0.0051
  297MPD2    C4 4475   1.410   3.870  17.046  0.1668 -0.0753  0.2168
  297MPD2    C5 4476   1.293   3.806  17.082  0.2031 -0.1353  0.6500
  297MPD2     H 4477   1.310   3.990  16.761  1.7142  1.4379  1.0454
  297MPD2    H1 4478   1.491   3.861  17.118  0.1377  2.0377  0.5092
  297MPD2    H2 4479   1.086   3.769  17.047  0.5810  0.2866  0.6517
  297MPD2    H3 4480   1.298   3.759  17.180  1.8697 -0.1842  0.5376
  297MPD2     N 4481   1.513   4.039  16.898 -0.4515 -0.0429 -0.0615
  297MPD2    H5 4482   1.503   4.065  16.800  0.4453  0.1416 -0.1028
  297MPD2    N1 4483   1.076   3.895  16.805  0.3345  0.1520  0.1422
  297MPD2    H7 4484   1.102   3.924  16.711 -1.4937  0.1503 -0.3697
  298TMC3    C1 4485   0.861   3.951  16.751 -0.3868 -0.2958 -0.2755
  298TMC3    C2 4486   0.882   3.921  16.621 -0.9559  0.1493 -0.3222
  298TMC3    C3 4487   0.807   4.002  16.536 -0.5177  0.2054 -0.3859
  298TMC3    C4 4488   0.763   4.035  16.799 -0.3215 -0.5406  0.3149
  298TMC3    C5 4489   0.693   4.107  16.711 -0.3459  0.2492  0.6517
  298TMC3    C6 4490   0.710   4.082  16.582 -0.7156  0.4687  0.1710
  298TMC3     C 4491   0.948   3.880  16.850  0.1263 -0.5539 -0.3078
  298TMC3     O 4492   0.888   3.834  16.946  0.3910 -0.2048 -0.5127
  298TMC3     H 4493   0.959   3.849  16.598 -0.2151  0.5529  0.8430
  298TMC3    H1 4494   0.762   4.063  16.904 -0.2028 -1.7067  0.6221
  298TMC3    H2 4495   0.655   4.135  16.505 -1.2855 -1.7142 -0.9233
  298TMC3    C7 4496   0.588   4.200  16.749 -0.1179 -0.0004  0.9314
  298TMC3    C8 4497   0.817   3.988  16.392  0.1103  1.1105 -0.1157
  298TMC3    O1 4498   0.606   4.258  16.853  0.0292 -1.0376 -1.2545
  298TMC3    O2 4499   0.718   3.989  16.323  0.5228  0.1263 -0.1211
  299MPD2     C 4500   1.377   4.018  11.097  0.0854 -0.0429 -0.0283
  299MPD2    C1 4501   1.398   3.972  10.972 -0.6239 -0.4870  0.3290
  299MPD2    C2 4502   1.306   3.885  10.918  0.2412 -0.4696  0.1891
  299MPD2    C3 4503   1.205   3.838  11.002 -0.4232 -0.3589  0.4330
  299MPD2    C4 4504   1.179   3.885  11.124  0.1580 -0.3798 -0.0023
  299MPD2    C5 4505   1.269   3.984  11.170  0.6996 -0.0394  0.5891
  299MPD2     H 4506   1.302   3.847  10.816 -1.8970 -2.7568  1.1361
  299MPD2    H1 4507   1.098   3.861  11.191 -0.8006 -2.2235 -1.8010
  299MPD2    H2 4508   1.452   4.085  11.138 -0.5284  2.0958 -2.4040
  299MPD2    H3 4509   1.263   4.024  11.271 -1.3144 -0.7109  0.7415
  299MPD2     N 4510   1.115   3.745  10.963  0.3035 -0.5481  0.2651
  299MPD2    H5 4511   1.040   3.731  11.030  0.5217  0.3076  0.6886
  299MPD2    N1 4512   1.504   4.029  10.901 -0.0664 -0.1060  0.9758
  299MPD2    H7 4513   1.561   4.101  10.943 -0.2325 -0.2191  1.3958
  300TMC3    C1 4514   0.985   3.592  10.838  0.0782  0.2288 -0.2384
  300TMC3    C2 4515   0.957   3.536  10.713  0.2426 -0.3579  0.4276
  300TMC3    C3 4516   0.822   3.532  10.677  0.5903 -0.0397 -0.5933
  300TMC3    C4 4517   0.893   3.614  10.935 -0.4745  0.3645 -0.4479
  300TMC3    C5 4518   0.762   3.598  10.895 -0.1791  0.7664 -0.2027
  300TMC3    C6 4519   0.726   3.552  10.769 -0.2151  0.5522 -0.5589
  300TMC3     C 4520   1.114   3.666  10.851  0.0984  0.2184  0.7175
  300TMC3     O 4521   1.201   3.659  10.762 -0.2861  0.7155  0.3287
  300TMC3     H 4522   1.035   3.513  10.641  0.0958 -0.4611  0.3005
  300TMC3    H1 4523   0.909   3.634  11.040  2.0423  0.4921 -0.8719
  300TMC3    H2 4524   0.627   3.516  10.742 -0.0909 -0.7557  0.7149
  300TMC3    C7 4525   0.664   3.637  10.996  0.5957  0.0960  0.6964
  300TMC3    C8 4526   0.772   3.499  10.539  0.0578  0.0143 -0.1562
  300TMC3    O1 4527   0.699   3.727  11.073  0.4869 -0.1876  0.3489
  300TMC3    O2 4528   0.669   3.435  10.521 -0.2325 -0.3332  0.2984
  301MPD2     C 4529   4.021   4.522   1.849 -0.2373 -0.3651  0.3467
  301MPD2    C1 4530   3.914   4.496   1.770  0.6074 -0.3096 -0.3549
  301MPD2    C2 4531   3.912   4.403   1.673 -0.2594 -0.2399 -0.0212
  301MPD2    C3 4532   4.023   4.320   1.664 -0.2901 -0.5223 -0.8060
  301MPD2    C4 4533   4.129   4.340   1.753  0.9086  0.2651  0.2042
  301MPD2    C5 4534   4.125   4.440   1.844  0.3813 -0.3530  0.1055
  301MPD2     H 4535   3.827   4.394   1.607  1.2121 -0.1538 -1.9568
  301MPD2    H1 4536   4.211   4.270   1.761 -0.7052 -1.5276  0.9040
  301MPD2    H2 4537   4.022   4.584   1.938 -0.0060  0.9746 -0.5938
  301MPD2    H3 4538   4.210   4.450   1.910  1.1677 -1.5596 -0.7146
  301MPD2     N 4539   4.030   4.215   1.574 -0.2635 -0.9037  0.1651
  301MPD2    H5 4540   4.109   4.151   1.573 -0.6021 -1.3635  2.1192
  301MPD2    N1 4541   3.791   4.566   1.774 -0.4607  0.1494 -0.1987
  301MPD2    H7 4542   3.714   4.533   1.716  0.7375 -0.8408 -1.2230
  302TMC3    C1 4543   3.958   4.070   1.403  0.2561  0.1341 -0.6394
  302TMC3    C2 4544   4.039   3.967   1.443  0.1556 -0.2319  0.4691
  302TMC3    C3 4545   4.034   3.850   1.377 -0.6359  0.4387 -0.0576
  302TMC3    C4 4546   3.863   4.046   1.301 -0.3817 -0.4573 -1.1052
  302TMC3    C5 4547   3.873   3.931   1.232 -0.2487 -0.5631 -0.2449
  302TMC3    C6 4548   3.955   3.826   1.270 -0.2870 -0.3280 -0.1522
  302TMC3     C 4549   3.932   4.180   1.485  0.1860 -0.2737  0.3498
  302TMC3     O 4550   3.832   4.243   1.447 -0.1207  0.2088  0.1150
  302TMC3     H 4551   4.108   3.980   1.526 -0.7324  1.0957  1.0093
  302TMC3    H1 4552   3.802   4.128   1.264 -1.0315 -0.0447  0.8913
  302TMC3    H2 4553   3.958   3.732   1.216 -1.1316  0.1650 -1.0685
  302TMC3    C7 4554   3.775   3.891   1.130  0.0689 -0.4606 -0.2164
  302TMC3    C8 4555   4.148   3.750   1.390  0.1361  0.6084  0.4024
  302TMC3    O1 4556   3.769   3.771   1.094 -0.2476  0.5781 -0.3393
  302TMC3    O2 4557   4.210   3.733   1.282 -0.0325  0.3376  0.2871
  303MPD2     C 4558   3.772   3.590  10.751 -0.4451 -0.4234 -0.2683
  303MPD2    C1 4559   3.678   3.533  10.673  0.0821  0.2222 -0.6759
  303MPD2    C2 4560   3.716   3.462  10.566 -0.0310  0.3310 -0.8881
  303MPD2    C3 4561   3.850   3.436  10.540 -0.7165 -0.3026 -0.6268
  303MPD2    C4 4562   3.947   3.487  10.622 -0.2364 -0.5704 -0.6632
  303MPD2    C5 4563   3.908   3.562  10.726 -0.8350  0.1188  0.2153
  303MPD2     H 4564   3.636   3.427  10.502 -1.5615 -0.4594  1.4648
  303MPD2    H1 4565   4.054   3.475  10.612  0.1200  1.2200  1.0447
  303MPD2    H2 4566   3.746   3.657  10.833 -0.2786 -1.3064  0.5010
  303MPD2    H3 4567   3.984   3.608  10.787 -0.9878  1.4691 -0.6005
  303MPD2     N 4568   3.884   3.342  10.443 -0.0209  0.0357 -0.1160
  303MPD2    H5 4569   3.981   3.313  10.438  0.1844  0.5625  0.8026
  303MPD2    N1 4570   3.543   3.526  10.703  0.1089  0.3454 -0.5823
  303MPD2    H7 4571   3.485   3.472  10.640 -0.6604  0.2192  0.2315
  304TMC3    C1 4572   3.335   3.555  10.820  0.3234 -0.0539 -0.3253
  304TMC3    C2 4573   3.261   3.602  10.717 -0.7921 -0.2994 -0.4542
  304TMC3    C3 4574   3.122   3.594  10.722 -0.5686 -0.0051  0.8689
  304TMC3    C4 4575   3.275   3.524  10.936  0.3549 -0.0480 -0.6964
  304TMC3    C5 4576   3.143   3.519  10.947 -0.2366  0.4557 -0.7415
  304TMC3    C6 4577   3.062   3.555  10.840 -0.2078  0.5456 -0.5060
  304TMC3     C 4578   3.480   3.578  10.817 -0.0755  0.3235 -1.5990
  304TMC3     O 4579   3.528   3.633  10.913  0.3382  0.4631 -0.3663
  304TMC3     H 4580   3.311   3.653  10.636 -1.8753  1.5240  0.0298
  304TMC3    H1 4581   3.331   3.481  11.018 -0.0523  0.3146 -0.2308
  304TMC3    H2 4582   2.957   3.562  10.865 -0.2639 -1.0254 -0.2996
  304TMC3    C7 4583   3.108   3.396  11.013  0.9422 -0.1208  0.5251
  304TMC3    C8 4584   3.072   3.498  10.621 -0.8049 -0.0380  0.1897
  304TMC3    O1 4585   3.163   3.358  11.115 -0.5317  0.6359 -0.1781
  304TMC3    O2 4586   2.984   3.416  10.652 -0.3611 -0.1266 -0.4493
  305MPD2     C 4587   1.627   0.533  14.080 -0.1618 -0.1909 -0.6011
  305MPD2    C1 4588   1.692   0.420  14.119  0.4183 -0.4899  0.1958
  305MPD2    C2 4589   1.732   0.325  14.026 -0.0742 -0.7205  0.5456
  305MPD2    C3 4590   1.724   0.361  13.889 -0.8930  0.1527  0.2499
  305MPD2    C4 4591   1.662   0.478  13.852 -0.5340  0.1952  0.3806
  305MPD2    C5 4592   1.598   0.555  13.945 -0.4170 -0.2053 -0.5089
  305MPD2     H 4593   1.760   0.225  14.057  1.3042 -0.1073  1.3169
  305MPD2    H1 4594   1.639   0.505  13.749 -0.6634  0.1257  0.3904
  305MPD2    H2 4595   1.582   0.601  14.152 -0.1186  0.7222 -1.4481
  305MPD2    H3 4596   1.544   0.643  13.913 -0.8126 -0.8558 -1.6341
  305MPD2     N 4597   1.779   0.273  13.790 -0.0645  0.0591  0.1682
  305MPD2    H5 4598   1.779   0.313  13.696  2.5538  0.4794  0.3448
  305MPD2    N1 4599   1.709   0.413  14.260 -0.7531 -0.3442 -0.0824
  305MPD2    H7 4600   1.665   0.483  14.319  0.8201  0.7239 -0.1843
  306TMC3    C1 4601   1.807   0.342  14.463 -0.8585  0.4357 -0.3505
  306TMC3    C2 4602   1.870   0.234  14.530  0.4565 -0.3139 -0.0073
  306TMC3    C3 4603   1.869   0.240  14.662 -0.4532 -0.3647  0.0744
  306TMC3    C4 4604   1.732   0.435  14.528 -0.0179  0.8037  0.1489
  306TMC3    C5 4605   1.747   0.441  14.664  0.6653  0.5279 -0.6362
  306TMC3    C6 4606   1.812   0.345  14.730  0.2670 -0.1852 -0.0350
  306TMC3     C 4607   1.794   0.321  14.318 -0.2938  0.5628 -0.1669
  306TMC3     O 4608   1.857   0.226  14.275 -0.3151  0.3569  0.6385
  306TMC3     H 4609   1.944   0.173  14.479  0.3081 -2.9364  2.9336
  306TMC3    H1 4610   1.687   0.520  14.478  0.3887  1.3598  0.7200
  306TMC3    H2 4611   1.811   0.353  14.838 -2.3592  1.5285 -0.1838
  306TMC3    C7 4612   1.675   0.545  14.727  0.7687 -0.6209  0.8254
  306TMC3    C8 4613   1.973   0.160  14.736 -0.5853  0.5211  0.1159
  306TMC3    O1 4614   1.570   0.580  14.682 -0.4967 -0.6066 -0.0198
  306TMC3    O2 4615   1.991   0.046  14.700 -0.4327 -0.2706  0.1582
  307MPD2     C 4616   4.556   2.659   0.872 -0.4295  0.7337 -0.6715
  307MPD2    C1 4617   4.478   2.771   0.835 -0.3961  0.0320 -0.1808
  307MPD2    C2 4618   4.342   2.777   0.868  0.0934 -0.0282  0.0593
  307MPD2    C3 4619   4.277   2.678   0.929 -0.2354  0.4140 -0.1137
  307MPD2    C4 4620   4.354   2.567   0.956  0.0223 -0.8455  0.0243
  307MPD2    C5 4621   4.487   2.553   0.923  0.9260  0.3030 -0.3582
  307MPD2     H 4622   4.289   2.868   0.840 -0.4959 -1.1270 -2.3601
  307MPD2    H1 4623   4.317   2.478   1.006 -1.7597  0.3425  0.7800
  307MPD2    H2 4624   4.660   2.647   0.844 -0.5649 -1.2955 -0.3484
  307MPD2    H3 4625   4.537   2.459   0.942 -3.8541 -2.4690 -1.3934
  307MPD2     N 4626   4.140   2.682   0.970  0.4748  0.0363 -0.0292
  307MPD2    H5 4627   4.097   2.774   0.963  1.2019  0.4287  0.6034
  307MPD2    N1 4628   4.538   2.882   0.766 -0.0182 -0.6326 -0.2548
  307MPD2    H7 4629   4.488   2.970   0.759  1.1553  0.0391 -0.3355
  308TMC3    C1 4630   3.739   2.726   0.993 -0.3161  0.3847 -0.4397
  308TMC3    C2 4631   3.745   2.840   1.065  0.0768 -0.0331 -0.4004
  308TMC3    C3 4632   3.865   2.850   1.133  0.1263 -0.5400  0.0623
  308TMC3    C4 4633   3.836   2.629   0.994 -0.1054 -0.1283 -0.0193
  308TMC3    C5 4634   3.943   2.643   1.080  0.3674  0.2192 -0.2839
  308TMC3    C6 4635   3.959   2.757   1.150 -0.3963  0.1986  0.4322
  308TMC3     C 4636   3.633   2.698   0.903  0.2236  0.1993  0.5504
  308TMC3     O 4637   3.613   2.586   0.874 -0.2623 -0.3813 -0.4680
  308TMC3     H 4638   3.670   2.918   1.059  1.0188  0.9090  0.0761
  308TMC3    H1 4639   3.822   2.545   0.927  0.0257 -1.0387  1.0943
  308TMC3    H2 4640   4.047   2.780   1.209  0.9439 -0.8021 -1.1739
  308TMC3    C7 4641   4.069   2.583   1.032  0.6148  0.0789  0.1787
  308TMC3    C8 4642   3.883   2.972   1.216  0.0145 -0.2971  0.3451
  308TMC3    O1 4643   4.092   2.463   1.047 -0.1497 -0.5284 -0.7995
  308TMC3    O2 4644   3.932   2.959   1.324 -0.1129 -0.6812 -0.4868
  309MPD2     C 4645   3.651   3.432  17.287  0.1737  0.4036 -0.2813
  309MPD2    C1 4646   3.623   3.483  17.162 -0.5338 -0.7377 -0.2390
  309MPD2    C2 4647   3.493   3.528  17.145 -0.0638  0.0839  0.6507
  309MPD2    C3 4648   3.397   3.524  17.243 -0.3544  0.9881 -0.0676
  309MPD2    C4 4649   3.440   3.483  17.367 -0.7406  0.1410 -0.2064
  309MPD2    C5 4650   3.561   3.431  17.386 -0.2358  0.4066 -0.1460
  309MPD2     H 4651   3.478   3.567  17.045  0.3930 -3.7999 -0.9118
  309MPD2    H1 4652   3.375   3.472  17.453 -0.2481  3.1385  0.5474
  309MPD2    H2 4653   3.754   3.402  17.301 -0.3793 -1.1827  0.3714
  309MPD2    H3 4654   3.580   3.398  17.488 -1.9672  0.5058  0.2127
  309MPD2     N 4655   3.267   3.561  17.230 -0.2956 -0.2630 -0.5420
  309MPD2    H5 4656   3.211   3.566  17.314 -1.3775 -0.2442 -1.2622
  309MPD2    N1 4657   3.709   3.479  17.047 -0.0066  0.0771 -0.3456
  309MPD2    H7 4658   3.662   3.508  16.962 -0.2155 -0.0896 -0.2862
  310TMC3    C1 4659   3.906   3.480  16.921  0.0387 -0.2528 -0.5264
  310TMC3    C2 4660   3.832   3.537  16.820 -0.3021  0.1538 -0.3569
  310TMC3    C3 4661   3.901   3.592  16.713  0.0453  0.1323 -0.2987
  310TMC3    C4 4662   4.044   3.466  16.919  0.2251  0.6369  0.3851
  310TMC3    C5 4663   4.106   3.527  16.815  0.4617 -0.6990  0.6523
  310TMC3    C6 4664   4.038   3.578  16.704  0.1816  0.0861 -0.0271
  310TMC3     C 4665   3.845   3.447  17.046  0.3480  1.2011  0.9270
  310TMC3     O 4666   3.914   3.399  17.135  0.3637 -0.5552  0.3735
  310TMC3     H 4667   3.725   3.554  16.825 -0.2611 -0.0027  1.0382
  310TMC3    H1 4668   4.097   3.445  17.011 -0.8002  1.2530  1.1224
  310TMC3    H2 4669   4.095   3.613  16.619 -1.3061  0.1819 -0.9761
  310TMC3    C7 4670   4.243   3.481  16.787  0.5657 -0.5488 -0.1994
  310TMC3    C8 4671   3.830   3.646  16.600 -0.6883 -0.4743  0.2362
  310TMC3    O1 4672   4.271   3.378  16.844 -0.7998 -0.2964  0.0447
  310TMC3    O2 4673   3.710   3.620  16.597 -0.0866 -0.0873 -0.1679
  311MPD2     C 4674   1.098   0.321  13.099  0.0449  0.8762 -0.3765
  311MPD2    C1 4675   1.093   0.441  13.038  0.5329  0.2290  0.8386
  311MPD2    C2 4676   0.970   0.500  13.004  0.2287  0.8893  0.2814
  311MPD2    C3 4677   0.853   0.433  13.039 -0.5299 -0.1749 -0.1208
  311MPD2    C4 4678   0.865   0.318  13.110  0.1455 -0.2042  0.4732
  311MPD2    C5 4679   0.981   0.262  13.133  0.6131  0.4816  0.2526
  311MPD2     H 4680   0.959   0.591  12.946  0.0236 -0.2971 -1.5514
  311MPD2    H1 4681   0.776   0.266  13.144 -0.6108 -0.0895 -1.3401
  311MPD2    H2 4682   1.189   0.268  13.125  1.5527  3.5344 -0.2640
  311MPD2    H3 4683   0.986   0.168  13.187 -2.7520  0.1654  0.0176
  311MPD2     N 4684   0.735   0.499  13.008 -0.0365 -0.0887 -0.5991
  311MPD2    H5 4685   0.740   0.591  12.967  0.2500 -0.3577 -1.1617
  311MPD2    N1 4686   1.210   0.519  13.006 -1.2274 -0.2103 -0.7453
  311MPD2    H7 4687   1.191   0.611  12.968  0.1862  0.7850  0.9399
  312TMC3    C1 4688   0.514   0.556  13.008 -0.3734  0.5228 -0.1048
  312TMC3    C2 4689   0.397   0.510  12.971  0.2432 -0.4036 -0.1001
  312TMC3    C3 4690   0.305   0.604  12.940  0.1170  1.0750 -0.0963
  312TMC3    C4 4691   0.541   0.692  13.042  0.0086 -0.0320 -0.1535
  312TMC3    C5 4692   0.447   0.784  13.003 -0.0840  0.3741 -0.3717
  312TMC3    C6 4693   0.324   0.741  12.958 -0.0941  0.2508  0.0574
  312TMC3     C 4694   0.611   0.457  13.045  0.1756  0.2523  0.3618
  312TMC3     O 4695   0.565   0.347  13.082 -0.2402  0.2073  0.0614
  312TMC3     H 4696   0.390   0.405  12.944 -1.4011 -0.6917  1.4235
  312TMC3    H1 4697   0.628   0.725  13.098 -0.8759  0.7732  0.7378
  312TMC3    H2 4698   0.247   0.816  12.950 -1.6223 -1.4291 -1.1970
  312TMC3    C7 4699   0.456   0.921  13.048 -0.3739 -0.5297  0.6574
  312TMC3    C8 4700   0.178   0.562  12.882  0.2388 -0.1695  0.1046
  312TMC3    O1 4701   0.461   1.011  12.971  0.5089 -0.1832  0.2494
  312TMC3    O2 4702   0.135   0.445  12.903 -0.0366  0.7690 -0.3320
  313MPD2     C 4703   1.012   4.545  10.714 -0.7949 -0.2585  0.2567
  313MPD2    C1 4704   0.903   4.494  10.787  0.2815 -0.0855  0.6276
  313MPD2    C2 4705   0.818   4.401  10.728 -1.2476 -0.1537  0.0344
  313MPD2    C3 4706   0.828   4.355  10.601  0.2512  0.5087  0.4692
  313MPD2    C4 4707   0.935   4.404  10.530  0.6074  0.3139  0.0894
  313MPD2    C5 4708   1.028   4.487  10.592  0.4031  0.1289 -1.1495
  313MPD2     H 4709   0.729   4.368  10.780 -0.5003 -2.0108  0.1324
  313MPD2    H1 4710   0.969   4.360  10.436 -1.7003 -0.4568 -0.3741
  313MPD2    H2 4711   1.090   4.606  10.757 -0.6624 -0.6008  0.5082
  313MPD2    H3 4712   1.120   4.503  10.537  1.5661  1.5339  1.2535
  313MPD2     N 4713   0.744   4.245  10.565 -1.0355  0.8485 -0.0805
  313MPD2    H5 4714   0.661   4.218  10.618 -0.4636  1.1698  0.9866
  313MPD2    N1 4715   0.868   4.528  10.917  0.0557  0.3189 -1.0094
  313MPD2    H7 4716   0.780   4.489  10.950 -0.1032 -0.5405 -2.4637
  314TMC3    C1 4717   0.842   4.649  11.120 -0.6831 -0.0155 -0.1053
  314TMC3    C2 4718   0.868   0.037  11.182  0.1845  0.2875  0.3739
  314TMC3    C3 4719   0.762   0.116  11.230  0.0199 -0.5347  0.3961
  314TMC3    C4 4720   0.718   4.604  11.124  0.9566  0.3595  1.4640
  314TMC3    C5 4721   0.606   4.684  11.158 -0.1914 -0.0856 -0.7943
  314TMC3    C6 4722   0.633   0.089  11.197 -0.2527 -0.5790 -0.1741
  314TMC3     C 4723   0.929   4.625  10.998 -1.0516 -0.6152 -0.8783
  314TMC3     O 4724   1.031   4.690  10.991  0.4810 -0.5486 -0.0946
  314TMC3     H 4725   0.971   0.067  11.200  1.1206 -1.5593 -1.9950
  314TMC3    H1 4726   0.693   4.502  11.098 -0.5107  1.3928 -1.2143
  314TMC3    H2 4727   0.558   0.165  11.221  1.2259  0.9510 -0.4130
  314TMC3    C7 4728   0.476   4.642  11.110  0.1324 -0.0314  0.8531
  314TMC3    C8 4729   0.787   0.224  11.330 -0.5427  0.2080  0.2152
  314TMC3    O1 4730   0.392   4.624  11.195 -0.4343 -0.5410  0.2701
  314TMC3    O2 4731   0.715   0.320  11.350 -0.2793 -0.4108 -0.3165
  315MPD2     C 4732   0.051   3.775   0.222  0.0701 -0.9888  0.9902
  315MPD2    C1 4733   0.154   3.778   0.313  0.0110 -0.4284  0.7222
  315MPD2    C2 4734   0.208   3.906   0.335 -0.1621 -0.2033 -0.5313
  315MPD2    C3 4735   0.158   4.018   0.275  0.0541  0.5976  0.2278
  315MPD2    C4 4736   0.050   4.012   0.187  0.2161 -0.5871  0.8183
  315MPD2    C5 4737   4.718   3.889   0.172  0.3526  0.0413  0.2994
  315MPD2     H 4738   0.299   3.904   0.394 -1.6532  1.9990  1.8488
  315MPD2    H1 4739   4.722   4.097   0.148  0.1947 -1.6974 -1.6079
  315MPD2    H2 4740   0.008   3.682   0.188 -1.2958  0.3000 -0.7620
  315MPD2    H3 4741   4.636   3.881   0.101 -0.4240  0.0733  1.1849
  315MPD2     N 4742   0.232   4.128   0.306  0.5090  0.6178  0.2130
  315MPD2    H5 4743   0.309   4.123   0.372  0.1685 -0.8755  0.4873
  315MPD2    N1 4744   0.214   3.666   0.378  0.3506  0.5639 -0.3440
  315MPD2    H7 4745   0.291   3.696   0.438 -0.1062  0.9599  0.0373
  316TMC3    C1 4746   0.308   4.347   0.315 -0.6413  0.0684 -0.0560
  316TMC3    C2 4747   0.430   4.308   0.360 -0.1098  0.4260  0.2604
  316TMC3    C3 4748   0.514   4.413   0.404  0.3306  0.0319 -0.9272
  316TMC3    C4 4749   0.274   4.483   0.308 -0.3105  0.4833 -0.3074
  316TMC3    C5 4750   0.354   4.576   0.360  0.6181  0.1916 -0.2743
  316TMC3    C6 4751   0.478   4.546   0.409 -0.7691  0.3860 -0.3164
  316TMC3     C 4752   0.214   4.253   0.256  0.1317  0.1473  0.5768
  316TMC3     O 4753   0.124   4.299   0.188  0.1567 -0.1432 -0.2474
  316TMC3     H 4754   0.460   4.205   0.350  1.9705  0.9829  0.6454
  316TMC3    H1 4755   0.179   4.519   0.273 -1.7855 -0.3252  2.8478
  316TMC3    H2 4756   0.552   4.626   0.403 -2.0547  1.3466 -3.1230
  316TMC3    C7 4757   0.354   4.706   0.293  0.4305 -0.8833 -0.5220
  316TMC3    C8 4758   0.657   4.396   0.396  0.7922 -0.7516  0.4202
  316TMC3    O1 4759   0.398   0.077   0.351 -0.3727 -0.3307 -0.0684
  316TMC3    O2 4760   0.722   4.503   0.388 -0.1262  0.5119 -0.7497
  317MPD2     C 4761   2.201   2.563  13.270  0.3809 -0.2284  0.5857
  317MPD2    C1 4762   2.145   2.436  13.285  0.1540 -0.7977  0.7322
  317MPD2    C2 4763   2.208   2.351  13.370  0.4241 -0.1650 -0.3067
  317MPD2    C3 4764   2.325   2.375  13.435  0.1262  0.1326  0.2754
  317MPD2    C4 4765   2.389   2.495  13.411  0.2283  0.5187 -0.1495
  317MPD2    C5 4766   2.323   2.593  13.340  0.3796 -0.7963  0.5796
  317MPD2     H 4767   2.161   2.254  13.381 -2.3340  0.8896 -2.7476
  317MPD2    H1 4768   2.482   2.513  13.464  0.7929  0.3129 -1.0784
  317MPD2    H2 4769   2.145   2.633  13.208 -0.6338  0.4174  2.2474
  317MPD2    H3 4770   2.359   2.695  13.343  0.0686 -0.5795 -2.3028
  317MPD2     N 4771   2.367   2.272  13.519 -0.0156 -0.2545 -0.0940
  317MPD2    H5 4772   2.313   2.186  13.516  0.2369 -0.4557  0.9120
  317MPD2    N1 4773   2.029   2.391  13.220 -0.3016  0.1073  0.3550
  317MPD2    H7 4774   2.008   2.294  13.240  0.8015 -0.4342 -1.1247
  318TMC3    C1 4775   2.458   2.162  13.699 -0.4017  0.2938  0.0770
  318TMC3    C2 4776   2.334   2.104  13.720  0.3873  0.1173 -0.2631
  318TMC3    C3 4777   2.345   1.978  13.772  0.1578  0.1845  0.5448
  318TMC3    C4 4778   2.578   2.104  13.722  0.3226  0.7516 -0.0327
  318TMC3    C5 4779   2.579   1.982  13.784  0.0362  1.3711  0.3433
  318TMC3    C6 4780   2.461   1.913  13.801 -0.0063  0.0663 -0.3454
  318TMC3     C 4781   2.465   2.283  13.614 -0.3199 -0.2683  1.1146
  318TMC3     O 4782   2.548   2.370  13.634  0.4459  0.0643  0.0859
  318TMC3     H 4783   2.239   2.154  13.710 -0.6057 -1.7506 -0.1367
  318TMC3    H1 4784   2.663   2.170  13.710  0.9555 -0.2977 -1.4338
  318TMC3    H2 4785   2.453   1.814  13.845 -1.0873 -0.2695 -1.2807
  318TMC3    C7 4786   2.686   1.963  13.882  0.1096  0.1096 -0.3722
  318TMC3    C8 4787   2.221   1.911  13.801 -0.6253  0.2267 -0.5205
  318TMC3    O1 4788   2.744   2.063  13.921  0.4965 -0.3113  0.3547
  318TMC3    O2 4789   2.228   1.822  13.884  0.1394 -0.4986 -0.3343
  319MPD2     C 4790   3.540   2.957  16.128 -0.1086 -0.4703  0.1129
  319MPD2    C1 4791   3.495   3.023  16.243 -0.3162  0.5604 -0.0313
  319MPD2    C2 4792   3.359   3.043  16.265 -0.2048  0.6743 -0.1378
  319MPD2    C3 4793   3.266   3.016  16.167 -0.4009  0.5506  0.2255
  319MPD2    C4 4794   3.309   2.953  16.048  0.4037 -0.3363 -0.5798
  319MPD2    C5 4795   3.445   2.936  16.029  0.3132  0.0972 -0.3529
  319MPD2     H 4796   3.326   3.096  16.354 -0.3691 -2.1304  1.4717
  319MPD2    H1 4797   3.248   2.933  15.961 -2.0325 -0.5090  1.1404
  319MPD2    H2 4798   3.646   2.944  16.112 -0.0434 -1.1789  1.1692
  319MPD2    H3 4799   3.470   2.896  15.931  1.4449 -1.2801  0.4936
  319MPD2     N 4800   3.127   3.045  16.190  0.2202  0.9282 -0.1514
  319MPD2    H5 4801   3.061   3.020  16.117  0.4627  0.2362 -0.1281
  319MPD2    N1 4802   3.586   3.070  16.344 -0.6980  0.2742  0.0983
  319MPD2    H7 4803   3.548   3.135  16.412  0.2932  1.2486 -0.2927
  320TMC3    C1 4804   2.916   3.103  16.294  1.0855 -0.2450  0.5642
  320TMC3    C2 4805   2.872   3.170  16.183 -1.3929 -0.4335 -0.1018
  320TMC3    C3 4806   2.741   3.157  16.146  0.2569 -0.5304  0.1788
  320TMC3    C4 4807   2.832   3.022  16.370  0.2949  0.0476 -0.1386
  320TMC3    C5 4808   2.701   3.007  16.333 -0.3403  0.3635 -0.0885
  320TMC3    C6 4809   2.658   3.068  16.220 -0.5816  0.3602 -0.2587
  320TMC3     C 4810   3.067   3.090  16.309  0.1795 -0.8016  0.2730
  320TMC3     O 4811   3.113   3.102  16.423 -0.0510  0.3792  0.2437
  320TMC3     H 4812   2.937   3.233  16.123 -0.3330 -1.5957 -0.1859
  320TMC3    H1 4813   2.881   2.959  16.444  1.7378 -0.4178 -1.5019
  320TMC3    H2 4814   2.554   3.055  16.193 -0.9757 -1.2236  1.9657
  320TMC3    C7 4815   2.620   2.901  16.379 -0.4910  0.3948  0.3394
  320TMC3    C8 4816   2.673   3.278  16.098  0.4859 -0.3957  0.3811
  320TMC3    O1 4817   2.548   2.851  16.298 -0.5027 -0.0704  0.2160
  320TMC3    O2 4818   2.728   3.383  16.131 -0.1027 -0.6611 -0.1389
  321TMC3    C1 4819   3.781   3.104  16.465  0.7249  0.6870  0.1601
  321TMC3    C2 4820   3.715   3.143  16.583  0.5597  0.2247 -0.3230
  321TMC3    C3 4821   3.783   3.200  16.677 -0.6999  0.4637  0.3727
  321TMC3    C4 4822   3.913   3.137  16.439 -0.7918  0.4874  0.5566
  321TMC3    C5 4823   3.979   3.196  16.535  0.4560 -0.1264  0.0159
  321TMC3    C6 4824   3.911   3.233  16.648 -0.1250 -0.7608  0.8610
  321TMC3     C 4825   3.721   3.040  16.355 -0.3141 -0.0461 -0.4079
  321TMC3     O 4826   3.791   2.971  16.281  0.0643  0.6061  0.3363
  321TMC3     H 4827   3.612   3.115  16.600  0.6889 -0.8915 -1.3682
  321TMC3    H1 4828   3.973   3.112  16.352 -0.6975 -2.2719  1.4117
  321TMC3    H2 4829   3.971   3.289  16.719 -0.6893 -0.2647  0.9496
  321TMC3    C7 4830   4.114   3.145  16.564  0.4764 -0.3141 -0.1480
  321TMC3    C8 4831   3.783   3.142  16.810 -0.2633  0.1421 -0.0399
  321TMC3    O1 4832   4.198   3.132  16.476 -0.0040  0.0812 -0.3105
  321TMC3    O2 4833   3.897   3.124  16.854 -0.3307 -0.4258 -0.2343
  322MPD2     C 4834   1.738   4.490  13.744  0.3362 -0.2513 -0.1006
  322MPD2    C1 4835   1.782   4.416  13.849 -0.4659  0.1397  0.4335
  322MPD2    C2 4836   1.851   4.296  13.825 -0.1681  0.2900  0.1719
  322MPD2    C3 4837   1.883   4.253  13.699 -0.2647 -0.4010  0.4092
  322MPD2    C4 4838   1.835   4.320  13.590  0.5212 -0.2794  0.0184
  322MPD2    C5 4839   1.757   4.433  13.617  0.2741  0.3701 -0.8204
  322MPD2     H 4840   1.894   4.236  13.905  0.2179  1.4374  0.8317
  322MPD2    H1 4841   1.843   4.281  13.489 -1.2269 -0.2074 -0.1612
  322MPD2    H2 4842   1.666   4.570  13.753  1.3641  0.7416 -0.7041
  322MPD2    H3 4843   1.700   4.475  13.535 -0.7792 -1.6451 -1.1227
  322MPD2     N 4844   1.951   4.137  13.686 -0.0839 -0.3771  0.3931
  322MPD2    H5 4845   1.982   4.099  13.775  0.7642 -0.1943  0.1750
  322MPD2    N1 4846   1.765   4.475  13.976 -1.0626 -0.0125 -0.0037
  322MPD2    H7 4847   1.746   4.574  13.962 -2.1649 -0.3093 -0.5933
  323TMC3    C1 4848   1.838   4.501  14.201 -0.2079 -0.0313 -0.1100
  323TMC3    C2 4849   1.893   4.623  14.169  0.2370  0.9221  0.6246
  323TMC3    C3 4850   1.970   4.687  14.265 -0.1398  0.3204 -0.3387
  323TMC3    C4 4851   1.867   4.439  14.322  0.2300 -0.2102  0.1566
  323TMC3    C5 4852   1.948   4.503  14.410 -0.1776 -0.0416  0.2483
  323TMC3    C6 4853   2.006   4.624  14.380 -0.1622  0.4788 -0.2791
  323TMC3     C 4854   1.800   4.408  14.091  0.2599 -0.1428 -0.1671
  323TMC3     O 4855   1.807   4.284  14.108  0.0428 -0.2343 -0.1868
  323TMC3     H 4856   1.867   4.679  14.080  0.9349  0.2804  0.0197
  323TMC3    H1 4857   1.862   4.331  14.332  2.6642 -0.3616 -0.2340
  323TMC3    H2 4858   2.064   4.683  14.450  0.0825  0.6938 -0.6643
  323TMC3    C7 4859   2.053   4.419  14.460  0.4595  0.5018  0.4866
  323TMC3    C8 4860   2.091   0.018  14.200  0.0941 -0.2277 -0.6909
  323TMC3    O1 4861   2.027   4.346  14.553  0.0590  0.5555  0.2769
  323TMC3    O2 4862   2.194   4.698  14.238  0.2186 -0.0088  0.3064
  324MPD2     C 4863   3.403   0.153  14.815 -0.6616 -0.0486 -0.3125
  324MPD2    C1 4864   3.450   0.237  14.714  0.3172 -0.1473 -0.0989
  324MPD2    C2 4865   3.366   0.256  14.599  0.0065 -0.6051  0.3791
  324MPD2    C3 4866   3.241   0.203  14.581  0.8227 -0.2728 -0.0473
  324MPD2    C4 4867   3.197   0.126  14.685 -0.3178  0.5058  0.3490
  324MPD2    C5 4868   3.278   0.093  14.790 -0.5147 -0.4914 -0.0168
  324MPD2     H 4869   3.405   0.316  14.518 -0.4879 -1.6506 -0.6319
  324MPD2    H1 4870   3.097   0.084  14.686 -0.3251  0.5363  0.9531
  324MPD2    H2 4871   3.472   0.115  14.890 -0.5858  3.1986  1.2658
  324MPD2    H3 4872   3.249   0.015  14.859 -1.4585 -0.3661 -0.2698
  324MPD2     N 4873   3.147   0.245  14.477  0.5762 -0.9455  0.0526
  324MPD2    H5 4874   3.051   0.217  14.495 -0.7742  1.5166 -3.2542
  324MPD2    N1 4875   3.579   0.297  14.701 -0.2136  0.0458 -0.4625
  324MPD2    H7 4876   3.597   0.342  14.612  0.4124  2.6761  1.0208
  325TMC3    C1 4877   3.075   0.447  14.390  0.8113  0.3009  0.1432
  325TMC3    C2 4878   2.954   0.422  14.440 -0.1221 -0.5556 -0.2176
  325TMC3    C3 4879   2.874   0.526  14.477 -0.1280 -0.3515  0.3336
  325TMC3    C4 4880   3.136   0.568  14.378  0.2582  0.1461 -0.7187
  325TMC3    C5 4881   3.057   0.670  14.414  0.0542  0.3798  0.6666
  325TMC3    C6 4882   2.927   0.651  14.466 -0.4421 -0.0552 -0.7299
  325TMC3     C 4883   3.178   0.339  14.388  0.1931 -0.0481 -0.2656
  325TMC3     O 4884   3.291   0.357  14.339  0.3073 -0.2412  0.1918
  325TMC3     H 4885   2.908   0.323  14.438  1.9358 -1.4163 -4.3928
  325TMC3    H1 4886   3.237   0.580  14.341  0.9398  1.3421  1.5445
  325TMC3    H2 4887   2.863   0.738  14.475 -0.9927 -0.5964  0.5520
  325TMC3    C7 4888   3.111   0.796  14.385 -0.4163 -0.1271 -0.7118
  325TMC3    C8 4889   2.737   0.513  14.441  0.1848 -0.5391  0.4961
  325TMC3    O1 4890   3.199   0.806  14.299 -0.0613  0.6037  0.2147
  325TMC3    O2 4891   2.707   0.425  14.359  0.2778 -0.0109 -0.3032
  326MPD2     C 4892   4.358   2.124  11.633 -0.0642 -0.3492 -1.2433
  326MPD2    C1 4893   4.346   2.116  11.495 -0.7192  0.0226  0.2515
  326MPD2    C2 4894   4.442   2.180  11.418 -0.4248 -0.2172  0.0041
  326MPD2    C3 4895   4.556   2.238  11.470  0.0572  0.6824  0.3363
  326MPD2    C4 4896   4.566   2.243  11.607  0.9764  0.1278 -0.8300
  326MPD2    C5 4897   4.464   2.191  11.688 -0.0953  0.0132  0.7991
  326MPD2     H 4898   4.422   2.165  11.313  0.8887  2.5454 -0.6336
  326MPD2    H1 4899   4.656   2.286  11.650  1.4793 -1.0682 -0.7048
  326MPD2    H2 4900   4.286   2.081  11.702 -0.3168 -1.7220 -2.3710
  326MPD2    H3 4901   4.469   2.197  11.796  3.0096 -0.3259  0.6782
  326MPD2     N 4902   4.666   2.283  11.397 -0.8686 -0.2303 -0.2322
  326MPD2    H5 4903   0.018   2.324  11.448 -1.0155  0.2165 -0.3697
  326MPD2    N1 4904   4.242   2.047  11.429 -0.3988  1.0060  0.3914
  326MPD2    H7 4905   4.236   2.056  11.328  0.2789  0.0233  0.2674
  327TMC3    C1 4906   4.065   1.914  11.403  0.2468 -0.5471  1.0678
  327TMC3    C2 4907   4.009   2.011  11.326  0.5602  0.0208  0.3774
  327TMC3    C3 4908   3.985   1.979  11.192 -0.2534 -0.0577 -0.2460
  327TMC3    C4 4909   4.086   1.786  11.352  0.7918  0.0965  0.3569
  327TMC3    C5 4910   4.059   1.753  11.223  0.3502  0.0938  0.1815
  327TMC3    C6 4911   3.993   1.848  11.142 -0.2443  0.2377 -0.2756
  327TMC3     C 4912   4.160   1.963  11.492  0.2712  0.1275  0.4924
  327TMC3     O 4913   4.158   1.927  11.611 -0.0574 -0.2705  0.0540
  327TMC3     H 4914   4.009   2.114  11.358 -1.9756 -0.4388  1.8476
  327TMC3    H1 4915   4.132   1.721  11.426  0.2605 -0.1518  0.4698
  327TMC3    H2 4916   3.974   1.808  11.044 -2.1638  1.6999 -0.4911
  327TMC3    C7 4917   4.159   1.671  11.161  0.2520 -0.1527  0.2968
  327TMC3    C8 4918   3.945   2.092  11.106 -0.3469  0.1030 -0.2108
  327TMC3    O1 4919   4.129   1.635  11.051  0.0362  0.4413 -0.6906
  327TMC3    O2 4920   3.954   2.207  11.147  0.2156 -0.3961 -0.1984
  328MPD2     C 4921   2.523   1.586  17.648 -0.6154 -0.7649 -0.1018
  328MPD2    C1 4922   2.468   1.585  17.527 -0.0719  0.3731  0.0053
  328MPD2    C2 4923   2.471   1.700  17.464 -0.2544 -0.7042  0.0472
  328MPD2    C3 4924   2.536   1.809  17.512  0.4366 -0.5012 -0.0660
  328MPD2    C4 4925   2.610   1.800  17.626  0.2129 -0.1310 -0.0838
  328MPD2    C5 4926   2.596   1.689  17.703 -0.1120  0.4820  0.3038
  328MPD2     H 4927   2.417   1.718  17.372 -2.2332  1.0340  1.5443
  328MPD2    H1 4928   2.651   1.894  17.663 -1.5655 -0.2068  2.0369
  328MPD2    H2 4929   2.530   1.493   0.000 -0.4407 -1.6517 -1.5785
  328MPD2    H3 4930   2.628   1.691   0.102  1.5633  1.3510 -0.2373
  328MPD2     N 4931   2.525   1.943  17.462  0.1008  0.0761  0.0078
  328MPD2    H5 4932   2.585   2.007  17.513 -1.6354 -1.0168  3.4110
  328MPD2    N1 4933   2.382   1.472  17.492 -0.6634  1.0135 -0.1178
  328MPD2    H7 4934   2.376   1.397  17.559 -1.2053  1.8360  0.7581
  329TMC3    C1 4935   2.209   1.347  17.380 -0.2686  0.2831  0.3459
  329TMC3    C2 4936   2.085   1.364  17.321 -0.1834 -0.0808 -0.2586
  329TMC3    C3 4937   1.987   1.263  17.340 -0.4736  0.1052  0.1454
  329TMC3    C4 4938   2.255   1.234  17.438  0.1305 -0.3049  0.5153
  329TMC3    C5 4939   2.161   1.134  17.437 -0.1428  0.4343 -0.2509
  329TMC3    C6 4940   2.026   1.150  17.401  0.1241 -0.3999  0.0651
  329TMC3     C 4941   2.300   1.461  17.385  0.0452 -0.3527 -0.4386
  329TMC3     O 4942   2.272   1.550  17.305 -0.6142 -0.8055 -0.4553
  329TMC3     H 4943   2.064   1.459  17.273 -1.2412  0.3014  0.9464
  329TMC3    H1 4944   2.355   1.216  17.476  0.0011  0.5326  1.2512
  329TMC3    H2 4945   1.962   1.063  17.400 -0.4065 -0.0036 -0.5003
  329TMC3    C7 4946   2.215   1.004  17.463 -0.5944 -0.5415  0.3593
  329TMC3    C8 4947   1.850   1.285  17.293 -0.4504 -0.7410  0.2227
  329TMC3    O1 4948   2.329   0.987  17.429  0.1314  0.1301 -0.0367
  329TMC3    O2 4949   1.776   1.197  17.261 -0.5914  0.3336  0.6819
  330TMC3    C1 4950   0.933   1.380  10.042 -0.1896 -0.1210 -1.2238
  330TMC3    C2 4951   0.933   1.315   9.923 -0.5616 -0.4445  0.0450
  330TMC3    C3 4952   1.027   1.214   9.894 -0.1082  0.2475 -0.3163
  330TMC3    C4 4953   1.051   1.357  10.114  0.1884  0.6105 -0.0597
  330TMC3    C5 4954   1.143   1.264  10.082 -0.0445 -0.0424  0.8328
  330TMC3    C6 4955   1.136   1.185   9.974 -0.0423  0.3479  0.0046
  330TMC3     C 4956   0.863   1.506  10.075 -0.2027 -1.1152  0.1266
  330TMC3     O 4957   0.878   1.551  10.184  0.5740 -0.3050  0.3937
  330TMC3     H 4958   0.853   1.336   9.853 -0.2487 -0.3563 -0.2872
  330TMC3    H1 4959   1.061   1.427  10.196  0.3599  0.0830  0.3670
  330TMC3    H2 4960   1.214   1.112   9.955 -0.2685  0.1003  0.0368
  330TMC3    C7 4961   1.254   1.229  10.171 -0.6465 -0.2189  0.8765
  330TMC3    C8 4962   0.995   1.134   9.779 -0.3471 -0.8269  0.4891
  330TMC3    O1 4963   1.330   1.139  10.136  0.1414  0.5463  0.8760
  330TMC3    O2 4964   0.938   1.187   9.687  0.0097 -0.6749  0.6848
  331MPD2     C 4965   2.804   0.567  12.934 -0.4311  0.0407  0.7844
  331MPD2    C1 4966   2.939   0.584  12.903  0.1666  0.5287  0.2964
  331MPD2    C2 4967   2.998   0.500  12.810  0.5485 -0.6743  0.1347
  331MPD2    C3 4968   2.919   0.398  12.756  0.6548  0.2808 -0.3400
  331MPD2    C4 4969   2.786   0.381  12.784 -0.1796 -0.3342  0.0847
  331MPD2    C5 4970   2.729   0.473  12.869  0.8678  0.5046 -0.0475
  331MPD2     H 4971   3.103   0.504  12.783  0.6768 -1.4694  0.5206
  331MPD2    H1 4972   2.716   0.317  12.731  0.1783 -0.7041  0.0614
  331MPD2    H2 4973   2.750   0.633  13.001 -1.7516  1.8579 -2.0597
  331MPD2    H3 4974   2.623   0.466  12.893  0.6504  0.1911 -1.0802
  331MPD2     N 4975   2.979   0.315  12.657 -0.2746  0.1449  0.1639
  331MPD2    H5 4976   3.072   0.343  12.629 -0.8482 -1.0612 -2.9359
  331MPD2    N1 4977   3.001   0.703  12.956 -0.5235 -0.2613  0.4074
  331MPD2    H7 4978   2.953   0.762  13.024  0.4974  0.2916  0.6370
  332TMC3    C1 4979   3.014   0.148  12.505 -0.3467 -0.7514 -0.1507
  332TMC3    C2 4980   3.059   0.249  12.416 -0.9537 -0.1451  0.3729
  332TMC3    C3 4981   3.180   0.241  12.355 -1.2325  0.6571  0.3172
  332TMC3    C4 4982   3.090   0.043  12.542  0.1352  0.2310  0.0479
  332TMC3    C5 4983   3.216   0.043  12.487 -0.0885  0.5013  0.2308
  332TMC3    C6 4984   3.263   0.139  12.393 -0.7672  0.1986 -0.5438
  332TMC3     C 4985   2.924   0.202  12.607  0.4987  0.1735 -0.0767
  332TMC3     O 4986   2.834   0.134  12.649  0.3204 -0.2678  0.5208
  332TMC3     H 4987   2.991   0.333  12.405 -1.5379 -0.8834 -1.6548
  332TMC3    H1 4988   3.074   4.713  12.634 -2.6209  1.5446  0.3535
  332TMC3    H2 4989   3.358   0.123  12.343 -0.0122  0.5702  0.7877
  332TMC3    C7 4990   3.317   4.687  12.548 -0.0772 -0.0497  0.6371
  332TMC3    C8 4991   3.246   0.357  12.290 -0.3576  0.0508  0.3645
  332TMC3    O1 4992   3.266   4.586  12.596  0.7312 -0.3301 -0.2053
  332TMC3    O2 4993   3.367   0.349  12.291 -0.2174 -0.5735 -0.4629
  333MPD2     C 4994   4.093   0.352  11.743 -0.2251 -0.2375 -0.2205
  333MPD2    C1 4995   4.019   0.357  11.632  0.5999 -0.2777 -0.7875
  333MPD2    C2 4996   3.879   0.366  11.651 -0.9921  0.3241  0.0063
  333MPD2    C3 4997   3.822   0.390  11.775 -0.1291 -1.0479 -0.2838
  333MPD2    C4 4998   3.910   0.392  11.886  0.4609 -0.2023 -0.0263
  333MPD2    C5 4999   4.045   0.377  11.865  0.9864  0.1454  0.5358
  333MPD2     H 5000   3.804   0.353  11.574  0.2383  0.6629 -1.2455
  333MPD2    H1 5001   3.872   0.400  11.988 -0.7525  1.8407 -0.6312
  333MPD2    H2 5002   4.201   0.352  11.735 -0.1049  0.7100  1.4092
  333MPD2    H3 5003   4.118   0.382  11.945  2.4212  1.0722 -0.8358
  333MPD2     N 5004   3.687   0.400  11.786  0.0929  0.6606  0.6097
  333MPD2    H5 5005   3.630   0.387  11.703  1.6076  0.6612 -0.4326
  333MPD2    N1 5006   4.075   0.340  11.503 -0.0534  0.7032  0.4953
  333MPD2    H7 5007   4.171   0.311  11.490 -0.4675 -0.2081 -0.5230
  334TMC3    C1 5008   4.092   0.335  11.260 -0.3671  0.1748 -0.5703
  334TMC3    C2 5009   4.231   0.298  11.273  0.0084  0.0433  0.5546
  334TMC3    C3 5010   4.304   0.313  11.159  0.3636  0.0481  0.0337
  334TMC3    C4 5011   4.041   0.377  11.142  0.7810 -0.7045  0.1266
  334TMC3    C5 5012   4.122   0.388  11.036 -0.5540 -0.3159  0.6761
  334TMC3    C6 5013   4.258   0.370  11.047  0.4006 -0.1304 -0.3120
  334TMC3     C 5014   4.005   0.352  11.385 -0.1336  0.9177  0.0479
  334TMC3     O 5015   3.898   0.407  11.376  0.6172  0.4516  0.3114
  334TMC3     H 5016   4.273   0.259  11.364  0.0792  0.3392  0.6485
  334TMC3    H1 5017   3.936   0.403  11.133  0.2715 -3.3324 -1.6006
  334TMC3    H2 5018   4.324   0.388  10.964  0.3391  0.4943 -0.2269
  334TMC3    C7 5019   4.090   0.499  10.963 -0.0116 -0.6223 -0.4008
  334TMC3    C8 5020   4.443   0.262  11.158  0.3894  0.0633  0.2656
  334TMC3    O1 5021   4.170   0.590  10.942  0.9949 -0.0993 -0.2554
  334TMC3    O2 5022   4.480   0.194  11.251 -0.7003 -0.1432  0.0532
  335TMC3    C1 5023   3.171   1.905   0.193  0.0316 -0.1128  0.3016
  335TMC3    C2 5024   3.085   1.848   0.104 -0.0019  0.4136  0.4268
  335TMC3    C3 5025   3.069   1.914  17.688 -0.3858 -0.5809  0.0220
  335TMC3    C4 5026   3.244   2.018   0.171  0.4933  0.6129  0.1013
  335TMC3    C5 5027   3.233   2.073   0.045  0.1470  0.7826  0.5481
  335TMC3    C6 5028   3.138   2.022  17.661  0.0453  0.4302 -0.1590
  335TMC3     C 5029   3.201   1.840   0.323  0.1703  0.7206  0.5433
  335TMC3     O 5030   3.307   1.876   0.374 -0.5495 -0.7641  0.1795
  335TMC3     H 5031   3.039   1.752   0.126  0.3277 -0.2176 -1.6168
  335TMC3    H1 5032   3.316   2.058   0.242  2.8900 -3.0383 -0.2587
  335TMC3    H2 5033   3.135   2.079  17.568 -0.3382  0.4946 -0.1055
  335TMC3    C7 5034   3.345   2.137  17.691 -0.2703 -0.5165  1.1990
  335TMC3    C8 5035   2.980   1.861  17.593 -0.3087 -0.5379 -0.1735
  335TMC3    O1 5036   3.381   2.095  17.581 -0.0701 -0.0197  0.2705
  335TMC3    O2 5037   2.962   1.936  17.496 -0.6169 -0.6350 -0.5427
  336MPD2     C 5038   3.120   4.280  16.131 -0.2655  0.1770  0.4897
  336MPD2    C1 5039   3.025   4.209  16.066 -0.5677  0.9548 -0.0802
  336MPD2    C2 5040   3.014   4.073  16.073 -0.4074 -0.0914 -0.0005
  336MPD2    C3 5041   3.099   3.999  16.154  0.4060 -0.5959  0.4311
  336MPD2    C4 5042   3.195   4.072  16.225 -0.3559 -0.0395 -0.6998
  336MPD2    C5 5043   3.208   4.211  16.210 -0.3584 -0.5757 -0.8723
  336MPD2     H 5044   2.932   4.031  16.016 -0.7368  0.6121 -0.0528
  336MPD2    H1 5045   3.265   4.013  16.283  1.1624  4.5347  2.1425
  336MPD2    H2 5046   3.119   4.388  16.121 -0.8056  0.2229  1.0116
  336MPD2    H3 5047   3.283   4.276  16.256 -0.6114 -1.0165  0.1418
  336MPD2     N 5048   3.093   3.861  16.173  0.4409 -0.2810 -0.3261
  336MPD2    H5 5049   3.131   3.824  16.259  0.5796 -2.1414 -1.1705
  336MPD2    N1 5050   2.922   4.280  15.992  0.2348  0.1442 -0.2601
  336MPD2    H7 5051   2.849   4.226  15.945  1.2787 -1.0949 -0.4297
  337TMC3    C1 5052   2.789   4.451  15.902  0.3999 -0.0048 -0.5880
  337TMC3    C2 5053   2.692   4.352  15.910  0.1166  0.5142  0.0236
  337TMC3    C3 5054   2.599   4.362  15.812  0.4700 -0.0177 -0.3160
  337TMC3    C4 5055   2.805   4.546  15.809  0.4160  0.1800 -0.4460
  337TMC3    C5 5056   2.712   4.543  15.714  0.2686 -0.4496  0.1616
  337TMC3    C6 5057   2.614   4.447  15.709  0.1556  0.0797 -0.6547
  337TMC3     C 5058   2.910   4.420  15.978 -0.1229 -0.1782 -0.6938
  337TMC3     O 5059   2.984   4.515  15.999  0.2572  0.2027 -0.0853
  337TMC3     H 5060   2.688   4.305  16.008 -1.6191  0.9291  0.1484
  337TMC3    H1 5061   2.888   4.615  15.810  1.3371 -0.9331  0.1259
  337TMC3    H2 5062   2.542   4.441  15.628  2.3949 -0.4906 -2.6270
  337TMC3    C7 5063   2.652   4.679  15.711 -0.2169 -0.4063  0.3671
  337TMC3    C8 5064   2.467   4.374  15.867 -0.4909  0.2874 -0.2471
  337TMC3    O1 5065   2.699   0.036  15.785  0.2527 -0.1670 -0.3819
  337TMC3    O2 5066   2.464   4.394  15.983  0.0017  0.4293  0.3263
  338MPD2     C 5067   3.344   3.687   0.935 -0.4720  0.2922  0.4704
  338MPD2    C1 5068   3.229   3.680   0.870  0.1888  0.0177  0.9567
  338MPD2    C2 5069   3.119   3.748   0.926  0.2208  0.1826 -0.0241
  338MPD2    C3 5070   3.126   3.823   1.040 -0.5766 -0.3134 -0.7444
  338MPD2    C4 5071   3.241   3.832   1.104  0.6733  0.0794 -0.3755
  338MPD2    C5 5072   3.347   3.757   1.056 -0.8577 -0.0960  0.2809
  338MPD2     H 5073   3.024   3.747   0.873  1.5205  1.2360 -2.3708
  338MPD2    H1 5074   3.257   3.868   1.205 -1.8304 -1.5255  0.5881
  338MPD2    H2 5075   3.436   3.637   0.906 -1.0538 -0.3850 -0.2248
  338MPD2    H3 5076   3.445   3.757   1.100 -2.0949 -0.2506  3.0377
  338MPD2     N 5077   3.006   3.883   1.088  0.4249 -0.4576 -0.2634
  338MPD2    H5 5078   2.922   3.861   1.035 -0.1959 -0.4278  0.7143
  338MPD2    N1 5079   3.223   3.626   0.749  0.2125  0.0202 -0.0606
  338MPD2    H7 5080   3.131   3.626   0.707 -0.1096 -1.3282  0.6585
  339TMC3    C1 5081   2.865   4.040   1.184  0.0966  0.3339  0.0831
  339TMC3    C2 5082   2.799   4.081   1.298 -0.0745  0.0495  0.8497
  339TMC3    C3 5083   2.696   4.167   1.266  0.3007 -0.8196 -0.2485
  339TMC3    C4 5084   2.818   4.058   1.055 -0.4384 -0.3416 -0.6936
  339TMC3    C5 5085   2.724   4.152   1.033 -0.3969 -0.2852  0.2635
  339TMC3    C6 5086   2.670   4.216   1.138 -0.6418 -0.8033 -0.1400
  339TMC3     C 5087   2.990   3.970   1.199 -0.1875  0.2879  0.4522
  339TMC3     O 5088   3.053   3.974   1.302  0.4166 -0.1036 -0.1493
  339TMC3     H 5089   2.836   4.072   1.399 -1.5876 -1.0834  1.3088
  339TMC3    H1 5090   2.862   4.013   0.966  0.5660 -0.0175 -0.3686
  339TMC3    H2 5091   2.586   4.283   1.124 -0.8239 -0.8141  0.8548
  339TMC3    C7 5092   2.709   4.216   0.908 -0.5824  0.5255 -0.4254
  339TMC3    C8 5093   2.618   4.219   1.382  0.4024 -0.1689  0.2723
  339TMC3    O1 5094   2.690   4.333   0.912  0.3721  0.6823  0.1468
  339TMC3    O2 5095   2.546   4.306   1.344  0.2680 -0.2248 -0.1146
  340MPD2     C 5096   3.776   1.670  10.596  0.3017 -0.1285 -0.0928
  340MPD2    C1 5097   3.870   1.587  10.542 -0.0231 -0.1114  0.7423
  340MPD2    C2 5098   3.998   1.587  10.584 -0.3859 -0.0180 -0.6768
  340MPD2    C3 5099   4.040   1.662  10.692  0.7008  0.3609  0.1299
  340MPD2    C4 5100   3.948   1.753  10.742  0.0349  0.8366  0.0054
  340MPD2    C5 5101   3.820   1.759  10.690  0.2201  0.5162  0.2112
  340MPD2     H 5102   4.063   1.511  10.543  0.7014  1.0861 -1.0324
  340MPD2    H1 5103   3.972   1.820  10.824 -2.2403 -1.0557  2.1903
  340MPD2    H2 5104   3.677   1.669  10.551  0.6411 -1.4264 -0.8429
  340MPD2    H3 5105   3.755   1.841  10.720 -0.2291  0.1634  0.2025
  340MPD2     N 5106   4.167   1.646  10.750 -0.2100 -0.9636  0.2758
  340MPD2    H5 5107   4.197   1.726  10.804 -0.2745 -1.0836  0.4935
  340MPD2    N1 5108   3.832   1.501  10.442 -0.4001  0.3760  0.4939
  340MPD2    H7 5109   3.732   1.489  10.432 -0.3090 -0.9616  1.1390
  341TMC3    C1 5110   3.834   1.355  10.256 -0.5674 -0.7024 -0.4440
  341TMC3    C2 5111   3.728   1.288  10.308 -0.4154  0.0008  0.7031
  341TMC3    C3 5112   3.688   1.179  10.240  0.1613  0.3515 -0.1879
  341TMC3    C4 5113   3.876   1.332  10.127  0.3265 -0.5181 -0.3088
  341TMC3    C5 5114   3.821   1.218  10.060  0.1162  0.3014 -0.2051
  341TMC3    C6 5115   3.734   1.139  10.120  0.6035  0.8946 -0.1886
  341TMC3     C 5116   3.911   1.442  10.347 -0.2263  0.0286  0.2612
  341TMC3     O 5117   4.033   1.460  10.330  0.5536 -0.0720  0.3794
  341TMC3     H 5118   3.694   1.296  10.411 -1.6246 -0.1696  0.3168
  341TMC3    H1 5119   3.949   1.394  10.077 -0.0044  0.5218  0.4892
  341TMC3    H2 5120   3.674   1.066  10.065  1.3132  0.1366  0.0412
  341TMC3    C7 5121   3.850   1.205   9.921 -0.0521 -0.0657  0.0838
  341TMC3    C8 5122   3.577   1.093  10.293 -0.0715 -0.1107 -0.2421
  341TMC3    O1 5123   3.905   1.296   9.863  0.1705 -0.3062 -0.1127
  341TMC3    O2 5124   3.572   0.977  10.252  0.6557 -0.4271  0.7990
  342MPD2     C 5125   1.276   0.010  17.031  0.3488  0.2489 -0.4538
  342MPD2    C1 5126   1.349   0.008  17.155  0.0042 -0.0800 -0.5330
  342MPD2    C2 5127   1.371   0.125  17.222  0.3563  0.1906  0.2188
  342MPD2    C3 5128   1.327   0.242  17.166 -0.1643  0.1165  0.4134
  342MPD2    C4 5129   1.257   0.238  17.047  0.3203  0.8301  0.1561
  342MPD2    C5 5130   1.232   0.127  16.973  0.2386  0.3877 -0.0689
  342MPD2     H 5131   1.428   0.125  17.314 -0.1636 -2.3600  0.5364
  342MPD2    H1 5132   1.213   0.331  17.011  0.3404  0.1613 -1.5961
  342MPD2    H2 5133   1.251   4.645  16.977  1.6742  0.4426 -1.3833
  342MPD2    H3 5134   1.183   0.136  16.877  1.7528 -1.3607 -0.9927
  342MPD2     N 5135   1.345   0.369  17.229  0.4779 -0.5390  0.1738
  342MPD2    H5 5136   1.290   0.443  17.188  0.8780 -1.9500 -2.9086
  342MPD2    N1 5137   1.412   4.616  17.208 -0.3074  0.4989 -0.4104
  342MPD2    H7 5138   1.461   4.632  17.296 -2.4616  2.3605  0.4449
  343TMC3    C1 5139   1.467   4.398  17.239  0.1767 -0.0970 -0.0232
  343TMC3    C2 5140   1.597   4.402  17.273 -0.7455 -0.1370 -0.0721
  343TMC3    C3 5141   1.648   4.289  17.335  0.7769 -0.0123  0.3273
  343TMC3    C4 5142   1.388   4.286  17.256  0.4506  0.1924 -0.3234
  343TMC3    C5 5143   1.443   4.182  17.330 -0.7513  0.0789 -0.0439
  343TMC3    C6 5144   1.572   4.177  17.362 -0.1495  0.2183 -0.0064
  343TMC3     C 5145   1.423   4.496  17.143 -0.6239 -0.3579 -0.2499
  343TMC3     O 5146   1.383   4.455  17.032  0.2446 -0.0419  0.2152
  343TMC3     H 5147   1.660   4.481  17.233 -3.1219  0.5621 -2.4105
  343TMC3    H1 5148   1.289   4.285  17.211 -0.6582  0.8305  2.0991
  343TMC3    H2 5149   1.620   4.087  17.397  0.1333  0.3788  0.0230
  343TMC3    C7 5150   1.358   4.070  17.353  0.3849 -0.3889  0.2710
  343TMC3    C8 5151   1.788   4.275  17.331 -0.4945  0.4552 -0.5050
  343TMC3    O1 5152   1.268   4.046  17.275 -0.5430 -0.4487  0.3464
  343TMC3    O2 5153   1.854   4.371  17.374  0.3351  0.1797  0.5682
  344MPD2     C 5154   1.961   4.593  10.921 -0.4576  0.5053  0.4739
  344MPD2    C1 5155   1.975   4.565  10.789  0.3289 -0.0108  0.2974
  344MPD2    C2 5156   2.043   4.649  10.702  0.2345  0.0838 -0.2845
  344MPD2    C3 5157   2.100   0.041  10.753  0.2166  0.5468 -0.3209
  344MPD2    C4 5158   2.105   0.063  10.892 -0.3781 -0.1672  0.0942
  344MPD2    C5 5159   2.031   4.698  10.969 -0.3516  0.8525 -0.3739
  344MPD2     H 5160   2.058   4.610  10.601  0.9211 -0.0537 -0.1267
  344MPD2    H1 5161   2.147   0.149  10.944 -0.1592 -0.2874  0.1133
  344MPD2    H2 5162   1.904   4.532  10.990  1.1626  1.0295  2.2590
  344MPD2    H3 5163   2.028   4.721  11.075  2.3221  1.1401 -0.3586
  344MPD2     N 5164   2.168   0.138  10.676  0.0986  0.5273  0.7471
  344MPD2    H5 5165   2.221   0.207  10.728  0.5338 -0.4099  1.5525
  344MPD2    N1 5166   1.925   4.444  10.737  0.2364  0.4525 -0.4852
  344MPD2    H7 5167   1.950   4.426  10.640 -0.7828 -1.8900 -0.3108
  345TMC3    C1 5168   2.255   0.242  10.483 -0.1111  0.2113  0.2126
  345TMC3    C2 5169   2.358   0.280  10.560  0.1072 -0.1726 -0.4787
  345TMC3    C3 5170   2.454   0.356  10.507 -0.6277  0.4969 -0.7590
  345TMC3    C4 5171   2.233   0.286  10.352  0.0383  0.0058  1.1315
  345TMC3    C5 5172   2.329   0.369  10.305 -0.6498 -0.3633  0.5756
  345TMC3    C6 5173   2.444   0.404  10.380  0.3633  0.2038 -0.6275
  345TMC3     C 5174   2.164   0.142  10.540  0.5493 -0.5380 -0.0076
  345TMC3     O 5175   2.090   0.082  10.461 -0.2053  0.0382 -0.0765
  345TMC3     H 5176   2.376   0.225  10.652 -0.2744 -0.6060 -0.6594
  345TMC3    H1 5177   2.140   0.273  10.297  0.4556 -0.9406  0.6462
  345TMC3    H2 5178   2.517   0.469  10.333  2.6310 -1.4716  0.5602
  345TMC3    C7 5179   2.299   0.454  10.189 -0.5235  0.3303 -0.3228
  345TMC3    C8 5180   2.545   0.407  10.597 -0.8406 -0.2771  0.0965
  345TMC3    O1 5181   2.378   0.545  10.165  0.1845  0.2264  0.0723
  345TMC3    O2 5182   2.514   0.390  10.718 -0.4499  0.4933  0.5754
  346MPD2     C 5183   2.033   1.438  14.966 -0.5459  0.2771  0.2405
  346MPD2    C1 5184   2.091   1.372  14.860 -1.1933 -0.4210 -0.4884
  346MPD2    C2 5185   2.228   1.379  14.850 -0.1811  0.3595  0.2743
  346MPD2    C3 5186   2.307   1.437  14.950 -0.1010 -0.2059  0.1874
  346MPD2    C4 5187   2.242   1.495  15.055  0.5812 -0.5918 -0.4343
  346MPD2    C5 5188   2.106   1.488  15.074  0.3379  0.9396 -0.1398
  346MPD2     H 5189   2.275   1.335  14.762 -2.0283  0.1026 -0.5950
  346MPD2    H1 5190   2.296   1.545  15.135 -0.1291 -0.9548  0.2763
  346MPD2    H2 5191   1.926   1.449  14.985 -0.5796  1.3238 -0.6057
  346MPD2    H3 5192   2.060   1.535  15.160  0.7217  2.6167 -0.8492
  346MPD2     N 5193   2.442   1.451  14.917  0.0156  0.2193 -0.8320
  346MPD2    H5 5194   2.465   1.414  14.825 -2.4371  0.3007 -1.4613
  346MPD2    N1 5195   2.024   1.328  14.752  0.3174 -0.8177 -0.2515
  346MPD2    H7 5196   2.071   1.287  14.672 -2.2080 -0.8245 -1.7231
  347TMC3    C1 5197   2.677   1.515  14.941 -0.4557  0.2436  0.4823
  347TMC3    C2 5198   2.701   1.453  14.825 -0.2950 -0.0798 -0.1628
  347TMC3    C3 5199   2.823   1.467  14.765 -0.5319 -0.0191 -0.0906
  347TMC3    C4 5200   2.764   1.588  15.005 -0.0910 -0.6263  0.1950
  347TMC3    C5 5201   2.886   1.609  14.943  0.4781 -0.1086  0.4691
  347TMC3    C6 5202   2.921   1.549  14.822  0.2575  0.0039 -0.3935
  347TMC3     C 5203   2.543   1.492  15.005 -0.1601  0.2039  0.3561
  347TMC3     O 5204   2.530   1.530  15.119 -0.0193 -0.8015  0.1364
  347TMC3     H 5205   2.627   1.401  14.764  2.3953 -0.7509 -2.8802
  347TMC3    H1 5206   2.748   1.621  15.107  3.7748  0.5835  0.4119
  347TMC3    H2 5207   3.020   1.538  14.779 -0.2893 -1.4936 -1.3030
  347TMC3    C7 5208   2.986   1.698  15.006  0.3783 -0.5679  0.4939
  347TMC3    C8 5209   2.867   1.350  14.690 -0.7012 -0.2259  0.0054
  347TMC3    O1 5210   2.959   1.749  15.110 -0.2889 -0.0232  0.0754
  347TMC3    O2 5211   2.785   1.259  14.698 -0.7086 -0.2577  0.2475
  348MPD2     C 5212   0.831   1.386  12.297 -0.1067  0.5348  0.0108
  348MPD2    C1 5213   0.923   1.470  12.253  0.6050 -0.1265 -0.5208
  348MPD2    C2 5214   0.893   1.539  12.133 -0.1490  0.9252 -0.6901
  348MPD2    C3 5215   0.778   1.508  12.063  0.2258 -0.2759 -0.2583
  348MPD2    C4 5216   0.688   1.421  12.111  0.1040 -0.4436 -0.2716
  348MPD2    C5 5217   0.719   1.353  12.224 -0.2243  0.2398 -0.4249
  348MPD2     H 5218   0.963   1.605  12.083 -0.2319  1.4677 -0.0886
  348MPD2    H1 5219   0.597   1.386  12.064  0.6006 -2.5641  0.3505
  348MPD2    H2 5220   0.832   1.334  12.392  2.1222 -0.3004 -0.4707
  348MPD2    H3 5221   0.645   1.283  12.262  0.5378  0.3387  1.2541
  348MPD2     N 5222   0.753   1.564  11.933  0.5303  0.3515 -0.2350
  348MPD2    H5 5223   0.686   1.522  11.870  1.2849 -0.8494 -0.2362
  348MPD2    N1 5224   1.047   1.482  12.320 -0.9122 -0.0268  0.5677
  348MPD2    H7 5225   1.112   1.546  12.276 -1.9495  0.1624 -0.7043
  349TMC3    C1 5226   1.235   1.392  12.415 -0.1227 -0.0832  0.3558
  349TMC3    C2 5227   1.274   1.292  12.496 -0.5170  0.1409  0.8854
  349TMC3    C3 5228   1.347   1.189  12.446 -0.3044 -0.1648 -0.3843
  349TMC3    C4 5229   1.288   1.410  12.292 -0.3433 -0.2010  0.0082
  349TMC3    C5 5230   1.355   1.296  12.242 -0.1176 -0.7954  0.1865
  349TMC3    C6 5231   1.383   1.184  12.320  0.3288  0.2623  0.5043
  349TMC3     C 5232   1.095   1.397  12.415  0.1858 -0.0466 -0.9216
  349TMC3     O 5233   1.043   1.324  12.498  0.2724  0.2636  0.3919
  349TMC3     H 5234   1.231   1.280  12.595 -1.7106  2.3248  0.6486
  349TMC3    H1 5235   1.263   1.492  12.226 -0.0181  0.8139  1.1484
  349TMC3    H2 5236   1.433   1.094  12.285 -1.0440  0.1025 -1.0399
  349TMC3    C7 5237   1.317   1.261  12.105  0.1620  0.0464  0.3974
  349TMC3    C8 5238   1.307   1.049  12.488  0.0942  0.4578  0.2947
  349TMC3    O1 5239   1.270   1.150  12.087 -0.0884 -0.5551  0.0289
  349TMC3    O2 5240   1.399   0.968  12.486  0.1976  0.4568 -0.2743
  350MPD2     C 5241   4.685   3.775  10.255 -0.2861  0.3161  0.2406
  350MPD2    C1 5242   0.035   3.673  10.309  0.9905  0.6188 -0.5309
  350MPD2    C2 5243   0.173   3.682  10.304 -0.9336 -0.0262  0.3967
  350MPD2    C3 5244   0.234   3.794  10.256 -0.1474 -0.6535  0.2887
  350MPD2    C4 5245   0.161   3.904  10.209  0.1907  0.3661  0.5666
  350MPD2    C5 5246   0.021   3.885  10.198  0.3406 -0.3304  0.2083
  350MPD2     H 5247   0.224   3.595  10.343 -1.3367  0.7920  2.7601
  350MPD2    H1 5248   0.194   4.004  10.181  2.3305 -0.5380 -0.1681
  350MPD2    H2 5249   4.577   3.769  10.262 -0.4622  0.4297 -2.4313
  350MPD2    H3 5250   4.685   3.968  10.165  2.8939  1.2752 -0.5692
  350MPD2     N 5251   0.372   3.814  10.274 -0.0918  0.3091 -0.6052
  350MPD2    H5 5252   0.415   3.730  10.313  1.1978  0.8797 -0.8258
  350MPD2    N1 5253   4.711   3.559  10.372 -0.3486 -0.8559  0.5085
  350MPD2    H7 5254   0.059   3.495  10.399 -1.0083 -2.6770 -1.9688
  351TMC3    C1 5255   4.558   3.396  10.449 -0.1656  0.5126 -0.6565
  351TMC3    C2 5256   4.661   3.306  10.435 -0.0789  0.0488  0.4321
  351TMC3    C3 5257   4.630   3.171  10.440  0.0748 -0.2082 -0.0974
  351TMC3    C4 5258   4.427   3.360  10.482 -0.9807  0.0535  0.4428
  351TMC3    C5 5259   4.402   3.219  10.482 -0.4486  0.1416 -0.1298
  351TMC3    C6 5260   4.503   3.127  10.452 -0.0236  1.0949 -0.3133
  351TMC3     C 5261   4.579   3.529  10.393  0.1389 -0.3910  0.1220
  351TMC3     O 5262   4.487   3.605  10.386  0.0563 -0.2209 -0.0896
  351TMC3     H 5263   0.040   3.333  10.430  0.2655 -1.0722  1.4326
  351TMC3    H1 5264   4.346   3.432  10.492  1.0822  2.3348  0.8261
  351TMC3    H2 5265   4.483   3.023  10.427  0.7650  1.4548 -2.4823
  351TMC3    C7 5266   4.262   3.187  10.479  0.4750 -0.2110 -0.0764
  351TMC3    C8 5267   0.017   3.077  10.411 -0.2488  0.5512 -0.3756
  351TMC3    O1 5268   4.182   3.280  10.481 -0.2699  0.6213 -0.4034
  351TMC3    O2 5269   0.121   3.119  10.360  1.4084 -0.4539 -0.8741
  352MPD2     C 5270   3.440   0.691   1.474  0.5112  0.5695  1.1018
  352MPD2    C1 5271   3.335   0.628   1.532 -0.4381 -0.2587  0.0584
  352MPD2    C2 5272   3.355   0.518   1.619  0.3477 -0.1685 -0.6414
  352MPD2    C3 5273   3.484   0.474   1.646 -0.3491  0.1757 -0.0733
  352MPD2    C4 5274   3.588   0.536   1.588  0.1646  0.2995  0.5286
  352MPD2    C5 5275   3.562   0.641   1.504  0.3318 -0.6070 -0.3542
  352MPD2     H 5276   3.269   0.467   1.662 -0.0571  0.1147 -1.1257
  352MPD2    H1 5277   3.692   0.508   1.601 -0.2676 -0.9250  1.3099
  352MPD2    H2 5278   3.428   0.781   1.415  0.9642  0.2096  0.4604
  352MPD2    H3 5279   3.654   0.690   1.473 -0.1199 -0.3486 -1.2636
  352MPD2     N 5280   3.512   0.351   1.723 -0.2009 -0.8117 -0.2784
  352MPD2    H5 5281   3.607   0.315   1.719  0.4811  1.2482 -2.4155
  352MPD2    N1 5282   3.209   0.677   1.498  0.9831 -0.4950 -0.0739
  352MPD2    H7 5283   3.215   0.745   1.423 -0.4574  0.4718  0.6940
  353TMC3    C1 5284   3.464   0.155   1.846  0.6065 -0.0501  0.1488
  353TMC3    C2 5285   3.603   0.121   1.848 -0.5340  0.0565 -0.3146
  353TMC3    C3 5286   3.636   4.723   1.820 -0.0743 -0.7721 -0.3073
  353TMC3    C4 5287   3.371   0.054   1.822  0.3265  0.4794  0.2248
  353TMC3    C5 5288   3.413   4.654   1.804  0.4787 -0.3258 -0.3375
  353TMC3    C6 5289   3.546   4.621   1.800 -0.6012 -0.5620 -0.3838
  353TMC3     C 5290   3.422   0.289   1.806  0.0919  0.5132  0.3858
  353TMC3     O 5291   3.307   0.319   1.832 -0.4403  0.2549  0.3811
  353TMC3     H 5292   3.685   0.189   1.869 -0.7982  1.2728 -3.2378
  353TMC3    H1 5293   3.273   0.095   1.797  0.7418  0.4409 -1.4787
  353TMC3    H2 5294   3.572   4.518   1.776  1.3014 -0.4838  1.3574
  353TMC3    C7 5295   3.336   4.586   1.699  0.1098 -0.0418  0.1399
  353TMC3    C8 5296   3.773   4.688   1.839  0.1931  0.0482  0.5207
  353TMC3    O1 5297   3.403   4.532   1.610 -0.3685 -0.0116  0.0637
  353TMC3    O2 5298   3.847   0.029   1.911 -0.0288 -0.5771  0.3867
  354TMC3    C1 5299   4.381   2.039  13.728 -0.0769  0.1023 -0.7110
  354TMC3    C2 5300   4.291   2.135  13.690  0.1962 -1.1048  0.0604
  354TMC3    C3 5301   4.315   2.207  13.577  0.0813  0.5604 -0.6802
  354TMC3    C4 5302   4.496   2.013  13.652  0.1937 -0.0154  0.6150
  354TMC3    C5 5303   4.527   2.097  13.549 -0.3031 -0.5695  0.6153
  354TMC3    C6 5304   4.433   2.197  13.512  0.0986 -0.0976  0.4440
  354TMC3     C 5305   4.363   1.958  13.843 -0.5571  0.6523 -0.4849
  354TMC3     O 5306   4.245   1.946  13.881  0.2106 -0.0491  0.3585
  354TMC3     H 5307   4.215   2.162  13.762 -0.9509  1.2671 -2.0029
  354TMC3    H1 5308   4.576   1.946  13.681  0.9105  1.1044  1.2619
  354TMC3    H2 5309   4.457   2.267  13.433 -0.2060 -2.0175 -1.3810
  354TMC3    C7 5310   4.628   2.053  13.458 -0.5488  0.2488  0.2518
  354TMC3    C8 5311   4.224   2.320  13.558  0.5427  0.1307  0.1299
  354TMC3    O1 5312   4.656   1.934  13.454  0.4357  0.4111  0.3841
  354TMC3    O2 5313   4.153   2.344  13.656 -0.4639  0.3457 -0.9104
  355MPD2     C 5314   4.281   3.183  12.041 -0.3874  0.1102  0.8447
  355MPD2    C1 5315   4.398   3.205  11.976 -0.4301  0.4812  0.3455
  355MPD2    C2 5316   4.516   3.235  12.045  0.7073 -1.0616 -0.7227
  355MPD2    C3 5317   4.511   3.263  12.180 -0.3340  0.0746 -0.1080
  355MPD2    C4 5318   4.393   3.234  12.242  0.5153 -0.3910  0.2265
  355MPD2    C5 5319   4.279   3.188  12.180  0.2671 -0.1817 -0.1285
  355MPD2     H 5320   4.608   3.262  11.994  1.9989  0.3760  2.3677
  355MPD2    H1 5321   4.383   3.267  12.345 -2.0725 -2.9474  0.8040
  355MPD2    H2 5322   4.192   3.151  11.988 -1.4312  0.7730  2.2033
  355MPD2    H3 5323   4.182   3.180  12.228 -0.5361  1.2275 -1.4937
  355MPD2     N 5324   4.621   3.322  12.242 -0.3537  0.0077 -0.0497
  355MPD2    H5 5325   4.708   3.327  12.189  0.0875 -0.4409  0.6355
  355MPD2    N1 5326   4.395   3.198  11.835  0.0778  0.0348  0.4612
  355MPD2    H7 5327   4.304   3.208  11.791  0.3589 -0.1476 -0.1571
  356TMC3    C1 5328   0.002   3.492  12.382  0.5807 -0.1046 -0.3516
  356TMC3    C2 5329   0.029   3.570  12.268  0.0730  0.1452  0.2786
  356TMC3    C3 5330   0.107   3.681  12.294  0.1557 -0.5569 -0.3880
  356TMC3    C4 5331   0.050   3.524  12.505 -0.0065 -0.2634  0.7740
  356TMC3    C5 5332   0.122   3.639  12.522 -0.6001  0.2554  0.6908
  356TMC3    C6 5333   0.151   3.717  12.415  0.2136  0.2436  0.1166
  356TMC3     C 5334   4.625   3.384  12.367  0.0518  0.5956  0.4884
  356TMC3     O 5335   4.540   3.371  12.453 -0.2889  0.0068  0.2166
  356TMC3     H 5336   4.722   3.541  12.169 -0.7377 -1.4698  1.0157
  356TMC3    H1 5337   0.026   3.469  12.595  0.9433 -1.2510  0.4277
  356TMC3    H2 5338   0.217   3.800  12.435 -2.1006  2.0024  0.4010
  356TMC3    C7 5339   0.205   3.651  12.642 -0.1326  0.0478 -0.0289
  356TMC3    C8 5340   0.161   3.734  12.166  0.2898 -1.2133 -0.9061
  356TMC3    O1 5341   0.265   3.549  12.678  0.2751  0.0757 -0.0024
  356TMC3    O2 5342   0.110   3.693  12.060 -0.1378  0.5227  0.5281
  357MPD2     C 5343   0.198   2.307   0.801 -0.3712  0.3505  0.0380
  357MPD2    C1 5344   0.232   2.193   0.873 -0.1677  0.2895 -0.0452
  357MPD2    C2 5345   0.217   2.194   1.016 -0.7070  0.3300 -0.0807
  357MPD2    C3 5346   0.187   2.308   1.083  0.0706  0.2804  0.6926
  357MPD2    C4 5347   0.150   2.422   1.004  0.3268  0.5001 -0.0432
  357MPD2    C5 5348   0.155   2.417   0.865  0.3991 -0.6537  0.1893
  357MPD2     H 5349   0.242   2.106   1.074 -1.5339  1.1516  1.5106
  357MPD2    H1 5350   0.133   2.513   1.060 -0.0635 -2.1360  4.0913
  357MPD2    H2 5351   0.213   2.316   0.694  0.7980  0.3513  0.1949
  357MPD2    H3 5352   0.142   2.511   0.814 -2.5180 -0.7201  0.8477
  357MPD2     N 5353   0.199   2.324   1.220  0.1999  0.4773  0.0908
  357MPD2    H5 5354   0.162   2.406   1.267  0.4394  0.5721  0.1128
  357MPD2    N1 5355   0.280   2.084   0.796 -0.1219  0.5446 -0.3667
  357MPD2    H7 5356   0.303   2.098   0.698 -0.4484 -0.0693 -0.5322
  358TMC3    C1 5357   0.446   1.909   0.793  0.2024 -0.0621  0.1702
  358TMC3    C2 5358   0.466   1.916   0.656  0.8008 -0.0550  0.1905
  358TMC3    C3 5359   0.591   1.921   0.607  0.5145  0.0253  0.6175
  358TMC3    C4 5360   0.550   1.906   0.880 -0.7764 -0.2156 -0.0856
  358TMC3    C5 5361   0.680   1.918   0.828  0.3379 -0.7635  0.1484
  358TMC3    C6 5362   0.699   1.934   0.694  0.3062 -0.9805  0.3669
  358TMC3     C 5363   0.324   1.962   0.855  0.6128 -0.2634  0.2136
  358TMC3     O 5364   0.297   1.912   0.963  0.1456 -0.1133 -0.2452
  358TMC3     H 5365   0.380   1.909   0.589  1.3770  0.7977 -0.6270
  358TMC3    H1 5366   0.530   1.903   0.987 -0.9805  0.8263 -0.0917
  358TMC3    H2 5367   0.801   1.911   0.667  0.1959  0.3644 -1.2029
  358TMC3    C7 5368   0.793   1.911   0.924  0.2949  0.0715  0.1569
  358TMC3    C8 5369   0.620   1.931   0.466 -0.5599  0.1409 -0.3547
  358TMC3    O1 5370   0.900   1.866   0.884  0.4615 -0.0349  0.2479
  358TMC3    O2 5371   0.717   2.002   0.443  0.1036 -0.2139  0.2993
  359MPD2     C 5372   4.716   2.204  12.254 -0.1318 -0.3366 -0.9773
  359MPD2    C1 5373   0.015   2.081  12.305  0.7448  0.2762  0.6450
  359MPD2    C2 5374   4.651   2.002  12.360 -0.1141 -0.2487 -1.0658
  359MPD2    C3 5375   4.512   2.038  12.363  0.4051  0.0557 -0.5709
  359MPD2    C4 5376   4.477   2.149  12.288 -0.0045 -0.0489  0.3595
  359MPD2    C5 5377   4.585   2.230  12.241  0.2370  0.2391  0.0245
  359MPD2     H 5378   4.677   1.906  12.404  1.1014  0.8144  0.5249
  359MPD2    H1 5379   4.374   2.171  12.263 -0.6452 -3.9161 -0.4584
  359MPD2    H2 5380   0.055   2.277  12.207  1.0431 -0.9434 -0.3116
  359MPD2    H3 5381   4.550   2.308  12.174 -0.2479  1.2444  1.4596
  359MPD2     N 5382   4.406   1.968  12.422 -0.3650  0.2909 -0.2064
  359MPD2    H5 5383   4.314   1.988  12.385  0.2477 -0.8047 -2.3355
  359MPD2    N1 5384   0.148   2.041  12.316  0.1370  0.4427 -0.5947
  359MPD2    H7 5385   0.163   1.947  12.349  0.0621  0.5873 -0.1481
  360TMC3    C1 5386   0.382   2.035  12.299  0.0815  0.5148  0.2740
  360TMC3    C2 5387   0.500   2.096  12.349  0.1701 -0.5962  0.8716
  360TMC3    C3 5388   0.617   2.044  12.299  0.4022 -0.2048 -0.4579
  360TMC3    C4 5389   0.385   1.913  12.233  0.2013  0.9941  0.1511
  360TMC3    C5 5390   0.505   1.861  12.199 -0.3786  0.7985  0.7754
  360TMC3    C6 5391   0.624   1.917  12.240  0.3742 -0.7156 -1.1735
  360TMC3     C 5392   0.262   2.110  12.285 -0.0950 -0.7414  0.1460
  360TMC3     O 5393   0.284   2.231  12.245 -0.0165 -0.8687 -0.2955
  360TMC3     H 5394   0.488   2.198  12.384 -1.2523 -0.2747 -0.5529
  360TMC3    H1 5395   0.304   1.875  12.171  0.1543 -0.8020  1.2891
  360TMC3    H2 5396   0.715   1.883  12.191  0.7123 -0.4439 -0.7350
  360TMC3    C7 5397   0.511   1.802  12.070  0.6003  0.2982  0.0041
  360TMC3    C8 5398   0.695   2.149  12.237 -0.9832 -0.3109  0.8441
  360TMC3    O1 5399   0.562   1.871  11.978  0.1506  0.2750  0.0002
  360TMC3    O2 5400   0.653   2.263  12.253  0.4343 -0.0471 -0.0545
  361MPD2     C 5401   2.150   0.523  16.620  0.0005 -0.5702 -0.2288
  361MPD2    C1 5402   2.214   0.581  16.728  0.2356  0.0200 -0.1264
  361MPD2    C2 5403   2.323   0.516  16.782 -0.5929  0.3489 -0.0438
  361MPD2    C3 5404   2.365   0.395  16.734 -0.2523  0.4671 -0.2392
  361MPD2    C4 5405   2.307   0.345  16.617  0.3638 -0.5668  0.8944
  361MPD2    C5 5406   2.192   0.400  16.578  0.1356 -0.1986 -0.2300
  361MPD2     H 5407   2.377   0.569  16.860 -1.7517  0.9120  0.3780
  361MPD2    H1 5408   2.338   0.255  16.565  2.3131 -0.6576  2.2058
  361MPD2    H2 5409   2.057   0.565  16.584  0.8067  1.0972 -0.3204
  361MPD2    H3 5410   2.142   0.361  16.490 -1.3633  0.7755  0.1813
  361MPD2     N 5411   2.447   0.304  16.803 -0.1771  0.4061  0.5659
  361MPD2    H5 5412   2.480   0.220  16.757  0.6170  1.4114 -0.7029
  361MPD2    N1 5413   2.161   0.703  16.785 -0.8404  0.1862  0.5597
  361MPD2    H7 5414   2.224   0.759  16.843  0.0778 -0.5498  0.2802
  362TMC3    C1 5415   2.007   0.836  16.901 -0.1286  0.0629 -1.0600
  362TMC3    C2 5416   1.877   0.832  16.953 -0.0262  0.9297 -0.6392
  362TMC3    C3 5417   1.815   0.947  16.988  0.4052  0.6900 -0.4000
  362TMC3    C4 5418   2.071   0.956  16.881  0.4833  0.3072  0.1087
  362TMC3    C5 5419   2.003   1.069  16.919  0.7311  0.3132  0.2157
  362TMC3    C6 5420   1.877   1.068  16.976 -0.0115  0.2664  0.2962
  362TMC3     C 5421   2.031   0.733  16.803 -0.0952 -0.1247 -0.1149
  362TMC3     O 5422   1.929   0.676  16.758 -0.9556  0.5074 -0.1607
  362TMC3     H 5423   1.824   0.737  16.948  0.8123  0.4905 -1.1771
  362TMC3    H1 5424   2.159   0.960  16.817 -0.7670  0.8935 -1.5950
  362TMC3    H2 5425   1.826   1.162  16.991 -1.1708 -0.0952 -1.3803
  362TMC3    C7 5426   2.045   1.199  16.865  0.8379  0.1127  0.4738
  362TMC3    C8 5427   1.669   0.943  16.994  0.0202 -0.2120 -0.2341
  362TMC3    O1 5428   1.971   1.289  16.901  0.0892  0.1142  0.0531
  362TMC3    O2 5429   1.625   0.838  16.953 -1.1022  0.0439  0.4681
  363TMC3    C1 5430   0.878   3.236   9.661 -0.5099  0.3629 -0.0288
  363TMC3    C2 5431   0.917   3.145   9.758 -0.1668 -0.0675 -0.0776
  363TMC3    C3 5432   0.843   3.145   9.879  0.1220  0.1905  0.3155
  363TMC3    C4 5433   0.765   3.315   9.671 -0.5884  0.2349  0.3023
  363TMC3    C5 5434   0.704   3.320   9.787  0.1698  0.3182  0.1263
  363TMC3    C6 5435   0.739   3.233   9.891 -0.0984  1.2123  0.0059
  363TMC3     C 5436   0.951   3.233   9.536 -0.4592 -0.0048 -0.1901
  363TMC3     O 5437   1.026   3.137   9.523 -0.7801 -0.2021  0.0546
  363TMC3     H 5438   1.000   3.076   9.747  2.3837  3.0159 -0.2497
  363TMC3    H1 5439   0.714   3.347   9.580  0.0354  2.5840  0.7653
  363TMC3    H2 5440   0.676   3.222   9.978  1.5761 -0.7148  0.9877
  363TMC3    C7 5441   0.566   3.357   9.789 -1.0190  0.4333 -0.5122
  363TMC3    C8 5442   0.873   3.053   9.997  0.0892  0.2021  0.1127
  363TMC3    O1 5443   0.483   3.295   9.855  0.3402 -0.5441 -0.3169
  363TMC3    O2 5444   0.822   3.075  10.105 -0.4995 -0.6985  0.4724
  364MPD2     C 5445   3.771   2.279  10.669 -0.1793  0.0684  0.8334
  364MPD2    C1 5446   3.876   2.319  10.746  0.1300  0.6888 -0.6487
  364MPD2    C2 5447   3.906   2.252  10.868  0.0538 -0.4248  0.1555
  364MPD2    C3 5448   3.837   2.133  10.896  0.2389 -0.3424 -0.3618
  364MPD2    C4 5449   3.738   2.090  10.813  0.3835  0.0434 -0.0945
  364MPD2    C5 5450   3.703   2.160  10.703 -0.0875  0.1798 -0.2822
  364MPD2     H 5451   3.984   2.286  10.935 -2.3957  1.8153  1.9017
  364MPD2    H1 5452   3.692   1.993  10.831 -1.2849  0.7372 -0.6044
  364MPD2    H2 5453   3.738   2.337  10.584 -2.4265  1.3154  2.5465
  364MPD2    H3 5454   3.627   2.120  10.638 -0.6488  1.3408 -0.3411
  364MPD2     N 5455   3.877   2.044  11.005 -0.0376  0.4932 -0.0510
  364MPD2    H5 5456   3.832   1.957  11.032 -1.9919  2.5501  3.3772
  364MPD2    N1 5457   3.957   2.423  10.698 -0.8059  0.4940 -0.2187
  364MPD2    H7 5458   3.925   2.468  10.614 -0.6772 -1.5273 -1.3496
  365TMC3    C1 5459   4.144   2.561  10.652 -0.1711 -0.1438  0.3234
  365TMC3    C2 5460   4.150   2.516  10.522 -0.0667 -0.4297  0.0581
  365TMC3    C3 5461   4.260   2.564  10.453 -0.7092 -0.1140 -0.2472
  365TMC3    C4 5462   4.240   2.644  10.707  0.5084 -0.2383 -0.3055
  365TMC3    C5 5463   4.336   2.695  10.629 -0.2135  0.7863  0.1344
  365TMC3    C6 5464   4.343   2.656  10.501  0.5314  0.3724 -0.4877
  365TMC3     C 5465   4.072   2.476  10.745 -0.3060 -0.2150  0.8714
  365TMC3     O 5466   4.120   2.453  10.853 -0.3356 -0.0235  0.7733
  365TMC3     H 5467   4.085   2.433  10.493 -0.2193 -0.9334  1.8115
  365TMC3    H1 5468   4.249   2.649  10.815 -0.0050 -2.7339 -0.1451
  365TMC3    H2 5469   4.413   2.708  10.437  1.2720  0.5974  0.4876
  365TMC3    C7 5470   4.409   2.814  10.671 -0.3930 -0.4053  0.4394
  365TMC3    C8 5471   4.266   2.556  10.307 -0.1018 -0.2659 -0.3003
  365TMC3    O1 5472   4.499   2.850  10.599  0.0697 -0.2274 -0.5304
  365TMC3    O2 5473   4.168   2.589  10.241 -0.4064  0.0299  0.1630
  366MPD2     C 5474   2.391   3.228  15.340 -0.4431 -1.0489 -1.0816
  366MPD2    C1 5475   2.502   3.306  15.329 -0.2585  0.4467 -0.2643
  366MPD2    C2 5476   2.624   3.242  15.296 -0.2736 -0.8229 -0.2411
  366MPD2    C3 5477   2.635   3.107  15.288 -0.2426  0.0308 -0.7187
  366MPD2    C4 5478   2.522   3.029  15.309 -0.2421 -0.1559  0.6073
  366MPD2    C5 5479   2.399   3.092  15.327  0.2879  0.0351  0.5339
  366MPD2     H 5480   2.708   3.309  15.285 -1.0398  0.0298 -0.9575
  366MPD2    H1 5481   2.516   2.925  15.276 -0.5463  0.2545 -0.6272
  366MPD2    H2 5482   2.295   3.265  15.374  0.7708  0.8379  0.3082
  366MPD2    H3 5483   2.309   3.033  15.321  0.5434 -0.2131 -1.0298
  366MPD2     N 5484   2.755   3.054  15.250  0.2936 -0.8020 -0.0443
  366MPD2    H5 5485   2.822   3.118  15.210 -1.1189  0.8545  0.2498
  366MPD2    N1 5486   2.494   3.448  15.347  0.5259 -0.1623  0.1959
  366MPD2    H7 5487   2.575   3.503  15.320 -0.2139  0.6844 -0.3255
  367TMC3    C1 5488   2.402   3.662  15.414  0.1276 -0.0647  0.1318
  367TMC3    C2 5489   2.508   3.696  15.496 -0.3084 -0.4807 -0.0401
  367TMC3    C3 5490   2.527   3.827  15.530 -0.4156 -0.3425  0.2145
  367TMC3    C4 5491   2.300   3.750  15.375 -0.0796  0.5575 -0.7619
  367TMC3    C5 5492   2.333   3.881  15.410 -0.1126  0.9063 -0.6017
  367TMC3    C6 5493   2.443   3.923  15.481 -0.4915  0.5780  0.1258
  367TMC3     C 5494   2.379   3.517  15.392 -0.2918 -0.1218  0.3882
  367TMC3     O 5495   2.265   3.485  15.424  0.7261  0.3740 -0.0567
  367TMC3     H 5496   2.586   3.621  15.504  1.4484  1.2973 -0.4961
  367TMC3    H1 5497   2.211   3.717  15.323 -1.4004  0.1839  1.7342
  367TMC3    H2 5498   2.454   4.025  15.515  1.6281  0.4699 -0.2359
  367TMC3    C7 5499   2.286   3.991  15.338 -0.0189 -0.2431  0.1157
  367TMC3    C8 5500   2.642   3.864  15.613  0.5993 -0.1725 -0.0747
  367TMC3    O1 5501   2.268   4.100  15.397  0.1551 -0.1025  0.1702
  367TMC3    O2 5502   2.682   3.780  15.688 -0.1185 -0.1554 -0.2642
  368MPD2     C 5503   3.496   0.966  13.380  0.8011  0.4176  0.4135
  368MPD2    C1 5504   3.482   1.101  13.409  0.3623  0.4119 -0.1450
  368MPD2    C2 5505   3.593   1.167  13.452  0.2779 -0.5783  0.3077
  368MPD2    C3 5506   3.717   1.104  13.459 -0.2917  0.2957  0.3199
  368MPD2    C4 5507   3.733   0.975  13.411  0.2876 -0.3569 -0.9927
  368MPD2    C5 5508   3.619   0.907  13.378 -0.1403  0.3740  0.5863
  368MPD2     H 5509   3.589   1.271  13.483 -0.5698 -0.4646 -0.1902
  368MPD2    H1 5510   3.834   0.934  13.406  0.4653 -0.1845  0.8901
  368MPD2    H2 5511   3.412   0.908  13.344  1.7433  0.1527 -1.3440
  368MPD2    H3 5512   3.645   0.807  13.346 -1.4953 -0.1211  1.0387
  368MPD2     N 5513   3.829   1.180  13.497  0.1847 -0.2353  0.8971
  368MPD2    H5 5514   3.917   1.156  13.452  0.0804 -0.5100  0.8438
  368MPD2    N1 5515   3.352   1.160  13.399 -0.5108  0.2777  0.6425
  368MPD2    H7 5516   3.283   1.111  13.343 -0.2177 -1.1540  1.5258
  369TMC3    C1 5517   3.180   1.330  13.383  0.1034  0.1188  0.1509
  369TMC3    C2 5518   3.185   1.436  13.297  0.2462  0.7834  0.7224
  369TMC3    C3 5519   3.070   1.511  13.278  0.5163 -0.6112  0.2352
  369TMC3    C4 5520   3.068   1.307  13.463  0.2022 -0.3136 -0.5425
  369TMC3    C5 5521   2.952   1.378  13.434 -0.0789 -0.2348  0.3855
  369TMC3    C6 5522   2.950   1.476  13.336  0.3202  0.1905 -0.1117
  369TMC3     C 5523   3.314   1.287  13.433 -0.1324  0.0681  0.8734
  369TMC3     O 5524   3.384   1.386  13.467  0.1451  0.0656  0.2925
  369TMC3     H 5525   3.281   1.453  13.251 -0.5880 -0.3166 -1.4582
  369TMC3    H1 5526   3.076   1.232  13.541  1.0318 -0.3261 -0.6374
  369TMC3    H2 5527   2.869   1.547  13.342 -0.4474 -0.5045 -2.3073
  369TMC3    C7 5528   2.830   1.318  13.483 -0.1624 -0.1084 -0.7927
  369TMC3    C8 5529   3.075   1.603  13.171 -0.5750 -0.3597 -0.6911
  369TMC3    O1 5530   2.845   1.253  13.587 -0.7364 -0.0784 -0.3584
  369TMC3    O2 5531   2.966   1.642  13.128  0.1040  0.0357  0.1573
  370TMC3    C1 5532   3.152   1.388  16.523  0.4523  0.4015  0.5168
  370TMC3    C2 5533   3.090   1.301  16.617 -0.3041  0.1171 -0.2516
  370TMC3    C3 5534   3.021   1.194  16.568  0.6539  0.2105 -0.0388
  370TMC3    C4 5535   3.144   1.374  16.387 -0.6701 -0.7977  0.1728
  370TMC3    C5 5536   3.067   1.267  16.345  1.1634 -0.2139  0.1881
  370TMC3    C6 5537   3.009   1.172  16.431  0.1801  0.0919  0.3402
  370TMC3     C 5538   3.279   1.451  16.576  0.2315 -0.4643  0.2759
  370TMC3     O 5539   3.319   1.397  16.681 -0.5196 -0.3020 -0.4205
  370TMC3     H 5540   3.114   1.318  16.721  0.1598  0.1691 -0.3649
  370TMC3    H1 5541   3.203   1.428  16.314  0.8292 -0.6658  1.4885
  370TMC3    H2 5542   2.950   1.090  16.391  0.6046  1.2443 -2.6686
  370TMC3    C7 5543   3.054   1.224  16.204  0.1974  0.1602 -0.5457
  370TMC3    C8 5544   2.964   1.094  16.652  0.6773  0.1331  0.1474
  370TMC3    O1 5545   3.044   1.316  16.127  0.0093 -0.1871  0.0609
  370TMC3    O2 5546   2.923   0.987  16.609  0.2709  0.1036  0.4105
  371TMC3    C1 5547   4.198   4.307  15.990 -0.2451  0.0066  0.0988
  371TMC3    C2 5548   4.070   4.273  15.946 -0.4098  0.1756 -0.9702
  371TMC3    C3 5549   3.990   4.370  15.900  0.4962 -0.6757  0.1571
  371TMC3    C4 5550   4.261   4.425  15.964  0.0724  0.2270  0.1132
  371TMC3    C5 5551   4.179   4.523  15.920  0.4860  0.7324 -0.3695
  371TMC3    C6 5552   4.044   4.500  15.883  0.1750  0.0668  0.6384
  371TMC3     C 5553   4.267   4.217  16.079 -0.3568 -0.0080 -0.3139
  371TMC3     O 5554   4.342   4.275  16.159 -0.6943  0.2314  0.5374
  371TMC3     H 5555   4.022   4.184  15.985  0.8819  0.3294  0.9710
  371TMC3    H1 5556   4.356   4.448  16.010 -0.1068  0.5063  0.3448
  371TMC3    H2 5557   3.985   4.588  15.858  0.1123 -0.1167  0.1522
  371TMC3    C7 5558   4.232   4.640  15.852  0.6499 -0.1092  0.2357
  371TMC3    C8 5559   3.848   4.346  15.935  0.4021  0.4101 -0.6888
  371TMC3    O1 5560   4.171   0.019  15.848  0.2883  0.1387 -0.1309
  371TMC3    O2 5561   3.796   4.234  15.950  1.2071 -0.0547  0.7229
  372MPD2     C 5562   4.089   0.797  13.471  0.8587 -0.0839 -0.0186
  372MPD2    C1 5563   4.123   0.781  13.605 -0.5227 -0.1502 -0.3331
  372MPD2    C2 5564   4.064   0.684  13.680  0.2568 -0.3885  0.2810
  372MPD2    C3 5565   3.977   0.598  13.610 -0.1527 -0.1626  0.1357
  372MPD2    C4 5566   3.944   0.608  13.479 -0.4064  0.3437  0.1280
  372MPD2    C5 5567   4.001   0.708  13.407 -0.3743 -0.1536 -0.1569
  372MPD2     H 5568   4.087   0.674  13.786 -1.5872  0.0966  0.7409
  372MPD2    H1 5569   3.869   0.547  13.429 -0.3764 -0.2371  0.7909
  372MPD2    H2 5570   4.135   0.880  13.419  1.3197 -0.2943  0.0536
  372MPD2    H3 5571   3.967   0.731  13.307  2.1833 -0.0951 -1.0308
  372MPD2     N 5572   3.915   0.502  13.689 -0.3122  0.1645 -0.2407
  372MPD2    H5 5573   3.950   0.502  13.784 -0.8580 -0.8474 -0.0374
  372MPD2    N1 5574   4.212   0.866  13.670  0.1489  0.3570  0.1052
  372MPD2    H7 5575   4.197   0.871  13.770  0.2328  2.3964  0.0181
  373TMC3    C1 5576   3.781   0.323  13.747 -0.4008  0.0783 -0.1688
  373TMC3    C2 5577   3.769   0.363  13.871 -0.2214 -0.1755 -0.9100
  373TMC3    C3 5578   3.732   0.275  13.964 -0.4322 -0.1611 -0.0590
  373TMC3    C4 5579   3.735   0.196  13.712 -0.5035 -0.0605 -0.5180
  373TMC3    C5 5580   3.686   0.113  13.803 -0.0389  0.4369  0.0481
  373TMC3    C6 5581   3.699   0.151  13.935  1.5976 -0.0947  1.0871
  373TMC3     C 5582   3.816   0.410  13.648  0.3205 -0.2700  0.2176
  373TMC3     O 5583   3.767   0.386  13.537  0.1065  0.0105 -0.2271
  373TMC3     H 5584   3.802   0.461  13.903  0.3557 -0.3514 -0.9682
  373TMC3    H1 5585   3.751   0.165  13.609  1.5959  0.3803 -0.3219
  373TMC3    H2 5586   3.690   0.076  14.012  0.2109 -1.3283 -0.2668
  373TMC3    C7 5587   3.696   4.708  13.765 -0.3610  0.0817  0.0960
  373TMC3    C8 5588   3.793   0.302  14.097 -0.5222  0.6990  0.1300
  373TMC3    O1 5589   3.745   4.672  13.656  0.0541 -0.0002 -0.1121
  373TMC3    O2 5590   3.876   0.390  14.113  0.2515  0.4463 -0.3199
  374TMC3    C1 5591   0.743   0.720   9.946 -0.0726  0.0822  0.6329
  374TMC3    C2 5592   0.722   0.854   9.957  0.8661 -0.2412  0.4384
  374TMC3    C3 5593   0.675   0.916   9.844 -0.6473  0.3997  0.4118
  374TMC3    C4 5594   0.734   0.643   9.836  0.8668 -0.8805 -0.5150
  374TMC3    C5 5595   0.697   0.714   9.722  0.5005 -0.3089  0.0447
  374TMC3    C6 5596   0.669   0.845   9.725 -0.1267 -0.0043  0.2699
  374TMC3     C 5597   0.769   0.649  10.072  0.0206 -0.1177  0.4040
  374TMC3     O 5598   0.828   0.710  10.159 -0.0389 -0.5222  0.5093
  374TMC3     H 5599   0.722   0.908  10.051 -0.3559 -3.0009  2.0056
  374TMC3    H1 5600   0.741   0.535   9.846  0.6982 -1.0505 -2.2454
  374TMC3    H2 5601   0.646   0.895   9.631  0.2455  1.4024  0.9185
  374TMC3    C7 5602   0.635   0.633   9.612 -0.0694  0.2254 -0.6114
  374TMC3    C8 5603   0.613   1.047   9.841  0.5666 -0.3652 -0.5882
  374TMC3    O1 5604   0.596   0.690   9.510  0.3040  1.0888  0.0128
  374TMC3    O2 5605   0.537   1.075   9.749 -0.1101  0.1904 -0.4938
  375MPD2     C 5606   4.513   2.039  17.440 -0.0346 -0.9864  0.1634
  375MPD2    C1 5607   4.450   2.011  17.323  0.0076  0.3133  0.0506
  375MPD2    C2 5608   4.488   1.904  17.246  0.5203 -0.2635 -0.5192
  375MPD2    C3 5609   4.600   1.833  17.276 -0.1997 -0.5473  0.2102
  375MPD2    C4 5610   4.677   1.878  17.381  0.4456  0.2888 -0.2434
  375MPD2    C5 5611   4.630   1.980  17.462  0.1380 -0.2406  0.6311
  375MPD2     H 5612   4.425   1.880  17.161  0.8006 -0.3312 -0.7115
  375MPD2    H1 5613   0.035   1.823  17.423 -0.0518  0.2081  0.6547
  375MPD2    H2 5614   4.477   2.110  17.513  0.1316 -0.4822 -0.2464
  375MPD2    H3 5615   4.682   1.992  17.556 -0.7394  0.9047  0.9735
  375MPD2     N 5616   4.641   1.714  17.206  0.5139 -0.4202 -0.0044
  375MPD2    H5 5617   4.707   1.651  17.250 -0.1778  0.7065  2.6377
  375MPD2    N1 5618   4.323   2.067  17.286  0.7210 -0.2957 -0.9466
  375MPD2    H7 5619   4.275   2.012  17.215 -1.2271  0.5000 -0.2322
  376TMC3    C1 5620   4.621   1.537  17.034  0.2512  0.0674  0.2109
  376TMC3    C2 5621   0.027   1.490  17.056 -0.6001 -0.0097 -0.0066
  376TMC3    C3 5622   0.084   1.423  16.956 -0.2387 -0.3885 -0.2279
  376TMC3    C4 5623   4.553   1.496  16.921 -0.1190 -0.3098 -0.1345
  376TMC3    C5 5624   4.618   1.423  16.828  0.9907 -0.2430  0.2087
  376TMC3    C6 5625   0.020   1.383  16.840  0.3312 -0.4026  0.2266
  376TMC3     C 5626   4.585   1.671  17.082  0.4343 -0.5321 -0.5689
  376TMC3     O 5627   4.500   1.729  17.014 -0.2618 -0.0453 -0.1654
  376TMC3     H 5628   0.087   1.527  17.139 -2.6803  1.6056  0.7553
  376TMC3    H1 5629   4.449   1.522  16.908 -0.6216 -2.4158 -0.3486
  376TMC3    H2 5630   0.051   1.298  16.780 -0.1997  0.1049 -0.7561
  376TMC3    C7 5631   4.587   1.478  16.698  0.0215  0.4278  0.6225
  376TMC3    C8 5632   0.228   1.424  16.944  0.3356 -0.3033  0.3187
  376TMC3    O1 5633   4.527   1.586  16.689 -0.5029 -0.1048 -0.3576
  376TMC3    O2 5634   0.301   1.415  17.043  0.7248 -0.4248 -0.0139
  377MPD2     C 5635   2.397   1.429  12.653 -0.8137  0.2824  0.2009
  377MPD2    C1 5636   2.490   1.410  12.753  0.2568 -0.0478 -0.0223
  377MPD2    C2 5637   2.454   1.352  12.874  0.5977 -0.1914  0.6808
  377MPD2    C3 5638   2.320   1.318  12.901 -0.2458  0.4551  0.1349
  377MPD2    C4 5639   2.221   1.361  12.802  0.8481 -0.0663  0.7060
  377MPD2    C5 5640   2.263   1.406  12.681 -0.1632 -0.0263 -0.7343
  377MPD2     H 5641   2.532   1.324  12.944  0.6671 -0.1942  0.6027
  377MPD2    H1 5642   2.114   1.350  12.818  0.6521  3.0788  1.6376
  377MPD2    H2 5643   2.421   1.460  12.552  1.5325 -1.4118  0.2271
  377MPD2    H3 5644   2.195   1.430  12.599 -1.3332 -0.0957  0.2280
  377MPD2     N 5645   2.263   1.267  13.021  0.3126 -0.4063  0.1386
  377MPD2    H5 5646   2.162   1.276  13.020  0.1956 -1.6238  0.9195
  377MPD2    N1 5647   2.622   1.440  12.706 -0.4275  0.1656 -0.5376
  377MPD2    H7 5648   2.635   1.482  12.614 -1.0268 -1.1904 -1.2399
  378TMC3    C1 5649   3.003   1.468  12.553 -0.2854 -0.5547 -1.1758
  378TMC3    C2 5650   2.877   1.462  12.602 -0.3201 -0.3662  0.7654
  378TMC3    C3 5651   2.862   1.454  12.735 -0.5379 -0.5942 -0.1693
  378TMC3    C4 5652   3.116   1.467  12.640  0.1017  0.0039 -0.5000
  378TMC3    C5 5653   3.095   1.448  12.779  0.3519  0.4987 -0.1730
  378TMC3    C6 5654   2.966   1.442  12.826  0.2007 -0.0841  0.3352
  378TMC3     C 5655   3.024   1.497  12.411  0.2933  0.0064  0.6129
  378TMC3     O 5656   2.925   1.550  12.372  0.0308 -0.0890  0.3977
  378TMC3     H 5657   2.787   1.463  12.541 -0.4340 -0.1541  0.9359
  378TMC3    H1 5658   3.216   1.465  12.599 -0.2941 -2.1947 -1.3758
  378TMC3    H2 5659   2.952   1.439  12.934 -1.8999  1.9619  0.1217
  378TMC3    C7 5660   3.195   1.386  12.868 -0.2816  0.4281  0.0923
  378TMC3    C8 5661   2.731   1.413  12.785 -0.0008  0.2989 -0.0338
  378TMC3    O1 5662   3.144   1.326  12.960  0.2511  0.7443 -0.1408
  378TMC3    O2 5663   2.745   1.369  12.899 -0.2188 -0.1748 -0.1003
  379MPD2     C 5664   3.813   3.996  16.237  0.1643  0.3697  0.3269
  379MPD2    C1 5665   3.731   3.886  16.249 -0.3089 -1.0726  0.4260
  379MPD2    C2 5666   3.749   3.800  16.358 -0.6334 -0.0500  0.2353
  379MPD2    C3 5667   3.868   3.818  16.425 -0.8296  0.7314  0.0297
  379MPD2    C4 5668   3.958   3.914  16.403  0.1089 -0.1045  0.0484
  379MPD2    C5 5669   3.931   4.008  16.311 -0.6558  0.3350 -0.1691
  379MPD2     H 5670   3.680   3.720  16.382 -1.9378  0.6352 -1.2478
  379MPD2    H1 5671   4.050   3.919  16.460  0.3849  2.7082 -0.6158
  379MPD2    H2 5672   3.795   4.078  16.168  2.4717  0.5525 -0.0578
  379MPD2    H3 5673   4.001   4.088  16.291  0.4595 -1.0764 -1.8685
  379MPD2     N 5674   3.910   3.738  16.531  0.1617 -0.2581  0.2530
  379MPD2    H5 5675   3.996   3.762  16.579 -0.8515 -1.5334  2.7281
  379MPD2    N1 5676   3.615   3.884  16.164 -0.2694  0.0091 -0.0218
  379MPD2    H7 5677   3.607   3.962  16.099  0.3912 -0.2849 -0.4605
  380TMC3    C1 5678   3.445   3.787  16.029  0.6477 -0.7205  0.9568
  380TMC3    C2 5679   3.440   3.679  15.950  0.9097  0.5465  0.2118
  380TMC3    C3 5680   3.370   3.682  15.829  0.4260 -0.0614  0.1916
  380TMC3    C4 5681   3.390   3.906  15.996 -0.2958 -0.2914 -0.5525
  380TMC3    C5 5682   3.319   3.907  15.874 -0.4511 -0.1940  0.3765
  380TMC3    C6 5683   3.308   3.803  15.793  0.3431 -0.3294 -0.1289
  380TMC3     C 5684   3.531   3.777  16.149 -0.1844  0.1642  0.0659
  380TMC3     O 5685   3.539   3.668  16.203 -0.6925  0.1463  0.0350
  380TMC3     H 5686   3.484   3.583  15.972  0.7940  0.3958 -0.2020
  380TMC3    H1 5687   3.387   3.991  16.064  0.1816 -0.4296 -0.3549
  380TMC3    H2 5688   3.261   3.817  15.697  0.0510  0.1527  0.0810
  380TMC3    C7 5689   3.245   4.020  15.817  0.4983 -0.1852  0.3899
  380TMC3    C8 5690   3.426   3.620  15.712  0.2321 -0.7306  0.0404
  380TMC3    O1 5691   3.306   4.117  15.786  0.2757 -0.5417 -0.2063
  380TMC3    O2 5692   3.384   3.657  15.604 -0.3374 -0.3494 -0.2466
  381TMC3    C1 5693   2.780   0.674  16.433 -0.0020  0.1493 -0.2890
  381TMC3    C2 5694   2.911   0.644  16.389 -0.4480 -0.0135 -0.0023
  381TMC3    C3 5695   3.001   0.591  16.474  0.4437  0.2788  0.1439
  381TMC3    C4 5696   2.750   0.643  16.560 -0.0119  0.4333  0.5107
  381TMC3    C5 5697   2.846   0.591  16.644  0.2024  0.4213  0.1316
  381TMC3    C6 5698   2.973   0.559  16.607 -1.0382  0.1640  0.7260
  381TMC3     C 5699   2.715   0.780  16.358 -0.1503 -0.3561  0.5971
  381TMC3     O 5700   2.627   0.835  16.421 -0.2822  0.7327 -0.1694
  381TMC3     H 5701   2.943   0.687  16.295 -1.5603  0.7263 -0.0382
  381TMC3    H1 5702   2.652   0.668  16.599  0.7745  1.1928  2.0092
  381TMC3    H2 5703   3.047   0.526  16.679 -1.0282 -1.6517 -0.1142
  381TMC3    C7 5704   2.806   0.525  16.771 -0.0893  0.4328 -0.1515
  381TMC3    C8 5705   3.123   0.658  16.463 -0.0541 -0.6350 -0.2391
  381TMC3    O1 5706   2.873   0.426  16.801 -0.7061  0.2654  0.8116
  381TMC3    O2 5707   3.155   0.670  16.345  0.2140  0.5664  0.6460
  382MPD2     C 5708   2.871   2.666   0.524  0.1352  0.2629  0.4957
  382MPD2    C1 5709   2.772   2.760   0.540  0.5269 -0.4884  0.8590
  382MPD2    C2 5710   2.646   2.743   0.493  0.0974 -0.7062  0.0635
  382MPD2    C3 5711   2.613   2.630   0.429 -0.1068 -0.2425  0.1149
  382MPD2    C4 5712   2.703   2.526   0.425 -0.5326 -0.0458 -0.1332
  382MPD2    C5 5713   2.833   2.546   0.462 -0.4341 -0.4042 -0.3254
  382MPD2     H 5714   2.579   2.820   0.531  2.0074  0.9105  0.1890
  382MPD2    H1 5715   2.668   2.433   0.381 -0.7220 -0.4415  0.8498
  382MPD2    H2 5716   2.972   2.680   0.559  0.4629 -0.3101 -0.2307
  382MPD2    H3 5717   2.904   2.466   0.444  0.0508  0.0259 -0.3194
  382MPD2     N 5718   2.481   2.612   0.383  0.1618  0.9564 -0.2827
  382MPD2    H5 5719   2.455   2.521   0.346 -0.7334  0.9307  0.3931
  382MPD2    N1 5720   2.791   2.890   0.584 -0.1045  0.2341  0.9058
  382MPD2    H7 5721   2.709   2.949   0.574  1.1543  1.7952 -0.2393
  383TMC3    C1 5722   2.252   2.653   0.376 -0.2807  0.3287 -0.3030
  383TMC3    C2 5723   2.233   2.588   0.255  1.1561  0.1796  0.3836
  383TMC3    C3 5724   2.106   2.600   0.201 -0.0530  0.0790  0.0455
  383TMC3    C4 5725   2.158   2.719   0.443 -0.0186  0.1261 -0.3098
  383TMC3    C5 5726   2.038   2.722   0.397  0.4392  0.0919  0.6732
  383TMC3    C6 5727   2.005   2.670   0.272  0.0867 -0.3011 -0.1190
  383TMC3     C 5728   2.382   2.698   0.409 -0.2004  0.1104 -0.9878
  383TMC3     O 5729   2.374   2.813   0.445  0.2812  0.2749 -0.4184
  383TMC3     H 5730   2.317   2.556   0.194  1.3474 -0.1678  0.8331
  383TMC3    H1 5731   2.182   2.753   0.543 -0.4294  1.4679 -0.6746
  383TMC3    H2 5732   1.909   2.680   0.222 -0.5929 -0.5976  1.1307
  383TMC3    C7 5733   1.930   2.772   0.487 -0.1437  0.1102 -0.4804
  383TMC3    C8 5734   2.070   2.553   0.069 -0.3752  0.3591 -0.0014
  383TMC3    O1 5735   1.975   2.814   0.595 -0.3554  0.2537  0.0717
  383TMC3    O2 5736   1.959   2.594   0.028  0.7836  0.6880 -0.1849
  384MPD2     C 5737   4.138   4.366  12.340  1.1339  0.1440 -0.4015
  384MPD2    C1 5738   4.117   4.227  12.360 -0.1733 -0.1988  0.4272
  384MPD2    C2 5739   4.168   4.123  12.283 -0.4798  0.0616 -0.1167
  384MPD2    C3 5740   4.249   4.158  12.183 -0.1303  0.2754 -0.4335
  384MPD2    C4 5741   4.275   4.295  12.163  0.4000  0.2865  0.1602
  384MPD2    C5 5742   4.221   4.396  12.237  0.2802  0.0795  0.4182
  384MPD2     H 5743   4.127   4.023  12.284  0.1828 -0.1989  1.9702
  384MPD2    H1 5744   4.327   4.321  12.071 -1.8623 -0.8680 -1.4524
  384MPD2    H2 5745   4.098   4.440  12.409  2.5048 -1.2805  1.9164
  384MPD2    H3 5746   4.236   4.500  12.210 -0.3303 -0.5731 -2.4028
  384MPD2     N 5747   4.307   4.057  12.099 -0.3363 -1.1207  0.1285
  384MPD2    H5 5748   4.386   4.090  12.043 -1.2511  0.5865 -0.1435
  384MPD2    N1 5749   4.049   4.185  12.478  0.0548 -0.3044  0.3021
  384MPD2    H7 5750   4.063   4.088  12.504 -0.6243 -0.3186  0.6181
  385TMC3    C1 5751   4.361   3.843  12.023 -0.1273  0.4664  0.1785
  385TMC3    C2 5752   4.299   3.758  11.939  0.2870  0.8761  0.1662
  385TMC3    C3 5753   4.320   3.624  11.951  0.7213  0.2826  0.1197
  385TMC3    C4 5754   4.437   3.806  12.131 -0.2169  0.3055 -0.1372
  385TMC3    C5 5755   4.437   3.671  12.153  0.3312 -1.1236  0.2392
  385TMC3    C6 5756   4.403   3.579  12.055  0.1931  0.2352  0.1500
  385TMC3     C 5757   4.261   3.928  12.082  0.1831  0.3880  0.1348
  385TMC3     O 5758   4.159   3.880  12.125  0.3709  0.0285 -0.4475
  385TMC3     H 5759   4.211   3.788  11.883  0.1858 -1.0720 -0.7126
  385TMC3    H1 5760   4.466   3.867  12.215  0.5294 -0.6874  0.3250
  385TMC3    H2 5761   4.409   3.472  12.069 -1.7261  0.0711 -0.4302
  385TMC3    C7 5762   4.379   3.652  12.284 -0.1030 -0.2036 -0.0938
  385TMC3    C8 5763   4.205   3.537  11.930 -0.0424  0.0074 -0.2359
  385TMC3    O1 5764   4.416   3.719  12.383 -0.3631  0.0521  0.1862
  385TMC3    O2 5765   4.180   3.469  12.031 -0.3269  0.2637 -0.9290
  386TMC3    C1 5766   3.908   1.528  11.986 -0.7715 -0.5676 -0.1521
  386TMC3    C2 5767   3.936   1.468  11.862  0.4765 -0.4192 -1.1818
  386TMC3    C3 5768   3.844   1.484  11.757  0.3402  0.3910 -0.1205
  386TMC3    C4 5769   3.797   1.608  12.010  0.4405 -0.5144 -0.1180
  386TMC3    C5 5770   3.713   1.617  11.907 -0.3560 -0.2987  0.0506
  386TMC3    C6 5771   3.737   1.566  11.778 -0.7428  0.0463  1.0268
  386TMC3     C 5772   3.999   1.511  12.090  0.6421 -0.0983  0.8703
  386TMC3     O 5773   3.954   1.532  12.203 -0.2631  0.2766  0.4260
  386TMC3     H 5774   4.008   1.388  11.857  1.3468  0.3858 -1.5216
  386TMC3    H1 5775   3.783   1.651  12.108 -0.2598 -1.3700  0.1550
  386TMC3    H2 5776   3.665   1.572  11.698 -0.0169 -0.5497  0.3261
  386TMC3    C7 5777   3.575   1.660  11.946 -0.4785 -0.5654  0.0533
  386TMC3    C8 5778   3.873   1.440  11.621  0.3840 -0.7828 -0.3699
  386TMC3    O1 5779   3.555   1.669  12.063 -0.2121 -0.1605  0.3800
  386TMC3    O2 5780   3.783   1.435  11.536 -0.1346  0.1602  0.0920
  387MPD2     C 5781   1.636   1.701   9.606 -0.5363 -0.2841  0.2592
  387MPD2    C1 5782   1.750   1.750   9.656 -0.9334 -0.3711  0.1656
  387MPD2    C2 5783   1.865   1.670   9.649  0.2504 -0.3427  0.2760
  387MPD2    C3 5784   1.873   1.545   9.595 -1.2762 -0.5745 -0.4869
  387MPD2    C4 5785   1.753   1.502   9.540 -0.4351  0.2612  0.5512
  387MPD2    C5 5786   1.641   1.581   9.542 -0.4949  0.4183  0.0163
  387MPD2     H 5787   1.954   1.719   9.687 -1.4567  3.7176 -0.8678
  387MPD2    H1 5788   1.738   1.413   9.480  1.1616  1.1736 -1.2162
  387MPD2    H2 5789   1.544   1.757   9.594 -0.6324 -0.4445  0.2341
  387MPD2    H3 5790   1.554   1.535   9.497 -0.1624 -1.7504  1.5727
  387MPD2     N 5791   1.979   1.455   9.632 -0.2117 -0.2262 -0.0638
  387MPD2    H5 5792   2.061   1.503   9.670 -0.8421  0.9327 -0.1681
  387MPD2    N1 5793   1.758   1.876   9.721  0.1665  0.6267  0.5977
  387MPD2    H7 5794   1.852   1.893   9.757  0.3136 -1.1688  1.0580
  388TMC3    C1 5795   1.691   2.041   9.876 -0.0180  0.5382 -0.2999
  388TMC3    C2 5796   1.621   2.158   9.894  0.3361 -0.4622  0.6578
  388TMC3    C3 5797   1.631   2.207  10.028  0.5975 -0.4533  0.5126
  388TMC3    C4 5798   1.759   1.976   9.969  0.1245  0.5423  0.5853
  388TMC3    C5 5799   1.748   2.020  10.098 -0.3995 -0.5320  0.4583
  388TMC3    C6 5800   1.691   2.143  10.128 -0.7600  0.3047 -0.5313
  388TMC3     C 5801   1.652   1.959   9.756 -0.1116 -0.9259 -0.0178
  388TMC3     O 5802   1.535   1.948   9.729 -0.1791 -0.4082 -0.3790
  388TMC3     H 5803   1.548   2.194   9.823  2.4347  2.6738  0.0973
  388TMC3    H1 5804   1.821   1.892   9.942  0.0262  0.1725  1.5224
  388TMC3    H2 5805   1.686   2.187  10.227 -2.6557  1.0622 -0.9670
  388TMC3    C7 5806   1.809   1.941  10.206  0.3493  0.0450  0.5507
  388TMC3    C8 5807   1.580   2.340  10.035  0.9236 -0.7032 -0.4350
  388TMC3    O1 5808   1.854   2.004  10.300  0.1248 -0.0711  0.1843
  388TMC3    O2 5809   1.488   2.371   9.961  0.1933 -0.2148 -0.5586
  389MPD2     C 5810   1.098   4.453  11.344  0.0967 -0.1146  0.1762
  389MPD2    C1 5811   1.015   4.358  11.282 -0.1360 -0.2486 -0.1224
  389MPD2    C2 5812   0.900   4.320  11.349  1.1875 -0.3718  0.5335
  389MPD2    C3 5813   0.868   4.375  11.472 -0.5603 -0.4474 -0.8464
  389MPD2    C4 5814   0.946   4.473  11.522  0.1797 -0.0705 -0.0846
  389MPD2    C5 5815   1.059   4.511  11.462  0.0456 -0.3397 -0.2672
  389MPD2     H 5816   0.829   4.253  11.302 -0.1672  1.4054  0.0687
  389MPD2    H1 5817   0.916   4.532  11.608 -2.4517  0.3819 -1.3151
  389MPD2    H2 5818   1.195   4.485  11.308  0.9120  0.7468  3.0662
  389MPD2    H3 5819   1.119   4.588  11.510  1.1009  0.0482 -2.1958
  389MPD2     N 5820   0.759   4.332  11.554  0.0816  0.4482 -1.2140
  389MPD2    H5 5821   0.771   4.359  11.651 -1.6950 -4.3756  0.3269
  389MPD2    N1 5822   1.051   4.317  11.151  0.2001 -0.1398 -0.3225
  389MPD2    H7 5823   1.125   4.367  11.103 -0.1181  1.0881  0.4486
  390TMC3    C1 5824   0.555   4.216  11.612 -0.1137  0.0663  0.3797
  390TMC3    C2 5825   0.463   4.113  11.578 -0.9022  0.3992  0.3443
  390TMC3    C3 5826   0.357   4.096  11.666  0.4905 -0.1331 -0.3298
  390TMC3    C4 5827   0.551   4.271  11.734 -0.0667  0.3710  0.2157
  390TMC3    C5 5828   0.448   4.249  11.819 -0.8529  0.7385  0.1251
  390TMC3    C6 5829   0.343   4.159  11.782 -0.3456 -0.0486  0.3752
  390TMC3     C 5830   0.650   4.257  11.514 -0.5712  0.4866  0.0867
  390TMC3     O 5831   0.628   4.216  11.401 -0.7074  0.7736  0.2634
  390TMC3     H 5832   0.446   4.082  11.476  2.5311  1.3744 -0.5485
  390TMC3    H1 5833   0.620   4.351  11.760 -0.3812  1.2578 -1.6685
  390TMC3    H2 5834   0.250   4.150  11.836  0.0547  0.8593  1.2170
  390TMC3    C7 5835   0.447   4.318  11.942  0.7732  0.1095  0.5157
  390TMC3    C8 5836   0.248   4.016  11.624  0.4494  0.4172 -0.3421
  390TMC3    O1 5837   0.528   4.406  11.964 -0.0847 -0.0033 -0.4869
  390TMC3    O2 5838   0.275   3.914  11.567 -0.2692  0.1430 -0.5738
  391MPD2     C 5839   0.592   1.295  11.410 -0.0564 -0.0612 -0.7108
  391MPD2    C1 5840   0.690   1.381  11.364 -0.6256  0.0268  0.5293
  391MPD2    C2 5841   0.732   1.386  11.233  0.0290 -0.4306 -0.0864
  391MPD2    C3 5842   0.670   1.305  11.142 -0.7200  0.0246  0.0296
  391MPD2    C4 5843   0.573   1.216  11.183  0.0650 -0.4493  0.1387
  391MPD2    C5 5844   0.536   1.209  11.315  0.2774  0.6799 -0.0121
  391MPD2     H 5845   0.819   1.443  11.203 -0.0990 -0.3734 -0.3543
  391MPD2    H1 5846   0.522   1.163  11.103 -0.1812 -1.1517  0.7656
  391MPD2    H2 5847   0.555   1.297  11.512  0.2728  0.8140 -0.6015
  391MPD2    H3 5848   0.456   1.140  11.340  0.9534 -0.4156 -0.8699
  391MPD2     N 5849   0.704   1.328  11.006  0.7763 -0.3919  0.3271
  391MPD2    H5 5850   0.780   1.393  10.986 -2.9424  2.9862 -2.7123
  391MPD2    N1 5851   0.744   1.468  11.461 -0.0728  0.0314  0.0399
  391MPD2    H7 5852   0.714   1.458  11.557  3.7877 -1.0434  1.0989
  392TMC3    C1 5853   0.669   1.363  10.778  0.1200 -0.0476 -0.3232
  392TMC3    C2 5854   0.607   1.323  10.661 -0.0921 -0.1350  0.4205
  392TMC3    C3 5855   0.591   1.400  10.553  0.3536 -0.3425 -0.4878
  392TMC3    C4 5856   0.713   1.492  10.784  0.3210 -0.1441  0.1937
  392TMC3    C5 5857   0.700   1.574  10.677 -1.1359 -0.4022  0.6686
  392TMC3    C6 5858   0.640   1.528  10.559 -0.0091 -0.2368  0.1868
  392TMC3     C 5859   0.646   1.279  10.895  0.0927  0.2506  0.1471
  392TMC3     O 5860   0.575   1.180  10.889  0.1284  0.2937 -0.5010
  392TMC3     H 5861   0.566   1.223  10.657 -0.1420 -0.1322  0.9948
  392TMC3    H1 5862   0.750   1.532  10.878 -2.5966 -0.0090  1.2790
  392TMC3    H2 5863   0.630   1.598  10.477 -0.0811 -0.0880  0.3231
  392TMC3    C7 5864   0.776   1.701  10.672 -0.0053 -0.4259  0.3607
  392TMC3    C8 5865   0.593   1.336  10.422 -0.7155  0.1904  0.1362
  392TMC3    O1 5866   0.821   1.749  10.776 -0.5988  0.5031  0.1775
  392TMC3    O2 5867   0.647   1.225  10.414 -0.0472  0.6351 -0.4270
  393TMC3    C1 5868   4.479   3.995  10.877 -1.2561 -0.5487 -0.0058
  393TMC3    C2 5869   4.353   3.955  10.918  1.2061 -0.5504 -0.0598
  393TMC3    C3 5870   4.325   3.820  10.915 -0.4976 -0.2264 -0.3807
  393TMC3    C4 5871   4.573   3.908  10.823  0.5392 -0.1976 -0.1453
  393TMC3    C5 5872   4.540   3.774  10.834  0.3351 -0.1458  0.4347
  393TMC3    C6 5873   4.416   3.730  10.870  0.2040  0.1869  0.2701
  393TMC3     C 5874   4.519   4.126  10.877  0.4517  0.4210 -0.9456
  393TMC3     O 5875   4.605   4.159  10.799 -0.0096 -0.2127  0.2531
  393TMC3     H 5876   4.278   4.029  10.944  2.9021  1.6873 -1.6278
  393TMC3    H1 5877   4.668   3.941  10.782  0.1747  0.2742 -0.5956
  393TMC3    H2 5878   4.392   3.624  10.871  0.8301  0.0529  1.1571
  393TMC3    C7 5879   4.615   3.672  10.770 -0.2861  0.2416 -0.1378
  393TMC3    C8 5880   4.190   3.771  10.946 -0.0917 -1.2072  0.4697
  393TMC3    O1 5881   4.566   3.562  10.748 -0.3261 -0.7307 -0.6872
  393TMC3    O2 5882   4.182   3.651  10.963 -0.3071  0.2425  0.1220
  394TMC3    C1 5883   1.047   4.184  10.955  0.1605  0.6501  0.3581
  394TMC3    C2 5884   0.978   4.105  10.868  0.4430 -0.1849  0.2773
  394TMC3    C3 5885   1.035   4.090  10.743  0.0101 -0.5929 -0.0613
  394TMC3    C4 5886   1.168   4.242  10.922  0.4239  0.8157  0.5636
  394TMC3    C5 5887   1.207   4.239  10.793  0.2357 -0.6821 -0.0234
  394TMC3    C6 5888   1.145   4.158  10.705  0.5567  0.3367  0.1841
  394TMC3     C 5889   0.991   4.212  11.084  0.3794  0.1797 -0.0447
  394TMC3     O 5890   0.895   4.145  11.115  0.1658  0.2176 -0.1779
  394TMC3     H 5891   0.886   4.055  10.894 -0.0038  1.0804  1.1270
  394TMC3    H1 5892   1.224   4.303  10.992  1.3356  0.0499  0.5069
  394TMC3    H2 5893   1.190   4.139  10.609  0.3291 -2.0245  0.5628
  394TMC3    C7 5894   1.318   4.324  10.748 -0.0024  0.0889 -0.2897
  394TMC3    C8 5895   0.983   3.982  10.670 -0.0860  0.4746 -0.0950
  394TMC3    O1 5896   1.396   4.350  10.839  0.0217 -0.3062 -0.1970
  394TMC3    O2 5897   0.902   3.909  10.725  0.1620  0.5016  0.1084
  395TMC3    C1 5898   0.866   1.899  14.849  0.3620  0.1490 -0.4802
  395TMC3    C2 5899   0.725   1.902  14.846  0.3393 -0.5847 -0.5302
  395TMC3    C3 5900   0.663   1.976  14.942 -0.1411 -0.1382 -0.0744
  395TMC3    C4 5901   0.939   1.990  14.921  0.6845 -0.3862  0.0018
  395TMC3    C5 5902   0.868   2.083  14.998 -0.4280 -0.9627  0.2631
  395TMC3    C6 5903   0.734   2.067  15.016  0.6122 -0.3866 -0.5014
  395TMC3     C 5904   0.936   1.776  14.850 -0.1348  0.5859 -0.6546
  395TMC3     O 5905   1.037   1.769  14.911 -0.1290  0.2055  0.1389
  395TMC3     H 5906   0.681   1.826  14.782 -3.2084  0.6632  0.4370
  395TMC3    H1 5907   1.044   2.007  14.903  0.3828 -0.1514 -1.5298
  395TMC3    H2 5908   0.691   2.146  15.077  1.1367  0.1735 -0.8601
  395TMC3    C7 5909   0.941   2.145  15.101 -0.4373  0.4854  0.5420
  395TMC3    C8 5910   0.578   1.907  15.032  0.3753 -0.0821 -0.4238
  395TMC3    O1 5911   0.922   2.265  15.124  0.1302 -0.3191 -0.7539
  395TMC3    O2 5912   0.542   1.967  15.136 -0.3808  0.4978  0.2477
  396MPD2     C 5913   0.620   2.612  17.157 -0.8868  0.0556  1.2491
  396MPD2    C1 5914   0.759   2.622  17.166 -0.1140  0.5693  0.3287
  396MPD2    C2 5915   0.811   2.751  17.176  0.3651  0.2042 -0.1084
  396MPD2    C3 5916   0.740   2.870  17.183 -0.1907  0.0178 -0.1430
  396MPD2    C4 5917   0.610   2.862  17.169 -0.0208 -0.3748  0.2970
  396MPD2    C5 5918   0.550   2.732  17.152  0.0670  0.9470 -0.1133
  396MPD2     H 5919   0.919   2.756  17.177  0.3698  0.0076  0.2929
  396MPD2    H1 5920   0.542   2.946  17.171 -1.4859 -1.6104  2.7318
  396MPD2    H2 5921   0.567   2.518  17.158 -2.7929  1.1302 -1.6496
  396MPD2    H3 5922   0.441   2.730  17.154  0.0574  1.9570  0.3481
  396MPD2     N 5923   0.812   2.994  17.199  0.2520 -0.6548 -0.5855
  396MPD2    H5 5924   0.907   2.982  17.230  0.6285  2.2121 -0.6817
  396MPD2    N1 5925   0.834   2.506  17.164  0.3460 -0.0606  0.8708
  396MPD2    H7 5926   0.783   2.419  17.154  2.0874 -1.1801  1.7371
  397TMC3    C1 5927   1.033   2.368  17.136  1.0186  0.1313 -0.5284
  397TMC3    C2 5928   1.101   2.366  17.016  0.4067 -0.8495  0.1356
  397TMC3    C3 5929   1.059   2.269  16.927 -0.1511  0.1160  0.2071
  397TMC3    C4 5930   0.944   2.271  17.166 -0.5685 -0.1721  0.4021
  397TMC3    C5 5931   0.930   2.160  17.082 -0.4936 -0.4567 -1.1917
  397TMC3    C6 5932   0.977   2.160  16.958  0.4100  0.0898 -0.0925
  397TMC3     C 5933   0.975   2.501  17.148  0.0261  0.1063  0.6105
  397TMC3     O 5934   1.061   2.587  17.135 -0.5389  0.3745 -0.4760
  397TMC3     H 5935   1.162   2.449  16.982  0.9740 -0.5990  1.7936
  397TMC3    H1 5936   0.901   2.268  17.265 -0.6629  1.2875  0.4119
  397TMC3    H2 5937   0.967   2.065  16.907 -0.1327  0.2161 -0.2209
  397TMC3    C7 5938   0.862   2.040  17.138 -0.0935  0.1901 -0.2266
  397TMC3    C8 5939   1.061   2.319  16.790 -0.5064  0.0687  0.0030
  397TMC3    O1 5940   0.800   1.965  17.065  0.1775 -0.1943  0.2329
  397TMC3    O2 5941   1.122   2.426  16.764 -0.3372 -0.2387 -0.3950
  398MPD2     C 5942   3.413   3.388   0.143  0.3261  0.6425 -0.9818
  398MPD2    C1 5943   3.468   3.320   0.245  0.3031  0.2724  0.2753
  398MPD2    C2 5944   3.519   3.391   0.345  0.1466  0.0438  0.0277
  398MPD2    C3 5945   3.517   3.527   0.354  0.9066 -0.3630  0.4525
  398MPD2    C4 5946   3.455   3.595   0.251  0.6254 -0.2029  0.1907
  398MPD2    C5 5947   3.406   3.527   0.145 -0.4906 -0.1271 -0.0598
  398MPD2     H 5948   3.561   3.334   0.428  2.7235 -0.2466 -1.4902
  398MPD2    H1 5949   3.435   3.701   0.244 -2.9035 -1.0231 -2.0145
  398MPD2    H2 5950   3.379   3.340   0.052 -0.1010  0.0607 -0.5148
  398MPD2    H3 5951   3.372   3.582   0.058  0.5974  0.6924  0.0358
  398MPD2     N 5952   3.582   3.587   0.466  0.7437  0.0534 -0.5921
  398MPD2    H5 5953   3.622   3.524   0.534 -1.3315 -1.3382 -0.6564
  398MPD2    N1 5954   3.487   3.183   0.254  0.2917 -0.3231  0.2908
  398MPD2    H7 5955   3.530   3.149   0.339  0.6288 -0.6452 -0.0101
  399TMC3    C1 5956   3.467   2.955   0.206  0.7522  0.0752  0.4568
  399TMC3    C2 5957   3.553   2.926   0.306 -0.1899 -0.3220  0.0922
  399TMC3    C3 5958   3.570   2.790   0.342  0.2619 -0.5714 -0.6704
  399TMC3    C4 5959   3.384   2.862   0.155  0.1749 -0.7225 -0.2776
  399TMC3    C5 5960   3.383   2.733   0.211  0.3469 -0.3052 -0.2707
  399TMC3    C6 5961   3.486   2.694   0.293 -0.1744 -1.2363  0.1407
  399TMC3     C 5962   3.432   3.090   0.167  0.1400 -0.5198  0.1089
  399TMC3     O 5963   3.351   3.103   0.077 -0.6702 -0.2716 -0.1262
  399TMC3     H 5964   3.634   2.995   0.326 -0.1765 -1.2408  3.2549
  399TMC3    H1 5965   3.323   2.891   0.070 -0.7610 -1.2336  0.2175
  399TMC3    H2 5966   3.475   2.590   0.322 -0.0412 -1.0598  0.8248
  399TMC3    C7 5967   3.268   2.652   0.181 -0.0481 -0.7625 -0.3942
  399TMC3    C8 5968   3.667   2.760   0.441 -0.5235  0.2695 -0.0295
  399TMC3    O1 5969   3.253   2.541   0.236 -0.2761  0.7577 -0.6566
  399TMC3    O2 5970   3.750   2.850   0.454 -0.3811  0.0246 -0.0503
  400TMC3    C1 5971   2.439   2.124  17.344 -0.9852  0.2526 -0.0921
  400TMC3    C2 5972   2.375   2.166  17.233 -0.1573 -0.6862 -0.7223
  400TMC3    C3 5973   2.323   2.287  17.241 -1.1391  0.3790 -0.0349
  400TMC3    C4 5974   2.459   2.205  17.455  0.2145  0.1638 -0.6691
  400TMC3    C5 5975   2.422   2.335  17.450 -0.7366  0.4658 -0.3797
  400TMC3    C6 5976   2.351   2.374  17.342 -0.4076 -0.0995  0.4321
  400TMC3     C 5977   2.450   1.983  17.357  0.2186 -0.0852 -0.7373
  400TMC3     O 5978   2.378   1.916  17.286  0.6411  0.0305  0.3147
  400TMC3     H 5979   2.358   2.095  17.152  1.3957 -0.2934 -1.3946
  400TMC3    H1 5980   2.512   2.157  17.537 -0.5216  2.9599  1.4635
  400TMC3    H2 5981   2.326   2.478  17.327 -1.4392 -0.3739  0.2423
  400TMC3    C7 5982   2.462   2.421  17.559  0.2958  0.0800 -0.0357
  400TMC3    C8 5983   2.239   2.348  17.136  0.4272  0.0978 -0.0011
  400TMC3    O1 5984   2.541   2.374  17.641  0.5508  0.0288  0.8885
  400TMC3    O2 5985   2.234   2.470  17.131 -0.4042 -0.5719  0.4261
  401MPD2     C 5986   4.703   0.533   0.644  0.6440 -0.0199  0.0239
  401MPD2    C1 5987   0.073   0.451   0.584 -0.0762  0.3970 -0.0018
  401MPD2    C2 5988   0.065   0.319   0.620 -0.2905 -0.8681  0.9285
  401MPD2    C3 5989   4.704   0.272   0.712 -0.5351  0.5223 -0.4068
  401MPD2    C4 5990   4.614   0.352   0.768 -0.6760 -0.1782  0.3464
  401MPD2    C5 5991   4.607   0.481   0.732  0.8097  0.2770  0.1550
  401MPD2     H 5992   0.136   0.247   0.580 -0.8620 -0.3793 -0.9943
  401MPD2    H1 5993   4.530   0.321   0.830 -0.3188  0.2760  1.0514
  401MPD2    H2 5994   4.703   0.641   0.634 -1.3552 -0.0119  0.0271
  401MPD2    H3 5995   4.526   0.543   0.770  1.4249  0.8509  0.5254
  401MPD2     N 5996   4.722   0.143   0.765  0.2819  0.4102 -0.0208
  401MPD2    H5 5997   0.067   0.086   0.722  1.2208  1.9641 -0.5403
  401MPD2    N1 5998   0.171   0.496   0.497  0.5154 -0.1668  0.4238
  401MPD2    H7 5999   0.244   0.428   0.476 -1.0303 -1.9712  0.9377
  402TMC3    C1 6000   4.685   4.673   0.903 -0.6204  0.5309 -0.5769
  402TMC3    C2 6001   4.702   4.645   1.029 -0.9768 -0.3726 -0.2954
  402TMC3    C3 6002   0.074   4.555   1.058 -0.1749 -0.8350  0.0217
  402TMC3    C4 6003   0.036   4.609   0.810 -0.7413  0.3626 -0.0273
  402TMC3    C5 6004   0.141   4.528   0.841 -0.2487  0.9716  0.0709
  402TMC3    C6 6005   0.163   4.492   0.973 -0.3393 -0.1488  0.6152
  402TMC3     C 6006   4.657   0.084   0.871 -0.8242  0.3680 -0.8886
  402TMC3     O 6007   4.591   0.143   0.959 -0.0326 -0.6480  0.1006
  402TMC3     H 6008   4.660   4.707   1.107  1.0978  0.3533  0.2523
  402TMC3    H1 6009   0.016   4.626   0.705  0.7564 -2.6695 -0.8153
  402TMC3    H2 6010   0.240   4.426   1.010  0.0944  0.7283  1.2897
  402TMC3    C7 6011   0.259   4.581   0.775  0.3074  0.3475 -0.6006
  402TMC3    C8 6012   0.111   4.529   1.196  0.1928  0.6058  0.1283
  402TMC3    O1 6013   0.239   4.688   0.719  0.3488  0.0648 -0.5553
  402TMC3    O2 6014   0.199   4.450   1.226  0.0431 -0.0095 -0.5445
  403MPD2     C 6015   3.797   3.649  13.190  0.3121  0.6112  0.5035
  403MPD2    C1 6016   3.696   3.635  13.285  0.0407 -0.0771 -0.5007
  403MPD2    C2 6017   3.735   3.619  13.420  0.2441 -0.2941  0.5184
  403MPD2    C3 6018   3.860   3.605  13.465  0.8463 -0.3094  0.0182
  403MPD2    C4 6019   3.961   3.610  13.374 -0.0545  0.2082 -0.2340
  403MPD2    C5 6020   3.924   3.641  13.241 -0.3115  0.3217 -0.6535
  403MPD2     H 6021   3.655   3.625  13.493  0.2851  0.3257  0.5132
  403MPD2    H1 6022   4.067   3.600  13.394  0.2314 -0.2315 -1.9704
  403MPD2    H2 6023   3.785   3.666  13.084 -3.4247 -0.8690  0.7002
  403MPD2    H3 6024   4.002   3.662  13.170  1.3482 -0.9063  0.8061
  403MPD2     N 6025   3.894   3.595  13.607  0.1411  0.0293 -0.0649
  403MPD2    H5 6026   3.824   3.602  13.681  0.3685  1.0473  0.0589
  403MPD2    N1 6027   3.568   3.644  13.230 -0.6129  0.5909 -0.7691
  403MPD2    H7 6028   3.559   3.660  13.130 -2.1221  0.2094 -0.6997
  404TMC3    C1 6029   3.346   3.587  13.198  0.0416 -0.2742  0.2752
  404TMC3    C2 6030   3.274   3.480  13.240 -0.1802  0.2550  0.6434
  404TMC3    C3 6031   3.247   3.379  13.145 -0.5548 -0.4677 -0.0622
  404TMC3    C4 6032   3.376   3.605  13.064  0.0147  0.3636  0.1074
  404TMC3    C5 6033   3.345   3.511  12.976  0.3142  0.1721  0.0617
  404TMC3    C6 6034   3.292   3.390  13.015 -0.6646 -0.1087  0.0003
  404TMC3     C 6035   3.452   3.608  13.294  0.0076 -0.1545 -0.6731
  404TMC3     O 6036   3.436   3.569  13.408 -0.3635  0.3008 -0.0638
  404TMC3     H 6037   3.238   3.486  13.342 -1.0312 -0.2351  0.3710
  404TMC3    H1 6038   3.402   3.705  13.034  0.9721  0.5666  1.6411
  404TMC3    H2 6039   3.301   3.304  12.950 -0.6191  1.6076 -2.2276
  404TMC3    C7 6040   3.320   3.555  12.834  0.1251  0.2480 -0.3777
  404TMC3    C8 6041   3.271   3.246  13.196 -0.6334 -0.7650  0.4258
  404TMC3    O1 6042   3.372   3.662  12.808  0.1010 -0.6307 -0.0063
  404TMC3    O2 6043   3.303   3.155  13.119  0.0079 -0.0836  0.5051
  405MPD2     C 6044   3.566   4.274  15.216  0.4676  0.0697  0.0814
  405MPD2    C1 6045   3.473   4.202  15.138 -0.2588  0.3156  0.0733
  405MPD2    C2 6046   3.433   4.254  15.012 -0.1436 -0.2663  0.3211
  405MPD2    C3 6047   3.494   4.372  14.959  0.9240 -0.5054 -0.8220
  405MPD2    C4 6048   3.583   4.439  15.038  0.0342  0.6944  0.4242
  405MPD2    C5 6049   3.615   4.397  15.162 -0.3087  0.1031  0.7262
  405MPD2     H 6050   3.379   4.190  14.943 -0.3082 -0.0474  0.2485
  405MPD2    H1 6051   3.631   4.532  15.007 -1.1260  1.2982  0.4299
  405MPD2    H2 6052   3.607   4.236  15.309  1.1286  2.3559  0.7424
  405MPD2    H3 6053   3.690   4.448  15.222  1.0330  0.0702 -0.9378
  405MPD2     N 6054   3.470   4.400  14.822 -0.4380 -0.0601 -0.5462
  405MPD2    H5 6055   3.404   4.345  14.768 -0.3902  0.0400 -0.7075
  405MPD2    N1 6056   3.433   4.073  15.172 -0.4880 -0.1503 -0.9190
  405MPD2    H7 6057   3.389   4.020  15.098  0.3412 -1.2393 -0.6211
  406TMC3    C1 6058   3.374   4.541  14.435  0.0657  0.1202  0.1409
  406TMC3    C2 6059   3.419   4.432  14.362 -0.2028 -0.5158  0.2763
  406TMC3    C3 6060   3.488   4.336  14.438 -0.5046  0.0791  0.6754
  406TMC3    C4 6061   3.416   4.571  14.564 -0.0958 -0.3522 -0.3037
  406TMC3    C5 6062   3.497   4.485  14.616 -0.0318 -0.4556 -0.2865
  406TMC3    C6 6063   3.524   4.359  14.568  0.2276  0.0213  0.3161
  406TMC3     C 6064   3.240   4.585  14.403  0.1356 -0.0142 -0.2341
  406TMC3     O 6065   3.212   4.633  14.297  0.0207 -0.6008 -0.5126
  406TMC3     H 6066   3.369   4.413  14.268  0.8152  2.3415 -0.8447
  406TMC3    H1 6067   3.389   4.661  14.619  2.3787  0.3075 -0.1769
  406TMC3    H2 6068   3.579   4.283  14.624 -0.6442 -0.2481  0.8034
  406TMC3    C7 6069   3.522   4.507  14.754 -0.5159 -0.4442  0.3069
  406TMC3    C8 6070   3.452   4.202  14.410  0.0059 -0.1280 -0.0402
  406TMC3    O1 6071   3.580   4.612  14.793  0.0187  0.0235 -0.5069
  406TMC3    O2 6072   3.449   4.163  14.292  0.2171  0.0111 -0.1511
  407MPD2     C 6073   1.488   0.974   9.660  0.7353 -0.4936 -0.1068
  407MPD2    C1 6074   1.609   1.040   9.675  0.4567  0.4858 -0.0046
  407MPD2    C2 6075   1.646   1.077   9.802 -0.7678  0.7215  0.1090
  407MPD2    C3 6076   1.579   1.047   9.914 -0.4808  0.0603  0.2209
  407MPD2    C4 6077   1.455   0.991   9.901 -0.0884  0.1951  0.1315
  407MPD2    C5 6078   1.419   0.948   9.776  0.3631 -0.5659  0.6367
  407MPD2     H 6079   1.741   1.128   9.813 -0.3323  0.2640 -1.4770
  407MPD2    H1 6080   1.388   0.966   9.982 -2.2632  0.4113 -1.5757
  407MPD2    H2 6081   1.450   0.926   9.571 -0.8437  0.9775 -0.2389
  407MPD2    H3 6082   1.327   0.891   9.781 -2.3261  3.6432 -0.3839
  407MPD2     N 6083   1.617   1.072  10.047  0.3510  0.3908 -0.0395
  407MPD2    H5 6084   1.538   1.067  10.110  0.5573 -2.6771 -0.0430
  407MPD2    N1 6085   1.680   1.072   9.559  0.1998  0.3563 -0.0477
  407MPD2    H7 6086   1.773   1.109   9.578  0.7138  0.0510 -1.9561
  408TMC3    C1 6087   1.733   1.109   9.335 -0.1079  0.4178  0.2550
  408TMC3    C2 6088   1.860   1.058   9.343  0.4728  0.2475 -0.3823
  408TMC3    C3 6089   1.952   1.100   9.253 -0.7733 -0.0261 -0.7723
  408TMC3    C4 6090   1.704   1.214   9.249 -0.2855 -0.4296  0.3761
  408TMC3    C5 6091   1.796   1.253   9.158 -0.0594  0.2734 -0.2629
  408TMC3    C6 6092   1.923   1.198   9.165  0.1576  0.6603  0.9619
  408TMC3     C 6093   1.639   1.060   9.425 -0.4635  0.0998 -0.2663
  408TMC3     O 6094   1.536   1.020   9.378  0.5000 -0.0494  0.0453
  408TMC3     H 6095   1.879   0.991   9.426  0.4116 -1.9430 -2.1153
  408TMC3    H1 6096   1.598   1.234   9.239 -0.4719 -0.5453  2.2320
  408TMC3    H2 6097   1.998   1.230   9.094  1.4045 -3.4416  0.3942
  408TMC3    C7 6098   1.803   1.395   9.144  0.1741 -0.0033  0.0193
  408TMC3    C8 6099   2.080   1.126   9.309  0.6981 -0.0741  0.3672
  408TMC3    O1 6100   1.915   1.447   9.155 -0.5658 -0.0691 -0.2638
  408TMC3    O2 6101   2.132   1.042   9.380 -0.1120  0.2790 -0.1963
  409MPD2     C 6102   1.201   1.908  16.870  0.0420  0.0111  0.7516
  409MPD2    C1 6103   1.255   1.925  16.993  0.1832  0.7531  0.0415
  409MPD2    C2 6104   1.344   2.032  17.019  0.2792 -0.4895 -0.9557
  409MPD2    C3 6105   1.375   2.122  16.920  0.0438  0.2005  0.1321
  409MPD2    C4 6106   1.316   2.107  16.795  1.2761 -0.5710  0.1310
  409MPD2    C5 6107   1.238   1.994  16.771 -0.2983  0.1093  0.0424
  409MPD2     H 6108   1.394   2.035  17.115  0.4214  2.5604 -1.1284
  409MPD2    H1 6109   1.336   2.178  16.715 -3.5914  0.1637 -0.4134
  409MPD2    H2 6110   1.137   1.823  16.851  2.2321 -0.6107 -3.6708
  409MPD2    H3 6111   1.195   1.972  16.674 -0.8802 -1.9849  0.7668
  409MPD2     N 6112   1.462   2.228  16.937  0.4080 -0.0373  0.5143
  409MPD2    H5 6113   1.484   2.284  16.855  0.2325 -0.0051  0.4885
  409MPD2    N1 6114   1.224   1.841  17.106 -0.0827  0.1869 -0.2516
  409MPD2    H7 6115   1.278   1.871  17.186  0.4063 -1.9286  0.2104
  410TMC3    C1 6116   1.627   2.353  17.054 -0.1230  0.9191  0.1867
  410TMC3    C2 6117   1.716   2.354  17.156  0.2621 -0.4315  0.1261
  410TMC3    C3 6118   1.804   2.460  17.165 -0.3750  0.5476 -0.0558
  410TMC3    C4 6119   1.618   2.454  16.968 -0.0010  0.0915  0.1296
  410TMC3    C5 6120   1.706   2.553  16.972 -0.0566 -0.4374 -1.4315
  410TMC3    C6 6121   1.797   2.559  17.070 -0.4553  0.2744 -0.7178
  410TMC3     C 6122   1.525   2.255  17.060 -0.6889 -1.3064 -0.4513
  410TMC3     O 6123   1.505   2.210  17.172 -0.5306  0.1321  0.0196
  410TMC3     H 6124   1.716   2.282  17.237 -1.0563 -0.6948 -0.1072
  410TMC3    H1 6125   1.539   2.460  16.894 -0.5577  2.2892  0.9058
  410TMC3    H2 6126   1.863   2.645  17.075  0.7918 -0.7739  0.8261
  410TMC3    C7 6127   1.703   2.655  16.865 -0.2053 -0.4284 -0.0883
  410TMC3    C8 6128   1.905   2.463  17.274 -0.2933  0.1170 -0.6097
  410TMC3    O1 6129   1.764   2.763  16.883  0.4184  0.1356 -0.7217
  410TMC3    O2 6130   1.949   2.573  17.320 -0.3924  0.0835 -0.2569
  411MPD2     C 6131   1.429   2.814  14.870  0.6037 -0.4991  0.1316
  411MPD2    C1 6132   1.309   2.808  14.938 -0.0743  0.1243  0.2523
  411MPD2    C2 6133   1.229   2.698  14.915 -0.3905 -0.5506  0.2453
  411MPD2    C3 6134   1.266   2.590  14.838 -0.1568  1.1180  0.2162
  411MPD2    C4 6135   1.385   2.597  14.775 -0.1172  1.1507 -0.0861
  411MPD2    C5 6136   1.466   2.705  14.790 -0.6700 -0.3339 -0.7770
  411MPD2     H 6137   1.126   2.707  14.947 -0.1245  0.0708  0.9316
  411MPD2    H1 6138   1.410   2.526  14.697 -2.6240  1.3559 -1.0889
  411MPD2    H2 6139   1.489   2.904  14.863 -0.5745  0.4005  1.8584
  411MPD2    H3 6140   1.559   2.709  14.733 -0.6209  0.0749 -0.6702
  411MPD2     N 6141   1.194   2.468  14.819 -0.5065 -0.0556 -0.3994
  411MPD2    H5 6142   1.239   2.403  14.755 -2.9636 -0.0563 -2.1145
  411MPD2    N1 6143   1.274   2.921  15.016 -0.4222 -0.7940  0.2678
  411MPD2    H7 6144   1.310   3.014  14.999  0.2242 -1.2474 -0.8727
  412TMC3    C1 6145   0.996   2.332  14.794 -0.3011  0.4784  0.3414
  412TMC3    C2 6146   0.859   2.337  14.756  0.0749  0.1476 -0.9135
  412TMC3    C3 6147   0.807   2.252  14.662 -0.5932  0.2469  0.6650
  412TMC3    C4 6148   1.078   2.237  14.736  0.7176  0.1733 -0.1328
  412TMC3    C5 6149   1.017   2.151  14.650  0.0101  0.9216 -0.8090
  412TMC3    C6 6150   0.882   2.153  14.611 -0.1655  0.1905  0.1688
  412TMC3     C 6151   1.057   2.453  14.840  0.5148 -0.1778 -1.4451
  412TMC3     O 6152   0.982   2.531  14.893  0.1267 -0.4090 -1.1036
  412TMC3     H 6153   0.803   2.424  14.788  0.2921 -0.5734  1.4635
  412TMC3    H1 6154   1.179   2.214  14.769  0.8267  1.3219  0.3312
  412TMC3    H2 6155   0.853   2.059  14.566 -0.9163  0.0265  0.9955
  412TMC3    C7 6156   1.105   2.046  14.597 -0.2324  0.4194 -0.2481
  412TMC3    C8 6157   0.723   2.316  14.561  0.1977 -0.6437  0.7047
  412TMC3    O1 6158   1.174   1.978  14.675 -0.5758  0.2914  0.1076
  412TMC3    O2 6159   0.688   2.435  14.577 -0.6966 -0.1103 -0.3677
  413MPD2     C 6160   2.675   1.038  15.558  0.0213 -0.2033 -0.8276
  413MPD2    C1 6161   2.608   0.933  15.503  0.3087 -0.5496  0.3965
  413MPD2    C2 6162   2.682   0.824  15.457 -0.2302  0.4402  0.1146
  413MPD2    C3 6163   2.820   0.826  15.465 -1.0224  0.1070  0.3491
  413MPD2    C4 6164   2.890   0.941  15.495 -0.4616  0.3228  0.9924
  413MPD2    C5 6165   2.815   1.043  15.548  0.0168 -0.0366  0.2378
  413MPD2     H 6166   2.647   0.733  15.410  1.0043 -0.3939  0.8045
  413MPD2    H1 6167   2.997   0.944  15.479 -0.8725 -0.2332 -1.7704
  413MPD2    H2 6168   2.618   1.119  15.602 -0.3446 -1.5445  1.1532
  413MPD2    H3 6169   2.856   1.139  15.577  0.2809 -0.3367  0.8504
  413MPD2     N 6170   2.892   0.709  15.427 -0.0857 -0.3964  0.1415
  413MPD2    H5 6171   2.835   0.635  15.387  0.1161  0.1599 -1.1505
  413MPD2    N1 6172   2.464   0.940  15.502  0.4125  0.0330  0.2263
  413MPD2    H7 6173   2.424   1.028  15.532 -0.6596 -0.1724 -0.6033
  414TMC3    C1 6174   3.063   0.550  15.429 -0.0463 -0.5553  0.2290
  414TMC3    C2 6175   3.148   0.491  15.520 -0.2144 -0.6684 -0.5760
  414TMC3    C3 6176   3.143   0.355  15.517  0.3308  0.6036  0.6944
  414TMC3    C4 6177   3.015   0.483  15.319  0.6921 -0.1439  0.4297
  414TMC3    C5 6178   3.035   0.347  15.314 -0.3209  0.5806  0.7816
  414TMC3    C6 6179   3.083   0.278  15.422 -0.0567  0.6162  0.1835
  414TMC3     C 6180   3.017   0.680  15.469 -0.0139 -0.5062  0.2038
  414TMC3     O 6181   3.086   0.745  15.549 -0.2174 -0.3191 -0.1095
  414TMC3     H 6182   3.186   0.544  15.606 -4.4365  0.7853  0.4085
  414TMC3    H1 6183   2.972   0.540  15.237  0.3336  2.1809  2.2541
  414TMC3    H2 6184   3.086   0.170  15.424  1.8342  0.6584 -0.4620
  414TMC3    C7 6185   2.975   0.277  15.192 -0.3560  0.1634 -0.2049
  414TMC3    C8 6186   3.250   0.282  15.585  0.3657  0.4484  0.7503
  414TMC3    O1 6187   2.881   0.343  15.147  0.3605 -0.5760 -0.1809
  414TMC3    O2 6188   3.216   0.165  15.596 -0.0850  0.1501  0.4073
  415TMC3    C1 6189   3.859   3.203  10.254  0.0721 -0.5336  0.2073
  415TMC3    C2 6190   3.990   3.204  10.223  0.1656  0.6472  0.1786
  415TMC3    C3 6191   4.034   3.098  10.140  0.3139 -0.6964  0.0821
  415TMC3    C4 6192   3.758   3.115  10.200 -0.1317 -0.3397  0.4946
  415TMC3    C5 6193   3.813   3.014  10.126  0.2217  0.2885 -0.2583
  415TMC3    C6 6194   3.947   3.000  10.098  0.1976  0.2816 -1.1285
  415TMC3     C 6195   3.795   3.304  10.347 -0.0065  0.5983 -0.3541
  415TMC3     O 6196   3.686   3.343  10.310  0.0892  0.5747 -0.0692
  415TMC3     H 6197   4.054   3.273  10.277 -0.0991  1.6291 -0.7669
  415TMC3    H1 6198   3.657   3.124  10.238  0.3175 -0.1753  1.6402
  415TMC3    H2 6199   3.982   2.926  10.027 -0.0092 -0.9758  0.0743
  415TMC3    C7 6200   3.742   2.885  10.112 -0.1012 -0.2559 -0.3909
  415TMC3    C8 6201   4.171   3.067  10.141 -0.0484 -0.3815  0.1758
  415TMC3    O1 6202   3.800   2.803  10.041 -0.0732 -0.4434 -0.6793
  415TMC3    O2 6203   4.194   2.948  10.126  0.3520 -0.4702  0.1018
  416MPD2     C 6204   0.433   2.320  11.887  0.1761 -0.6536 -0.6166
  416MPD2    C1 6205   0.346   2.345  11.778  0.2312  0.8368 -0.4214
  416MPD2    C2 6206   0.360   2.271  11.662  0.5921 -1.2144  0.5782
  416MPD2    C3 6207   0.441   2.156  11.654 -0.5968 -0.1858  0.1523
  416MPD2    C4 6208   0.494   2.118  11.776 -0.0122 -0.9258  0.2803
  416MPD2    C5 6209   0.498   2.201  11.888  0.4749 -0.3285  0.9313
  416MPD2     H 6210   0.302   2.296  11.574  0.0033 -1.8029  0.7965
  416MPD2    H1 6211   0.566   2.036  11.777 -0.0570 -0.9719 -0.2919
  416MPD2    H2 6212   0.445   2.363  11.985 -1.5941 -0.6402 -0.4000
  416MPD2    H3 6213   0.558   2.171  11.974  0.1474 -0.6769  1.0404
  416MPD2     N 6214   0.444   2.069  11.543  0.2011  0.7611  0.0579
  416MPD2    H5 6215   0.488   1.979  11.554 -0.2509  0.4559 -0.6492
  416MPD2    N1 6216   0.240   2.438  11.800  0.5658  0.7111  0.7026
  416MPD2    H7 6217   0.227   2.479  11.892 -0.8642 -2.9100  2.1371
  417TMC3    C1 6218   0.022   2.531  11.773  0.1832 -0.2318  0.1719
  417TMC3    C2 6219   4.726   2.519  11.911  1.0461  0.0798 -0.1508
  417TMC3    C3 6220   4.618   2.584  11.963  0.2798 -0.4652  0.3147
  417TMC3    C4 6221   4.666   2.606  11.692 -0.0825 -0.1360  0.5337
  417TMC3    C5 6222   4.569   2.685  11.756  0.4937  0.3334  0.1873
  417TMC3    C6 6223   4.549   2.679  11.887  0.5529 -0.2392 -0.0422
  417TMC3     C 6224   0.132   2.458  11.711 -0.6108  1.1625 -0.2927
  417TMC3     O 6225   0.123   2.453  11.586 -0.2715  0.1295 -0.4582
  417TMC3     H 6226   0.045   2.450  11.982 -0.2229 -0.8835 -0.2756
  417TMC3    H1 6227   4.693   2.617  11.588 -1.2316  2.2615  0.4871
  417TMC3    H2 6228   4.483   2.754  11.930 -0.6343 -1.8922  1.0162
  417TMC3    C7 6229   4.516   2.800  11.687 -0.6217 -0.4067 -0.4334
  417TMC3    C8 6230   4.621   2.625  12.103  0.4322 -0.7418 -0.1308
  417TMC3    O1 6231   4.598   2.855  11.615  0.3787  0.3202 -0.2434
  417TMC3    O2 6232   4.583   2.557  12.198 -0.0279 -0.2037 -0.0183
  418TMC3    C1 6233   3.911   3.786   0.635  0.0044 -0.0969 -0.6629
  418TMC3    C2 6234   3.792   3.808   0.569 -0.0330 -0.0094  0.6329
  418TMC3    C3 6235   3.691   3.726   0.593  0.1480  0.0149  0.2344
  418TMC3    C4 6236   3.929   3.694   0.735  0.1110 -0.4886  0.5853
  418TMC3    C5 6237   3.816   3.623   0.765  0.1248 -0.5721 -0.8550
  418TMC3    C6 6238   3.703   3.630   0.685  0.0938 -0.1084 -0.6189
  418TMC3     C 6239   4.023   3.802   0.548 -0.1040  0.1749 -0.0313
  418TMC3     O 6240   4.019   3.896   0.470 -0.1981 -0.6089  0.1934
  418TMC3     H 6241   3.795   3.873   0.483 -2.5139  0.3243  0.8114
  418TMC3    H1 6242   4.022   3.693   0.790  0.7793  4.2920 -0.4449
  418TMC3    H2 6243   3.614   3.573   0.708 -0.3721  0.9388  0.1687
  418TMC3    C7 6244   3.815   3.518   0.861  0.2099  0.6831 -0.5721
  418TMC3    C8 6245   3.599   3.720   0.484  0.8597 -0.6798  0.8022
  418TMC3    O1 6246   3.726   3.431   0.849 -0.2218  0.4091  0.1295
  418TMC3    O2 6247   3.580   3.813   0.404  0.3051 -0.2060  0.3339
  419MPD2     C 6248   2.448   2.181  13.114 -0.3804 -0.0612  0.6605
  419MPD2    C1 6249   2.440   2.316  13.084 -0.0191  0.5412  0.7071
  419MPD2    C2 6250   2.538   2.397  13.137 -0.2140 -0.2640 -0.2772
  419MPD2    C3 6251   2.623   2.356  13.235  0.6701  0.8306 -1.2470
  419MPD2    C4 6252   2.638   2.223  13.258  0.1198 -0.4181 -0.2310
  419MPD2    C5 6253   2.555   2.137  13.193  0.2186 -0.0707  0.3592
  419MPD2     H 6254   2.537   2.502  13.112 -0.7170  0.0207  0.9075
  419MPD2    H1 6255   2.726   2.189  13.312 -0.5007 -1.3204  0.1959
  419MPD2    H2 6256   2.388   2.105  13.064 -2.2345  1.2423  0.9015
  419MPD2    H3 6257   2.575   2.032  13.208 -0.5101 -0.3776 -0.8107
  419MPD2     N 6258   2.703   2.452  13.300  0.0372 -0.6597  0.5369
  419MPD2    H5 6259   2.678   2.545  13.269  3.2960  0.2264  0.5088
  419MPD2    N1 6260   2.344   2.376  12.989  0.0427  0.2050  0.0956
  419MPD2    H7 6261   2.358   2.474  12.969  0.2111 -0.0613 -1.0829
  420TMC3    C1 6262   2.853   2.561  13.446 -0.4857 -0.3969  0.3731
  420TMC3    C2 6263   2.836   2.661  13.356 -0.1197 -0.5998  0.5364
  420TMC3    C3 6264   2.789   2.780  13.406 -0.7908 -0.0334 -0.7898
  420TMC3    C4 6265   2.827   2.575  13.578 -0.0357 -0.4604  0.0096
  420TMC3    C5 6266   2.786   2.694  13.619  0.5254 -0.2641  0.2516
  420TMC3    C6 6267   2.773   2.799  13.540 -0.2871 -1.4161  0.4988
  420TMC3     C 6268   2.798   2.434  13.397 -0.1648 -0.0316 -0.3027
  420TMC3     O 6269   2.857   2.332  13.424  0.1365  0.3813 -0.0919
  420TMC3     H 6270   2.847   2.641  13.250  1.0073  0.8173  0.3784
  420TMC3    H1 6271   2.823   2.493  13.649 -2.2822  1.3780  2.0134
  420TMC3    H2 6272   2.717   2.887  13.570  3.0545  1.9382 -2.9925
  420TMC3    C7 6273   2.690   2.679  13.728  0.1420 -0.2324  0.2215
  420TMC3    C8 6274   2.679   2.835  13.335  0.5531 -0.1934 -0.1287
  420TMC3    O1 6275   2.720   2.598  13.817 -0.0390 -0.1834 -0.4462
  420TMC3    O2 6276   2.569   2.845  13.385 -0.2105  0.2996 -0.0665
  421TMC3    C1 6277   4.010   3.630  13.798  0.2640 -0.5078  0.5724
  421TMC3    C2 6278   3.929   3.726  13.843 -0.2181 -0.9844  0.5481
  421TMC3    C3 6279   3.909   3.741  13.980  0.5453 -0.6938  0.3709
  421TMC3    C4 6280   4.076   3.548  13.881  0.3760 -0.2727 -0.9460
  421TMC3    C5 6281   4.050   3.552  14.017  0.6621 -0.0329 -0.1114
  421TMC3    C6 6282   3.968   3.653  14.067 -0.5512 -0.3538 -0.0659
  421TMC3     C 6283   4.019   3.606  13.657  0.1875  0.0374  0.2629
  421TMC3     O 6284   4.132   3.603  13.615  0.6460 -0.0502  0.2590
  421TMC3     H 6285   3.887   3.794  13.770  3.0139  1.7937  1.2801
  421TMC3    H1 6286   4.144   3.477  13.833  0.2135 -0.4056 -0.9785
  421TMC3    H2 6287   3.989   3.674  14.171 -1.6020 -0.8854  0.2535
  421TMC3    C7 6288   4.152   3.507  14.103 -0.1102 -0.5742 -0.0590
  421TMC3    C8 6289   3.877   3.872  14.029 -0.1797  1.0295 -0.2501
  421TMC3    O1 6290   4.182   3.566  14.211 -0.0714 -0.0150  0.0285
  421TMC3    O2 6291   3.921   3.964  13.961 -0.2024 -0.8562 -0.2339
  422TMC3    C1 6292   1.636   0.648  12.894  0.2259  0.2160 -0.2374
  422TMC3    C2 6293   1.603   0.778  12.926  0.0667  0.0806 -0.0521
  422TMC3    C3 6294   1.491   0.811  12.992  0.0205 -0.5419  0.2428
  422TMC3    C4 6295   1.543   0.552  12.923  0.5256  0.0672  0.0597
  422TMC3    C5 6296   1.434   0.588  12.992  0.0687 -0.5552  0.6045
  422TMC3    C6 6297   1.399   0.717  13.023 -0.0283  0.2105  1.3833
  422TMC3     C 6298   1.756   0.618  12.817 -0.0280 -0.1689  0.7213
  422TMC3     O 6299   1.839   0.707  12.809 -0.5022  0.4198 -0.0695
  422TMC3     H 6300   1.680   0.851  12.904  2.7651 -2.5349  0.7732
  422TMC3    H1 6301   1.565   0.446  12.914  2.3261  0.6011 -1.8748
  422TMC3    H2 6302   1.310   0.733  13.083 -0.9980  1.4159 -0.3572
  422TMC3    C7 6303   1.344   0.480  13.024  0.0446  0.0556  0.6789
  422TMC3    C8 6304   1.447   0.946  12.996 -0.7033  0.0376  0.6958
  422TMC3    O1 6305   1.399   0.387  13.076  0.1112  0.4623  0.3484
  422TMC3    O2 6306   1.374   0.989  13.081  0.5996  0.2391  0.5746
  423MPD2     C 6307   2.823   1.068   0.971  0.0320  0.2545  0.4380
  423MPD2    C1 6308   2.820   0.934   0.961  0.2070  0.1613 -0.1575
  423MPD2    C2 6309   2.808   0.874   0.837  0.3913  0.5304 -0.4314
  423MPD2    C3 6310   2.787   0.952   0.723  0.6095  0.5156 -0.6854
  423MPD2    C4 6311   2.778   1.087   0.738  0.1676 -0.5724  0.5054
  423MPD2    C5 6312   2.790   1.146   0.861  0.9217  0.3611  0.0503
  423MPD2     H 6313   2.805   0.766   0.830  0.5307  0.3452  2.2824
  423MPD2    H1 6314   2.752   1.143   0.649  2.2408 -0.6792 -0.1789
  423MPD2    H2 6315   2.840   1.112   1.069  0.7091 -0.3914  0.6046
  423MPD2    H3 6316   2.770   1.252   0.872  1.6015  0.4769  0.2023
  423MPD2     N 6317   2.797   0.904   0.586 -0.3664 -0.5816 -0.1263
  423MPD2    H5 6318   2.789   0.979   0.518  1.4021  1.0433  1.4967
  423MPD2    N1 6319   2.846   0.850   1.075  0.0684  0.5187 -0.4414
  423MPD2    H7 6320   2.825   0.752   1.059  0.0008  0.1866  1.7316
  424TMC3    C1 6321   2.874   0.800   1.302 -0.8105  0.6088 -0.1323
  424TMC3    C2 6322   2.993   0.763   1.362  0.1717 -0.2416 -0.1869
  424TMC3    C3 6323   2.979   0.666   1.463 -0.0951 -0.2480  0.6674
  424TMC3    C4 6324   2.747   0.744   1.319 -0.3236 -0.5905  0.6014
  424TMC3    C5 6325   2.744   0.662   1.424 -0.1615 -0.1359 -0.4873
  424TMC3    C6 6326   2.851   0.615   1.489  0.3369  0.0256  0.2609
  424TMC3     C 6327   2.900   0.892   1.190  0.2823 -0.0665 -0.4601
  424TMC3     O 6328   2.982   0.985   1.207 -0.5201  0.1492  0.0730
  424TMC3     H 6329   3.081   0.823   1.343 -0.1921  0.6635  1.0196
  424TMC3    H1 6330   2.653   0.769   1.270 -1.1803 -3.2051  0.9177
  424TMC3    H2 6331   2.845   0.537   1.564 -1.1956  0.6999  0.8317
  424TMC3    C7 6332   2.617   0.616   1.469  0.5102  0.3824  0.0832
  424TMC3    C8 6333   3.092   0.622   1.539  0.5271 -0.4161 -0.6951
  424TMC3    O1 6334   2.619   0.503   1.518 -0.2084  0.0938 -0.1140
  424TMC3    O2 6335   3.060   0.577   1.652 -0.0841  0.9559 -0.5572
  425MPD2     C 6336   2.197   0.619  17.132  0.0235 -0.4756  0.6118
  425MPD2    C1 6337   2.102   0.522  17.098 -0.5002 -0.6300  0.1698
  425MPD2    C2 6338   1.972   0.548  17.129  0.2671  0.2445 -0.0585
  425MPD2    C3 6339   1.937   0.658  17.205 -0.1485  0.4665  0.2555
  425MPD2    C4 6340   2.028   0.751  17.242 -0.4310  0.3412 -0.2417
  425MPD2    C5 6341   2.162   0.731  17.206 -0.0783 -0.2400 -0.1560
  425MPD2     H 6342   1.894   0.473  17.120  1.2617 -0.7150 -0.6913
  425MPD2    H1 6343   2.003   0.837  17.303  2.0353  1.6695 -1.0961
  425MPD2    H2 6344   2.303   0.601  17.121  0.0413  1.3745 -2.4375
  425MPD2    H3 6345   2.239   0.798  17.243  0.3423 -1.2180  0.7294
  425MPD2     N 6346   1.806   0.657  17.250  0.4323 -0.1583  0.3008
  425MPD2    H5 6347   1.743   0.584  17.217  1.3578 -1.0924  0.5865
  425MPD2    N1 6348   2.155   0.409  17.029 -0.0389 -0.0316 -0.1706
  425MPD2    H7 6349   2.254   0.390  17.024  0.8211  4.0118  1.3133
  426TMC3    C1 6350   2.131   0.186  16.964  0.6334  0.5799  0.6339
  426TMC3    C2 6351   2.069   0.089  16.891  0.4890  0.5450  0.1333
  426TMC3    C3 6352   2.081   4.684  16.931 -0.3476  0.3498 -0.8394
  426TMC3    C4 6353   2.200   0.149  17.080  0.5541 -0.4035  0.2549
  426TMC3    C5 6354   2.206   0.018  17.122  0.6123 -0.1203  0.2204
  426TMC3    C6 6355   2.147   4.647  17.046  0.4690  0.7612  0.1050
  426TMC3     C 6356   2.079   0.317  16.966  0.8140  0.3528  0.2343
  426TMC3     O 6357   1.960   0.327  16.939  0.3485 -0.0381 -0.2283
  426TMC3     H 6358   2.033   0.119  16.793  2.0258  0.4093 -0.4839
  426TMC3    H1 6359   2.244   0.226  17.141  0.2995  0.0409 -0.1249
  426TMC3    H2 6360   2.149   4.544  17.079  0.5992  0.8022  0.2257
  426TMC3    C7 6361   2.246   4.722  17.261  0.1496  1.2349 -0.4722
  426TMC3    C8 6362   2.059   4.571  16.839  0.1965  0.1001 -0.2586
  426TMC3    O1 6363   2.253   0.096  17.326 -0.0284 -0.7677  0.0468
  426TMC3    O2 6364   2.111   4.465  16.871  0.1245  0.0138  0.1408
  427MPD2     C 6365   0.507   2.684  15.068  0.0582  0.5937 -0.4415
  427MPD2    C1 6366   0.449   2.594  15.153  0.4469  0.0979  0.4130
  427MPD2    C2 6367   0.313   2.594  15.183  0.1872  0.3153  0.0274
  427MPD2    C3 6368   0.245   2.704  15.130  0.4928 -0.1499 -0.3604
  427MPD2    C4 6369   0.308   2.795  15.044  0.2661  0.0629 -0.4858
  427MPD2    C5 6370   0.439   2.790  15.017 -0.5156  0.1915  0.3921
  427MPD2     H 6371   0.271   2.506  15.230 -2.1537  0.8351 -1.0977
  427MPD2    H1 6372   0.261   2.882  15.001 -1.1042 -0.3880  0.0752
  427MPD2    H2 6373   0.611   2.667  15.043  0.3016  4.3930 -2.0552
  427MPD2    H3 6374   0.491   2.861  14.954 -0.1313 -0.1348  0.3437
  427MPD2     N 6375   0.100   2.713  15.138  0.1409 -0.5363  0.6070
  427MPD2    H5 6376   0.054   2.794  15.098 -3.6296 -3.1250 -0.2549
  427MPD2    N1 6377   0.534   2.489  15.200 -0.2771  0.0416 -0.1804
  427MPD2    H7 6378   0.627   2.485  15.159  0.4649 -1.0983  1.6453
  428TMC3    C1 6379   0.625   2.312  15.330  0.1755 -0.2530 -1.5265
  428TMC3    C2 6380   0.612   2.183  15.360  0.4315 -0.8465  0.2659
  428TMC3    C3 6381   0.726   2.128  15.416  0.4280  0.6144 -0.6168
  428TMC3    C4 6382   0.737   2.384  15.363 -0.3728 -0.4660 -0.0473
  428TMC3    C5 6383   0.837   2.326  15.430  0.0085 -0.2754  0.1660
  428TMC3    C6 6384   0.843   2.195  15.444 -0.5361  0.1885 -0.2943
  428TMC3     C 6385   0.505   2.386  15.283  0.0838  0.3580 -0.0085
  428TMC3     O 6386   0.395   2.342  15.319  0.0937  0.4233 -0.2516
  428TMC3     H 6387   0.520   2.129  15.344 -0.6697  0.5845  1.7771
  428TMC3    H1 6388   0.723   2.491  15.355 -1.5862 -0.6957 -1.2547
  428TMC3    H2 6389   0.928   2.142  15.486 -0.4426 -1.0080 -1.9846
  428TMC3    C7 6390   0.892   2.400  15.545 -0.6462 -0.7118  0.4020
  428TMC3    C8 6391   0.731   1.984  15.435 -0.2423  0.1293  0.0679
  428TMC3    O1 6392   0.902   2.336  15.645 -0.1543 -0.3395 -0.8245
  428TMC3    O2 6393   0.840   1.934  15.407  0.2807  0.2923 -0.7026
  429MPD2     C 6394   1.614   2.976   0.207 -0.0584 -0.7397  0.4524
  429MPD2    C1 6395   1.593   2.990   0.070  0.5428 -0.1968  0.2065
  429MPD2    C2 6396   1.680   3.069  17.697 -0.1675 -0.7337 -0.5550
  429MPD2    C3 6397   1.786   3.135   0.057  0.1410  0.1604 -0.3866
  429MPD2    C4 6398   1.804   3.120   0.192  0.3114  0.4854 -0.1763
  429MPD2    C5 6399   1.716   3.045   0.268 -0.3262  0.0171 -0.3354
  429MPD2     H 6400   1.665   3.079  17.590  1.0906 -1.5760 -0.8062
  429MPD2    H1 6401   1.885   3.167   0.246  0.5786  0.9872 -1.0284
  429MPD2    H2 6402   1.549   2.923   0.275  1.1658  0.6971  2.7335
  429MPD2    H3 6403   1.730   3.039   0.375  0.3307  3.8057 -0.2069
  429MPD2     N 6404   1.874   3.206  17.673  0.0978 -0.2075  0.1054
  429MPD2    H5 6405   1.855   3.191  17.575 -0.7688 -0.5274  0.3219
  429MPD2    N1 6406   1.491   2.921   0.004  0.0983  0.0451  0.7211
  429MPD2    H7 6407   1.474   2.946  17.611 -0.0111 -2.7012  0.0124
  430TMC3    C1 6408   2.073   3.260  17.585  0.1769  0.5786 -0.3403
  430TMC3    C2 6409   2.019   3.301  17.464 -0.1246  0.1212 -0.8172
  430TMC3    C3 6410   2.093   3.284  17.356 -0.4044 -0.3120 -0.0992
  430TMC3    C4 6411   2.198   3.203  17.595  0.5571 -0.3986 -0.6926
  430TMC3    C5 6412   2.268   3.186  17.481  0.3124  0.4481 -0.1493
  430TMC3    C6 6413   2.207   3.216  17.363 -0.4572  0.3369  0.4436
  430TMC3     C 6414   1.994   3.262   0.002  0.0145 -0.1948  0.3120
  430TMC3     O 6415   2.057   3.258   0.105  0.2040  0.1258  0.6409
  430TMC3     H 6416   1.921   3.347  17.470 -0.6538 -1.4568  2.7959
  430TMC3    H1 6417   2.227   3.172  17.695 -2.7053 -0.3869  0.2748
  430TMC3    H2 6418   2.262   3.212  17.270  0.0536  0.1746  0.7498
  430TMC3    C7 6419   2.343   3.068  17.480  0.1347  0.8292 -0.2288
  430TMC3    C8 6420   2.056   3.362  17.242 -0.2307  0.3923 -0.5412
  430TMC3    O1 6421   2.334   3.006  17.377  0.2395 -0.9867  0.2988
  430TMC3    O2 6422   2.095   3.315  17.137  0.0957  0.1177 -0.0165
  431MPD2     C 6423   2.061   3.144  12.446  0.7729 -0.1707 -0.2170
  431MPD2    C1 6424   2.169   3.098  12.516 -0.6959  0.3855  0.2137
  431MPD2    C2 6425   2.153   2.999  12.613 -0.0864 -0.3190 -0.4391
  431MPD2    C3 6426   2.020   2.948  12.632  0.3100 -0.4017  0.2783
  431MPD2    C4 6427   1.908   3.016  12.584 -0.3716 -0.3599 -0.0815
  431MPD2    C5 6428   1.931   3.108  12.479 -0.1354  0.3564  0.2111
  431MPD2     H 6429   2.239   2.956  12.662 -0.2648 -0.3969 -0.1949
  431MPD2    H1 6430   1.806   2.987  12.603 -1.5771  2.4660 -2.3923
  431MPD2    H2 6431   2.069   3.209  12.360  0.6734 -0.7017 -0.6265
  431MPD2    H3 6432   1.845   3.153  12.430  1.2895 -0.1406 -2.6981
  431MPD2     N 6433   1.994   2.840  12.716  0.8513 -0.6843  0.6600
  431MPD2    H5 6434   1.896   2.810  12.717  0.0617  1.9518  2.8082
  431MPD2    N1 6435   2.290   3.144  12.467 -0.0994  0.6580 -0.5265
  431MPD2    H7 6436   2.279   3.209  12.389  1.5140 -0.2963 -1.5430
  432TMC3    C1 6437   2.053   2.615  12.795 -0.9745 -0.0743 -0.3419
  432TMC3    C2 6438   1.974   2.560  12.694  0.7018 -0.3033  0.2012
  432TMC3    C3 6439   1.997   2.428  12.670  0.0193  0.3730  0.0340
  432TMC3    C4 6440   2.152   2.537  12.857 -0.8632  0.6828  0.0796
  432TMC3    C5 6441   2.159   2.402  12.837 -0.1190  0.2170 -0.1559
  432TMC3    C6 6442   2.073   2.347  12.747  0.2992 -0.1514  0.0961
  432TMC3     C 6443   2.085   2.760  12.784 -0.2628  0.3161  0.9523
  432TMC3     O 6444   2.197   2.791  12.817  0.2195  0.1499 -0.1547
  432TMC3     H 6445   1.907   2.624  12.639 -2.6800 -1.8685  2.4749
  432TMC3    H1 6446   2.196   2.577  12.948 -1.5569 -0.5631  0.9648
  432TMC3    H2 6447   2.073   2.240  12.731 -0.9275 -0.4036  1.8701
  432TMC3    C7 6448   2.240   2.309  12.928  0.2288  0.2742  0.1620
  432TMC3    C8 6449   2.009   2.407  12.526  0.7028  0.9618 -0.1193
  432TMC3    O1 6450   2.208   2.190  12.941 -0.5865  0.0700  0.3017
  432TMC3    O2 6451   2.001   2.506  12.458  0.7406  0.8498 -0.0149
  433MPD2     C 6452   1.509   1.724  10.970  0.1458 -0.1443  0.7713
  433MPD2    C1 6453   1.544   1.631  11.070 -0.6968  0.3189 -0.1554
  433MPD2    C2 6454   1.507   1.675  11.198 -0.5645  0.2895 -0.2947
  433MPD2    C3 6455   1.445   1.792  11.231 -0.0956 -0.7327 -0.0052
  433MPD2    C4 6456   1.421   1.883  11.126  0.1014  0.0589  0.0851
  433MPD2    C5 6457   1.447   1.844  10.999 -0.8413  1.1230 -0.8691
  433MPD2     H 6458   1.521   1.609  11.283  1.0384  0.3871 -0.4797
  433MPD2    H1 6459   1.377   1.981  11.142 -0.7995 -0.3169 -0.0698
  433MPD2    H2 6460   1.524   1.712  10.863 -1.5727 -2.2041  0.7625
  433MPD2    H3 6461   1.420   1.909  10.916  0.7305 -0.5030 -2.6382
  433MPD2     N 6462   1.415   1.818  11.365 -0.2874 -0.1341 -0.1551
  433MPD2    H5 6463   1.438   1.745  11.432  2.8727  1.2545  0.2702
  433MPD2    N1 6464   1.596   1.501  11.040 -0.1610  0.3867  0.4425
  433MPD2    H7 6465   1.588   1.472  10.943 -1.4218  0.5269  0.5013
  434TMC3    C1 6466   1.661   1.280  11.087  0.0565  0.7225  0.0840
  434TMC3    C2 6467   1.717   1.195  11.178 -0.3308  0.4827 -1.0262
  434TMC3    C3 6468   1.791   1.095  11.127  0.0092 -0.1362  0.7474
  434TMC3    C4 6469   1.676   1.253  10.948  0.0839 -0.0050 -0.0358
  434TMC3    C5 6470   1.737   1.140  10.909 -0.3986 -0.0541 -0.0477
  434TMC3    C6 6471   1.801   1.054  11.001  0.2795 -0.4486  0.4280
  434TMC3     C 6472   1.625   1.412  11.137 -0.0558  0.2430 -0.9807
  434TMC3     O 6473   1.661   1.431  11.254 -0.2471 -0.0372  0.5767
  434TMC3     H 6474   1.725   1.203  11.286 -0.9465  0.4591 -0.9829
  434TMC3    H1 6475   1.611   1.311  10.883  1.0181  0.7020 -0.3353
  434TMC3    H2 6476   1.866   0.978  10.959 -0.4538 -1.2974  0.8279
  434TMC3    C7 6477   1.717   1.090  10.777  0.4859  0.6487  1.1036
  434TMC3    C8 6478   1.888   1.044  11.221 -0.0819 -0.0848  0.0830
  434TMC3    O1 6479   1.730   1.179  10.695 -0.6431  0.2725 -0.0474
  434TMC3    O2 6480   1.854   1.026  11.339  0.1765 -0.1560 -0.2694
  435MPD2     C 6481   2.982   1.354  15.568  0.3686 -0.6487  0.4976
  435MPD2    C1 6482   2.963   1.381  15.700  0.3522 -0.5153  0.1415
  435MPD2    C2 6483   3.074   1.364  15.786 -1.0224 -0.1168 -0.5378
  435MPD2    C3 6484   3.193   1.316  15.737 -0.4307 -0.0258 -0.0804
  435MPD2    C4 6485   3.209   1.292  15.603  0.0733 -0.5281 -0.2128
  435MPD2    C5 6486   3.107   1.319  15.520  0.0406 -0.0136 -0.2778
  435MPD2     H 6487   3.067   1.388  15.891  0.6046  0.1064 -0.4764
  435MPD2    H1 6488   3.297   1.241  15.563 -0.1015 -0.5814 -0.5297
  435MPD2    H2 6489   2.900   1.379  15.501  1.5222  0.9944 -0.2956
  435MPD2    H3 6490   3.111   1.306  15.413  0.9180  0.6867 -0.3268
  435MPD2     N 6491   3.295   1.287  15.833  0.2592  0.3646  0.7121
  435MPD2    H5 6492   3.270   1.305  15.930 -0.8827  0.2013  0.4566
  435MPD2    N1 6493   2.838   1.423  15.748 -0.2895 -0.2591  0.0923
  435MPD2    H7 6494   2.837   1.449  15.846 -3.0092  2.0797 -0.5787
  436TMC3    C1 6495   2.509   1.453  15.989  0.4816 -0.2459  0.7215
  436TMC3    C2 6496   2.617   1.418  15.909  1.2789 -0.4026  0.1888
  436TMC3    C3 6497   2.601   1.440  15.773  0.0866 -0.7587 -0.7971
  436TMC3    C4 6498   2.399   1.516  15.946 -0.0467 -0.6995 -0.1523
  436TMC3    C5 6499   2.378   1.523  15.812 -0.0236  0.0556  0.0082
  436TMC3    C6 6500   2.481   1.492  15.722 -0.2011 -0.5325 -0.4553
  436TMC3     C 6501   2.546   1.457  16.128  0.3310 -0.3726 -0.0518
  436TMC3     O 6502   2.636   1.383  16.161  0.3484 -0.0634 -1.2433
  436TMC3     H 6503   2.702   1.366  15.951  1.5272 -0.0153  0.1651
  436TMC3    H1 6504   2.321   1.536  16.018  0.2070  0.3614 -0.1707
  436TMC3    H2 6505   2.464   1.520  15.619  0.9684  0.0872 -0.4718
  436TMC3    C7 6506   2.280   1.614  15.760 -0.2494 -0.4518 -0.2017
  436TMC3    C8 6507   2.714   1.404  15.688  0.3581  0.1340  0.4487
  436TMC3    O1 6508   2.303   1.659  15.650  0.3254  0.0665  0.5121
  436TMC3    O2 6509   2.680   1.379  15.575 -0.0376  0.5543 -0.5508
  437TMC3    C1 6510   1.830   3.686  12.847  0.2828 -0.4461  0.1120
  437TMC3    C2 6511   1.751   3.794  12.862 -0.2343  0.3257 -0.8035
  437TMC3    C3 6512   1.754   3.890  12.765  1.2814 -0.4774 -0.1104
  437TMC3    C4 6513   1.915   3.675  12.736 -0.2158 -0.1970  0.8160
  437TMC3    C5 6514   1.900   3.774  12.639  0.0204 -0.8435  0.3003
  437TMC3    C6 6515   1.820   3.884  12.646 -0.3300 -0.1115  0.6315
  437TMC3     C 6516   1.850   3.598  12.963  0.7909  0.0599  0.3944
  437TMC3     O 6517   1.757   3.595  13.047  0.9677 -0.3486 -0.1154
  437TMC3     H 6518   1.691   3.815  12.949 -0.9665 -1.9044 -0.7714
  437TMC3    H1 6519   1.979   3.588  12.725  2.0462  1.5284  0.3949
  437TMC3    H2 6520   1.820   3.960  12.568  0.7542 -0.4871  0.2779
  437TMC3    C7 6521   1.986   3.770  12.518 -0.6474 -0.2343  0.3023
  437TMC3    C8 6522   1.713   4.022  12.799 -0.5496  0.1144 -0.2310
  437TMC3    O1 6523   1.946   3.831  12.422 -0.5290  0.0345 -0.1143
  437TMC3    O2 6524   1.677   4.092  12.707 -0.1410  0.4595 -0.0351
  438MPD2     C 6525   4.110   4.240  16.950  0.1758 -0.4144 -0.0245
  438MPD2    C1 6526   4.218   4.184  17.022 -0.2260  0.3408 -0.2104
  438MPD2    C2 6527   4.202   4.145  17.154  0.5724 -0.2147  0.4606
  438MPD2    C3 6528   4.084   4.158  17.223  0.0344  0.6708 -0.7896
  438MPD2    C4 6529   3.980   4.217  17.147  0.4224 -0.4691  0.9160
  438MPD2    C5 6530   3.992   4.258  17.012 -0.4486 -0.8813  1.1641
  438MPD2     H 6531   4.284   4.094  17.203 -0.8987 -1.0342  2.0689
  438MPD2    H1 6532   3.881   4.226  17.190 -0.5566 -2.1287 -0.9820
  438MPD2    H2 6533   4.112   4.263  16.844  1.9897 -0.9176 -0.1029
  438MPD2    H3 6534   3.911   4.289  16.949 -0.3261 -2.5423  0.1955
  438MPD2     N 6535   4.056   4.109  17.356 -0.2638 -0.1524 -0.7032
  438MPD2    H5 6536   3.967   4.132  17.399  0.8806  0.6388  1.2475
  438MPD2    N1 6537   4.348   4.171  16.962  1.0398  0.3878 -0.6889
  438MPD2    H7 6538   4.408   4.107  17.014  2.4125  1.3842 -1.0382
  439TMC3    C1 6539   4.535   4.192  16.826  0.0073  0.4935 -0.0698
  439TMC3    C2 6540   4.576   4.136  16.710  0.2376 -0.1252  0.8165
  439TMC3    C3 6541   4.703   4.087  16.703  0.2128 -0.1078  0.4160
  439TMC3    C4 6542   4.618   4.214  16.931  0.6824 -0.5656 -0.2852
  439TMC3    C5 6543   0.015   4.170  16.920  0.6765 -0.5444  0.4168
  439TMC3    C6 6544   0.059   4.100  16.813  1.1031 -0.2737 -0.4793
  439TMC3     C 6545   4.390   4.217  16.839 -1.2548 -0.4378 -1.1369
  439TMC3     O 6546   4.332   4.258  16.743 -0.1492 -0.1932 -0.1507
  439TMC3     H 6547   4.507   4.115  16.629 -0.7764 -1.8220  2.1233
  439TMC3    H1 6548   4.578   4.265  17.018 -0.1154 -0.8446 -0.4924
  439TMC3    H2 6549   0.166   4.088  16.801  1.4496  1.6536  0.6874
  439TMC3    C7 6550   0.105   4.182  17.031 -0.3890  0.6307 -0.1470
  439TMC3    C8 6551   0.036   4.009  16.597 -0.0193  1.1370  0.1500
  439TMC3    O1 6552   0.077   4.280  17.105 -0.5719 -0.2132 -0.3096
  439TMC3    O2 6553   0.085   3.910  16.638 -0.1439 -0.6395 -0.0111
  440MPD2     C 6554   2.915   4.332  15.249 -0.0044  0.2872  0.4020
  440MPD2    C1 6555   2.971   4.437  15.320  1.1123  0.5478  0.4492
  440MPD2    C2 6556   3.102   4.424  15.374  0.3097  0.4086  0.1387
  440MPD2    C3 6557   3.172   4.302  15.379  0.2856 -0.8001  0.3004
  440MPD2    C4 6558   3.105   4.196  15.316  0.0756 -0.5519 -0.2594
  440MPD2    C5 6559   2.984   4.211  15.254  0.6793  0.0247  0.6122
  440MPD2     H 6560   3.147   4.515  15.411  0.8538 -0.0669  0.6401
  440MPD2    H1 6561   3.155   4.101  15.303 -0.2053 -0.7904  0.4434
  440MPD2    H2 6562   2.813   4.321  15.214 -0.5216 -0.5316  2.1865
  440MPD2    H3 6563   2.950   4.128  15.193  0.9155 -0.4534  1.1283
  440MPD2     N 6564   3.304   4.292  15.436  0.3335  0.5529  0.2360
  440MPD2    H5 6565   3.360   4.210  15.416  0.1036  0.5187 -0.2853
  440MPD2    N1 6566   2.887   4.546  15.343 -1.2586 -0.3901  0.2130
  440MPD2    H7 6567   2.804   4.552  15.284 -1.4550 -2.8712  0.2441
  441TMC3    C1 6568   3.518   4.376  15.506 -0.1798 -0.5953 -0.1949
  441TMC3    C2 6569   3.590   4.495  15.496  0.4153  0.2639  0.5841
  441TMC3    C3 6570   3.715   4.495  15.549 -0.8523  0.2975  0.0939
  441TMC3    C4 6571   3.570   4.265  15.564  0.1179  0.6307  0.0573
  441TMC3    C5 6572   3.703   4.264  15.593  0.7995 -0.1493 -0.0865
  441TMC3    C6 6573   3.772   4.382  15.596 -0.9139 -0.6475  0.1460
  441TMC3     C 6574   3.377   4.395  15.492  0.2521  0.1282  0.0086
  441TMC3     O 6575   3.339   4.503  15.523 -0.2160  0.2873  0.2380
  441TMC3     H 6576   3.544   4.578  15.445  1.7963 -0.0133 -1.1259
  441TMC3    H1 6577   3.498   4.188  15.591  1.4885 -1.3916 -2.0851
  441TMC3    H2 6578   3.865   4.401  15.648  0.3841  0.1824 -2.4800
  441TMC3    C7 6579   3.767   4.149  15.644 -1.0146  0.2282 -0.4282
  441TMC3    C8 6580   3.748   4.620  15.626 -0.2055  0.2004 -0.3931
  441TMC3    O1 6581   3.886   4.160  15.666  0.0131 -0.2628  0.1457
  441TMC3    O2 6582   3.866   4.641  15.659  0.0909 -0.2953  0.2005
  442MPD2     C 6583   1.748   0.217  17.124 -0.5855  0.3664  0.9263
  442MPD2    C1 6584   1.675   0.192  17.003 -0.9538  0.0584 -0.0279
  442MPD2    C2 6585   1.676   0.074  16.937  0.6497 -0.4766 -0.4819
  442MPD2    C3 6586   1.723   4.690  17.008  0.6232  0.8350 -0.3457
  442MPD2    C4 6587   1.794   4.710  17.127  0.0268  0.0437  0.1594
  442MPD2    C5 6588   1.805   0.109  17.182 -0.0108 -0.2367 -0.3480
  442MPD2     H 6589   1.606   0.064  16.855  0.1472 -0.5536 -0.0420
  442MPD2    H1 6590   1.850   4.631  17.175  0.3850 -1.6002 -3.0203
  442MPD2    H2 6591   1.758   0.314  17.171  0.6622 -0.2017  1.8345
  442MPD2    H3 6592   1.845   0.128  17.281  1.5458 -0.2405 -0.9890
  442MPD2     N 6593   1.720   4.556  16.951 -0.1665 -0.8615  0.3055
  442MPD2    H5 6594   1.769   4.479  16.996  2.0431 -0.1053 -0.7970
  442MPD2    N1 6595   1.615   0.296  16.932 -0.7816 -0.8487 -0.3189
  442MPD2    H7 6596   1.568   0.263  16.848 -0.1017 -1.0918 -0.6026
  443TMC3    C1 6597   1.512   0.501  16.879  0.1043  0.0074  0.1822
  443TMC3    C2 6598   1.486   0.440  16.759 -0.2003  0.2252 -0.2099
  443TMC3    C3 6599   1.383   0.501  16.685 -0.8139  0.4845 -0.6353
  443TMC3    C4 6600   1.428   0.595  16.928  0.1362 -0.3719 -0.1248
  443TMC3    C5 6601   1.314   0.623  16.866  0.0010  0.5709 -0.0548
  443TMC3    C6 6602   1.291   0.586  16.736 -0.3816 -0.2224 -0.4179
  443TMC3     C 6603   1.603   0.431  16.974  0.6349 -0.2891  0.2023
  443TMC3     O 6604   1.641   0.481  17.081 -0.0927 -0.3903 -0.2988
  443TMC3     H 6605   1.554   0.380  16.699  2.1212  3.8838 -1.2163
  443TMC3    H1 6606   1.441   0.644  17.024 -1.5623 -1.9620  0.9174
  443TMC3    H2 6607   1.206   0.632  16.686 -0.5996  0.8398  0.9356
  443TMC3    C7 6608   1.208   0.606  16.955 -0.3989  0.2013 -0.1277
  443TMC3    C8 6609   1.347   0.425  16.570 -0.2417 -0.5209 -0.0441
  443TMC3    O1 6610   1.236   0.569  17.065 -0.5682  0.3369 -0.5769
  443TMC3    O2 6611   1.381   0.305  16.576 -0.0794  0.7108  0.1064
  444MPD2     C 6612   2.067   4.164  17.335  0.6742  0.0273 -0.7170
  444MPD2    C1 6613   1.964   4.114  17.262  0.0238 -0.0576 -0.4860
  444MPD2    C2 6614   1.985   3.993  17.190  0.1089  0.1197 -0.4628
  444MPD2    C3 6615   2.112   3.939  17.187  0.4995  0.3567 -0.0638
  444MPD2    C4 6616   2.217   3.989  17.260  0.3954  0.0576 -0.2427
  444MPD2    C5 6617   2.190   4.102  17.335 -0.6309  0.2139 -0.4993
  444MPD2     H 6618   1.906   3.933  17.145 -1.3103 -0.5155  2.8769
  444MPD2    H1 6619   2.318   3.951  17.269  1.4308  1.9218 -3.8458
  444MPD2    H2 6620   2.044   4.248  17.401  2.0946 -0.1950  0.0551
  444MPD2    H3 6621   2.265   4.147  17.398  1.0008 -0.6288 -1.8358
  444MPD2     N 6622   2.121   3.827  17.098 -0.0126 -0.7504 -0.1331
  444MPD2    H5 6623   2.045   3.804  17.035 -0.9821  2.6051 -0.1915
  444MPD2    N1 6624   1.828   4.151  17.276  0.0955 -0.4212 -0.6339
  444MPD2    H7 6625   1.753   4.099  17.231 -1.2208  0.7539  0.1932
  445TMC3    C1 6626   2.228   3.646  16.984  0.0908  0.7600  0.4155
  445TMC3    C2 6627   2.119   3.638  16.903  0.4825 -0.3068  0.6513
  445TMC3    C3 6628   2.141   3.573  16.780  0.1357 -0.8090 -0.4833
  445TMC3    C4 6629   2.348   3.581  16.957 -0.0881  1.0257 -0.0431
  445TMC3    C5 6630   2.362   3.513  16.836  0.6487 -0.2292  0.5001
  445TMC3    C6 6631   2.256   3.508  16.751  0.0289  0.3156 -0.1011
  445TMC3     C 6632   2.232   3.747  17.088 -1.0780  0.0130  0.3091
  445TMC3     O 6633   2.333   3.753  17.155  0.0394 -0.0839  0.2538
  445TMC3     H 6634   2.020   3.668  16.936  0.9471  2.1956 -0.2817
  445TMC3    H1 6635   2.441   3.593  17.012 -0.7748  0.3553  1.2608
  445TMC3    H2 6636   2.267   3.470  16.651 -0.8219 -1.2759  0.4191
  445TMC3    C7 6637   2.490   3.504  16.766  0.2804  0.4185 -0.0383
  445TMC3    C8 6638   2.056   3.632  16.675  0.3197 -0.4738  0.4898
  445TMC3    O1 6639   2.490   3.528  16.647 -0.4227 -0.0123 -0.0191
  445TMC3    O2 6640   1.995   3.731  16.716  0.3442  0.1798 -0.0156
  446MPD2     C 6641   1.519   1.167  11.738 -0.8074  0.5668  0.7747
  446MPD2    C1 6642   1.502   1.186  11.597  0.2635  0.3126 -1.2537
  446MPD2    C2 6643   1.593   1.267  11.528  0.0779  0.4286  0.4402
  446MPD2    C3 6644   1.712   1.313  11.580  0.9052  0.0681 -0.5140
  446MPD2    C4 6645   1.734   1.289  11.714  0.2974  0.4064 -0.1101
  446MPD2    C5 6646   1.630   1.229  11.787 -0.3418  0.1317 -0.1018
  446MPD2     H 6647   1.576   1.299  11.426  3.0663 -2.0411 -0.8520
  446MPD2    H1 6648   1.829   1.312  11.761 -0.1104  1.6167  0.1313
  446MPD2    H2 6649   1.441   1.119  11.795 -0.1028  0.1992  1.4267
  446MPD2    H3 6650   1.663   1.240  11.890 -1.4060 -1.3965  0.3973
  446MPD2     N 6651   1.799   1.390  11.496  0.2182  0.6042 -0.0617
  446MPD2    H5 6652   1.776   1.390  11.397  0.9381  1.6290 -0.2252
  446MPD2    N1 6653   1.391   1.123  11.527  0.2935  0.5660  0.5346
  446MPD2    H7 6654   1.395   1.133  11.426 -1.4659 -0.2137  0.3886
  447TMC3    C1 6655   1.998   1.492  11.426 -0.0462  0.0986 -0.4573
  447TMC3    C2 6656   2.009   1.419  11.314 -0.0419  0.4285  0.2531
  447TMC3    C3 6657   2.119   1.421  11.235 -0.4004 -0.3030  0.1022
  447TMC3    C4 6658   2.123   1.551  11.469  0.2886 -0.7776  0.4633
  447TMC3    C5 6659   2.235   1.550  11.388  0.1284  0.5646 -0.0786
  447TMC3    C6 6660   2.239   1.483  11.267  0.7494  0.0313  0.3248
  447TMC3     C 6661   1.919   1.440  11.538 -0.1730 -0.1016 -0.0654
  447TMC3     O 6662   1.970   1.455  11.649  0.2543  0.0215  0.2886
  447TMC3     H 6663   1.921   1.372  11.270  1.8430 -2.2294 -0.6738
  447TMC3    H1 6664   2.124   1.622  11.551  2.9743 -0.7500  0.4108
  447TMC3    H2 6665   2.327   1.489  11.203 -0.8622 -1.5583 -2.0119
  447TMC3    C7 6666   2.358   1.548  11.458 -0.2695  1.2536  0.2745
  447TMC3    C8 6667   2.087   1.387  11.097 -0.5287 -0.5051 -0.3105
  447TMC3    O1 6668   2.454   1.515  11.392  0.4233  0.1185 -0.1031
  447TMC3    O2 6669   1.970   1.367  11.067 -0.1423  0.0087 -0.2230
  448TMC3    C1 6670   4.567   1.025  16.988 -0.0333 -0.1373 -0.5519
  448TMC3    C2 6671   4.470   0.935  16.971 -0.0523  0.0886 -0.0582
  448TMC3    C3 6672   4.422   0.867  17.083 -0.2350  0.1022 -0.0971
  448TMC3    C4 6673   4.633   1.041  17.104  0.3989 -0.4592  0.3666
  448TMC3    C5 6674   4.578   0.977  17.216 -0.4812 -0.6427 -0.4230
  448TMC3    C6 6675   4.474   0.889  17.206  0.0611  0.7432  0.5900
  448TMC3     C 6676   4.632   1.054  16.857  0.1509 -0.6483 -0.3430
  448TMC3     O 6677   4.565   1.099  16.766 -0.4472 -0.6476  0.2580
  448TMC3     H 6678   4.417   0.921  16.878  1.0396 -0.8345 -0.5502
  448TMC3    H1 6679   4.719   1.106  17.109 -1.0354  1.5831 -1.7070
  448TMC3    H2 6680   4.422   0.852  17.294 -1.5437 -0.0262 -0.6977
  448TMC3    C7 6681   4.662   0.961  17.334 -0.4865 -0.3563 -0.2361
  448TMC3    C8 6682   4.401   0.726  17.074 -0.1701  0.2426 -0.3448
  448TMC3    O1 6683   4.724   1.058  17.376 -0.0059 -0.3775  0.0267
  448TMC3    O2 6684   4.437   0.658  17.170  0.5039  0.1485 -0.3085
  449MPD2     C 6685   1.190   3.871  14.303 -0.1301  0.2524  0.1787
  449MPD2    C1 6686   1.171   4.007  14.293  0.4114  0.5231 -0.2116
  449MPD2    C2 6687   1.040   4.051  14.287 -0.1399 -0.9174 -0.2253
  449MPD2    C3 6688   0.932   3.960  14.308 -0.1835 -0.2543 -0.0617
  449MPD2    C4 6689   0.950   3.827  14.328 -0.1891 -0.6828 -0.1286
  449MPD2    C5 6690   1.084   3.788  14.319  0.1875 -0.4853 -0.3962
  449MPD2     H 6691   1.016   4.155  14.270  0.0361 -0.5429  1.7743
  449MPD2    H1 6692   0.867   3.759  14.342  0.8888 -1.7672  1.0898
  449MPD2    H2 6693   1.287   3.822  14.297 -1.5965 -2.4718 -1.2018
  449MPD2    H3 6694   1.111   3.684  14.328  1.6519 -0.0418  0.2904
  449MPD2     N 6695   0.806   4.023  14.296 -0.0349  0.2355  0.0205
  449MPD2    H5 6696   0.817   4.122  14.279 -0.1814  0.5618  1.7656
  449MPD2    N1 6697   1.275   4.102  14.300 -0.0596 -0.1989 -0.1636
  449MPD2    H7 6698   1.246   4.199  14.309 -0.6469 -0.4510  0.7096
  450TMC3    C1 6699   1.472   4.206  14.230 -0.2513  0.3236 -0.1392
  450TMC3    C2 6700   1.489   4.222  14.094  0.1062  0.3322 -0.5468
  450TMC3    C3 6701   1.476   4.351  14.043 -0.0157  0.5531 -0.5566
  450TMC3    C4 6702   1.430   4.313  14.302  0.3091 -0.5111  0.4060
  450TMC3    C5 6703   1.394   4.430  14.253  0.0917  0.2025 -0.1692
  450TMC3    C6 6704   1.426   4.453  14.124 -0.3977 -0.1687  0.4602
  450TMC3     C 6705   1.408   4.080  14.258  0.8949 -0.2092  0.1151
  450TMC3     O 6706   1.466   3.980  14.215 -0.3254  1.0120 -0.2296
  450TMC3     H 6707   1.527   4.139  14.037  1.3630  0.9417 -0.5874
  450TMC3    H1 6708   1.407   4.303  14.407  0.3210 -0.9333  0.3707
  450TMC3    H2 6709   1.397   4.546  14.078  1.7907  0.6089  0.6560
  450TMC3    C7 6710   1.255   4.463  14.294  0.6326  0.0923  0.0803
  450TMC3    C8 6711   1.440   4.375  13.904 -0.9746 -0.1477 -0.4152
  450TMC3    O1 6712   1.194   4.361  14.334 -0.4704  0.2884  0.2286
  450TMC3    O2 6713   1.407   4.484  13.862  0.3959 -0.0957  0.0485
  451MPD2     C 6714   1.912   3.162   1.024  0.0168 -0.0178  0.0941
  451MPD2    C1 6715   1.958   3.065   1.106  0.8243  0.5621  0.5742
  451MPD2    C2 6716   1.981   2.936   1.059 -1.0339  0.2182  0.0688
  451MPD2    C3 6717   1.988   2.911   0.923 -0.0689  0.9328 -0.4320
  451MPD2    C4 6718   1.954   3.020   0.840 -0.6156  0.6921 -0.2282
  451MPD2    C5 6719   1.905   3.139   0.889 -0.0964 -0.2085 -0.1636
  451MPD2     H 6720   1.999   2.860   1.134  0.9976  2.2972  1.6839
  451MPD2    H1 6721   1.941   3.012   0.732 -2.5144  1.9006 -0.0936
  451MPD2    H2 6722   1.896   3.266   1.052 -0.0989  0.0521 -0.2239
  451MPD2    H3 6723   1.881   3.223   0.824 -0.5934 -0.7899 -0.7225
  451MPD2     N 6724   2.009   2.786   0.864 -0.5125  0.5599 -0.4873
  451MPD2    H5 6725   2.018   2.787   0.763 -0.8912 -0.9315 -0.5467
  451MPD2    N1 6726   1.960   3.102   1.242 -0.4065 -0.0083 -0.1665
  451MPD2    H7 6727   1.917   3.192   1.260 -2.3598 -0.7537 -1.1118
  452TMC3    C1 6728   2.056   2.549   0.864 -0.1973 -0.5631  0.1377
  452TMC3    C2 6729   2.137   2.468   0.935 -0.0565  0.9552  0.0339
  452TMC3    C3 6730   2.146   2.337   0.894 -0.0414  0.5135  0.0373
  452TMC3    C4 6731   1.981   2.518   0.752 -0.2471  0.3380  0.0446
  452TMC3    C5 6732   1.988   2.383   0.726 -0.7190  0.7580 -0.3590
  452TMC3    C6 6733   2.073   2.287   0.788 -0.1075 -0.7243  0.1693
  452TMC3     C 6734   2.021   2.671   0.939  0.4113 -0.0642 -0.4981
  452TMC3     O 6735   2.003   2.657   1.061  0.2167  0.2848 -0.7758
  452TMC3     H 6736   2.184   2.506   1.025  0.1193  1.8987 -0.4572
  452TMC3    H1 6737   1.915   2.589   0.705 -0.5654 -0.9191 -1.4203
  452TMC3    H2 6738   2.079   2.184   0.756 -1.6158 -1.5691  2.6205
  452TMC3    C7 6739   2.004   2.357   0.586 -0.9530 -0.4334  0.4532
  452TMC3    C8 6740   2.227   2.259   0.985 -0.3903  0.0428  0.7987
  452TMC3    O1 6741   2.040   2.444   0.509  0.4023  0.0898 -0.5578
  452TMC3    O2 6742   2.288   2.314   1.076 -0.0338 -0.1816 -0.1771
  453TMC3    C1 6743   3.871   0.019  12.285 -0.2872  0.0658 -0.6653
  453TMC3    C2 6744   3.764   4.692  12.346 -0.9546 -0.4196  0.1637
  453TMC3    C3 6745   3.653   4.669  12.266 -0.4120  0.2638  0.8846
  453TMC3    C4 6746   3.863   0.061  12.156 -0.3393  0.3933  0.4846
  453TMC3    C5 6747   3.749   0.049  12.088  0.1113 -0.1813  0.2769
  453TMC3    C6 6748   3.644   4.703  12.138 -0.7458 -0.3012 -0.2683
  453TMC3     C 6749   4.004   0.019  12.344 -0.0451  0.1230  0.4602
  453TMC3     O 6750   4.098   0.053  12.271  0.4010 -0.6552 -0.0470
  453TMC3     H 6751   3.766   4.654  12.447 -2.7333  0.1952  0.4379
  453TMC3    H1 6752   3.942   0.123  12.115 -0.6108  1.2339  1.2289
  453TMC3    H2 6753   3.548   4.691  12.088 -0.7049  0.9986 -0.6646
  453TMC3    C7 6754   3.748   0.060  11.949 -0.4304 -0.3306  0.0593
  453TMC3    C8 6755   3.564   4.566  12.308 -0.0320 -0.4886  0.5267
  453TMC3    O1 6756   3.641   0.087  11.893  0.0707 -0.3393  0.1367
  453TMC3    O2 6757   3.449   4.594  12.284  0.0751  0.0698  0.6492
  454MPD2     C 6758   2.768   3.968  16.301  0.3054  0.2802  0.1451
  454MPD2    C1 6759   2.635   3.995  16.319 -0.0822  0.2131 -0.1334
  454MPD2    C2 6760   2.569   3.964  16.441 -0.2364 -0.5681 -1.0086
  454MPD2    C3 6761   2.641   3.893  16.537 -0.5655 -0.4809 -0.5409
  454MPD2    C4 6762   2.776   3.864  16.512 -0.2362 -0.7136  0.2865
  454MPD2    C5 6763   2.839   3.901  16.396 -0.5542 -0.0559  0.7778
  454MPD2     H 6764   2.462   3.982  16.445 -0.0130  0.4239  0.4072
  454MPD2    H1 6765   2.837   3.799  16.574  1.7439  0.2971 -0.5981
  454MPD2    H2 6766   2.817   3.993  16.208  1.4282  0.3934  0.7693
  454MPD2    H3 6767   2.940   3.864  16.387 -1.5111 -2.3262 -0.6032
  454MPD2     N 6768   2.594   3.836  16.662 -0.1480  0.8267  0.2157
  454MPD2    H5 6769   2.663   3.798  16.726 -0.7485 -1.0824 -0.2491
  454MPD2    N1 6770   2.553   4.047  16.218 -0.0155 -0.0097  0.1493
  454MPD2    H7 6771   2.460   4.077  16.247 -0.8530  0.2118 -2.8126
  455TMC3    C1 6772   2.362   3.859  16.637  0.7352  1.1389  1.0320
  455TMC3    C2 6773   2.273   3.959  16.669 -0.0901 -0.3183  0.3953
  455TMC3    C3 6774   2.197   4.001  16.572  0.0025 -0.6856  0.3638
  455TMC3    C4 6775   2.361   3.784  16.520 -0.2936  0.1104  0.5289
  455TMC3    C5 6776   2.262   3.823  16.427 -0.2672  0.0493 -0.0290
  455TMC3    C6 6777   2.185   3.938  16.448  0.5818  0.4220  0.0438
  455TMC3     C 6778   2.475   3.861  16.719  0.3767 -1.1597 -0.2003
  455TMC3     O 6779   2.458   3.870  16.836  0.8087  0.6237 -0.4155
  455TMC3     H 6780   2.272   4.005  16.767  0.7919 -0.7755  0.6162
  455TMC3    H1 6781   2.443   3.715  16.503 -1.2058 -0.9734  0.5406
  455TMC3    H2 6782   2.099   3.961  16.386 -0.1332 -0.3257  0.7606
  455TMC3    C7 6783   2.233   3.741  16.320  0.8939 -0.5540  0.2373
  455TMC3    C8 6784   2.119   4.122  16.600 -0.1436 -0.6209  0.2494
  455TMC3    O1 6785   2.164   3.789  16.231  0.0673  0.3975  0.5930
  455TMC3    O2 6786   2.100   4.145  16.717  0.3201  0.2949 -0.0012
  456MPD2     C 6787   0.285   4.280  16.549  0.4302 -0.9506  0.1042
  456MPD2    C1 6788   0.367   4.290  16.661  0.0461 -0.2298  0.2714
  456MPD2    C2 6789   0.328   4.366  16.774 -0.1845  0.6024 -0.0550
  456MPD2    C3 6790   0.205   4.434  16.774  0.4526 -0.2231 -0.5910
  456MPD2    C4 6791   0.128   4.422  16.656 -0.6855  0.2749  0.9679
  456MPD2    C5 6792   0.165   4.347  16.548  0.2475 -0.1884  0.2679
  456MPD2     H 6793   0.389   4.361  16.864 -0.0633 -2.5416 -0.2921
  456MPD2    H1 6794   0.031   4.469  16.650  0.3052  1.9882 -1.5759
  456MPD2    H2 6795   0.315   4.223  16.462  1.2113  0.8709 -0.8289
  456MPD2    H3 6796   0.111   4.356  16.455 -2.1684 -0.6990  1.6275
  456MPD2     N 6797   0.162   4.504  16.899  0.2058 -0.2524 -0.3115
  456MPD2    H5 6798   0.227   4.508  16.977 -0.4232 -0.6601  0.2399
  456MPD2    N1 6799   0.485   4.214  16.655 -0.7414 -0.3327 -0.0024
  456MPD2    H7 6800   0.493   4.150  16.577  0.6635  0.1395 -0.2505
  457TMC3    C1 6801   0.000   4.618  17.035  0.2211  0.0531 -0.3470
  457TMC3    C2 6802   4.630   4.715  17.024  0.2472  0.1668  0.1325
  457TMC3    C3 6803   4.624   0.094  17.118 -0.5382 -0.3857 -0.5896
  457TMC3    C4 6804   0.083   4.614  17.140 -0.3750 -0.1525 -0.2544
  457TMC3    C5 6805   0.072   4.711  17.238 -0.2457 -0.2090 -0.2560
  457TMC3    C6 6806   4.710   0.091  17.228 -0.1884  0.1054 -0.5055
  457TMC3     C 6807   0.036   4.549  16.915  0.1239  0.0418  0.2712
  457TMC3     O 6808   4.667   4.539  16.835  0.2620  0.8310  0.2518
  457TMC3     H 6809   4.585   0.017  16.929 -0.2700  0.4780  0.4681
  457TMC3    H1 6810   0.153   4.531  17.147 -1.3023 -0.8559  0.6374
  457TMC3    H2 6811   4.709   0.178  17.293  0.0501 -0.9415  0.9031
  457TMC3    C7 6812   0.152   4.704  17.361 -1.1479 -0.7283  0.1570
  457TMC3    C8 6813   4.545   0.218  17.097  0.2102 -0.4027 -0.1144
  457TMC3    O1 6814   0.186   4.594  17.394  0.0262 -0.4905 -0.0510
  457TMC3    O2 6815   4.563   0.310  17.173 -0.2265  0.8269 -0.1106
  458MPD2     C 6816   2.440   3.691  12.294 -0.7978  0.0962 -1.2568
  458MPD2    C1 6817   2.450   3.649  12.429  0.3205 -0.0435 -0.4291
  458MPD2    C2 6818   2.335   3.660  12.506  0.0456 -0.5213  0.5664
  458MPD2    C3 6819   2.219   3.705  12.459  0.2717  0.2019  0.0251
  458MPD2    C4 6820   2.211   3.734  12.324 -0.3262 -0.4726  0.5021
  458MPD2    C5 6821   2.323   3.734  12.249 -0.6498 -0.0970 -0.7206
  458MPD2     H 6822   2.338   3.642  12.613 -0.0123 -2.0211  0.3172
  458MPD2    H1 6823   2.126   3.774  12.271 -0.1372 -1.3253 -0.4509
  458MPD2    H2 6824   2.526   3.693  12.228  0.9782 -1.1150  1.0263
  458MPD2    H3 6825   2.333   3.772  12.148 -2.5749 -0.5847 -1.0928
  458MPD2     N 6826   2.110   3.715  12.548  0.6626  0.1433  0.1945
  458MPD2    H5 6827   2.119   3.689  12.646  1.7931 -1.5834 -0.3750
  458MPD2    N1 6828   2.568   3.598  12.483  0.3279 -0.7123 -0.0469
  458MPD2    H7 6829   2.652   3.599  12.426  0.3010 -1.8387 -0.0983
  459TMC3    C1 6830   2.722   3.563  12.658  0.9000 -0.1443  0.9476
  459TMC3    C2 6831   2.796   3.673  12.627  0.1422 -0.7764  0.1061
  459TMC3    C3 6832   2.913   3.701  12.693  0.0633 -0.0489 -1.0382
  459TMC3    C4 6833   2.751   3.473  12.753  0.5442 -0.3015 -0.2407
  459TMC3    C5 6834   2.863   3.507  12.826  0.4254  0.5093  0.2887
  459TMC3    C6 6835   2.945   3.614  12.789  0.7532 -0.1343  0.3752
  459TMC3     C 6836   2.587   3.560  12.613 -0.2367 -0.0113  0.1155
  459TMC3     O 6837   2.499   3.527  12.693  0.0048  0.0031  0.3888
  459TMC3     H 6838   2.771   3.733  12.540  1.7722 -0.6772 -0.2939
  459TMC3    H1 6839   2.694   3.381  12.766 -0.0333  0.1145  0.1487
  459TMC3    H2 6840   3.027   3.646  12.852  0.0590  0.3718  1.0319
  459TMC3    C7 6841   2.902   3.416  12.931 -0.0365  0.6508  0.4965
  459TMC3    C8 6842   2.976   3.829  12.681  0.4692  0.2784 -0.2902
  459TMC3    O1 6843   3.022   3.399  12.945 -0.3215 -0.1738  0.1577
  459TMC3    O2 6844   2.910   3.911  12.620 -1.0328 -0.5603 -0.4841
  460MPD2     C 6845   2.327   1.336  10.821  0.1094 -0.2942 -0.2724
  460MPD2    C1 6846   2.200   1.350  10.882  0.5027 -0.3388 -0.6723
  460MPD2    C2 6847   2.083   1.337  10.800  0.1162 -0.6150 -1.0348
  460MPD2    C3 6848   2.100   1.312  10.665 -0.6372  0.3430 -0.6876
  460MPD2    C4 6849   2.232   1.303  10.616 -0.0506  0.0842  0.1190
  460MPD2    C5 6850   2.343   1.311  10.689  0.1036 -0.3811  0.1851
  460MPD2     H 6851   1.984   1.346  10.842  1.0426  1.1937  0.7782
  460MPD2    H1 6852   2.260   1.301  10.511 -1.2153 -2.1816 -0.1445
  460MPD2    H2 6853   2.418   1.342  10.880 -0.3058 -0.7180  0.4087
  460MPD2    H3 6854   2.444   1.298  10.651  0.5569 -1.6934  1.8351
  460MPD2     N 6855   1.987   1.297  10.583 -0.0733  0.6606  0.1925
  460MPD2    H5 6856   1.896   1.321  10.621 -0.3708  0.6480 -0.5175
  460MPD2    N1 6857   2.198   1.387  11.018  0.5433  0.5684 -0.1548
  460MPD2    H7 6858   2.288   1.416  11.055  1.2714 -3.5524  1.3154
  461TMC3    C1 6859   1.872   1.250  10.390  0.7507 -0.1728  0.9728
  461TMC3    C2 6860   1.844   1.150  10.300 -0.2810  0.5604 -0.6690
  461TMC3    C3 6861   1.733   1.165  10.226 -0.0505 -0.9586 -0.6135
  461TMC3    C4 6862   1.795   1.367  10.410 -0.7270  0.2451 -0.0571
  461TMC3    C5 6863   1.683   1.370  10.328  1.0845  0.2812  0.0881
  461TMC3    C6 6864   1.649   1.273  10.241 -0.8906 -0.8198  1.0398
  461TMC3     C 6865   1.985   1.216  10.475 -0.4788  0.3371 -0.4880
  461TMC3     O 6866   2.068   1.139  10.428 -0.0531  0.2432  0.1694
  461TMC3     H 6867   1.915   1.072  10.274  0.3162  0.7300  0.4380
  461TMC3    H1 6868   1.825   1.456  10.465 -2.5016  1.2530 -0.7279
  461TMC3    H2 6869   1.556   1.287  10.185 -0.9797  1.9873  1.8563
  461TMC3    C7 6870   1.605   1.493  10.308  0.3850 -0.6546 -0.2928
  461TMC3    C8 6871   1.742   1.107  10.089 -0.6994 -0.5086  0.4318
  461TMC3    O1 6872   1.520   1.505  10.217 -0.3096  0.4874  0.0848
  461TMC3    O2 6873   1.849   1.112  10.031  0.1333  0.0547  0.2899
  462TMC3    C1 6874   1.553   2.228  17.573  0.1599 -0.2882  0.3905
  462TMC3    C2 6875   1.509   2.143  17.473 -0.1508 -0.6601  0.2413
  462TMC3    C3 6876   1.571   2.025  17.474  0.6189 -0.1664 -0.0738
  462TMC3    C4 6877   1.633   2.195  17.674  0.7214  0.7251 -0.0091
  462TMC3    C5 6878   1.686   2.068  17.671 -0.7201  1.0380  0.2658
  462TMC3    C6 6879   1.667   1.987  17.563  0.2141 -0.0154 -0.9438
  462TMC3     C 6880   1.542   2.376  17.554 -0.0184 -0.3929  0.5874
  462TMC3     O 6881   1.580   2.456  17.641  0.2435 -0.2341  0.1179
  462TMC3     H 6882   1.431   2.175  17.405 -0.4151  0.4651  1.0802
  462TMC3    H1 6883   1.663   2.256   0.054 -2.7902  2.1216  0.2304
  462TMC3    H2 6884   1.695   1.883  17.570  0.8507  0.2414  0.3024
  462TMC3    C7 6885   1.696   1.999   0.094 -0.2061  0.0380  0.4101
  462TMC3    C8 6886   1.522   1.932  17.374 -0.3207  0.1340  0.4908
  462TMC3    O1 6887   1.752   1.888   0.097 -0.4771 -0.6104  0.0420
  462TMC3    O2 6888   1.411   1.950  17.331  0.0524 -0.2865 -0.5574
  463MPD2     C 6889   2.752   0.747   1.859  0.3037  0.2238 -0.3178
  463MPD2    C1 6890   2.633   0.793   1.806  0.0289 -0.1602 -0.7159
  463MPD2    C2 6891   2.626   0.891   1.715 -0.8168 -0.4288  0.0411
  463MPD2    C3 6892   2.741   0.951   1.665  0.2964 -0.0661  1.4946
  463MPD2    C4 6893   2.863   0.916   1.723 -0.4256  0.2493  0.4966
  463MPD2    C5 6894   2.866   0.809   1.811  0.1658  1.0054  0.0363
  463MPD2     H 6895   2.530   0.923   1.677 -1.0346 -1.7404 -0.5197
  463MPD2    H1 6896   2.954   0.964   1.688 -0.5371 -0.6793 -1.0440
  463MPD2    H2 6897   2.766   0.669   1.933  0.1889 -0.1525 -0.6941
  463MPD2    H3 6898   2.955   0.771   1.858  1.0718  2.5074 -0.4764
  463MPD2     N 6899   2.754   1.038   1.560 -0.3593  0.2455  0.0494
  463MPD2    H5 6900   2.844   1.082   1.545 -0.5581  0.9877  1.0547
  463MPD2    N1 6901   2.507   0.741   1.846  0.0625 -0.6526 -0.0930
  463MPD2    H7 6902   2.421   0.783   1.811  0.4849  1.9806  1.9777
  464TMC3    C1 6903   2.345   0.632   1.986  0.3188  0.3748 -0.5035
  464TMC3    C2 6904   2.248   0.730   1.964  0.2252  0.4877 -0.2421
  464TMC3    C3 6905   2.117   0.701   1.995  0.6225  0.1687  0.2929
  464TMC3    C4 6906   2.302   0.504   2.038 -0.7409  0.2695 -0.4084
  464TMC3    C5 6907   2.167   0.482   2.072 -0.1520 -0.2488 -0.8664
  464TMC3    C6 6908   2.077   0.583   2.046  0.3334 -1.2164 -0.3808
  464TMC3     C 6909   2.490   0.656   1.955  0.1274 -0.2267  0.0307
  464TMC3     O 6910   2.577   0.577   1.999  0.5220 -0.4903 -0.1554
  464TMC3     H 6911   2.269   0.833   1.937 -1.0981  0.8742  0.2099
  464TMC3    H1 6912   2.380   0.437   2.072  0.1478  0.6762 -1.6163
  464TMC3    H2 6913   1.974   0.569   2.077 -0.1404  1.4151 -0.7965
  464TMC3    C7 6914   2.117   0.349   2.092  0.5603 -0.2937  0.2364
  464TMC3    C8 6915   2.021   0.788   1.938  0.3585  0.1394 -0.0468
  464TMC3    O1 6916   1.993   0.336   2.089 -0.3728  0.0964  0.4426
  464TMC3    O2 6917   2.058   0.860   1.845 -0.1308 -0.5420 -0.0223
  465MPD2     C 6918   3.946   4.010  16.798 -0.1785  0.2600 -0.3468
  465MPD2    C1 6919   3.864   3.941  16.891 -0.2726  0.1120 -0.2956
  465MPD2    C2 6920   3.729   3.942  16.883 -0.9261 -0.1307 -0.1885
  465MPD2    C3 6921   3.674   4.011  16.783 -0.5273 -0.5257  0.2090
  465MPD2    C4 6922   3.752   4.093  16.700  0.0295  0.1495  0.1759
  465MPD2    C5 6923   3.890   4.085  16.703 -0.4257 -0.2625  0.2817
  465MPD2     H 6924   3.667   3.888  16.955 -0.6238 -1.1895 -0.7205
  465MPD2    H1 6925   3.715   4.155  16.619  2.0111  0.8997 -0.1699
  465MPD2    H2 6926   4.054   4.016  16.800 -0.1561 -0.1438 -0.3896
  465MPD2    H3 6927   3.941   4.144  16.628 -3.1852  0.3592 -1.1317
  465MPD2     N 6928   3.531   4.011  16.766  0.1462 -0.5483  0.3388
  465MPD2    H5 6929   3.495   3.961  16.847  1.2607  1.3538  2.0204
  465MPD2    N1 6930   3.922   3.863  16.995  0.0630  0.1155  0.1226
  465MPD2    H7 6931   3.865   3.841  17.077  1.7572  2.1255  1.8340
  466TMC3    C1 6932   3.176   4.176  16.845 -0.3200  0.1027 -0.1648
  466TMC3    C2 6933   3.131   4.279  16.763 -0.4304  0.6230 -0.2585
  466TMC3    C3 6934   3.173   4.273  16.636 -0.7639  0.2003  0.0896
  466TMC3    C4 6935   3.286   4.101  16.816  0.6256 -0.3168  0.8384
  466TMC3    C5 6936   3.323   4.103  16.685  0.6380  0.5610  0.4879
  466TMC3    C6 6937   3.272   4.188  16.594 -0.4399 -0.5748  0.1045
  466TMC3     C 6938   3.141   4.194  16.984 -1.0269  0.3422 -0.3865
  466TMC3     O 6939   3.142   4.096  17.057  0.6771 -0.1824  0.1857
  466TMC3     H 6940   3.046   4.343  16.787 -0.8391 -0.5923  1.5160
  466TMC3    H1 6941   3.330   4.048  16.900  0.7516  0.6070  1.3565
  466TMC3    H2 6942   3.309   4.197  16.493  1.8640  1.4497  1.1362
  466TMC3    C7 6943   3.467   4.081  16.667  0.1785  0.2426  0.8698
  466TMC3    C8 6944   3.155   4.396  16.565  0.7102 -0.6186  0.4525
  466TMC3    O1 6945   3.507   4.123  16.559  0.1660 -0.5109  0.1872
  466TMC3    O2 6946   3.145   4.392  16.446 -0.0106 -0.2135  0.6946
  467TMC3    C1 6947   0.309   2.756  13.769 -0.0114  0.2272  0.5582
  467TMC3    C2 6948   0.388   2.831  13.690 -0.1100 -0.4648 -0.6088
  467TMC3    C3 6949   0.321   2.929  13.624  0.3489  0.0720  0.3941
  467TMC3    C4 6950   0.176   2.780  13.803  0.0805  0.1116 -0.0153
  467TMC3    C5 6951   0.117   2.884  13.742 -0.4087  0.2346  0.5890
  467TMC3    C6 6952   0.187   2.956  13.649 -0.1373 -0.1312 -0.5775
  467TMC3     C 6953   0.385   2.685  13.873 -0.0119  0.1263 -0.6277
  467TMC3     O 6954   0.356   2.689  13.992  0.1293 -0.0603  0.1931
  467TMC3     H 6955   0.492   2.807  13.669 -0.0227  0.6621 -1.5085
  467TMC3    H1 6956   0.112   2.727  13.872 -1.4926  0.1040 -1.4798
  467TMC3    H2 6957   0.138   3.026  13.582 -0.4679  0.5921  0.4213
  467TMC3    C7 6958   4.699   2.886  13.720 -0.3482 -0.1713 -0.9631
  467TMC3    C8 6959   0.384   3.055  13.611  0.0131  0.3103  0.1345
  467TMC3    O1 6960   4.681   2.905  13.600  0.0311 -0.0143  0.1786
  467TMC3    O2 6961   0.310   3.152  13.600  0.3857  0.1929  0.0449
  468MPD2     C 6962   3.755   0.749  10.655  0.6282 -0.2152  0.2590
  468MPD2    C1 6963   3.858   0.792  10.742 -0.1534 -0.0100 -0.8016
  468MPD2    C2 6964   3.923   0.708  10.826 -0.3301  0.1841  0.4546
  468MPD2    C3 6965   3.899   0.569  10.814 -0.7689  0.5263 -0.4575
  468MPD2    C4 6966   3.801   0.519  10.730  0.5997 -0.3740 -0.1284
  468MPD2    C5 6967   3.727   0.612  10.654  0.3997  0.0118  0.4508
  468MPD2     H 6968   4.001   0.747  10.890 -1.0752  0.7640  1.0079
  468MPD2    H1 6969   3.782   0.413  10.715 -1.7539 -0.0698  0.6241
  468MPD2    H2 6970   3.689   0.810  10.595  0.2763 -1.3367 -0.4954
  468MPD2    H3 6971   3.650   0.568  10.592  0.6455 -0.0283  0.1759
  468MPD2     N 6972   3.975   0.475  10.892  0.2634  0.3575  0.0524
  468MPD2    H5 6973   3.950   0.378  10.879  0.5484  0.4462 -1.1216
  468MPD2    N1 6974   3.892   0.925  10.753 -1.1025 -0.3951 -0.2150
  468MPD2    H7 6975   3.960   0.946  10.826 -2.1385 -0.4793  0.7776
  469TMC3    C1 6976   3.841   1.162  10.762 -0.5765  0.1767 -0.4399
  469TMC3    C2 6977   3.964   1.179  10.827 -0.3966  0.3962  0.1134
  469TMC3    C3 6978   3.978   1.290  10.900  1.1669 -0.0481  0.1382
  469TMC3    C4 6979   3.739   1.256  10.774  0.5070  0.3941  0.0969
  469TMC3    C5 6980   3.768   1.370  10.842  0.0964  0.4011  0.3348
  469TMC3    C6 6981   3.884   1.390  10.904 -0.2375  0.4028 -0.5460
  469TMC3     C 6982   3.821   1.032  10.702  0.5645  0.9062 -0.5715
  469TMC3     O 6983   3.721   1.029  10.629 -0.2053  0.0656  0.2869
  469TMC3     H 6984   4.032   1.095  10.839 -0.7003  0.2362  0.7058
  469TMC3    H1 6985   3.647   1.245  10.719  1.0404  0.4215 -0.7912
  469TMC3    H2 6986   3.919   1.483  10.948 -0.6463 -0.2392  1.1246
  469TMC3    C7 6987   3.658   1.466  10.847  0.8966 -0.0227  0.7780
  469TMC3    C8 6988   4.069   1.284  11.009 -0.2785 -0.4577 -0.2160
  469TMC3    O1 6989   3.576   1.473  10.756 -0.0573  0.0402  0.0255
  469TMC3    O2 6990   4.170   1.216  10.990 -1.0457 -0.0202  0.8126
  470TMC3    C1 6991   1.829   2.142   0.959 -0.1469 -0.4455  0.2437
  470TMC3    C2 6992   1.737   2.239   0.931  0.3075  0.0063 -0.1374
  470TMC3    C3 6993   1.749   2.357   1.001  0.5701 -0.5131  0.1772
  470TMC3    C4 6994   1.930   2.153   1.054  0.1238 -0.1061  0.1575
  470TMC3    C5 6995   1.924   2.270   1.129 -0.7525  0.0946  0.8896
  470TMC3    C6 6996   1.839   2.374   1.100 -0.4488  0.1727 -0.4507
  470TMC3     C 6997   1.829   2.042   0.855  0.7889  0.2596 -0.6219
  470TMC3     O 6998   1.801   2.076   0.741 -0.1266 -0.0028 -0.0961
  470TMC3     H 6999   1.664   2.220   0.853 -1.9379  0.4761  1.8551
  470TMC3    H1 7000   2.016   2.089   1.070  0.1464  0.3488  1.8332
  470TMC3    H2 7001   1.834   2.462   1.164 -1.1704  1.0921 -1.7961
  470TMC3    C7 7002   2.010   2.288   1.238 -0.3314  0.1558  0.3239
  470TMC3    C8 7003   1.632   2.441   1.007 -0.2830  0.2729 -0.2944
  470TMC3    O1 7004   2.035   2.405   1.265  0.3155  0.0413  0.1506
  470TMC3    O2 7005   1.613   2.510   1.103  0.0992  0.0704 -0.7500
  471MPD2     C 7006   1.735   3.672  16.998  0.2712 -0.2899  0.1514
  471MPD2    C1 7007   1.790   3.552  16.965  0.6653  0.6062 -0.2006
  471MPD2    C2 7008   1.859   3.478  17.056  0.4371  0.7481 -0.2497
  471MPD2    C3 7009   1.891   3.538  17.175  0.0796 -0.2738 -0.5380
  471MPD2    C4 7010   1.826   3.649  17.214  0.1549 -0.3039  0.9685
  471MPD2    C5 7011   1.752   3.720  17.121 -0.1275  0.7392  0.4383
  471MPD2     H 7012   1.904   3.383  17.030  0.6375  0.4262  1.2607
  471MPD2    H1 7013   1.826   3.685  17.317  1.1459  0.6150  0.6471
  471MPD2    H2 7014   1.683   3.742  16.934  0.3824 -0.6452 -0.3263
  471MPD2    H3 7015   1.720   3.822  17.143 -0.1569  0.8441 -0.0962
  471MPD2     N 7016   1.970   3.469  17.271  0.1624  0.7018 -0.2316
  471MPD2    H5 7017   1.979   3.512  17.362  2.2465  0.0633 -0.1399
  471MPD2    N1 7018   1.781   3.500  16.833  0.1686 -0.6298  0.4330
  471MPD2    H7 7019   1.827   3.411  16.820  2.1404  0.6452 -1.3716
  472TMC3    C1 7020   1.696   3.472  16.617  0.3618 -0.0504 -0.1316
  472TMC3    C2 7021   1.608   3.518  16.519  0.0078  0.3982 -0.2941
  472TMC3    C3 7022   1.563   3.417  16.434 -0.1815 -0.8990  0.5545
  472TMC3    C4 7023   1.748   3.341  16.614  0.5486 -0.2317 -0.1860
  472TMC3    C5 7024   1.692   3.246  16.536  0.8353  0.2152 -0.2293
  472TMC3    C6 7025   1.592   3.280  16.447 -0.1059 -0.0866 -0.4426
  472TMC3     C 7026   1.712   3.559  16.731  0.0816 -0.3212  0.5806
  472TMC3     O 7027   1.671   3.671  16.718 -0.7032  0.3245  0.0185
  472TMC3     H 7028   1.572   3.620  16.520  0.9834  0.7441  1.0222
  472TMC3    H1 7029   1.825   3.309  16.683 -0.6670  0.6280  1.5566
  472TMC3    H2 7030   1.544   3.208  16.382  1.9797 -2.1396  0.3033
  472TMC3    C7 7031   1.736   3.107  16.551  0.5131 -0.1010  0.2084
  472TMC3    C8 7032   1.449   3.451  16.358  0.3544 -0.3997  0.3110
  472TMC3    O1 7033   1.831   3.092  16.626 -0.3414 -0.2841 -0.2865
  472TMC3    O2 7034   1.437   3.565  16.319  0.4746 -0.1572 -0.1663
  473MPD2     C 7035   1.313   0.380  14.209  0.2771 -0.2669 -0.6279
  473MPD2    C1 7036   1.248   0.501  14.193  0.0739  0.0062 -0.6620
  473MPD2    C2 7037   1.263   0.601  14.283 -0.2346  0.4355 -0.7433
  473MPD2    C3 7038   1.343   0.576  14.402  0.0110 -0.4576  0.1194
  473MPD2    C4 7039   1.406   0.453  14.419  0.4932 -0.6606 -0.0531
  473MPD2    C5 7040   1.388   0.359  14.322  0.1279  0.3626  0.1313
  473MPD2     H 7041   1.208   0.695  14.275  2.8163  2.2392 -0.3669
  473MPD2    H1 7042   1.456   0.419  14.509 -0.5407 -1.2799  0.2841
  473MPD2    H2 7043   1.298   0.295  14.143  2.9320 -2.9351  2.2515
  473MPD2    H3 7044   1.438   0.263  14.322 -1.0972 -0.2829 -0.7885
  473MPD2     N 7045   1.367   0.671  14.506  0.1852  0.5885 -0.0255
  473MPD2    H5 7046   1.442   0.650  14.571  0.5034  0.8099 -0.3224
  473MPD2    N1 7047   1.161   0.532  14.082 -0.2925 -0.3186  0.4515
  473MPD2    H7 7048   1.135   0.630  14.074  0.3818 -0.3275 -1.7449
  474TMC3    C1 7049   1.356   0.864  14.631 -0.0047  0.0590 -0.2636
  474TMC3    C2 7050   1.288   0.980  14.661  0.0799 -0.9141 -0.7376
  474TMC3    C3 7051   1.365   1.083  14.712 -1.2019  0.2990  0.4047
  474TMC3    C4 7052   1.494   0.868  14.615  0.1411 -0.0016  0.8935
  474TMC3    C5 7053   1.563   0.970  14.672 -0.1532 -0.6979 -0.0714
  474TMC3    C6 7054   1.500   1.084  14.718  0.1431  0.7412 -0.2153
  474TMC3     C 7055   1.292   0.785  14.532 -0.1922 -0.0720  0.6388
  474TMC3     O 7056   1.178   0.811  14.493 -0.0918  0.5172 -0.2803
  474TMC3     H 7057   1.181   0.984  14.676  0.5344  1.1450  2.0562
  474TMC3    H1 7058   1.557   0.791  14.572  0.2564  1.4549 -1.5535
  474TMC3    H2 7059   1.562   1.165  14.756  1.1133  0.5715 -1.4755
  474TMC3    C7 7060   1.699   0.941  14.713  0.5563  0.0826 -0.4728
  474TMC3    C8 7061   1.303   1.217  14.718 -0.6551 -0.2154  0.6181
  474TMC3    O1 7062   1.755   0.868  14.630  0.1006 -0.1508  0.1529
  474TMC3    O2 7063   1.214   1.232  14.798  0.7345  0.1568  0.3024
  475MPD2     C 7064   0.334   3.492  10.592  0.1817  0.3863 -0.7420
  475MPD2    C1 7065   0.343   3.630  10.611 -0.3215 -0.3447  0.0534
  475MPD2    C2 7066   0.232   3.694  10.662  0.2445  0.2143 -0.3050
  475MPD2    C3 7067   0.118   3.628  10.681  0.2136  0.2632  0.3683
  475MPD2    C4 7068   0.112   3.485  10.668 -0.4286 -0.0827  0.4669
  475MPD2    C5 7069   0.224   3.418  10.626  0.0204 -0.5160  0.3613
  475MPD2     H 7070   0.243   3.796  10.695 -0.2044 -0.0964  0.7924
  475MPD2    H1 7071   0.026   3.425  10.695 -0.6386  0.7750  1.7213
  475MPD2    H2 7072   0.419   3.427  10.577 -0.1989 -0.8370  2.3776
  475MPD2    H3 7073   0.220   3.310  10.624  0.5915 -0.5200 -1.0070
  475MPD2     N 7074   0.018   3.706  10.741  0.1947 -0.4644  0.2460
  475MPD2    H5 7075   0.039   3.805  10.748 -1.3480 -0.3340  3.0697
  475MPD2    N1 7076   0.469   3.685  10.583 -0.3924  0.1703  0.2446
  475MPD2    H7 7077   0.536   3.626  10.534  0.5992  0.0006  1.7731
  476TMC3    C1 7078   0.614   3.852  10.519  0.2401  0.4135 -0.6359
  476TMC3    C2 7079   0.588   3.811  10.390 -0.5586 -0.3919  0.2904
  476TMC3    C3 7080   0.587   3.899  10.283 -0.0442 -0.5068 -0.8875
  476TMC3    C4 7081   0.652   3.981  10.537 -0.3072 -0.2113  0.2572
  476TMC3    C5 7082   0.662   4.071  10.438  0.4923  0.6977 -0.4999
  476TMC3    C6 7083   0.634   4.032  10.308  0.6725 -0.3685 -0.1534
  476TMC3     C 7084   0.506   3.816  10.599 -0.0223 -0.1753  0.6409
  476TMC3     O 7085   0.450   3.908  10.655 -0.1164  0.5246 -0.1334
  476TMC3     H 7086   0.571   3.706  10.368  1.5000 -0.4938 -0.7675
  476TMC3    H1 7087   0.674   4.009  10.639 -1.3105  0.1756  0.3708
  476TMC3    H2 7088   0.643   4.103  10.226  1.4457 -0.3107 -0.0113
  476TMC3    C7 7089   0.751   4.186  10.449  0.3530 -0.3402  0.3145
  476TMC3    C8 7090   0.456   3.914  10.231 -0.0257  0.4310  0.3737
  476TMC3    O1 7091   0.812   4.223  10.351 -0.2628  0.1272  0.1986
  476TMC3    O2 7092   0.429   4.025  10.191  0.0339  0.0574  0.1231
  477MPD2     C 7093   2.400   1.092  12.477 -0.4581 -0.8155  0.6540
  477MPD2    C1 7094   2.422   1.020  12.357  0.3464 -0.1860  0.2408
  477MPD2    C2 7095   2.445   0.880  12.370  0.2895 -0.8551  0.0985
  477MPD2    C3 7096   2.443   0.818  12.486 -0.6546 -0.6827 -0.0916
  477MPD2    C4 7097   2.419   0.888  12.601  1.1005  0.1013 -0.2495
  477MPD2    C5 7098   2.404   1.024  12.596 -0.3010 -0.6347  0.3654
  477MPD2     H 7099   2.478   0.832  12.278  1.4490 -1.8086  1.0183
  477MPD2    H1 7100   2.415   0.846  12.701 -2.3308 -1.7344 -1.1346
  477MPD2    H2 7101   2.378   1.198  12.476 -3.9689 -1.5620  0.9643
  477MPD2    H3 7102   2.379   1.064  12.694  1.1522  0.3332  0.3238
  477MPD2     N 7103   2.451   0.677  12.492  1.0395  0.0618  0.1836
  477MPD2    H5 7104   2.425   0.646  12.585  2.1189  2.2247  1.2168
  477MPD2    N1 7105   2.429   1.094  12.234 -0.4672 -0.6770 -0.7192
  477MPD2    H7 7106   2.439   1.195  12.241 -1.4699 -0.6034 -0.3498
  478TMC3    C1 7107   2.370   1.140  12.017 -0.0412  0.0951 -0.4800
  478TMC3    C2 7108   2.276   1.231  12.063 -0.1348 -0.8227  0.2102
  478TMC3    C3 7109   2.197   1.290  11.968  0.1749 -0.5666 -0.1156
  478TMC3    C4 7110   2.387   1.107  11.884  0.5943  0.2137  0.6957
  478TMC3    C5 7111   2.310   1.170  11.797  0.2250  0.3174 -0.2313
  478TMC3    C6 7112   2.212   1.265  11.838  0.5565 -0.2440 -0.1354
  478TMC3     C 7113   2.406   1.036  12.111 -0.8124 -1.3116  0.0560
  478TMC3     O 7114   2.381   0.920  12.087  0.3543 -0.0680 -0.2188
  478TMC3     H 7115   2.261   1.256  12.168  0.0694 -0.1310  0.0775
  478TMC3    H1 7116   2.454   1.030  11.847 -1.0184 -1.0973  0.5120
  478TMC3    H2 7117   2.163   1.332  11.768  0.5491 -1.7478 -1.5830
  478TMC3    C7 7118   2.354   1.159  11.661 -0.0052  0.2928 -0.3190
  478TMC3    C8 7119   2.145   1.420  12.021 -0.4794 -0.5740  0.0478
  478TMC3    O1 7120   2.470   1.120  11.645 -0.2445 -0.4719 -0.6213
  478TMC3    O2 7121   2.194   1.467  12.125 -0.0016  0.9232 -0.4464
  479MPD2     C 7122   1.021   2.741  15.564 -0.9068  0.3094  0.1683
  479MPD2    C1 7123   0.972   2.623  15.608 -0.0602 -0.6214  0.3175
  479MPD2    C2 7124   0.965   2.600  15.745 -0.4656 -1.0501  0.2103
  479MPD2    C3 7125   1.001   2.694  15.831  0.5236  0.1732 -0.0209
  479MPD2    C4 7126   1.056   2.810  15.783 -0.4123  1.0309  0.3509
  479MPD2    C5 7127   1.074   2.832  15.654 -0.7274 -0.5244  0.3939
  479MPD2     H 7128   0.918   2.510  15.783 -0.8386 -0.6129  0.7908
  479MPD2    H1 7129   1.085   2.879  15.861 -2.2870  0.5272  1.4924
  479MPD2    H2 7130   1.013   2.753  15.457 -0.7612 -2.1615 -0.1312
  479MPD2    H3 7131   1.131   2.914  15.612 -0.4859 -0.2383  1.2815
  479MPD2     N 7132   0.986   2.678  15.969  0.2744  0.1263 -0.1614
  479MPD2    H5 7133   1.041   2.739  16.029 -0.1657 -1.5723  1.9390
  479MPD2    N1 7134   0.915   2.533  15.511  0.6343 -0.0445  0.0026
  479MPD2    H7 7135   0.902   2.559  15.413  1.4791 -0.9585 -0.3458
  480TMC3    C1 7136   0.596   2.389  15.990 -0.0736  0.7051  0.3151
  480TMC3    C2 7137   0.522   2.457  15.898 -0.0148  0.2940 -0.5876
  480TMC3    C3 7138   0.574   2.572  15.851  0.4847 -0.6947 -0.2759
  480TMC3    C4 7139   0.720   2.429  16.034 -0.3191 -0.2928 -0.0797
  480TMC3    C5 7140   0.775   2.544  15.985 -0.3419 -0.2947 -0.0917
  480TMC3    C6 7141   0.701   2.614  15.893 -0.0933  0.2141  0.3140
  480TMC3     C 7142   0.560   2.253  16.010  0.1475  0.0287 -0.0960
  480TMC3     O 7143   0.647   2.183  16.063  0.2400 -0.3889 -0.0989
  480TMC3     H 7144   0.431   2.419  15.853  1.0433 -1.3013 -1.3371
  480TMC3    H1 7145   0.781   2.360  16.092 -1.9281 -1.8290 -0.2058
  480TMC3    H2 7146   0.743   2.710  15.866  0.4784 -0.2071 -0.3167
  480TMC3    C7 7147   0.910   2.582  16.034 -0.1590 -0.5201  0.6899
  480TMC3    C8 7148   0.507   2.637  15.735 -0.0604 -0.1117 -0.2311
  480TMC3    O1 7149   0.943   2.541  16.146  0.1567  0.2169  0.4209
  480TMC3    O2 7150   0.393   2.605  15.707  0.0166 -0.5946  0.2969
  481MPD2     C 7151   2.808   2.262  14.271 -0.5277  0.0112  0.1330
  481MPD2    C1 7152   2.718   2.163  14.313 -0.1495 -0.1587  0.2594
  481MPD2    C2 7153   2.733   2.105  14.440 -0.4329  0.6971 -0.1119
  481MPD2    C3 7154   2.817   2.164  14.531 -0.1516  0.1680  0.5239
  481MPD2    C4 7155   2.901   2.269  14.496  0.0997  0.3047  0.6713
  481MPD2    C5 7156   2.897   2.306  14.363 -0.0094 -0.8672 -0.2434
  481MPD2     H 7157   2.666   2.026  14.474  0.5337  0.7940  1.9952
  481MPD2    H1 7158   2.978   2.308  14.562  1.6792 -0.3182 -0.8068
  481MPD2    H2 7159   2.806   2.298  14.169  0.1359  0.0583  0.1386
  481MPD2    H3 7160   2.969   2.375  14.320 -0.8361  1.1873  1.7001
  481MPD2     N 7161   2.821   2.131  14.669 -0.3543  0.1223  0.0862
  481MPD2    H5 7162   2.883   2.187  14.727  1.4024 -1.1340 -0.5600
  481MPD2    N1 7163   2.622   2.122  14.220 -0.0982  0.5882 -0.1822
  481MPD2    H7 7164   2.601   2.183  14.141  1.6387 -0.1224 -1.1885
  482TMC3    C1 7165   2.397   2.061  14.166  0.0474 -0.5935  0.1027
  482TMC3    C2 7166   2.300   1.964  14.170 -0.5131  0.1519  0.0954
  482TMC3    C3 7167   2.173   2.008  14.135 -0.3460  0.3274  0.6402
  482TMC3    C4 7168   2.369   2.186  14.115  0.6903 -0.4672 -0.8306
  482TMC3    C5 7169   2.246   2.213  14.062  0.1560 -0.5792 -0.0105
  482TMC3    C6 7170   2.145   2.123  14.081 -0.8801  0.3766 -0.8009
  482TMC3     C 7171   2.517   2.037  14.249  0.2132 -0.0452 -0.4704
  482TMC3     O 7172   2.528   1.927  14.303 -0.8408 -0.0665 -0.2407
  482TMC3     H 7173   2.319   1.863  14.203  0.6636  0.2274 -0.3337
  482TMC3    H1 7174   2.451   2.256  14.118  1.9936 -2.1075  2.0238
  482TMC3    H2 7175   2.041   2.155  14.082 -1.3661 -1.2551  0.0536
  482TMC3    C7 7176   2.215   2.328  13.993 -0.2482  0.2902  0.0119
  482TMC3    C8 7177   2.062   1.926  14.189  0.2186 -0.6814 -0.0627
  482TMC3    O1 7178   2.107   2.343  13.945 -0.0325 -0.3915  0.2811
  482TMC3    O2 7179   2.087   1.863  14.291 -0.1020 -0.0230  0.0303
  483TMC3    C1 7180   0.316   0.649   0.393 -0.2526 -0.0739  0.3505
  483TMC3    C2 7181   0.361   0.780   0.381 -0.0705  0.3685  0.2533
  483TMC3    C3 7182   0.484   0.801   0.324  0.3985  0.2925  0.0398
  483TMC3    C4 7183   0.388   0.550   0.332 -0.7623  0.1734 -0.0606
  483TMC3    C5 7184   0.512   0.582   0.277 -1.0880  0.0252  0.9271
  483TMC3    C6 7185   0.561   0.704   0.265 -0.0058  0.7281  0.9726
  483TMC3     C 7186   0.181   0.624   0.442  0.5045 -0.4754 -0.2413
  483TMC3     O 7187   0.110   0.727   0.458  0.2103 -0.4298  0.7351
  483TMC3     H 7188   0.305   0.867   0.414 -1.8849 -0.3260 -1.0039
  483TMC3    H1 7189   0.345   0.452   0.316 -0.7565  0.5948 -2.6361
  483TMC3    H2 7190   0.665   0.733   0.251  0.1337 -0.3487 -0.2277
  483TMC3    C7 7191   0.608   0.477   0.295  0.0771  0.5197  0.1516
  483TMC3    C8 7192   0.554   0.932   0.340 -0.0630 -0.4921  0.1696
  483TMC3    O1 7193   0.572   0.378   0.357  0.1760 -0.2669 -0.2449
  483TMC3    O2 7194   0.639   0.969   0.260 -0.4468 -0.9048  0.1711
  484MPD2     C 7195   3.093   4.086  12.707  0.1537  0.2339 -0.6866
  484MPD2    C1 7196   3.170   3.970  12.711 -0.1258 -0.3197  0.2074
  484MPD2    C2 7197   3.304   3.979  12.721  0.2345 -0.4441 -0.4824
  484MPD2    C3 7198   3.371   4.101  12.725  0.0529  0.9233 -0.4609
  484MPD2    C4 7199   3.296   4.217  12.707 -0.3148  0.8991 -0.4565
  484MPD2    C5 7200   3.158   4.203  12.705  0.9267 -0.1768 -0.0947
  484MPD2     H 7201   3.351   3.882  12.734  5.2637  2.0203 -0.3770
  484MPD2    H1 7202   3.330   4.319  12.712 -1.5927  1.1615  2.5336
  484MPD2    H2 7203   2.985   4.092  12.718  0.1260  0.0315 -0.8461
  484MPD2    H3 7204   3.103   4.295  12.716 -1.7316 -1.7240 -0.5709
  484MPD2     N 7205   3.512   4.119  12.724  0.3731  0.2029 -0.3009
  484MPD2    H5 7206   3.543   4.213  12.745  0.2653 -0.2115  1.7627
  484MPD2    N1 7207   3.102   3.845  12.731 -0.0165  0.3417  0.5642
  484MPD2    H7 7208   3.166   3.772  12.757  0.3789  0.7373  0.7074
  485TMC3    C1 7209   3.746   4.047  12.714  0.2060  0.2070  0.4527
  485TMC3    C2 7210   3.826   3.940  12.719  0.2926 -0.0660 -0.1745
  485TMC3    C3 7211   3.962   3.953  12.711 -0.5998 -0.0455  0.1980
  485TMC3    C4 7212   3.794   4.173  12.685  0.3851  0.3722 -0.5542
  485TMC3    C5 7213   3.931   4.179  12.671  0.2567  0.0221  0.5521
  485TMC3    C6 7214   4.020   4.079  12.703 -0.6218  0.0720  0.0937
  485TMC3     C 7215   3.597   4.012  12.709  0.6969 -0.6391  0.8601
  485TMC3     O 7216   3.579   3.898  12.678 -0.2929  0.4495  0.4896
  485TMC3     H 7217   3.781   3.842  12.733 -3.1138  1.1654 -2.3302
  485TMC3    H1 7218   3.733   4.253  12.645 -0.0028  0.7786  0.8718
  485TMC3    H2 7219   4.126   4.100  12.705 -0.7814  0.8050  0.9892
  485TMC3    C7 7220   3.966   4.259  12.557  0.0583 -0.6700  0.3016
  485TMC3    C8 7221   4.043   3.852  12.638  0.3064  0.4676  0.1823
  485TMC3    O1 7222   3.901   4.361  12.535  0.3929  0.1718  0.8596
  485TMC3    O2 7223   4.129   3.905  12.570 -0.4672 -0.8271 -0.4686
  486MPD2     C 7224   0.854   3.133  13.259 -0.3077  0.5756 -0.5583
  486MPD2    C1 7225   0.720   3.106  13.276  0.7463 -0.1504  0.5002
  486MPD2    C2 7226   0.626   3.213  13.265 -0.4930  0.3282  0.4161
  486MPD2    C3 7227   0.666   3.344  13.261 -0.7897  0.2002  0.6564
  486MPD2    C4 7228   0.800   3.366  13.254 -0.6611  0.6153  0.3455
  486MPD2    C5 7229   0.893   3.263  13.244 -0.4016 -0.4917  0.0942
  486MPD2     H 7230   0.518   3.206  13.275 -0.4934  0.4542  0.4969
  486MPD2    H1 7231   0.846   3.464  13.246 -0.6628  0.6158  0.3426
  486MPD2    H2 7232   0.920   3.047  13.252  0.0441  0.6535  1.9862
  486MPD2    H3 7233   0.997   3.290  13.232 -1.1729  1.0734 -3.0505
  486MPD2     N 7234   0.565   3.443  13.245  0.1259  0.6059 -0.4421
  486MPD2    H5 7235   0.475   3.401  13.267  0.5325 -1.6445 -3.1276
  486MPD2    N1 7236   0.684   2.971  13.272 -0.2903 -0.4408  0.1218
  486MPD2    H7 7237   0.754   2.899  13.259 -0.4934 -0.8719  1.4587
  487TMC3    C1 7238   0.540   2.798  13.210 -0.4516 -0.3293  0.1163
  487TMC3    C2 7239   0.422   2.725  13.235 -0.0758  0.2384 -0.4319
  487TMC3    C3 7240   0.419   2.593  13.196  0.3487  0.3945  0.2985
  487TMC3    C4 7241   0.657   2.734  13.167 -0.5154  0.2575  0.0656
  487TMC3    C5 7242   0.644   2.600  13.139  0.0338 -0.1607 -0.6806
  487TMC3    C6 7243   0.525   2.530  13.139  0.6096  0.1478 -0.3986
  487TMC3     C 7244   0.553   2.932  13.258 -0.4265 -0.0963  0.6033
  487TMC3     O 7245   0.448   2.980  13.295  0.1795 -0.1434 -0.0503
  487TMC3     H 7246   0.344   2.778  13.289 -1.3280 -1.9715 -0.0673
  487TMC3    H1 7247   0.746   2.785  13.130 -0.4720 -0.6467 -1.0655
  487TMC3    H2 7248   0.538   2.424  13.162 -0.2164  0.1413  0.0110
  487TMC3    C7 7249   0.761   2.529  13.172 -0.1633 -0.4295 -0.2622
  487TMC3    C8 7250   0.287   2.524  13.203 -0.0003  0.7989  0.1038
  487TMC3    O1 7251   0.832   2.579  13.258 -0.3255  0.7860  0.1912
  487TMC3    O2 7252   0.221   2.552  13.297  0.4059  0.0944  0.2368
  488MPD2     C 7253   1.073   4.230  16.857  0.1880 -0.0878  0.3542
  488MPD2    C1 7254   1.046   4.362  16.818  0.0680 -0.2703  0.1117
  488MPD2    C2 7255   1.035   4.458  16.920  0.5562 -0.2356 -0.0353
  488MPD2    C3 7256   1.041   4.430  17.056  0.5357  0.1511  0.6346
  488MPD2    C4 7257   1.075   4.300  17.086 -0.3938 -0.5433  0.2493
  488MPD2    C5 7258   1.081   4.201  16.991 -0.7581 -0.7315 -0.0201
  488MPD2     H 7259   1.022   4.564  16.899 -1.4079 -0.6123 -0.8038
  488MPD2    H1 7260   1.083   4.258  17.185 -1.2738  2.5635  1.6542
  488MPD2    H2 7261   1.085   4.154  16.780  0.9043 -0.4810  0.8523
  488MPD2    H3 7262   1.091   4.099  17.026 -1.0934  0.1185  2.5713
  488MPD2     N 7263   1.029   4.534  17.157 -0.7061 -0.1715 -0.1072
  488MPD2    H5 7264   1.030   4.634  17.144  0.0358 -0.0512  0.8196
  488MPD2    N1 7265   1.017   4.407  16.685 -1.3081 -0.0340  1.0669
  488MPD2    H7 7266   1.031   4.506  16.667  0.3167 -0.8421 -2.1088
  489TMC3    C1 7267   1.026   4.643  17.354 -0.6797 -0.3217  0.4264
  489TMC3    C2 7268   0.976   0.028  17.290 -0.7237  0.4898 -0.0890
  489TMC3    C3 7269   0.990   0.146  17.363 -0.2815 -0.5085 -0.1855
  489TMC3    C4 7270   1.086   4.653  17.481 -0.6943  0.1919 -0.1861
  489TMC3    C5 7271   1.089   0.046  17.551  1.0191  0.0148  0.1325
  489TMC3    C6 7272   1.035   0.149  17.489 -0.7015  0.4757  0.1502
  489TMC3     C 7273   1.047   4.512  17.288  0.7205  0.6386 -0.0311
  489TMC3     O 7274   1.064   4.413  17.357  0.2514 -0.0366  0.3700
  489TMC3     H 7275   0.946   0.019  17.186 -0.7028 -0.1582 -0.0379
  489TMC3    H1 7276   1.109   4.558  17.529  0.3180  1.4039  1.7164
  489TMC3    H2 7277   1.040   0.248  17.533  0.4383 -0.2397  1.6420
  489TMC3    C7 7278   1.179   0.054  17.656  0.2549 -0.1298  0.4794
  489TMC3    C8 7279   0.977   0.271  17.290 -0.2835 -0.3904 -0.3324
  489TMC3    O1 7280   1.240   0.155  17.661 -0.4967  0.3503 -0.6704
  489TMC3    O2 7281   1.017   0.373  17.343  0.0134 -0.4228  0.4884
  490MPD2     C 7282   1.918   4.128  17.695 -0.5421  0.1611 -0.3581
  490MPD2    C1 7283   1.944   4.050   0.095  0.1813 -0.0943  0.1667
  490MPD2    C2 7284   2.030   4.088   0.194  0.0222  0.1971  0.0541
  490MPD2    C3 7285   2.088   4.214   0.191 -0.1227  0.4489  0.4533
  490MPD2    C4 7286   2.064   4.295   0.080  0.1537  0.2446  0.5455
  490MPD2    C5 7287   1.973   4.254  17.693  0.5634 -0.2367  0.6645
  490MPD2     H 7288   2.061   4.023   0.275  1.0234  0.1995 -0.3249
  490MPD2    H1 7289   2.094   4.398   0.069  1.0616 -0.0535  0.2327
  490MPD2    H2 7290   1.844   4.119  17.616 -1.1571 -0.1179  0.2458
  490MPD2    H3 7291   1.946   4.325  17.615 -0.5750 -0.9964  0.3821
  490MPD2     N 7292   2.180   4.259   0.292  0.5241 -0.1283  0.1535
  490MPD2    H5 7293   2.242   4.336   0.271 -0.2424  0.1244 -1.2524
  490MPD2    N1 7294   1.879   3.927   0.121 -0.0988 -0.1091 -0.6291
  490MPD2    H7 7295   1.896   3.875   0.207  1.2157 -1.2748 -1.5849
  491TMC3    C1 7296   1.758   3.743   0.081  0.1922 -0.4750 -0.1097
  491TMC3    C2 7297   1.784   3.716   0.211 -0.2431  0.0015 -0.5038
  491TMC3    C3 7298   1.771   3.583   0.245 -0.1344  0.1608 -0.2270
  491TMC3    C4 7299   1.737   3.651  17.684 -0.2329 -0.0883 -0.8025
  491TMC3    C5 7300   1.721   3.519   0.019 -0.3132  0.3028 -0.1017
  491TMC3    C6 7301   1.735   3.482   0.151 -0.1745 -0.1328 -0.3196
  491TMC3     C 7302   1.783   3.876   0.035 -0.0421 -0.0156  0.3404
  491TMC3     O 7303   1.740   3.920  17.634  0.2819 -0.0649 -0.2220
  491TMC3     H 7304   1.764   3.789   0.289  3.4995  0.9768 -0.4532
  491TMC3    H1 7305   1.720   3.673  17.579 -3.5984  2.1259  0.1924
  491TMC3    H2 7306   1.705   3.383   0.186  1.8752  0.1807  2.2347
  491TMC3    C7 7307   1.617   3.450  17.653 -0.1368  0.2737 -0.3041
  491TMC3    C8 7308   1.711   3.568   0.378 -0.7024  0.2766  0.8170
  491TMC3    O1 7309   1.615   3.464  17.532  0.2621 -0.0047 -0.2411
  491TMC3    O2 7310   1.623   3.485   0.379 -0.0561  0.3796  0.0979
  492MPD2     C 7311   2.065   3.862  11.173 -0.2590 -0.2605  0.6106
  492MPD2    C1 7312   1.935   3.886  11.130 -0.2856 -0.8598  0.9310
  492MPD2    C2 7313   1.832   3.897  11.220 -0.5937 -0.1297  0.4168
  492MPD2    C3 7314   1.854   3.860  11.359  0.9391 -0.3299  0.2179
  492MPD2    C4 7315   1.984   3.824  11.396  0.3567 -0.1193  0.0238
  492MPD2    C5 7316   2.086   3.829  11.302  0.0014 -0.0269  0.1989
  492MPD2     H 7317   1.735   3.934  11.189 -0.0274  2.7345  2.0549
  492MPD2    H1 7318   2.014   3.802  11.497  2.3370 -1.2988 -0.8276
  492MPD2    H2 7319   2.148   3.875  11.105 -1.7741 -0.8502 -1.3505
  492MPD2    H3 7320   2.190   3.821  11.332  0.0307 -0.3373  0.0085
  492MPD2     N 7321   1.764   3.864  11.470 -0.3826 -0.1278 -0.1896
  492MPD2    H5 7322   1.800   3.866  11.565 -2.7726  1.4721  0.6668
  492MPD2    N1 7323   1.906   3.919  10.995 -0.0118  0.3263  0.1638
  492MPD2    H7 7324   1.808   3.925  10.973  0.7185  4.0154 -2.1350
  493TMC3    C1 7325   1.902   4.018  10.798 -0.1764 -0.0954  0.4260
  493TMC3    C2 7326   1.923   4.144  10.779 -0.4714  0.2025 -0.2404
  493TMC3    C3 7327   1.814   4.229  10.744  0.0125  0.5429 -0.8537
  493TMC3    C4 7328   1.780   3.968  10.775  0.5142  0.0266 -0.2705
  493TMC3    C5 7329   1.673   4.047  10.751  0.2080  0.0776  0.1929
  493TMC3    C6 7330   1.688   4.180  10.743 -0.4011  0.3220 -0.0234
  493TMC3     C 7331   1.989   3.960  10.901 -0.5058 -0.1469  0.6012
  493TMC3     O 7332   2.101   4.007  10.920 -0.3946 -0.1814 -0.1333
  493TMC3     H 7333   2.022   4.182  10.797  0.1310 -0.9147 -1.1720
  493TMC3    H1 7334   1.768   3.860  10.774 -0.2522  0.1145  0.2860
  493TMC3    H2 7335   1.599   4.241  10.733 -0.2536  0.5851  0.2281
  493TMC3    C7 7336   1.555   3.984  10.784  0.6925 -0.1688 -0.3149
  493TMC3    C8 7337   1.838   4.359  10.803 -0.3128 -0.3516 -0.1726
  493TMC3    O1 7338   1.538   3.878  10.729  0.2203  0.1312 -0.0029
  493TMC3    O2 7339   1.783   4.365  10.911  0.3660  0.3504 -0.4667
  494TMC3    C1 7340   2.337   0.632   0.927  0.9959 -0.7047  0.2436
  494TMC3    C2 7341   2.397   0.505   0.905 -0.5123 -0.0264 -0.0543
  494TMC3    C3 7342   2.483   0.501   0.799 -0.5410 -0.1218  0.5390
  494TMC3    C4 7343   2.361   0.740   0.841  0.0416 -0.6196  0.3586
  494TMC3    C5 7344   2.435   0.719   0.730  0.0946  0.1917 -0.8685
  494TMC3    C6 7345   2.504   0.598   0.704 -0.1005 -0.0314  0.4218
  494TMC3     C 7346   2.235   0.646   1.027  0.1540  0.3734  0.2406
  494TMC3     O 7347   2.135   0.706   0.990  0.7690  0.2935  0.1133
  494TMC3     H 7348   2.391   0.422   0.974 -0.2863  0.6637  0.7944
  494TMC3    H1 7349   2.306   0.833   0.852  1.6593  0.4704 -0.8384
  494TMC3    H2 7350   2.563   0.588   0.614 -1.6266 -0.0363 -0.5911
  494TMC3    C7 7351   2.418   0.803   0.611 -1.0128  0.2457 -0.0252
  494TMC3    C8 7352   2.560   0.378   0.785  0.2065  0.4116 -0.0541
  494TMC3    O1 7353   2.438   0.750   0.505 -0.8564 -0.4425  0.3277
  494TMC3    O2 7354   2.512   0.268   0.813  0.3803  0.3578  0.5327
  495TMC3    C1 7355   1.142   3.042  15.161  1.0011  0.5030  0.0386
  495TMC3    C2 7356   1.090   3.110  15.052 -1.0040 -0.2609  0.3207
  495TMC3    C3 7357   0.963   3.163  15.061  0.2708 -0.6446  0.0770
  495TMC3    C4 7358   1.074   3.048  15.283  0.1129  0.8948 -0.8809
  495TMC3    C5 7359   0.951   3.110  15.289  0.1725  0.1513  0.7270
  495TMC3    C6 7360   0.893   3.167  15.178 -0.2120  0.4715  0.2253
  495TMC3     C 7361   1.184   2.912  15.123 -0.0991 -0.1445 -0.0752
  495TMC3     O 7362   1.127   2.812  15.164 -0.6470 -0.0791 -0.4161
  495TMC3     H 7363   1.150   3.132  14.965  0.3513  1.1553  1.5966
  495TMC3    H1 7364   1.104   2.994  15.372 -0.8225 -1.9937 -2.3465
  495TMC3    H2 7365   0.795   3.212  15.180 -0.1079  0.7711 -1.6626
  495TMC3    C7 7366   0.863   3.065  15.390 -0.1265 -0.6700 -0.2106
  495TMC3    C8 7367   0.872   3.082  14.972 -0.3184 -0.5717  0.7101
  495TMC3    O1 7368   0.901   3.047  15.504  0.5637 -0.6285  0.7662
  495TMC3    O2 7369   0.760   3.051  15.010 -0.2494 -0.0467  0.2880
  496MPD2     C 7370   3.772   2.666  15.683  0.1387  0.3124  0.7019
  496MPD2    C1 7371   3.646   2.656  15.623  0.5219 -0.8942  0.3348
  496MPD2    C2 7372   3.543   2.651  15.715 -0.5210 -0.2851  0.1231
  496MPD2    C3 7373   3.560   2.659  15.855 -0.2648 -0.5151  0.1652
  496MPD2    C4 7374   3.687   2.660  15.911  0.2564 -0.1365  0.5137
  496MPD2    C5 7375   3.788   2.674  15.818  0.7006 -0.2144 -0.5970
  496MPD2     H 7376   3.442   2.638  15.680 -0.3812  1.1458 -0.7943
  496MPD2    H1 7377   3.714   2.658  16.016  1.0230  1.0044  0.3345
  496MPD2    H2 7378   3.863   2.668  15.624  0.4076 -1.2609  1.0431
  496MPD2    H3 7379   3.893   2.682  15.843  0.6205  0.2148 -0.4085
  496MPD2     N 7380   3.453   2.643  15.945 -0.0111  0.1348  0.2521
  496MPD2    H5 7381   3.468   2.624  16.044 -2.5817  0.1014  0.6335
  496MPD2    N1 7382   3.622   2.656  15.484 -0.4500 -0.1384  0.1732
  496MPD2    H7 7383   3.699   2.650  15.418 -1.0373  0.1073 -0.5258
  497TMC3    C1 7384   3.238   2.614  16.030  0.0811 -0.1331 -0.2633
  497TMC3    C2 7385   3.118   2.548  16.015  0.8202  0.3814 -0.0252
  497TMC3    C3 7386   3.031   2.545  16.130  0.6199 -0.1970  0.8109
  497TMC3    C4 7387   3.273   2.658  16.156 -0.2752  0.3210 -0.0735
  497TMC3    C5 7388   3.180   2.646  16.259 -0.8208  0.5462 -0.2395
  497TMC3    C6 7389   3.058   2.592  16.249  0.6463  0.0200  0.0717
  497TMC3     C 7390   3.317   2.630  15.918 -0.5602  0.8771  0.4291
  497TMC3     O 7391   3.251   2.628  15.815  0.0296  0.0608  0.1771
  497TMC3     H 7392   3.075   2.523  15.918 -0.6550 -0.8993  0.9633
  497TMC3    H1 7393   3.368   2.701  16.185 -1.1951  2.0684  0.3615
  497TMC3    H2 7394   3.004   2.578  16.341 -2.9719 -0.9087 -2.1982
  497TMC3    C7 7395   3.214   2.691  16.389 -0.5249  0.2116  0.3805
  497TMC3    C8 7396   2.898   2.490  16.113 -0.2571  0.4854  0.4197
  497TMC3    O1 7397   3.125   2.710  16.466 -0.2452 -0.0925  0.4967
  497TMC3    O2 7398   2.808   2.532  16.184 -0.4133 -0.5657  0.0462
  498MPD2     C 7399   4.669   3.169  10.079 -0.4516 -0.2781 -0.1961
  498MPD2    C1 7400   4.600   3.289  10.085  0.2962  0.4640  0.0504
  498MPD2    C2 7401   4.465   3.290  10.114 -0.1163  0.3049 -0.1884
  498MPD2    C3 7402   4.400   3.172  10.130  0.2932  0.8522 -0.0475
  498MPD2    C4 7403   4.463   3.055  10.099 -0.5529  0.2507 -0.2029
  498MPD2    C5 7404   4.595   3.051  10.076 -0.3574  0.1220 -0.0196
  498MPD2     H 7405   4.412   3.383  10.124 -1.1667 -0.4704  1.3927
  498MPD2    H1 7406   4.414   2.959  10.092  0.1979 -0.3245  2.8659
  498MPD2    H2 7407   0.051   3.160  10.066 -0.4660  0.4098 -0.7710
  498MPD2    H3 7408   4.634   2.951  10.065 -1.8987 -0.6718  1.9415
  498MPD2     N 7409   4.259   3.176  10.149  0.4364  0.2528  0.3115
  498MPD2    H5 7410   4.218   3.268  10.157  0.7260  0.4529 -0.5162
  498MPD2    N1 7411   4.657   3.413  10.056 -0.4789 -0.1921 -0.4495
  498MPD2    H7 7412   4.595   3.493  10.067 -0.4278 -0.1563 -0.4223
  499TMC3    C1 7413   0.098   3.569   9.967 -0.1148 -0.2276 -0.3121
  499TMC3    C2 7414   0.231   3.596   9.977 -0.1730  0.0321 -0.3662
  499TMC3    C3 7415   0.272   3.724   9.942 -0.1000  0.3154  0.1123
  499TMC3    C4 7416   0.010   3.663   9.929  0.4109 -0.3944 -0.4679
  499TMC3    C5 7417   0.055   3.784   9.885 -0.3632  0.2794 -0.8064
  499TMC3    C6 7418   0.188   3.819   9.896  0.3000 -0.2010 -0.3995
  499TMC3     C 7419   0.059   3.435  10.008 -0.2456 -0.0955  0.2283
  499TMC3     O 7420   0.148   3.349  10.001 -0.1585  0.1738 -0.4007
  499TMC3     H 7421   0.308   3.521   9.995 -0.3863  0.4353  2.2085
  499TMC3    H1 7422   4.629   3.648   9.932  0.6794 -2.0265  1.0235
  499TMC3    H2 7423   0.214   3.918   9.859 -1.0077 -0.0938 -1.0449
  499TMC3    C7 7424   4.695   3.881   9.825 -0.6500 -1.0859  0.5967
  499TMC3    C8 7425   0.416   3.743   9.922  0.8516  1.1280 -0.1247
  499TMC3    O1 7426   4.708   4.003   9.848 -0.4005 -0.0226 -0.4124
  499TMC3    O2 7427   0.447   3.844   9.860 -0.2801 -0.3471 -0.0081
  500MPD2     C 7428   1.304   4.702  10.132 -0.2117  0.1718 -0.4692
  500MPD2    C1 7429   1.238   4.703  10.249  0.1992  0.1641 -0.0358
  500MPD2    C2 7430   1.099   4.675  10.252  0.6083 -0.2266  0.0647
  500MPD2    C3 7431   1.040   4.636  10.129  0.5762  0.5311  0.1372
  500MPD2    C4 7432   1.113   4.638  10.011  1.4472 -0.1378 -0.1449
  500MPD2    C5 7433   1.237   4.678  10.012  0.3263 -0.7207  0.2396
  500MPD2     H 7434   1.051   4.668  10.349  0.0096 -1.0875 -0.2932
  500MPD2    H1 7435   1.065   4.613   9.917  0.1631  1.1333  0.1675
  500MPD2    H2 7436   1.412   4.713  10.131 -0.0445 -1.0481  2.8561
  500MPD2    H3 7437   1.301   4.686   9.925 -1.2234  1.2949 -0.7024
  500MPD2     N 7438   0.900   4.598  10.123  0.4044  0.4361  0.2880
  500MPD2    H5 7439   0.867   4.565  10.033  3.3546  1.8230 -1.3015
  500MPD2    N1 7440   1.301   0.017  10.372  0.5018 -0.4542 -0.1018
  500MPD2    H7 7441   1.242   0.022  10.455  2.1966 -1.3858  1.1703
  501TMC3    C1 7442   1.414   0.149  10.519 -0.2600  0.5461  0.0241
  501TMC3    C2 7443   1.473   0.272  10.512  0.0539 -0.2555 -0.1598
  501TMC3    C3 7444   1.457   0.345  10.629  0.1439 -0.4722 -0.0363
  501TMC3    C4 7445   1.340   0.096  10.622 -0.4937 -0.9632 -0.0183
  501TMC3    C5 7446   1.346   0.163  10.737  0.8209  0.2530 -1.0739
  501TMC3    C6 7447   1.403   0.288  10.740 -0.7061 -0.0299 -0.1811
  501TMC3     C 7448   1.409   0.089  10.388 -0.8291  0.1358 -0.2549
  501TMC3     O 7449   1.493   0.129  10.306  0.2712  0.2818  0.4676
  501TMC3     H 7450   1.523   0.308  10.423  0.6069 -0.9914 -0.1500
  501TMC3    H1 7451   1.297   4.723  10.621 -2.0222 -0.3076  1.9745
  501TMC3    H2 7452   1.401   0.349  10.830 -1.4783 -0.4014  0.0496
  501TMC3    C7 7453   1.316   0.105  10.865 -0.0685 -0.0921 -0.8307
  501TMC3    C8 7454   1.514   0.475  10.651 -0.4793 -0.4864  0.1168
  501TMC3    O1 7455   1.330   4.710  10.885  0.4271  0.2303  0.0859
  501TMC3    O2 7456   1.516   0.518  10.765 -0.0993  0.0419  1.0160
  502TMC3    C1 7457   0.395   3.303  15.356  1.0820 -0.3307  0.4413
  502TMC3    C2 7458   0.370   3.346  15.231 -0.0066  0.4074  0.0968
  502TMC3    C3 7459   0.256   3.419  15.206 -0.8561 -0.0139  0.1480
  502TMC3    C4 7460   0.313   3.331  15.457 -0.8326  0.9854 -0.8269
  502TMC3    C5 7461   0.197   3.401  15.429  0.3832 -0.0574 -0.4404
  502TMC3    C6 7462   0.162   3.448  15.305 -0.1498  0.1730 -0.6599
  502TMC3     C 7463   0.533   3.291  15.389  0.2341 -0.0580  1.0226
  502TMC3     O 7464   0.608   3.334  15.301 -0.1250  0.0516 -0.2814
  502TMC3     H 7465   0.438   3.334  15.148  2.0029  1.0159  1.6541
  502TMC3    H1 7466   0.332   3.293  15.557 -0.8909 -1.0959 -1.6252
  502TMC3    H2 7467   0.097   3.533  15.289 -1.8680 -0.9729  0.2612
  502TMC3    C7 7468   0.111   3.442  15.542  0.3440 -0.7020  0.3584
  502TMC3    C8 7469   0.275   3.536  15.121  0.4085  0.7024  0.0101
  502TMC3    O1 7470   0.166   3.464  15.651  0.4223 -0.2620 -0.1101
  502TMC3    O2 7471   0.269   3.642  15.181  0.1615 -0.0025 -0.7561
  503MPD2     C 7472   2.760   4.368  16.735 -0.6701  0.4776  0.9037
  503MPD2    C1 7473   2.774   4.385  16.869 -0.3242 -0.4106  0.0136
  503MPD2    C2 7474   2.794   4.272  16.942 -0.1755  0.3859 -1.0042
  503MPD2    C3 7475   2.824   4.143  16.888 -0.2908 -0.3103  0.5231
  503MPD2    C4 7476   2.803   4.128  16.748 -0.0404  0.7623  0.0126
  503MPD2    C5 7477   2.785   4.245  16.674  0.3478  0.2141 -0.5207
  503MPD2     H 7478   2.799   4.282  17.050  0.2916 -1.3189 -0.8709
  503MPD2    H1 7479   2.804   4.031  16.699  0.4295  0.5274  0.4950
  503MPD2    H2 7480   2.737   4.455  16.674  0.3933 -2.1867 -3.3346
  503MPD2    H3 7481   2.779   4.234  16.566 -2.1391 -0.9248 -0.2665
  503MPD2     N 7482   2.857   4.034  16.973  0.3444  0.1597  0.5924
  503MPD2    H5 7483   2.864   4.063  17.069 -0.1541  1.6944  0.1618
  503MPD2    N1 7484   2.750   4.508  16.933 -0.0964  0.1433 -0.4936
  503MPD2    H7 7485   2.734   4.499  17.033 -0.2687 -1.3487 -0.6589
  504TMC3    C1 7486   2.925   3.824  17.050 -0.0102 -0.0081 -0.1639
  504TMC3    C2 7487   2.903   3.876  17.177 -0.1589  0.2935 -0.1487
  504TMC3    C3 7488   2.975   3.827  17.282 -0.1387 -0.8850  0.5617
  504TMC3    C4 7489   3.020   3.730  17.033  0.3453  0.0348  0.4296
  504TMC3    C5 7490   3.091   3.683  17.142  0.0803 -0.2272  0.8646
  504TMC3    C6 7491   3.066   3.731  17.266 -0.8131 -0.1580  0.0250
  504TMC3     C 7492   2.891   3.912  16.937 -0.3235 -0.1399 -0.3143
  504TMC3     O 7493   2.908   3.870  16.823  0.8939 -0.3349  0.1347
  504TMC3     H 7494   2.821   3.943  17.200  1.5493  2.2176  0.3287
  504TMC3    H1 7495   3.030   3.679  16.938 -1.4176 -1.7804  1.2055
  504TMC3    H2 7496   3.116   3.707  17.359  0.2421 -0.3342 -0.5806
  504TMC3    C7 7497   3.208   3.607  17.115  0.1379  0.3674 -0.1034
  504TMC3    C8 7498   2.925   3.875  17.411 -0.9314 -0.2024  0.4598
  504TMC3    O1 7499   3.245   3.605  17.000 -0.0863  0.1983  0.5604
  504TMC3    O2 7500   2.853   3.974  17.416  0.2199 -0.2179  0.4411
  505MPD2     C 7501   3.089   3.293  10.137 -1.0363 -0.2237 -0.0906
  505MPD2    C1 7502   3.019   3.248  10.256  0.4669  0.3811 -0.8202
  505MPD2    C2 7503   3.033   3.326  10.374  0.4071  0.2987  0.4664
  505MPD2    C3 7504   3.112   3.438  10.381  0.5240  0.1578 -0.1431
  505MPD2    C4 7505   3.187   3.464  10.269  0.6394  0.0336 -0.3050
  505MPD2    C5 7506   3.176   3.398  10.154  0.2970  0.2259 -0.1489
  505MPD2     H 7507   2.985   3.297  10.467 -0.0522 -1.2088 -0.2377
  505MPD2    H1 7508   3.257   3.547  10.277  0.5583 -0.2025  2.9027
  505MPD2    H2 7509   3.085   3.240  10.043  1.9633  2.3577 -1.6859
  505MPD2    H3 7510   3.237   3.435  10.073 -2.6119 -2.6277 -3.7067
  505MPD2     N 7511   3.134   3.515  10.498  0.2021  0.6137  0.0901
  505MPD2    H5 7512   3.195   3.595  10.485  2.1137 -0.7452  0.7024
  505MPD2    N1 7513   2.956   3.126  10.254  0.6101  0.2088 -0.3612
  505MPD2    H7 7514   2.961   3.078  10.164  0.7175  0.0302 -0.2606
  506TMC3    C1 7515   2.864   2.931  10.347 -0.2503 -0.0766 -0.0478
  506TMC3    C2 7516   2.958   2.851  10.294  0.1048  0.2284 -0.3215
  506TMC3    C3 7517   2.983   2.730  10.359  0.6095  0.6153  0.1664
  506TMC3    C4 7518   2.800   2.894  10.467  0.9488  0.5428 -0.2866
  506TMC3    C5 7519   2.848   2.786  10.545 -0.1689 -0.2350 -0.2172
  506TMC3    C6 7520   2.943   2.707  10.485  0.2953 -0.3861  0.6639
  506TMC3     C 7521   2.881   3.070  10.357  0.6879 -0.2577  0.2901
  506TMC3     O 7522   2.868   3.113  10.471  0.6625 -0.1360  0.2342
  506TMC3     H 7523   3.004   2.880  10.201  1.7659 -2.1960 -0.2542
  506TMC3    H1 7524   2.716   2.953  10.500 -0.5268 -1.7251 -0.0229
  506TMC3    H2 7525   2.999   2.633  10.542 -0.8477 -0.5751  1.5267
  506TMC3    C7 7526   2.856   2.791  10.686  0.5854  0.2112 -0.0933
  506TMC3    C8 7527   3.092   2.651  10.303  0.0778 -0.4362 -0.3637
  506TMC3    O1 7528   2.904   2.708  10.759  0.0636 -0.5940 -0.0034
  506TMC3    O2 7529   3.083   2.529  10.318  0.0608  0.2300 -0.3613
  507TMC3    C1 7530   3.241   3.719  15.228  0.3147  0.3388  0.5107
  507TMC3    C2 7531   3.274   3.694  15.094 -0.2212 -0.8047 -0.3976
  507TMC3    C3 7532   3.394   3.748  15.055  0.1170 -0.6401  0.5157
  507TMC3    C4 7533   3.307   3.812  15.309  0.1806 -0.2556 -0.2701
  507TMC3    C5 7534   3.421   3.869  15.259  0.7277 -0.2363 -0.3908
  507TMC3    C6 7535   3.470   3.827  15.137  0.5182 -0.0207 -0.0894
  507TMC3     C 7536   3.178   3.600  15.289  0.3304  0.0626  0.2747
  507TMC3     O 7537   3.206   3.493  15.237 -0.2920  0.6335 -0.2944
  507TMC3     H 7538   3.207   3.647  15.023 -1.4362  1.7243 -0.8939
  507TMC3    H1 7539   3.295   3.830  15.415 -1.2885  0.6655 -0.6047
  507TMC3    H2 7540   3.561   3.865  15.092 -0.7729  0.8647 -1.9654
  507TMC3    C7 7541   3.449   4.008  15.287 -0.1168 -0.3078  0.4904
  507TMC3    C8 7542   3.377   3.821  14.933 -0.2640  0.6365  0.1181
  507TMC3    O1 7543   3.445   4.052  15.399  0.4675  0.1262 -0.0993
  507TMC3    O2 7544   3.340   3.934  14.953  0.1777  0.0860  0.3312
  508MPD2     C 7545   4.641   1.297  16.389 -0.4715 -0.5365 -0.2221
  508MPD2    C1 7546   4.621   1.407  16.464  0.5854 -0.1516  0.6473
  508MPD2    C2 7547   4.604   1.532  16.399  0.2392  0.3520 -0.2082
  508MPD2    C3 7548   4.615   1.546  16.265  0.2801  0.1173 -0.3142
  508MPD2    C4 7549   4.621   1.428  16.191  0.0261 -0.1813 -0.5542
  508MPD2    C5 7550   4.639   1.304  16.254 -0.0802 -0.1096 -0.2148
  508MPD2     H 7551   4.614   1.621  16.460 -0.2637  0.5657 -0.4377
  508MPD2    H1 7552   4.612   1.438  16.083  0.2638 -2.3032 -0.7836
  508MPD2    H2 7553   4.657   1.203  16.440  0.5088 -0.0789  0.3249
  508MPD2    H3 7554   4.635   1.209  16.201  2.5127 -0.3160 -0.0388
  508MPD2     N 7555   4.612   1.677  16.215  0.4173  0.2845 -0.4207
  508MPD2    H5 7556   4.584   1.747  16.283  2.2482  1.1918 -0.6092
  508MPD2    N1 7557   4.628   1.388  16.602  0.5165  0.1233 -0.2634
  508MPD2    H7 7558   4.654   1.297  16.639 -1.0545 -0.5188 -0.7652
  509TMC3    C1 7559   4.541   2.057  15.964  0.0574  0.4235 -0.4904
  509TMC3    C2 7560   4.618   2.136  16.035 -0.1171  0.3121  0.2177
  509TMC3    C3 7561   4.674   2.079  16.153  0.7982  0.4172  0.1861
  509TMC3    C4 7562   4.515   1.928  15.986  1.0097 -0.3052  0.2658
  509TMC3    C5 7563   4.598   1.870  16.080 -0.4228 -0.3775  0.4289
  509TMC3    C6 7564   4.669   1.941  16.172 -0.2484  0.5442  0.1107
  509TMC3     C 7565   4.426   2.122  15.908  0.3837 -0.4431 -0.2753
  509TMC3     O 7566   4.319   2.066  15.939 -0.1709  0.3199  0.0075
  509TMC3     H 7567   4.608   2.244  16.033 -0.3693  0.2875  0.2053
  509TMC3    H1 7568   4.459   1.856  15.927 -0.8522  1.0994  0.2952
  509TMC3    H2 7569   0.002   1.900  16.254 -2.5892 -0.9369  1.0695
  509TMC3    C7 7570   4.613   1.721  16.082  0.0168 -1.4844  0.0083
  509TMC3    C8 7571   0.041   2.152  16.240 -0.1448  0.1756  0.0324
  509TMC3    O1 7572   4.610   1.656  15.978  0.5037  0.5966  0.5183
  509TMC3    O2 7573   0.061   2.108  16.352 -0.0100 -0.4362  0.4789
  510MPD2     C 7574   2.842   3.547  14.440  1.2263 -0.5646 -0.0587
  510MPD2    C1 7575   2.882   3.428  14.497 -0.0304  0.0434  0.8485
  510MPD2    C2 7576   2.983   3.351  14.439 -0.7688  0.1862 -0.5898
  510MPD2    C3 7577   3.059   3.403  14.332  0.0063 -0.3964 -0.4762
  510MPD2    C4 7578   3.027   3.521  14.283  0.1327  0.0558  0.7686
  510MPD2    C5 7579   2.915   3.593  14.333 -0.9066 -0.3807 -0.5877
  510MPD2     H 7580   3.008   3.251  14.471 -0.4183  0.5308  0.2153
  510MPD2    H1 7581   3.093   3.584  14.226  0.4855 -2.2820 -1.4196
  510MPD2    H2 7582   2.769   3.616  14.481 -0.1126 -3.0830  1.8366
  510MPD2    H3 7583   2.899   3.694  14.295  1.2037  0.5838  1.1040
  510MPD2     N 7584   3.176   3.333  14.288  0.6437 -0.5995 -0.0342
  510MPD2    H5 7585   3.192   3.237  14.317  1.6847 -0.4773 -0.1916
  510MPD2    N1 7586   2.804   3.383  14.606 -0.1376  0.3814 -0.2115
  510MPD2    H7 7587   2.741   3.455  14.640 -0.7942  0.0960 -0.8163
  511TMC3    C1 7588   2.731   3.229  14.785  0.3514 -0.2076 -0.3103
  511TMC3    C2 7589   2.626   3.310  14.834 -0.0946  0.0899  0.3922
  511TMC3    C3 7590   2.546   3.247  14.917 -0.0380  0.1615  0.2569
  511TMC3    C4 7591   2.753   3.100  14.828 -0.3982 -0.6266 -0.1572
  511TMC3    C5 7592   2.662   3.044  14.911  0.3738 -0.1019 -0.3470
  511TMC3    C6 7593   2.556   3.119  14.956  0.0552  0.6873 -0.0378
  511TMC3     C 7594   2.830   3.271  14.675  0.2090  0.2147 -0.0773
  511TMC3     O 7595   2.912   3.187  14.654 -0.0905 -0.6444 -0.1487
  511TMC3     H 7596   2.623   3.416  14.808 -0.3566  0.6551  2.7452
  511TMC3    H1 7597   2.838   3.042  14.794  2.2933  1.1986  3.4623
  511TMC3    H2 7598   2.480   3.076  15.019 -1.7651  2.2659 -1.1778
  511TMC3    C7 7599   2.669   2.903  14.936  0.0057  0.1694 -0.7397
  511TMC3    C8 7600   2.436   3.319  14.972  0.2636 -0.2708  0.0889
  511TMC3    O1 7601   2.775   2.849  14.913 -0.1020 -0.4273 -0.8130
  511TMC3    O2 7602   2.461   3.435  15.015 -0.0687  0.4118  0.1827
  512TMC3    C1 7603   1.136   2.738  13.944  0.0624 -0.3586  0.0824
  512TMC3    C2 7604   1.255   2.694  14.006  0.5484  0.8417 -0.4415
  512TMC3    C3 7605   1.313   2.584  13.954  0.1674  0.8854  0.0765
  512TMC3    C4 7606   1.082   2.676  13.830 -0.1429 -0.0657 -0.0414
  512TMC3    C5 7607   1.163   2.581  13.773 -0.2687  0.0888  0.5438
  512TMC3    C6 7608   1.270   2.537  13.834 -0.0045  0.3039 -0.9032
  512TMC3     C 7609   1.090   2.874  13.977  0.3105 -0.4345  0.3428
  512TMC3     O 7610   1.173   2.944  14.035  0.4786  0.0604 -0.2203
  512TMC3     H 7611   1.279   2.722  14.108 -0.6667 -1.9559  0.6402
  512TMC3    H1 7612   0.995   2.709  13.774  0.7979 -0.6628 -1.8589
  512TMC3    H2 7613   1.329   2.459  13.788  1.4830  1.5474 -1.0890
  512TMC3    C7 7614   1.137   2.556  13.634 -0.3182  0.4329  0.3663
  512TMC3    C8 7615   1.446   2.545  13.986  0.1840 -0.3821 -0.0946
  512TMC3    O1 7616   1.067   2.637  13.571  0.3564 -0.1967 -0.0895
  512TMC3    O2 7617   1.473   2.433  13.956  0.1005  0.4588  0.0870
  513MPD2     C 7618   3.184   2.371  13.503  0.2700 -0.1774 -0.8461
  513MPD2    C1 7619   3.219   2.359  13.374  0.2717  0.5419  0.6455
  513MPD2    C2 7620   3.355   2.356  13.343 -0.3711  0.4619  0.6672
  513MPD2    C3 7621   3.450   2.361  13.441  0.1234 -0.3421  0.2281
  513MPD2    C4 7622   3.414   2.370  13.571 -0.2264 -0.2251 -0.0972
  513MPD2    C5 7623   3.275   2.374  13.602  0.0002 -0.0605 -0.0204
  513MPD2     H 7624   3.386   2.359  13.239 -1.4741 -1.2099  0.2886
  513MPD2    H1 7625   3.490   2.378  13.648 -0.1205 -2.2170 -0.0069
  513MPD2    H2 7626   3.080   2.361  13.531  0.4924 -3.1795 -1.1201
  513MPD2    H3 7627   3.239   2.379  13.704  0.8047 -0.8503  0.3059
  513MPD2     N 7628   3.585   2.362  13.389 -0.8461  0.1959 -0.2649
  513MPD2    H5 7629   3.595   2.353  13.288 -0.7699 -1.7621 -0.0721
  513MPD2    N1 7630   3.119   2.327  13.279  0.5907  0.5618 -0.6653
  513MPD2    H7 7631   3.023   2.340  13.310  0.5099 -0.3321 -0.5120
  514TMC3    C1 7632   3.028   2.269  13.075  0.3221 -0.1002 -0.1542
  514TMC3    C2 7633   2.977   2.390  13.051  1.2984  0.5058 -0.7668
  514TMC3    C3 7634   2.935   2.403  12.919 -0.8636  0.7644  0.2979
  514TMC3    C4 7635   3.036   2.169  12.984 -0.2445  0.8028  0.2261
  514TMC3    C5 7636   3.036   2.209  12.852 -1.3916 -0.1618 -0.3108
  514TMC3    C6 7637   2.967   2.318  12.817 -0.1855 -0.7797  0.0225
  514TMC3     C 7638   3.145   2.277  13.154  0.3376  0.2148  0.2545
  514TMC3     O 7639   3.251   2.237  13.110 -0.0593  0.4717 -0.2826
  514TMC3     H 7640   2.963   2.458  13.134 -1.2991 -0.0944 -0.7253
  514TMC3    H1 7641   3.094   2.083  13.015  0.0292  0.3000 -1.6655
  514TMC3    H2 7642   2.963   2.346  12.712  0.6434 -1.7650 -0.2623
  514TMC3    C7 7643   3.151   2.171  12.767  0.0391 -0.2965  0.3387
  514TMC3    C8 7644   2.875   2.528  12.880  0.2135 -0.8535  0.7371
  514TMC3    O1 7645   3.128   2.192  12.646  0.0877  0.6031  0.1958
  514TMC3    O2 7646   2.885   2.612  12.966  0.3167 -0.3589 -0.9482
  515MPD2     C 7647   1.655   4.022  14.845 -0.4840  0.5015  0.3055
  515MPD2    C1 7648   1.572   4.132  14.836  0.8334  0.1732  0.6392
  515MPD2    C2 7649   1.597   4.251  14.916 -0.1388  0.5616  0.1336
  515MPD2    C3 7650   1.690   4.244  15.020 -0.1451  0.5878 -0.2898
  515MPD2    C4 7651   1.756   4.123  15.039 -0.5298  0.5957  0.0202
  515MPD2    C5 7652   1.750   4.022  14.947 -0.0679 -0.6733  0.0159
  515MPD2     H 7653   1.542   4.344  14.903  1.1978  1.6324  2.0445
  515MPD2    H1 7654   1.833   4.113  15.114  0.1139 -1.7321 -0.9369
  515MPD2    H2 7655   1.644   3.932  14.785  0.9872  0.3037  0.3288
  515MPD2    H3 7656   1.809   3.933  14.967 -0.8729 -1.3867 -0.7395
  515MPD2     N 7657   1.726   4.354  15.098 -0.2447 -0.3624  0.7417
  515MPD2    H5 7658   1.790   4.341  15.175 -0.2685 -1.3507  0.5926
  515MPD2    N1 7659   1.470   4.127  14.744  0.4236  0.1741 -0.1109
  515MPD2    H7 7660   1.456   4.038  14.696 -1.9105  1.0107 -1.0333
  516TMC3    C1 7661   1.268   4.182  14.635  0.9389 -0.6307  0.3275
  516TMC3    C2 7662   1.164   4.273  14.629 -0.9086 -0.0277  0.0218
  516TMC3    C3 7663   1.042   4.222  14.610  0.5223  0.3102  0.2588
  516TMC3    C4 7664   1.246   4.046  14.627 -0.6492  0.3222 -0.2279
  516TMC3    C5 7665   1.115   3.999  14.623 -0.2215  0.6520  0.3447
  516TMC3    C6 7666   1.011   4.088  14.618 -0.0406 -0.3308  0.2167
  516TMC3     C 7667   1.380   4.225  14.715  0.5449  0.0516  0.5206
  516TMC3     O 7668   1.398   4.347  14.717  0.2521  0.6367  0.8034
  516TMC3     H 7669   1.201   4.375  14.621 -1.2442 -0.2057 -3.8347
  516TMC3    H1 7670   1.325   3.971  14.631 -0.2610  0.7361 -0.1650
  516TMC3    H2 7671   0.907   4.066  14.595 -0.0257  0.5021 -0.6530
  516TMC3    C7 7672   1.099   3.867  14.679 -0.3690  0.0653 -0.0828
  516TMC3    C8 7673   0.930   4.311  14.602 -0.6369  0.4186 -0.1589
  516TMC3    O1 7674   1.202   3.802  14.666 -0.2011 -0.1617  0.1271
  516TMC3    O2 7675   0.820   4.260  14.582  0.0321  0.1469  0.4495
  517MPD2     C 7676   1.105   1.059  17.450  0.0346 -0.3401 -0.0056
  517MPD2    C1 7677   1.220   1.032  17.517  0.2438  0.8407 -0.7192
  517MPD2    C2 7678   1.252   1.105  17.633 -0.0399 -0.2530  0.0260
  517MPD2    C3 7679   1.154   1.179  17.699  0.6265 -0.3683  0.2330
  517MPD2    C4 7680   1.029   1.187  17.636  0.0199 -0.8087 -0.3316
  517MPD2    C5 7681   1.011   1.130  17.513 -0.1117 -0.9672  0.1336
  517MPD2     H 7682   1.350   1.081  17.674 -0.4725 -0.4537  0.9267
  517MPD2    H1 7683   0.944   1.240  17.675  0.9827  1.6411 -1.5145
  517MPD2    H2 7684   1.079   1.014  17.354  0.9032 -0.1220 -0.3410
  517MPD2    H3 7685   0.918   1.142  17.458  1.2747 -0.2016 -2.0332
  517MPD2     N 7686   1.177   1.232   0.124 -0.3374  0.1558  0.7332
  517MPD2    H5 7687   1.090   1.256   0.170  1.4724 -0.5204  4.5256
  517MPD2    N1 7688   1.317   0.942  17.466  0.1839  0.2659 -0.2465
  517MPD2    H7 7689   1.404   0.930  17.517 -0.1950  0.3941  0.4326
  518TMC3    C1 7690   1.394   0.755  17.340 -0.3689  0.7633  0.9678
  518TMC3    C2 7691   1.361   0.626  17.331 -0.2359 -0.7297  0.4117
  518TMC3    C3 7692   1.462   0.541  17.347  0.5479 -0.1106 -0.3591
  518TMC3    C4 7693   1.520   0.797  17.365  0.0630  0.1238 -0.0438
  518TMC3    C5 7694   1.619   0.709  17.371 -0.2551 -1.5015  0.0368
  518TMC3    C6 7695   1.593   0.575  17.369 -0.1420  0.1990  0.3426
  518TMC3     C 7696   1.284   0.841  17.377 -0.6793 -0.4608 -0.1932
  518TMC3     O 7697   1.170   0.808  17.341 -0.5378  0.2439 -0.0174
  518TMC3     H 7698   1.258   0.592  17.334 -0.9986  1.9583  3.7842
  518TMC3    H1 7699   1.547   0.900  17.343  0.1650 -0.5861 -3.3342
  518TMC3    H2 7700   1.670   0.500  17.373 -1.1632 -0.8956 -0.5191
  518TMC3    C7 7701   1.751   0.747  17.336  0.1828  0.4449 -0.2765
  518TMC3    C8 7702   1.442   0.395  17.324 -0.1437  0.5372  0.0774
  518TMC3    O1 7703   1.786   0.858  17.373  0.0723  0.3577 -0.1294
  518TMC3    O2 7704   1.530   0.328  17.376 -0.0822 -0.5374 -0.3065
  519MPD2     C 7705   2.936   4.009  14.385 -0.0331  0.6379 -0.3743
  519MPD2    C1 7706   2.857   4.019  14.269  0.0047 -0.4156 -0.3846
  519MPD2    C2 7707   2.916   3.998  14.147  0.9167  0.1613  0.1469
  519MPD2    C3 7708   3.051   3.984  14.136  0.0546  1.1203  0.2963
  519MPD2    C4 7709   3.130   3.987  14.250  0.8708 -0.2399  0.1311
  519MPD2    C5 7710   3.072   3.992  14.373 -0.0879 -0.2304  0.0797
  519MPD2     H 7711   2.850   3.975  14.064  0.9403 -0.2932  0.2535
  519MPD2    H1 7712   3.236   3.963  14.239  0.2680 -2.4500 -0.9842
  519MPD2    H2 7713   2.882   4.016  14.479  1.5312 -1.2443  0.6575
  519MPD2    H3 7714   3.131   3.966  14.460  0.1696 -2.9541 -0.9007
  519MPD2     N 7715   3.117   3.957  14.015  0.3607  0.1359 -0.2940
  519MPD2    H5 7716   3.217   3.943  14.024  0.3219 -0.9904 -1.7057
  519MPD2    N1 7717   2.720   4.048  14.274  0.0306  0.2016  0.5110
  519MPD2    H7 7718   2.673   4.039  14.363  0.6405  2.3392  1.0396
  520TMC3    C1 7719   3.133   3.897  13.790 -0.9134 -0.1495 -0.3817
  520TMC3    C2 7720   3.065   3.857  13.679  0.6059 -0.2625 -0.1741
  520TMC3    C3 7721   3.113   3.756  13.607  0.0778  0.8176  0.2992
  520TMC3    C4 7722   3.260   3.850  13.800 -0.2917 -0.7771 -0.4198
  520TMC3    C5 7723   3.313   3.753  13.722 -0.0134  0.2564 -0.0308
  520TMC3    C6 7724   3.230   3.691  13.628  0.1511 -0.4157  0.1248
  520TMC3     C 7725   3.057   3.948  13.894 -0.0507 -0.0341 -0.5088
  520TMC3     O 7726   2.946   3.988  13.859 -0.5591 -0.6407 -0.3405
  520TMC3     H 7727   2.992   3.927  13.640  1.1915 -0.6894 -2.0344
  520TMC3    H1 7728   3.310   3.898  13.884 -1.6200 -0.6481  0.3126
  520TMC3    H2 7729   3.276   3.623  13.558 -0.0839  0.8764 -1.2789
  520TMC3    C7 7730   3.412   3.671  13.785 -0.1977 -0.4123 -0.1249
  520TMC3    C8 7731   3.040   3.709  13.495 -0.1295 -0.0628 -0.7175
  520TMC3    O1 7732   3.431   3.713  13.901  0.0799  0.1274 -0.1546
  520TMC3    O2 7733   3.099   3.655  13.400 -0.2092  0.5206 -0.5068
  521MPD2     C 7734   3.558   2.397   0.140  0.0441 -0.0520 -0.3226
  521MPD2    C1 7735   3.519   2.308   0.043 -0.1130  0.0943 -0.0284
  521MPD2    C2 7736   3.587   2.305  17.629  0.2114  0.3689 -0.1848
  521MPD2    C3 7737   3.700   2.387  17.612 -0.3653 -0.4279 -0.1107
  521MPD2    C4 7738   3.744   2.462   0.010 -0.0762 -0.4206  0.3480
  521MPD2    C5 7739   3.669   2.474   0.124  0.3365  0.0820 -0.4277
  521MPD2     H 7740   3.549   2.259  17.538  3.7730 -2.0915 -0.4418
  521MPD2    H1 7741   3.841   2.509   0.002 -0.2579  0.0315  0.7997
  521MPD2    H2 7742   3.497   2.421   0.226  0.7235 -0.6075  0.3104
  521MPD2    H3 7743   3.676   2.553   0.198 -0.7227 -0.1056 -0.1284
  521MPD2     N 7744   3.783   2.369  17.491 -0.0827 -0.0233 -0.2477
  521MPD2    H5 7745   3.754   2.303  17.419 -1.1259 -0.7940  0.8768
  521MPD2    N1 7746   3.408   2.227   0.068 -0.3617  0.0213  0.1723
  521MPD2    H7 7747   3.370   2.229   0.162 -1.0801  1.2338 -0.1476
  522TMC3    C1 7748   3.973   2.366  17.356  0.2674 -0.3767  0.1456
  522TMC3    C2 7749   4.100   2.324  17.379  0.4598  0.3201  0.1247
  522TMC3    C3 7750   4.147   2.219  17.300  0.9521  0.0742  0.4058
  522TMC3    C4 7751   3.900   2.329  17.249  0.3165  0.7967 -0.1026
  522TMC3    C5 7752   3.966   2.240  17.160  0.8583 -0.1353  0.4121
  522TMC3    C6 7753   4.086   2.176  17.186 -0.4284 -0.2748 -0.4816
  522TMC3     C 7754   3.907   2.424  17.467  0.9652  0.6708  0.1805
  522TMC3     O 7755   3.969   2.505  17.533  0.1618  0.2295  0.4216
  522TMC3     H 7756   4.140   2.351  17.476  2.3541 -0.1540 -0.5266
  522TMC3    H1 7757   3.800   2.366  17.228 -0.1873  0.3536  1.5824
  522TMC3    H2 7758   4.120   2.087  17.134  3.7868  0.1509  1.5303
  522TMC3    C7 7759   3.897   2.181  17.039  0.4637  0.1765  0.2117
  522TMC3    C8 7760   4.271   2.177  17.347 -0.0846  0.4164  0.5343
  522TMC3    O1 7761   3.967   2.142  16.947  0.1648 -0.1318 -0.3924
  522TMC3    O2 7762   4.325   2.249  17.426  0.4207 -0.0331 -0.2655
  523MPD2     C 7763   1.574   1.765  10.553  0.8528 -0.0824  0.1781
  523MPD2    C1 7764   1.577   1.713  10.430 -0.3596 -0.5107  0.6642
  523MPD2    C2 7765   1.519   1.782  10.329  0.2663  0.5157 -0.0192
  523MPD2    C3 7766   1.461   1.907  10.350 -0.2593  0.0655 -0.9771
  523MPD2    C4 7767   1.468   1.960  10.480  0.1937  0.6428  0.6822
  523MPD2    C5 7768   1.519   1.889  10.579 -0.1558 -0.3517 -0.2062
  523MPD2     H 7769   1.542   1.750  10.228 -2.7447  2.3433 -1.2996
  523MPD2    H1 7770   1.416   2.048  10.515 -1.3723  0.4842 -1.2642
  523MPD2    H2 7771   1.618   1.703  10.630  0.3387 -2.6048 -1.5799
  523MPD2    H3 7772   1.519   1.928  10.680  1.1806  0.9914 -0.7160
  523MPD2     N 7773   1.398   1.992  10.258 -0.1809 -0.4012 -0.4677
  523MPD2    H5 7774   1.372   2.081  10.298 -0.5809  0.1187 -1.8753
  523MPD2    N1 7775   1.621   1.579  10.416  0.1210 -0.0187  0.2441
  523MPD2    H7 7776   1.674   1.543  10.495 -1.4160 -3.1702 -0.1533
  524TMC3    C1 7777   1.301   2.061  10.056 -0.1631 -0.3678  0.5575
  524TMC3    C2 7778   1.295   2.047   9.921 -0.6715  0.0215  0.9265
  524TMC3    C3 7779   1.246   2.144   9.843 -0.3958 -0.1469  0.2544
  524TMC3    C4 7780   1.241   2.165  10.127  0.4422 -0.0606 -0.3557
  524TMC3    C5 7781   1.205   2.272  10.042 -0.1013  0.5979  0.3201
  524TMC3    C6 7782   1.202   2.264   9.905  0.2749  0.0935  0.5051
  524TMC3     C 7783   1.379   1.959  10.127  0.2078 -0.4474 -0.1372
  524TMC3     O 7784   1.419   1.862  10.066  0.3137  0.4885 -0.1278
  524TMC3     H 7785   1.351   1.965   9.876 -0.6720  0.5152  0.0113
  524TMC3    H1 7786   1.242   2.180  10.234  1.2290  2.2821 -0.6960
  524TMC3    H2 7787   1.154   2.344   9.850 -1.7342 -1.0859  0.5698
  524TMC3    C7 7788   1.185   2.399  10.108 -0.0348  0.4975 -0.3198
  524TMC3    C8 7789   1.209   2.126   9.701  0.7645  0.6145 -0.6252
  524TMC3    O1 7790   1.202   2.383  10.229 -0.8390 -0.3433  0.3724
  524TMC3    O2 7791   1.150   2.216   9.644 -0.2831  0.6021 -0.5149
  525MPD2     C 7792   4.032   3.670  14.542 -0.4111 -0.6349  0.1728
  525MPD2    C1 7793   4.149   3.683  14.619 -0.5830  0.1243  0.2975
  525MPD2    C2 7794   4.238   3.793  14.603 -0.2089  0.0373  0.4466
  525MPD2    C3 7795   4.188   3.905  14.536  0.0667 -0.7619  0.0005
  525MPD2    C4 7796   4.062   3.892  14.469 -0.1515  0.6408  0.2056
  525MPD2    C5 7797   3.984   3.774  14.471 -0.4277  0.3513  0.1438
  525MPD2     H 7798   4.338   3.797  14.644  0.0968 -0.9642 -0.1978
  525MPD2    H1 7799   4.022   3.975  14.413  0.0665  1.1916  0.8601
  525MPD2    H2 7800   3.983   3.574  14.534 -1.0091 -0.2498 -0.8651
  525MPD2    H3 7801   3.893   3.763  14.413  0.3488 -3.0065 -0.4301
  525MPD2     N 7802   4.246   4.032  14.537  0.1316 -0.2667  0.1267
  525MPD2    H5 7803   4.194   4.110  14.498 -1.8159 -1.0244  1.2052
  525MPD2    N1 7804   4.190   3.575  14.696  0.3835 -0.1169  0.1290
  525MPD2    H7 7805   4.282   3.588  14.739  0.4923 -1.7389  0.3622
  526TMC3    C1 7806   4.192   3.367  14.806 -0.1233 -0.2515 -0.3781
  526TMC3    C2 7807   4.142   3.331  14.930 -0.1883  0.2505  0.3366
  526TMC3    C3 7808   4.228   3.273  15.014 -0.1332  0.7045 -0.1456
  526TMC3    C4 7809   4.316   3.334  14.772  0.2878 -0.2611 -0.2926
  526TMC3    C5 7810   4.395   3.265  14.855  0.7666 -0.2560  1.1376
  526TMC3    C6 7811   4.359   3.239  14.976 -0.7679 -0.9924  0.2668
  526TMC3     C 7812   4.123   3.463  14.731 -0.3736 -0.3967 -0.2349
  526TMC3     O 7813   4.007   3.431  14.726 -0.0645 -1.0178 -0.3136
  526TMC3     H 7814   4.049   3.377  14.962 -1.8693 -1.7993 -1.6180
  526TMC3    H1 7815   4.343   3.359  14.670  0.6456 -0.4652 -0.2489
  526TMC3    H2 7816   4.422   3.181  15.042 -1.2663 -2.1892 -0.3061
  526TMC3    C7 7817   4.512   3.193  14.807 -0.4797  0.2750  0.1694
  526TMC3    C8 7818   4.182   3.252  15.146 -0.3725 -0.2310 -0.1820
  526TMC3    O1 7819   4.570   3.117  14.882 -0.4388  0.2191  0.4648
  526TMC3    O2 7820   4.266   3.233  15.235 -0.4071 -0.1767  0.2936
  527MPD2     C 7821   2.120   0.693   1.587 -0.1347  0.4755 -0.2326
  527MPD2    C1 7822   2.169   0.802   1.510 -0.2977 -0.0138 -0.3057
  527MPD2    C2 7823   2.309   0.801   1.476  0.7358 -0.9869 -0.3848
  527MPD2    C3 7824   2.384   0.689   1.499 -0.0885  0.5378  0.0210
  527MPD2    C4 7825   2.326   0.579   1.566  0.0280  0.3929 -0.4358
  527MPD2    C5 7826   2.196   0.582   1.608 -0.1106  0.4850  0.9488
  527MPD2     H 7827   2.346   0.893   1.430 -2.8327 -0.4476 -2.1415
  527MPD2    H1 7828   2.392   0.499   1.599  1.6377  2.1335  0.5896
  527MPD2    H2 7829   2.017   0.696   1.623 -0.5095 -0.6364 -1.2029
  527MPD2    H3 7830   2.147   0.498   1.657 -0.9748  1.7482  2.2623
  527MPD2     N 7831   2.520   0.709   1.464 -0.4332  0.1343  0.0047
  527MPD2    H5 7832   2.539   0.805   1.436  2.4242 -0.8491 -1.4913
  527MPD2    N1 7833   2.095   0.915   1.482  0.4085  0.5219 -0.3113
  527MPD2    H7 7834   2.137   1.000   1.447  0.2036  1.0708  0.7689
  528TMC3    C1 7835   1.912   1.056   1.451  0.1801  0.0351  0.1352
  528TMC3    C2 7836   1.984   1.166   1.495 -0.3786  0.0769  0.3783
  528TMC3    C3 7837   1.927   1.286   1.483 -0.1363  0.2044 -0.5699
  528TMC3    C4 7838   1.780   1.068   1.408 -0.3637 -0.5709 -0.1890
  528TMC3    C5 7839   1.731   1.192   1.395 -0.4438 -0.1436  0.5957
  528TMC3    C6 7840   1.798   1.302   1.422  0.3090  0.0212 -0.2812
  528TMC3     C 7841   1.957   0.923   1.487 -0.3581  0.6123 -0.5836
  528TMC3     O 7842   1.880   0.826   1.494  0.4166  0.7452  0.4592
  528TMC3     H 7843   2.083   1.156   1.540  0.3330  0.4478 -1.1071
  528TMC3    H1 7844   1.730   0.983   1.363 -0.0447  0.6314 -2.8041
  528TMC3    H2 7845   1.747   1.396   1.406  0.6724  0.2122 -0.3121
  528TMC3    C7 7846   1.611   1.213   1.309  0.3818  0.0375 -0.2182
  528TMC3    C8 7847   1.976   1.398   1.554  0.2898  0.1599 -0.0248
  528TMC3    O1 7848   1.523   1.129   1.318  0.0012  0.4936  0.3426
  528TMC3    O2 7849   1.994   1.509   1.493 -0.1198 -0.8791 -0.2336
  529MPD2     C 7850   4.334   4.617   0.723  0.5564  0.0165  0.7977
  529MPD2    C1 7851   4.440   4.542   0.667  0.1148  0.3329 -0.1414
  529MPD2    C2 7852   4.508   4.585   0.550 -0.0109 -0.2381 -1.1312
  529MPD2    C3 7853   4.474   4.712   0.492 -0.8883  0.5879 -1.0020
  529MPD2    C4 7854   4.384   0.068   0.562  0.6010  0.0689  0.0496
  529MPD2    C5 7855   4.319   0.016   0.673  0.6040  0.5809 -0.1080
  529MPD2     H 7856   4.593   4.528   0.515  0.9612  1.4351 -1.4700
  529MPD2    H1 7857   4.363   0.173   0.542 -4.7071 -0.8627  0.6093
  529MPD2    H2 7858   4.275   4.575   0.803 -2.3742 -0.9165 -1.8643
  529MPD2    H3 7859   4.239   0.080   0.707 -0.9533 -1.4862  0.1645
  529MPD2     N 7860   4.541   0.042   0.382 -0.6848  0.0083  0.3923
  529MPD2    H5 7861   4.511   0.134   0.352  0.5200 -0.7887 -3.1758
  529MPD2    N1 7862   4.502   4.424   0.730  0.1445 -0.3629 -0.4653
  529MPD2    H7 7863   4.579   4.386   0.674  0.5492 -1.7318  1.0380
  530TMC3    C1 7864   4.559   4.257   0.896 -0.3796 -0.2037  0.2340
  530TMC3    C2 7865   4.594   4.244   1.030 -0.1746 -0.1799  0.4220
  530TMC3    C3 7866   4.681   4.150   1.069  0.1277 -0.1143  0.8461
  530TMC3    C4 7867   4.619   4.181   0.806 -0.2026 -0.3376  0.4153
  530TMC3    C5 7868   4.694   4.078   0.849  0.0579  0.0101 -0.4111
  530TMC3    C6 7869   0.009   4.062   0.977  0.5301  0.2377  0.1561
  530TMC3     C 7870   4.484   4.374   0.861  0.0947 -0.6145 -0.3726
  530TMC3     O 7871   4.421   4.428   0.954 -0.4033 -0.0465 -0.3301
  530TMC3     H 7872   4.575   4.318   1.107 -1.8395 -0.8621  0.6751
  530TMC3    H1 7873   4.611   4.190   0.699  0.8906 -0.5905  0.3091
  530TMC3    H2 7874   0.070   3.977   1.005  1.4212  0.8251 -0.0124
  530TMC3    C7 7875   4.685   3.957   0.767  0.1438 -0.3169 -0.4116
  530TMC3    C8 7876   4.724   4.128   1.210 -0.0581 -0.0138 -0.6602
  530TMC3    O1 7877   4.658   3.969   0.649 -0.4412 -0.6374 -0.0113
  530TMC3    O2 7878   0.095   4.057   1.235  0.6956 -0.2964  0.5012
  531MPD2     C 7879   3.663   2.179  12.712  0.1637 -0.0380 -0.3290
  531MPD2    C1 7880   3.623   2.218  12.837  0.5638  0.6077 -0.6336
  531MPD2    C2 7881   3.486   2.211  12.870  0.4805  0.1447 -0.3755
  531MPD2    C3 7882   3.391   2.173  12.777 -0.4217  0.0215 -0.8519
  531MPD2    C4 7883   3.436   2.143  12.648 -0.1356  0.5026 -0.0635
  531MPD2    C5 7884   3.573   2.142  12.620 -0.5128  0.0616 -0.4409
  531MPD2     H 7885   3.450   2.237  12.968  2.2959  2.1585 -0.2428
  531MPD2    H1 7886   3.365   2.106  12.575  0.1364  0.0132 -0.0804
  531MPD2    H2 7887   3.768   2.161  12.695  0.0429  0.6995 -1.8521
  531MPD2    H3 7888   3.608   2.107  12.523  1.2513 -0.9192  0.5608
  531MPD2     N 7889   3.266   2.160  12.832 -0.0105  0.1147 -0.3053
  531MPD2    H5 7890   3.258   2.177  12.932  0.3344 -2.0487  0.0891
  531MPD2    N1 7891   3.725   2.250  12.936  0.2241 -0.0536  0.5096
  531MPD2    H7 7892   3.822   2.242  12.909  0.0390 -0.4871 -0.0169
  532TMC3    C1 7893   3.809   2.309  13.145 -0.0005 -0.2628 -0.1392
  532TMC3    C2 7894   3.783   2.396  13.245  0.6024 -0.7110  0.2972
  532TMC3    C3 7895   3.817   2.358  13.372  0.2961 -0.9711  0.4669
  532TMC3    C4 7896   3.887   2.198  13.166 -0.6484 -0.3448 -0.1489
  532TMC3    C5 7897   3.934   2.172  13.290  0.2198  0.3872  0.6116
  532TMC3    C6 7898   3.901   2.249  13.402 -0.6468  0.1046  0.9295
  532TMC3     C 7899   3.700   2.308  13.054  0.4694  0.5406  0.3874
  532TMC3     O 7900   3.595   2.337  13.109 -0.1605  0.3907 -0.0871
  532TMC3     H 7901   3.738   2.493  13.229  0.5746 -1.0133 -1.4424
  532TMC3    H1 7902   3.905   2.119  13.094  0.4862 -0.6232  0.4527
  532TMC3    H2 7903   3.909   2.217  13.505 -1.5819  1.1208  1.3250
  532TMC3    C7 7904   4.045   2.085  13.297  0.0413  0.6948 -0.2825
  532TMC3    C8 7905   3.707   2.375  13.462 -0.4838 -0.0578 -0.1844
  532TMC3    O1 7906   4.134   2.092  13.211  0.5283  0.0586  0.1170
  532TMC3    O2 7907   3.736   2.374  13.582 -0.5528 -0.0278  0.5223
  533TMC3    C1 7908   4.373   4.201  14.644 -0.5278  0.7843  0.2777
  533TMC3    C2 7909   4.501   4.244  14.682 -0.0561 -0.8539 -0.4095
  533TMC3    C3 7910   4.515   4.307  14.807 -0.2933  0.3105  0.2050
  533TMC3    C4 7911   4.268   4.233  14.731 -0.3773 -0.0831 -0.2613
  533TMC3    C5 7912   4.285   4.278  14.854  0.0565 -0.0953  0.5565
  533TMC3    C6 7913   4.411   4.315  14.898 -0.7586 -0.0047 -0.7813
  533TMC3     C 7914   4.373   4.065  14.584 -0.0707 -0.8399 -0.8927
  533TMC3     O 7915   4.474   3.998  14.614  0.3864 -0.4080 -0.1333
  533TMC3     H 7916   4.583   4.240  14.612  1.3825  1.4434  1.1677
  533TMC3    H1 7917   4.169   4.205  14.697 -1.4744  2.1042  1.2111
  533TMC3    H2 7918   4.429   4.349  14.999 -0.7492  1.6089 -1.3178
  533TMC3    C7 7919   4.168   4.279  14.942  0.3902 -0.3356  0.5478
  533TMC3    C8 7920   4.655   4.341  14.839 -0.4746  0.1358  0.2090
  533TMC3    O1 7921   4.074   4.205  14.916  0.2343  0.6590  0.3283
  533TMC3    O2 7922   0.018   4.284  14.778 -0.5309  0.5112 -1.0127
  534MPD2     C 7923   2.311   0.042   2.174 -0.4616 -0.0861  0.3735
  534MPD2    C1 7924   2.195   0.118   2.143  0.1388 -0.0357  0.4099
  534MPD2    C2 7925   2.080   0.055   2.107  0.6830  0.5466  0.3841
  534MPD2    C3 7926   2.077   4.637   2.101  0.3388  0.8735  0.2638
  534MPD2    C4 7927   2.195   4.567   2.107 -0.3193  0.2141  0.0683
  534MPD2    C5 7928   2.307   4.633   2.147  0.5765  0.6400 -0.2930
  534MPD2     H 7929   1.994   0.110   2.070  0.1585 -0.7552 -0.3466
  534MPD2    H1 7930   2.189   4.459   2.099 -1.5134  0.3178 -0.4113
  534MPD2    H2 7931   2.411   0.074   2.198 -0.4297 -0.2072  0.4050
  534MPD2    H3 7932   2.396   4.571   2.149 -1.2617 -2.0177 -1.3098
  534MPD2     N 7933   1.959   4.575   2.064 -0.7606 -0.0481 -0.4061
  534MPD2    H5 7934   1.962   4.478   2.033  2.9445 -0.2397  0.4758
  534MPD2    N1 7935   2.216   0.258   2.129 -0.3430  0.1550  0.0948
  534MPD2    H7 7936   2.313   0.288   2.141  0.0845 -1.6799  1.2069
  535TMC3    C1 7937   1.736   4.558   2.000  0.4052 -0.2566 -0.8174
  535TMC3    C2 7938   1.611   4.542   2.054 -0.3190 -0.0454  1.1777
  535TMC3    C3 7939   1.518   4.494   1.968 -0.8206 -0.0290 -0.0748
  535TMC3    C4 7940   1.765   4.535   1.870  0.1557 -0.5652 -0.2970
  535TMC3    C5 7941   1.659   4.501   1.790  0.6747  0.0860 -0.3344
  535TMC3    C6 7942   1.537   4.468   1.843  0.6672  0.2431 -0.6058
  535TMC3     C 7943   1.837   4.637   2.065 -0.2666 -0.6058 -0.2967
  535TMC3     O 7944   1.795   0.003   2.140  0.3604 -0.5517  0.0741
  535TMC3     H 7945   1.585   4.563   2.157  2.2276  0.6513  1.6832
  535TMC3    H1 7946   1.859   4.562   1.823 -1.4554  3.7009 -1.0444
  535TMC3    H2 7947   1.458   4.422   1.784 -0.6040  1.4571  0.1426
  535TMC3    C7 7948   1.660   4.553   1.657  0.5300  0.1247  0.4976
  535TMC3    C8 7949   1.374   4.517   1.999  0.6283  0.0200 -0.2630
  535TMC3    O1 7950   1.761   4.559   1.589  0.3988  0.1488 -0.2141
  535TMC3    O2 7951   1.310   4.509   1.896  0.3615 -0.1203  0.3552
  536MPD2     C 7952   1.229   3.596  16.709  0.3639 -0.7254  0.4337
  536MPD2    C1 7953   1.100   3.564  16.738  0.0923 -0.8964  0.5770
  536MPD2    C2 7954   0.997   3.566  16.641 -0.0884 -0.4648  0.5776
  536MPD2    C3 7955   1.020   3.608  16.507  0.3850 -0.3314  0.4160
  536MPD2    C4 7956   1.145   3.654  16.488 -0.7548  0.0850  0.2252
  536MPD2    C5 7957   1.240   3.651  16.582 -0.3814  0.4144 -0.3455
  536MPD2     H 7958   0.900   3.527  16.666 -1.7872  3.8301  0.7549
  536MPD2    H1 7959   1.165   3.680  16.385 -0.9761 -1.0781 -0.1004
  536MPD2    H2 7960   1.308   3.585  16.782  0.8386  0.0614  0.0456
  536MPD2    H3 7961   1.334   3.686  16.541 -0.3760  0.7473 -0.0492
  536MPD2     N 7962   0.928   3.605  16.409 -0.4663 -0.5094 -0.1295
  536MPD2    H5 7963   0.945   3.637  16.314  2.3576 -0.7096  0.3252
  536MPD2    N1 7964   1.077   3.514  16.872  0.7694 -0.3554  0.3255
  536MPD2    H7 7965   1.158   3.502  16.932 -0.0605  1.6808  1.8481
  537TMC3    C1 7966   0.958   3.399  17.051  0.1615  0.2459  0.2374
  537TMC3    C2 7967   1.074   3.399  17.125 -0.3224  0.3603 -0.3307
  537TMC3    C3 7968   1.077   3.299  17.225  0.2724  0.0941 -0.5838
  537TMC3    C4 7969   0.848   3.321  17.072 -0.8063  0.6665  0.4029
  537TMC3    C5 7970   0.860   3.220  17.171  0.3407 -0.2640 -0.2326
  537TMC3    C6 7971   0.971   3.216  17.252 -0.7204  0.8751  0.2382
  537TMC3     C 7972   0.953   3.470  16.922  0.2441  0.0773  0.1557
  537TMC3     O 7973   0.841   3.466  16.871 -0.3222  0.7491  0.3282
  537TMC3     H 7974   1.152   3.474  17.117  2.8664 -2.5488  3.3047
  537TMC3    H1 7975   0.761   3.307  17.009 -1.5757  0.2310  1.5645
  537TMC3    H2 7976   0.976   3.136  17.325  0.7381  0.2111 -0.5970
  537TMC3    C7 7977   0.762   3.116  17.163  0.1923 -0.0044  0.8382
  537TMC3    C8 7978   1.185   3.314  17.324  0.2718  0.0506  0.0974
  537TMC3    O1 7979   0.655   3.141  17.108  0.2436  0.0685 -0.1370
  537TMC3    O2 7980   1.279   3.391  17.305 -0.4421 -0.1581 -0.4135
  538TMC3    C1 7981   1.910   2.004  11.341  0.1352  0.3880  0.5206
  538TMC3    C2 7982   1.954   1.905  11.263  0.0963 -0.3531 -0.1113
  538TMC3    C3 7983   1.904   1.895  11.138  1.0378  0.3475  0.1205
  538TMC3    C4 7984   1.809   2.084  11.307  0.9237  0.3164  0.2007
  538TMC3    C5 7985   1.749   2.057  11.182 -0.5023  0.4029  0.5731
  538TMC3    C6 7986   1.797   1.968  11.091  0.1595 -0.4349  0.6446
  538TMC3     C 7987   1.940   1.990  11.483  0.6235  0.2222 -0.3165
  538TMC3     O 7988   1.869   2.039  11.574 -0.3647  0.3147 -0.0827
  538TMC3     H 7989   2.035   1.839  11.292 -1.1252 -1.8637 -0.1466
  538TMC3    H1 7990   1.773   2.153  11.382 -1.3047  0.4628 -0.9855
  538TMC3    H2 7991   1.746   1.943  10.999 -1.9286 -1.6748  2.1480
  538TMC3    C7 7992   1.659   2.159  11.131  0.0537 -0.3731  0.5183
  538TMC3    C8 7993   1.987   1.823  11.043  0.1659 -0.9000  0.5733
  538TMC3    O1 7994   1.581   2.141  11.042 -0.1203  0.2503 -0.6560
  538TMC3    O2 7995   2.061   1.730  11.070 -0.8269 -0.0220  0.4322
  539MPD2     C 7996   2.010   1.662  12.101  0.0250 -0.0389 -0.4338
  539MPD2    C1 7997   1.976   1.585  11.987 -0.0804  0.0790 -0.5589
  539MPD2    C2 7998   1.850   1.616  11.929  0.2659  0.1325  0.3906
  539MPD2    C3 7999   1.778   1.726  11.968  0.1289 -0.6143  0.2450
  539MPD2    C4 8000   1.816   1.798  12.083  0.0164 -0.7710  0.1810
  539MPD2    C5 8001   1.928   1.759  12.150  0.1142  0.2644 -0.4551
  539MPD2     H 8002   1.833   1.575  11.830 -0.5020  1.4930 -0.0383
  539MPD2    H1 8003   1.769   1.885  12.126  1.7284 -0.7254  1.9456
  539MPD2    H2 8004   2.101   1.650  12.158 -1.0883  0.8505  1.5336
  539MPD2    H3 8005   1.961   1.818  12.235 -0.3024  0.4348 -0.4101
  539MPD2     N 8006   1.672   1.791  11.896  0.0173 -0.3215 -0.2737
  539MPD2    H5 8007   1.627   1.868  11.946  0.1409 -1.2713  1.3010
  539MPD2    N1 8008   2.049   1.477  11.946 -0.1872 -0.2174  0.6747
  539MPD2    H7 8009   2.025   1.435  11.857 -0.0852  0.3877  0.3568
  540TMC3    C1 8010   1.517   1.845  11.730  0.0734 -0.1806  0.4558
  540TMC3    C2 8011   1.514   1.881  11.600  0.3838  0.0396 -0.5468
  540TMC3    C3 8012   1.394   1.937  11.560 -0.1758  0.1576 -0.4698
  540TMC3    C4 8013   1.412   1.878  11.819 -0.0792 -0.3173  0.4477
  540TMC3    C5 8014   1.305   1.945  11.768 -0.5274  0.2885 -0.1504
  540TMC3    C6 8015   1.291   1.974  11.636  0.1709  0.5792 -0.0499
  540TMC3     C 8016   1.630   1.752  11.773  0.7602  0.4233  0.7783
  540TMC3     O 8017   1.675   1.666  11.701  0.1493 -0.2227 -0.0447
  540TMC3     H 8018   1.594   1.857  11.530  0.9285 -1.3842  0.5523
  540TMC3    H1 8019   1.407   1.831  11.917  0.2555 -2.0588 -0.3670
  540TMC3    H2 8020   1.209   2.024  11.588  0.5023  1.0445 -0.1308
  540TMC3    C7 8021   1.212   1.995  11.865  0.2180 -0.2936  0.3375
  540TMC3    C8 8022   1.372   1.939  11.416  0.6411  0.3685  0.8531
  540TMC3    O1 8023   1.203   1.936  11.975 -0.1215  0.5632  0.2934
  540TMC3    O2 8024   1.330   2.044  11.364  0.6306  1.0949 -0.0560
  541MPD2     C 8025   4.090   2.554  13.449  0.1594  0.5533  0.7087
  541MPD2    C1 8026   4.178   2.480  13.375 -0.3197 -0.4941 -0.8954
  541MPD2    C2 8027   4.217   2.520  13.248  0.0761 -0.2956 -0.4487
  541MPD2    C3 8028   4.161   2.641  13.200 -0.5669  0.3728  0.5332
  541MPD2    C4 8029   4.075   2.713  13.282 -0.4704 -0.2735  0.2284
  541MPD2    C5 8030   4.045   2.674  13.406 -0.2954 -0.5184  0.0964
  541MPD2     H 8031   4.279   2.463  13.179 -1.8201  0.0712 -2.4554
  541MPD2    H1 8032   4.025   2.802  13.245 -1.2327 -2.4027 -3.7966
  541MPD2    H2 8033   4.064   2.522  13.550  1.3547  1.5177  1.3274
  541MPD2    H3 8034   3.970   2.724  13.467  0.0152  0.1284 -0.0593
  541MPD2     N 8035   4.170   2.689  13.065 -0.0521 -0.5912 -0.0368
  541MPD2    H5 8036   4.124   2.776  13.038  2.6885  1.2582  1.2172
  541MPD2    N1 8037   4.233   2.365  13.427  0.4906 -0.0034  0.3398
  541MPD2    H7 8038   4.287   2.315  13.357 -2.6161 -3.3753  0.3997
  542TMC3    C1 8039   4.319   2.771  12.904  0.5123  0.4971  0.5374
  542TMC3    C2 8040   4.382   2.743  12.788  0.1661 -0.0529  0.3587
  542TMC3    C3 8041   4.451   2.841  12.721  0.0754 -0.0894  0.5295
  542TMC3    C4 8042   4.355   2.879  12.980 -0.6935  0.6424 -0.5411
  542TMC3    C5 8043   4.433   2.975  12.913 -0.2709  0.2368 -0.2352
  542TMC3    C6 8044   4.483   2.961  12.791 -1.0693 -0.2049 -0.2068
  542TMC3     C 8045   4.269   2.658  12.978 -0.0510 -0.0682  0.2585
  542TMC3     O 8046   4.331   2.556  12.961  0.0765 -0.0092  0.2906
  542TMC3     H 8047   4.350   2.652  12.739  0.8181 -0.3909  0.5691
  542TMC3    H1 8048   4.299   2.897  13.072 -1.7456 -1.6272 -0.7315
  542TMC3    H2 8049   4.525   3.050  12.747  3.1489 -1.4033  1.3890
  542TMC3    C7 8050   4.461   3.093  12.992  0.2413  0.0107 -0.2689
  542TMC3    C8 8051   4.507   2.811  12.598 -0.4664  0.6957  0.2095
  542TMC3    O1 8052   4.509   3.186  12.930  0.0957 -0.0671  0.0992
  542TMC3    O2 8053   4.488   2.701  12.551  0.3683 -0.5582 -0.2053
  543TMC3    C1 8054   4.088   4.000  17.562 -0.0919 -0.1856 -0.2302
  543TMC3    C2 8055   4.137   3.886  17.622  0.8189 -0.8634  0.0622
  543TMC3    C3 8056   4.107   3.859   0.044  0.2465 -0.4619 -0.3611
  543TMC3    C4 8057   4.005   4.071  17.635 -0.3885  0.2963 -0.2157
  543TMC3    C5 8058   3.988   4.052   0.065  0.2424  0.1553  0.3255
  543TMC3    C6 8059   4.039   3.945   0.130  0.3441 -0.2983 -0.3564
  543TMC3     C 8060   4.136   4.028  17.429  0.0722  0.7173  0.3419
  543TMC3     O 8061   4.250   3.990  17.397  0.2363  0.5753 -0.0132
  543TMC3     H 8062   4.216   3.829  17.575  0.6571  0.5219 -1.8794
  543TMC3    H1 8063   3.949   4.151  17.587 -2.2346 -1.1801 -0.5087
  543TMC3    H2 8064   4.016   3.918   0.232 -2.9521  1.1622 -0.7451
  543TMC3    C7 8065   3.862   4.104   0.108  0.4175  0.7796 -0.3288
  543TMC3    C8 8066   4.130   3.724   0.075 -0.0158 -0.4122  0.4993
  543TMC3    O1 8067   3.769   4.126   0.030 -0.1295 -0.7023  0.4320
  543TMC3    O2 8068   4.230   3.665   0.031 -0.0578  0.6247  0.7829
  544MPD2     C 8069   4.033   3.291   0.322 -0.0143 -0.6106 -0.4544
  544MPD2    C1 8070   4.150   3.325   0.264 -0.2606 -0.2129  0.2430
  544MPD2    C2 8071   4.149   3.451   0.208 -0.2571 -0.0036 -0.0255
  544MPD2    C3 8072   4.042   3.541   0.211 -1.2565 -0.6203  0.1201
  544MPD2    C4 8073   3.930   3.502   0.280  0.5526  0.0082  0.1971
  544MPD2    C5 8074   3.930   3.375   0.333  0.2779  0.8962  0.8896
  544MPD2     H 8075   4.244   3.490   0.173  1.1200 -2.3444  1.1089
  544MPD2    H1 8076   3.845   3.564   0.308  0.6322  0.1273  0.1755
  544MPD2    H2 8077   4.026   3.193   0.369  0.1003 -0.9099 -1.0624
  544MPD2    H3 8078   3.844   3.353   0.395 -0.2046  0.5596  0.0954
  544MPD2     N 8079   4.037   3.669   0.161  0.2330 -0.1839  0.1681
  544MPD2    H5 8080   3.952   3.721   0.179 -0.0908 -0.8651  0.5948
  544MPD2    N1 8081   4.241   3.216   0.243 -0.2484 -0.2113 -0.1694
  544MPD2    H7 8082   4.214   3.128   0.286  0.6420 -1.2651 -1.7744
  545TMC3    C1 8083   4.420   3.100   0.156  0.2808  0.2639 -0.8218
  545TMC3    C2 8084   4.404   3.013   0.261  0.0402 -1.2229  0.6269
  545TMC3    C3 8085   4.472   2.887   0.247  0.6353 -0.0185  0.4626
  545TMC3    C4 8086   4.506   3.074   0.052 -0.0864 -0.4430 -0.6573
  545TMC3    C5 8087   4.574   2.955   0.055 -0.0101  0.3234  0.7442
  545TMC3    C6 8088   4.553   2.858   0.141 -0.6813  0.2979  0.1148
  545TMC3     C 8089   4.345   3.223   0.153 -0.4151 -0.7985 -0.2820
  545TMC3     O 8090   4.397   3.315   0.092 -0.1239  0.0727 -0.3556
  545TMC3     H 8091   4.349   3.033   0.352  0.1165  2.3453 -0.1067
  545TMC3    H1 8092   4.509   3.136  17.667  1.1152 -2.9903 -2.3851
  545TMC3    H2 8093   4.597   2.759   0.132 -0.2391  0.4018  1.2507
  545TMC3    C7 8094   4.645   2.924  17.635 -0.5133 -0.8411  0.0104
  545TMC3    C8 8095   4.480   2.807   0.371  0.0219 -0.3874  0.2854
  545TMC3    O1 8096   4.616   2.988  17.532  0.6115 -0.4870  0.1834
  545TMC3    O2 8097   4.388   2.814   0.448  0.3965 -0.0783  0.2631
  546MPD2     C 8098   1.218   3.639  17.611 -0.2725  0.3771 -0.4307
  546MPD2    C1 8099   1.164   3.696  17.500 -0.9088  0.3002  0.3782
  546MPD2    C2 8100   1.222   3.808  17.444 -1.0562 -0.0929  0.2218
  546MPD2    C3 8101   1.326   3.877  17.509 -0.2073  0.1280 -0.6716
  546MPD2    C4 8102   1.371   3.820  17.630  0.1404  0.7178  0.1506
  546MPD2    C5 8103   1.312   3.708  17.673 -0.0656 -0.2377 -1.0817
  546MPD2     H 8104   1.187   3.862  17.357  4.1400 -0.5940 -2.1866
  546MPD2    H1 8105   1.460   3.855  17.681  0.5602  0.9025 -0.6973
  546MPD2    H2 8106   1.175   3.549  17.653  0.6157 -0.3351 -1.0400
  546MPD2    H3 8107   1.348   3.661   0.059 -0.3659  0.5991 -0.5238
  546MPD2     N 8108   1.388   4.000  17.465 -0.2263  0.5651  0.1126
  546MPD2    H5 8109   1.449   4.049  17.529 -1.0151  3.4131 -1.3056
  546MPD2    N1 8110   1.057   3.629  17.439 -0.3000 -0.0229 -0.5157
  546MPD2    H7 8111   1.031   3.542  17.484 -2.1701  0.8052 -0.0172
  547TMC3    C1 8112   0.859   3.599  17.310 -0.1443  0.0766 -0.0609
  547TMC3    C2 8113   0.771   3.650  17.216  0.0678 -0.2712 -0.0092
  547TMC3    C3 8114   0.639   3.608  17.207  0.4096  0.1145 -0.4241
  547TMC3    C4 8115   0.818   3.503  17.394  0.4275 -0.2130  0.2071
  547TMC3    C5 8116   0.682   3.471  17.382  0.5759 -0.0034 -0.5582
  547TMC3    C6 8117   0.595   3.508  17.284  0.0515 -0.0165 -0.0672
  547TMC3     C 8118   0.984   3.670  17.332 -0.1374 -0.1524  0.1143
  547TMC3     O 8119   1.004   3.772  17.271 -0.3888  0.5654  0.3808
  547TMC3     H 8120   0.802   3.726  17.145 -0.3765 -1.2762 -1.2897
  547TMC3    H1 8121   0.893   3.454  17.454 -1.2047  0.3062  2.6564
  547TMC3    H2 8122   0.488   3.496  17.292  0.0272 -0.9420 -1.6711
  547TMC3    C7 8123   0.627   3.409  17.498  0.3587  0.2415 -0.4825
  547TMC3    C8 8124   0.543   3.713  17.182 -0.5065 -0.3502  0.4286
  547TMC3    O1 8125   0.683   3.418  17.605  0.1859  0.5901 -0.0240
  547TMC3    O2 8126   0.435   3.677  17.144 -0.0015 -0.9830  0.3915
  548MPD2     C 8127   1.189   4.377  12.861  0.2027 -0.7164  0.6746
  548MPD2    C1 8128   1.074   4.348  12.932 -0.1448  0.2754  0.4966
  548MPD2    C2 8129   1.040   4.216  12.963  0.0053  0.7383  0.5323
  548MPD2    C3 8130   1.118   4.112  12.926 -0.3077 -0.1262 -0.0363
  548MPD2    C4 8131   1.234   4.142  12.854  0.2920 -0.1141 -0.4328
  548MPD2    C5 8132   1.270   4.271  12.828 -0.6834  0.7131  0.3331
  548MPD2     H 8133   0.947   4.193  13.013 -0.9142 -0.2678 -1.6117
  548MPD2    H1 8134   1.301   4.063  12.820  0.1241 -0.5088  0.1659
  548MPD2    H2 8135   1.224   4.479  12.847 -0.3052 -0.7056 -0.4978
  548MPD2    H3 8136   1.369   4.292  12.789 -0.8451 -0.8480 -0.8989
  548MPD2     N 8137   1.069   3.982  12.952 -0.1403  0.4250 -0.1562
  548MPD2    H5 8138   0.972   3.981  12.983  0.1160  1.1743  0.6685
  548MPD2    N1 8139   0.994   4.462  12.967  0.3028 -0.3525  0.4685
  548MPD2    H7 8140   1.022   4.552  12.929 -2.2131  0.6166  0.9242
  549TMC3    C1 8141   0.799   4.569  13.050 -0.6963 -0.1687 -0.0600
  549TMC3    C2 8142   0.796   4.646  12.937 -0.2930  0.6722  0.3158
  549TMC3    C3 8143   0.699   0.017  12.940 -0.1629  0.4446  0.4383
  549TMC3    C4 8144   0.695   4.558  13.139 -0.0541  0.0122  0.2352
  549TMC3    C5 8145   0.598   4.656  13.139  0.3678 -0.3592  0.3287
  549TMC3    C6 8146   0.599   0.023  13.041  0.4021 -0.1917  0.0041
  549TMC3     C 8147   0.887   4.459  13.054  0.5170 -0.2636 -0.2877
  549TMC3     O 8148   0.849   4.362  13.121  0.0000 -0.0569  0.2580
  549TMC3     H 8149   0.876   4.650  12.864  0.1172 -0.2637  0.7248
  549TMC3    H1 8150   0.694   4.499  13.230 -1.1008  1.7774  1.3641
  549TMC3    H2 8151   0.525   0.102  13.041  1.1159  0.4748  0.5542
  549TMC3    C7 8152   0.459   4.617  13.177  0.0482 -0.0397  0.1245
  549TMC3    C8 8153   0.708   0.118  12.839 -0.2780 -0.7469  0.6834
  549TMC3    O1 8154   0.371   4.703  13.174  0.2370 -0.0662 -0.4932
  549TMC3    O2 8155   0.803   0.130  12.769 -0.0547 -0.1423  0.0637
  550TMC3    C1 8156   3.692   2.379  12.051  0.4553  0.2000  0.0036
  550TMC3    C2 8157   3.732   2.397  12.185  0.2990  0.3197  0.2161
  550TMC3    C3 8158   3.638   2.446  12.277 -0.3412  0.2646 -0.0787
  550TMC3    C4 8159   3.562   2.414  12.013 -0.1266  0.1700 -0.4156
  550TMC3    C5 8160   3.468   2.436  12.107 -0.3938 -0.2632  0.0035
  550TMC3    C6 8161   3.505   2.457  12.238 -0.5968 -0.0281  0.2145
  550TMC3     C 8162   3.794   2.349  11.951 -0.0158 -1.0279  0.1751
  550TMC3     O 8163   3.907   2.335  11.994 -0.2723  0.3103  0.0001
  550TMC3     H 8164   3.835   2.379  12.213  0.9280  0.4925 -1.9902
  550TMC3    H1 8165   3.526   2.382  11.916 -2.3017  0.0985  0.4243
  550TMC3    H2 8166   3.421   2.486  12.299 -0.3433 -2.2395  1.6023
  550TMC3    C7 8167   3.332   2.446  12.078 -0.9667 -0.1985 -1.0068
  550TMC3    C8 8168   3.663   2.494  12.413 -0.0850  0.4905 -0.4098
  550TMC3    O1 8169   3.269   2.511  12.160 -0.4081  0.1566  0.1956
  550TMC3    O2 8170   3.599   2.584  12.457  0.0724 -0.1196 -0.4451
  551TMC3    C1 8171   1.779   0.110  13.448 -0.8195 -0.0477  0.6646
  551TMC3    C2 8172   1.911   0.120  13.412 -0.0495 -0.4331 -0.6342
  551TMC3    C3 8173   2.009   0.098  13.505 -0.2608 -0.0176  0.2836
  551TMC3    C4 8174   1.748   0.096  13.578 -0.4948  0.0794 -0.5994
  551TMC3    C5 8175   1.851   0.085  13.672  0.2751 -0.2185  0.0459
  551TMC3    C6 8176   1.981   0.091  13.642 -0.2711 -0.6140 -0.0434
  551TMC3     C 8177   1.679   0.101  13.337 -0.6574  0.3443 -0.1943
  551TMC3     O 8178   1.724   0.107  13.227 -0.0102 -0.0920 -0.4854
  551TMC3     H 8179   1.934   0.133  13.306 -0.5686  1.2375 -0.5457
  551TMC3    H1 8180   1.649   0.112  13.620  0.2024 -2.0306  1.8424
  551TMC3    H2 8181   2.051   0.111  13.723  0.8074  0.4618 -1.2414
  551TMC3    C7 8182   1.829   0.146  13.802  0.2015  0.9620  0.3972
  551TMC3    C8 8183   2.143   0.145  13.466 -0.2026  0.2225  0.6492
  551TMC3    O1 8184   1.839   0.078  13.900 -0.2192  0.6307  0.6624
  551TMC3    O2 8185   2.226   0.057  13.430 -0.2663 -0.0497 -0.2119
  552MPD2     C 8186   4.163   2.309  14.003  0.4965  0.1868  0.6976
  552MPD2    C1 8187   4.068   2.247  14.084 -0.0460 -0.1272  0.8385
  552MPD2    C2 8188   4.110   2.161  14.185  0.2522  0.9853 -0.0082
  552MPD2    C3 8189   4.244   2.147  14.211  0.5948  0.1067 -0.3115
  552MPD2    C4 8190   4.337   2.222  14.135  0.4580 -0.2431 -0.4379
  552MPD2    C5 8191   4.293   2.306  14.031 -0.1743 -0.0122  0.0714
  552MPD2     H 8192   4.036   2.103  14.239  1.3220  3.5214  4.1442
  552MPD2    H1 8193   4.444   2.208  14.145  0.4141 -1.7889 -2.0827
  552MPD2    H2 8194   4.127   2.365  13.917  1.0897  0.1882  0.4506
  552MPD2    H3 8195   4.366   2.362  13.974 -1.1126  2.6088  1.4291
  552MPD2     N 8196   4.294   2.047  14.305  0.5516 -0.5200  1.1684
  552MPD2    H5 8197   4.394   2.047  14.319  0.6686  1.6255  0.3243
  552MPD2    N1 8198   3.930   2.270  14.056  0.5995 -0.1555 -0.2354
  552MPD2    H7 8199   3.915   2.315  13.966  2.1464  4.7282  1.9475
  553TMC3    C1 8200   3.687   2.246  14.084 -0.0422  0.5542  0.0323
  553TMC3    C2 8201   3.671   2.261  13.951 -0.1081 -0.7658 -0.3884
  553TMC3    C3 8202   3.563   2.212  13.880  0.2621  0.0647 -0.0946
  553TMC3    C4 8203   3.582   2.183  14.159  1.0146  0.4139 -0.1400
  553TMC3    C5 8204   3.466   2.155  14.092 -0.1804  0.3440  0.0215
  553TMC3    C6 8205   3.451   2.191  13.960 -0.2775  0.2446  0.1204
  553TMC3     C 8206   3.822   2.241  14.140  0.0335 -0.1739  0.4453
  553TMC3     O 8207   3.828   2.209  14.257 -0.4532  0.2112  0.4033
  553TMC3     H 8208   3.750   2.304  13.890  1.4664 -0.7667  1.6310
  553TMC3    H1 8209   3.590   2.157  14.264  2.3085  1.4126  0.0079
  553TMC3    H2 8210   3.364   2.154  13.908 -0.5525  1.5333 -0.3453
  553TMC3    C7 8211   3.441   2.014  14.101  0.1529  0.0328  0.0288
  553TMC3    C8 8212   3.599   2.113  13.787 -0.0752  0.2486  0.5724
  553TMC3    O1 8213   3.321   1.975  14.094  0.0340  0.1121 -0.5852
  553TMC3    O2 8214   3.716   2.078  13.798  0.1026  0.3379  0.1369
  554TMC3    C1 8215   0.797   1.706  11.748  0.7419  0.0790 -0.9892
  554TMC3    C2 8216   0.808   1.600  11.665  0.3066 -0.4231  0.8846
  554TMC3    C3 8217   0.882   1.627  11.557  0.7144 -0.8277  0.1099
  554TMC3    C4 8218   0.842   1.835  11.718 -0.1287  0.0552 -0.2314
  554TMC3    C5 8219   0.910   1.858  11.605 -0.6583  0.2451  0.1049
  554TMC3    C6 8220   0.939   1.750  11.528 -0.3251 -0.1321 -0.3475
  554TMC3     C 8221   0.811   1.686  11.896  0.3237 -0.1743 -0.5475
  554TMC3     O 8222   0.872   1.774  11.961 -0.1944  0.5372 -0.0913
  554TMC3     H 8223   0.808   1.497  11.697  0.5915  0.5526  3.9742
  554TMC3    H1 8224   0.830   1.908  11.797  0.4306 -0.0321 -0.0675
  554TMC3    H2 8225   0.984   1.769  11.432  0.1850 -0.9549 -0.2701
  554TMC3    C7 8226   0.913   1.980  11.526  0.2594 -0.0137  0.4545
  554TMC3    C8 8227   0.856   1.546  11.444  0.3904 -0.0046 -0.4925
  554TMC3    O1 8228   0.985   1.984  11.426  0.7017 -0.2386  0.2899
  554TMC3    O2 8229   0.944   1.548  11.358  0.3432  0.2657  0.2447
  555TMC3    C1 8230   4.458   0.748  15.555 -0.3769 -0.1166 -0.0434
  555TMC3    C2 8231   4.491   0.833  15.654 -0.3215  0.2532 -0.3410
  555TMC3    C3 8232   4.480   0.785  15.787  0.6137  0.0289  0.3689
  555TMC3    C4 8233   4.448   0.611  15.569 -0.5052  0.0021  0.4944
  555TMC3    C5 8234   4.441   0.567  15.699 -0.0110 -0.0513 -0.9525
  555TMC3    C6 8235   4.445   0.650  15.812 -0.2109 -0.4637 -0.4001
  555TMC3     C 8236   4.482   0.795  15.415 -1.0020 -0.3683  0.3162
  555TMC3     O 8237   4.560   0.888  15.397 -0.3172 -0.1144 -0.6626
  555TMC3     H 8238   4.508   0.937  15.628 -0.5220  0.2672 -0.4156
  555TMC3    H1 8239   4.445   0.539  15.488  1.7392 -0.0433  0.4557
  555TMC3    H2 8240   4.431   0.601  15.907 -0.8828 -1.2085 -0.8823
  555TMC3    C7 8241   4.422   0.421  15.718 -0.4264  0.3166  0.6295
  555TMC3    C8 8242   4.478   0.878  15.899 -0.1387  0.3640  0.8847
  555TMC3    O1 8243   4.339   0.393  15.806 -0.3507 -0.2198  0.3079
  555TMC3    O2 8244   4.422   0.985  15.872 -0.1079 -0.6797 -0.0641
  556MPD2     C 8245   1.973   2.479  11.058  0.5258 -0.4090  0.4275
  556MPD2    C1 8246   2.099   2.436  11.078  0.3284 -0.5397  0.2500
  556MPD2    C2 8247   2.196   2.445  10.975  0.7342 -0.2864  0.0652
  556MPD2    C3 8248   2.150   2.468  10.847 -0.3969  0.0001 -0.5222
  556MPD2    C4 8249   2.022   2.498  10.823 -0.0766 -0.1956  0.1947
  556MPD2    C5 8250   1.936   2.516  10.928  0.5224 -0.2547  0.8265
  556MPD2     H 8251   2.302   2.438  10.997  1.3699 -0.3141 -2.9639
  556MPD2    H1 8252   1.993   2.522  10.721  1.0660 -2.3187 -0.6273
  556MPD2    H2 8253   1.896   2.487  11.134 -0.2816  2.4349 -0.6943
  556MPD2    H3 8254   1.837   2.552  10.902  0.0619 -1.9714  0.1913
  556MPD2     N 8255   2.254   2.469  10.743 -0.2572  0.1343 -0.3355
  556MPD2    H5 8256   2.345   2.438  10.774  0.2493 -0.2826 -2.2928
  556MPD2    N1 8257   2.142   2.398  11.207 -0.2780  0.4213 -0.1748
  556MPD2    H7 8258   2.241   2.396  11.228 -0.2215 -1.2388 -0.5891
  557TMC3    C1 8259   2.333   2.435  10.531 -0.3955 -0.1713 -0.1248
  557TMC3    C2 8260   2.343   2.494  10.409  0.0389 -0.3540 -0.2544
  557TMC3    C3 8261   2.362   2.418  10.304  0.0627 -0.6658  0.3047
  557TMC3    C4 8262   2.341   2.301  10.549  0.1004  0.2013  0.2579
  557TMC3    C5 8263   2.349   2.227  10.434 -0.0211  0.6633  0.3576
  557TMC3    C6 8264   2.364   2.284  10.309 -0.2869  0.0560  0.2968
  557TMC3     C 8265   2.238   2.501  10.610  0.1726  0.8301  0.1499
  557TMC3     O 8266   2.155   2.568  10.549  0.4756 -0.0860  0.4689
  557TMC3     H 8267   2.330   2.602  10.406 -1.5132 -0.5837 -1.9548
  557TMC3    H1 8268   2.341   2.254  10.647  0.3182 -1.5240 -0.5759
  557TMC3    H2 8269   2.360   2.230  10.215  0.4177 -1.1056  0.9446
  557TMC3    C7 8270   2.316   2.091  10.450 -0.3281 -0.3374  0.1811
  557TMC3    C8 8271   2.373   2.487  10.171 -0.2862  0.3934 -0.0114
  557TMC3    O1 8272   2.392   2.009  10.405 -0.3349 -0.3019  0.1000
  557TMC3    O2 8273   2.337   2.604  10.169  0.3763 -0.0868  0.3467
  558TMC3    C1 8274   0.692   4.520  10.214  0.1387  0.5239 -0.1623
  558TMC3    C2 8275   0.615   4.497  10.325 -0.3800 -0.5604 -0.5422
  558TMC3    C3 8276   0.478   4.461  10.297  0.1866 -0.2418 -0.0210
  558TMC3    C4 8277   0.635   4.518  10.092  0.4154 -0.2158 -0.4919
  558TMC3    C5 8278   0.499   4.500  10.068 -0.7857  1.1871  1.0327
  558TMC3    C6 8279   0.421   4.457  10.173 -0.4720 -0.5030  0.0550
  558TMC3     C 8280   0.820   4.596  10.231  0.6866  0.3807 -0.8922
  558TMC3     O 8281   0.818   4.666  10.330 -0.2644 -0.1237 -0.5754
  558TMC3     H 8282   0.667   4.490  10.419 -2.0914  0.0825  0.4436
  558TMC3    H1 8283   0.688   4.551  10.003  1.9036  2.0745  1.2617
  558TMC3    H2 8284   0.320   4.425  10.151 -1.1849  2.8402 -1.6598
  558TMC3    C7 8285   0.444   4.534   9.940 -0.5566 -0.3585 -0.8641
  558TMC3    C8 8286   0.397   4.437  10.411  0.5654 -0.0813  0.4982
  558TMC3    O1 8287   0.529   4.525   9.849  0.6894  0.1595  0.1296
  558TMC3    O2 8288   0.281   4.392  10.393 -0.2702  0.1780 -0.1813
  559MPD2     C 8289   0.810   1.062  10.676 -1.0715  0.8048  0.4673
  559MPD2    C1 8290   0.762   0.953  10.755 -0.4447  0.2881 -0.5072
  559MPD2    C2 8291   0.819   0.934  10.881  0.0196  0.1051  0.0298
  559MPD2    C3 8292   0.917   1.021  10.932 -0.0373 -0.6117  0.5788
  559MPD2    C4 8293   0.960   1.123  10.857  0.8231 -0.0750 -0.0795
  559MPD2    C5 8294   0.907   1.141  10.733  0.1275 -0.1136  0.9943
  559MPD2     H 8295   0.788   0.852  10.946  0.7132  0.3074  0.6162
  559MPD2    H1 8296   1.028   1.203  10.885 -0.6942  1.2316 -0.1582
  559MPD2    H2 8297   0.769   1.084  10.578  0.4657  3.3447  0.3831
  559MPD2    H3 8298   0.932   1.232  10.680 -0.5905 -0.6728 -0.3107
  559MPD2     N 8299   0.958   0.992  11.066  0.0571  0.0100 -0.9286
  559MPD2    H5 8300   0.904   0.920  11.112 -0.4738  0.7834 -0.3271
  559MPD2    N1 8301   0.656   0.868  10.696 -1.0984 -0.0637  0.2644
  559MPD2    H7 8302   0.614   0.895  10.608  1.0185  1.7770 -0.1872
  560TMC3    C1 8303   1.111   0.975  11.265  0.1952  0.9440  0.5011
  560TMC3    C2 8304   1.053   0.853  11.285  0.0908  0.1132  0.0554
  560TMC3    C3 8305   1.081   0.794  11.405  0.8371 -0.3031 -0.4421
  560TMC3    C4 8306   1.194   1.034  11.361 -0.3095 -0.2221 -0.0546
  560TMC3    C5 8307   1.227   0.968  11.467  0.4597 -0.3679 -0.0335
  560TMC3    C6 8308   1.157   0.852  11.497  0.1513  0.4559  0.2311
  560TMC3     C 8309   1.078   1.040  11.127  0.4538 -0.3690 -0.2692
  560TMC3     O 8310   1.162   1.119  11.082  0.1107  0.4398  0.3216
  560TMC3     H 8311   0.999   0.801  11.206 -0.3721  1.1441 -0.3097
  560TMC3    H1 8312   1.236   1.132  11.341  1.7750 -1.0747  0.2296
  560TMC3    H2 8313   1.199   0.802  11.584  0.9724 -2.5224 -1.8772
  560TMC3    C7 8314   1.313   1.020  11.575 -0.6555  0.1424  0.4819
  560TMC3    C8 8315   1.025   0.664  11.430  0.2285 -0.2690  0.7460
  560TMC3    O1 8316   1.302   0.980  11.690  0.0418 -0.2137  0.8321
  560TMC3    O2 8317   0.960   0.624  11.331  0.6884 -0.0173 -0.2571
  561TMC3    C1 8318   3.280   0.368  11.732 -0.3706 -0.0565 -0.3784
  561TMC3    C2 8319   3.220   0.276  11.811  0.5951  1.0123 -0.4259
  561TMC3    C3 8320   3.286   0.239  11.923 -0.3475  0.4579 -0.0576
  561TMC3    C4 8321   3.402   0.427  11.765  0.4238 -0.4240  0.1873
  561TMC3    C5 8322   3.467   0.383  11.884 -0.0541  0.1561 -0.3011
  561TMC3    C6 8323   3.416   0.277  11.959  0.1538  0.2522  0.4376
  561TMC3     C 8324   3.245   0.364  11.597  0.0784 -0.8380  0.2899
  561TMC3     O 8325   3.220   0.467  11.537 -0.0796 -0.2181  0.0360
  561TMC3     H 8326   3.128   0.228  11.778  1.3862  0.4110 -1.7756
  561TMC3    H1 8327   3.440   0.491  11.686 -2.4971  1.5270  0.3858
  561TMC3    H2 8328   3.455   0.258  12.059  0.1620 -0.3178  0.3280
  561TMC3    C7 8329   3.609   0.404  11.904 -0.0580  0.5858  0.4775
  561TMC3    C8 8330   3.203   0.145  11.990 -0.1571 -0.3253  0.3063
  561TMC3    O1 8331   3.658   0.415  12.016 -0.6369 -0.2061 -0.1732
  561TMC3    O2 8332   3.270   0.057  12.041  0.1160  0.2941 -0.3337
  562TMC3    C1 8333   4.179   0.984  16.572  0.1561 -0.2707  0.2117
  562TMC3    C2 8334   4.149   1.097  16.506  0.2889  0.7049 -0.7764
  562TMC3    C3 8335   4.117   1.093  16.373 -0.0280  0.1747  0.1033
  562TMC3    C4 8336   4.180   0.861  16.511 -0.0168  0.5584  0.1085
  562TMC3    C5 8337   4.152   0.862  16.375  0.3125  0.1478 -0.2779
  562TMC3    C6 8338   4.117   0.973  16.304 -0.0190  0.0042 -0.6634
  562TMC3     C 8339   4.181   0.992  16.721 -0.5877 -0.5789  0.4086
  562TMC3     O 8340   4.166   0.888  16.780  0.4743  0.0426  0.3935
  562TMC3     H 8341   4.144   1.194  16.555 -1.9521 -0.0304  0.4690
  562TMC3    H1 8342   4.193   0.778  16.580 -0.5417  0.2775 -0.1355
  562TMC3    H2 8343   4.085   0.962  16.201 -0.4971 -0.0531 -0.5072
  562TMC3    C7 8344   4.152   0.737  16.305  0.1044  0.2112 -0.0279
  562TMC3    C8 8345   4.157   1.212  16.302 -0.1331  0.6591 -0.2992
  562TMC3    O1 8346   4.087   0.727  16.201  0.5595 -0.3874 -0.0685
  562TMC3    O2 8347   4.201   1.302  16.376 -0.4487 -0.0344 -0.1922
  563MPD2     C 8348   2.104   2.210  15.578 -0.3802  0.4329 -0.0230
  563MPD2    C1 8349   2.062   2.238  15.704  0.0939  0.4296 -0.4015
  563MPD2    C2 8350   2.138   2.212  15.814  0.2266  0.4147 -0.0909
  563MPD2    C3 8351   2.241   2.123  15.807 -0.5958 -0.2320  0.6762
  563MPD2    C4 8352   2.295   2.102  15.680  0.3011  0.5771  0.7497
  563MPD2    C5 8353   2.221   2.139  15.572 -0.1776  0.1806  0.0544
  563MPD2     H 8354   2.109   2.251  15.911  0.0052 -0.7763  0.3290
  563MPD2    H1 8355   2.382   2.037  15.673  1.0033  1.5911  0.0582
  563MPD2    H2 8356   2.046   2.233  15.489 -1.3796  0.4682  0.6281
  563MPD2    H3 8357   2.251   2.107  15.473 -1.0096 -1.1375  0.2214
  563MPD2     N 8358   2.322   2.088  15.919  0.4308  0.1974 -0.4173
  563MPD2    H5 8359   2.408   2.036  15.903  0.3452 -0.3035  0.7206
  563MPD2    N1 8360   1.950   2.318  15.727  0.3641  0.1033  0.1517
  563MPD2    H7 8361   1.946   2.366  15.816 -0.6861  1.1714 -0.4684
  564TMC3    C1 8362   1.789   2.465  15.694  0.5808  0.3611  0.2013
  564TMC3    C2 8363   1.658   2.442  15.719  0.0389  0.0621  1.1575
  564TMC3    C3 8364   1.604   2.502  15.832 -0.3229  0.0972 -0.0509
  564TMC3    C4 8365   1.867   2.549  15.779  0.4150  0.0604  0.2173
  564TMC3    C5 8366   1.807   2.614  15.881 -0.0538  0.6574 -0.4769
  564TMC3    C6 8367   1.676   2.591  15.904 -0.0969  0.4458  0.4961
  564TMC3     C 8368   1.857   2.351  15.640 -0.4699  0.3504 -1.0085
  564TMC3     O 8369   1.799   2.275  15.560 -0.0155 -0.1962 -0.2927
  564TMC3     H 8370   1.608   2.360  15.669 -0.4190  1.7698 -1.2274
  564TMC3    H1 8371   1.970   2.566  15.749  0.5452 -2.7658 -0.9858
  564TMC3    H2 8372   1.626   2.643  15.984 -1.0699  1.1060 -0.5332
  564TMC3    C7 8373   1.883   2.588  15.995  0.4694 -0.6604  0.4415
  564TMC3    C8 8374   1.550   2.398  15.930 -0.4002  0.4937  0.2626
  564TMC3    O1 8375   1.944   2.484  15.978  0.7004 -0.1719 -0.7959
  564TMC3    O2 8376   1.594   2.410  16.045  0.2149  0.6085  0.5040
  565TMC3    C1 8377   2.533   3.869  10.349  0.5817  0.5766  0.7310
  565TMC3    C2 8378   2.500   3.801  10.459  0.8431 -0.1897 -0.3201
  565TMC3    C3 8379   2.445   3.677  10.437 -0.7156 -0.3503 -0.0757
  565TMC3    C4 8380   2.506   3.815  10.224  0.4894  0.7072 -0.3789
  565TMC3    C5 8381   2.454   3.692  10.207 -0.2194 -0.6248 -0.2553
  565TMC3    C6 8382   2.423   3.615  10.312 -0.2182  0.8632 -0.1714
  565TMC3     C 8383   2.600   3.997  10.352  0.3419  0.6516 -0.5514
  565TMC3     O 8384   2.635   4.042  10.243 -0.5049  0.2582  0.1796
  565TMC3     H 8385   2.507   3.835  10.562 -1.0175  1.7530 -0.8464
  565TMC3    H1 8386   2.529   3.871  10.134  0.3525  0.5708 -0.4970
  565TMC3    H2 8387   2.411   3.507  10.308  0.0062  0.7877  1.0827
  565TMC3    C7 8388   2.435   3.654  10.066 -0.1967 -0.7157  0.3949
  565TMC3    C8 8389   2.418   3.603  10.559  0.2570 -0.2310 -0.7462
  565TMC3    O1 8390   2.502   3.703   9.976 -0.3194 -0.1569 -0.3709
  565TMC3    O2 8391   2.472   3.633  10.662  0.5174 -0.2638  0.4215
  566MPD2     C 8392   3.899   0.103  14.567 -0.3784 -0.1211 -0.0202
  566MPD2    C1 8393   3.982   0.175  14.479 -0.1760 -0.0294  0.8617
  566MPD2    C2 8394   3.923   0.218  14.360 -0.2091  0.3607 -0.8926
  566MPD2    C3 8395   3.800   0.170  14.317 -0.2851 -0.2991  0.2422
  566MPD2    C4 8396   3.720   0.091  14.400 -0.5555 -0.4173  0.4742
  566MPD2    C5 8397   3.768   0.061  14.527  0.8689 -0.1658 -0.5120
  566MPD2     H 8398   3.978   0.284  14.294  1.3987  0.3042  0.4048
  566MPD2    H1 8399   3.622   0.059  14.368 -0.2806 -1.6688  0.8512
  566MPD2    H2 8400   3.927   0.088  14.670 -2.8487  2.3736  1.0063
  566MPD2    H3 8401   3.711   0.005  14.600 -1.2267  0.3081 -1.7951
  566MPD2     N 8402   3.741   0.216  14.195 -0.0559 -0.1581  0.0945
  566MPD2    H5 8403   3.657   0.165  14.172 -0.3290  0.0222  0.6809
  566MPD2    N1 8404   4.116   0.211  14.521 -0.1973  0.0111 -0.3082
  566MPD2    H7 8405   4.138   0.193  14.619 -0.5953  1.2573  0.0142
  567TMC3    C1 8406   4.340   0.295  14.481  0.0851  0.6162  0.3854
  567TMC3    C2 8407   4.400   0.385  14.398  0.4024 -0.0143 -0.0230
  567TMC3    C3 8408   4.482   0.488  14.438 -1.0399  0.2599  0.2637
  567TMC3    C4 8409   4.363   0.312  14.613 -0.4640  0.0653  0.4598
  567TMC3    C5 8410   4.446   0.410  14.659  0.2295  0.0338  0.0519
  567TMC3    C6 8411   4.502   0.499  14.573  0.3708 -0.4062 -0.6688
  567TMC3     C 8412   4.208   0.256  14.428 -0.3501  0.1107 -0.6943
  567TMC3     O 8413   4.203   0.273  14.303 -0.1814  0.0860  0.7202
  567TMC3     H 8414   4.380   0.387  14.292  0.4739  0.0892 -0.0340
  567TMC3    H1 8415   4.326   0.239  14.684 -0.1777 -0.1851  0.3531
  567TMC3    H2 8416   4.570   0.572  14.614 -0.5362 -0.2014  0.4728
  567TMC3    C7 8417   4.473   0.427  14.803 -0.5659 -0.3220 -0.2616
  567TMC3    C8 8418   4.477   0.615  14.353  0.1664  0.5128  0.0275
  567TMC3    O1 8419   4.569   0.500  14.838 -0.3744  0.0991 -0.0747
  567TMC3    O2 8420   4.427   0.601  14.241 -0.0893 -0.5597 -0.2450
  568MPD2     C 8421   2.264   1.282  16.576  0.3089 -0.9676  0.9450
  568MPD2    C1 8422   2.165   1.298  16.675  0.5663 -0.8518 -0.7377
  568MPD2    C2 8423   2.083   1.408  16.669  0.6556  0.6552 -0.4737
  568MPD2    C3 8424   2.089   1.494  16.564 -1.0002 -0.2861 -0.2691
  568MPD2    C4 8425   2.189   1.477  16.469 -0.6080 -0.2665 -0.1992
  568MPD2    C5 8426   2.283   1.381  16.484  0.3849  0.2795 -0.0241
  568MPD2     H 8427   2.010   1.428  16.746  0.3073 -0.9511 -0.3847
  568MPD2    H1 8428   2.194   1.533  16.377 -1.4202  1.6532  0.9348
  568MPD2    H2 8429   2.330   1.196  16.575 -0.9754 -1.9550  1.4846
  568MPD2    H3 8430   2.362   1.382  16.410  0.1836  0.7897 -0.2335
  568MPD2     N 8431   1.984   1.592  16.552 -0.0557 -0.1464 -0.1810
  568MPD2    H5 8432   1.925   1.601  16.634  1.3083 -1.7205  0.9863
  568MPD2    N1 8433   2.151   1.195  16.773  0.8278  0.2578  0.2100
  568MPD2    H7 8434   2.194   1.104  16.760 -0.6330 -0.6182  1.5999
  569TMC3    C1 8435   1.841   1.742  16.482 -0.3459 -0.1425 -0.4821
  569TMC3    C2 8436   1.844   1.836  16.585 -0.8751  0.1660 -0.4549
  569TMC3    C3 8437   1.750   1.934  16.585  0.0682 -0.4643 -0.1942
  569TMC3    C4 8438   1.747   1.752  16.384  0.0510 -0.7486  0.3288
  569TMC3    C5 8439   1.651   1.848  16.382 -0.0871  0.4116 -0.3965
  569TMC3    C6 8440   1.659   1.938  16.484  0.0318 -0.1629  1.4236
  569TMC3     C 8441   1.958   1.664  16.445  0.1453 -1.3264  1.1044
  569TMC3     O 8442   2.001   1.663  16.329  0.7298  0.1902  0.4375
  569TMC3     H 8443   1.926   1.827  16.655 -2.5485 -0.5917  1.4130
  569TMC3    H1 8444   1.753   1.679  16.304  2.8656 -0.4715  0.2761
  569TMC3    H2 8445   1.584   2.016  16.488  1.5276  1.4373 -1.4039
  569TMC3    C7 8446   1.541   1.840  16.290 -0.1631 -0.5039  0.3538
  569TMC3    C8 8447   1.780   2.067  16.637  0.3432 -0.0745  0.0074
  569TMC3    O1 8448   1.503   1.727  16.251 -0.3969  0.0175 -0.1855
  569TMC3    O2 8449   1.735   2.163  16.569 -0.1943 -0.2116  0.1988
  570TMC3    C1 8450   1.036   4.404  16.453 -0.3688 -0.2272  0.3962
  570TMC3    C2 8451   1.113   4.356  16.353 -0.0610  0.1669  0.9066
  570TMC3    C3 8452   1.161   4.444  16.255 -0.0510  0.6531  0.0916
  570TMC3    C4 8453   1.005   4.539  16.446 -0.2877  0.4580  0.0331
  570TMC3    C5 8454   1.056   4.626  16.349  0.0465  0.2840 -0.4605
  570TMC3    C6 8455   1.135   4.578  16.255 -0.1874 -0.2354 -0.4116
  570TMC3     C 8456   1.021   4.324  16.572  0.4400 -0.1723 -0.0191
  570TMC3     O 8457   1.028   4.200  16.559 -0.1059  0.6616 -0.3074
  570TMC3     H 8458   1.138   4.251  16.348  0.6276  0.4191 -1.2428
  570TMC3    H1 8459   0.943   4.579  16.525  1.8752  0.0323  1.9136
  570TMC3    H2 8460   1.172   4.642  16.176 -1.3188  1.1333  0.1493
  570TMC3    C7 8461   1.056   0.041  16.374  0.7078  0.3351 -0.1789
  570TMC3    C8 8462   1.239   4.386  16.142 -0.0280 -0.5490 -0.1851
  570TMC3    O1 8463   1.058   0.078  16.490 -0.2414  0.3476 -0.2939
  570TMC3    O2 8464   1.248   4.264  16.130  0.7220  0.0015  0.1940
  571MPD2     C 8465   3.566   1.545  17.408 -0.5826 -0.2632  0.1687
  571MPD2    C1 8466   3.563   1.502  17.538  0.0034 -0.0457  0.2772
  571MPD2    C2 8467   3.603   1.588  17.639  0.5693 -0.0231 -0.4010
  571MPD2    C3 8468   3.643   1.714  17.609 -0.2769 -0.7249  0.1590
  571MPD2    C4 8469   3.637   1.762  17.474 -0.2033  0.0037  0.9389
  571MPD2    C5 8470   3.599   1.674  17.378 -0.3754  0.9149 -0.5816
  571MPD2     H 8471   3.623   1.550   0.034  1.5753 -0.7518 -0.8889
  571MPD2    H1 8472   3.668   1.863  17.448 -3.4987  1.0097  1.0053
  571MPD2    H2 8473   3.539   1.487  17.321 -1.6648  2.4068 -1.2784
  571MPD2    H3 8474   3.580   1.694  17.274  1.9491  1.6871 -0.8561
  571MPD2     N 8475   3.666   1.810   0.003 -0.6069 -0.7752  0.3895
  571MPD2    H5 8476   3.706   1.900  17.681  1.6701 -0.9535  3.2511
  571MPD2    N1 8477   3.507   1.376  17.569  0.2027  0.1128  0.0204
  571MPD2    H7 8478   3.496   1.319  17.487  3.1527 -1.3451  0.6513
  572TMC3    C1 8479   3.673   1.914   0.213  1.0888  0.5385 -0.1961
  572TMC3    C2 8480   3.591   1.957   0.316 -0.6584  1.0147 -0.0148
  572TMC3    C3 8481   3.630   2.076   0.371  0.0794 -0.2274  0.3672
  572TMC3    C4 8482   3.782   1.985   0.160  0.5477  0.8174  0.3855
  572TMC3    C5 8483   3.812   2.097   0.233  0.0723  0.3556  0.4031
  572TMC3    C6 8484   3.740   2.148   0.339 -0.5067  0.1761 -0.0013
  572TMC3     C 8485   3.622   1.804   0.133 -0.2405  1.2056 -0.7755
  572TMC3     O 8486   3.523   1.743   0.175  0.0013  0.4915 -0.0406
  572TMC3     H 8487   3.528   1.886   0.368  1.9074 -0.8132  0.5873
  572TMC3    H1 8488   3.850   1.952   0.082 -0.8730 -0.7630 -0.1865
  572TMC3    H2 8489   3.748   2.246   0.385  1.3389 -0.0463  0.1495
  572TMC3    C7 8490   3.907   2.188   0.173 -0.0879 -0.3626  0.1593
  572TMC3    C8 8491   3.578   2.091   0.501  0.2903 -0.2044 -0.7602
  572TMC3    O1 8492   3.937   2.161   0.060 -0.1240 -0.0788  0.3028
  572TMC3    O2 8493   3.642   2.161   0.575 -0.3640  0.2886  0.1306
  573MPD2     C 8494   0.457   1.759   0.181 -0.6168  0.0265  0.4611
  573MPD2    C1 8495   0.534   1.861   0.243 -0.4981 -0.2571  0.7732
  573MPD2    C2 8496   0.590   1.959   0.165 -0.3180 -0.2839 -0.1409
  573MPD2    C3 8497   0.566   1.970   0.025  0.8212  0.4302 -0.8102
  573MPD2    C4 8498   0.482   1.870  17.672  0.7549  0.5957 -0.4605
  573MPD2    C5 8499   0.418   1.773   0.052  0.4842 -0.3695  0.4254
  573MPD2     H 8500   0.642   2.033   0.224  1.2520  0.4458 -2.4115
  573MPD2    H1 8501   0.462   1.863  17.566 -0.6362 -0.0281 -0.1629
  573MPD2    H2 8502   0.425   1.679   0.246 -0.6454 -1.7670 -1.7454
  573MPD2    H3 8503   0.364   1.692   0.005 -0.3783 -0.0433  0.8630
  573MPD2     N 8504   0.621   2.069  17.640  0.5426  0.0212 -0.0208
  573MPD2    H5 8505   0.582   2.071  17.546 -2.0150 -0.6974  1.0286
  573MPD2    N1 8506   0.539   1.854   0.385  0.1945  0.2855 -0.3601
  573MPD2    H7 8507   0.467   1.795   0.426  0.7417 -0.3163 -0.2723
  574TMC3    C1 8508   0.720   2.276  17.583 -0.0848 -0.2207 -0.1637
  574TMC3    C2 8509   0.599   2.317  17.542 -0.1956 -0.1341  1.1947
  574TMC3    C3 8510   0.585   2.441  17.496  0.3819 -1.0068  0.3550
  574TMC3    C4 8511   0.826   2.364  17.604  0.8352 -0.2369 -0.0102
  574TMC3    C5 8512   0.796   2.495  17.562 -0.4933  0.3368 -0.5335
  574TMC3    C6 8513   0.689   2.534  17.500 -0.4754  0.7855 -0.5714
  574TMC3     C 8514   0.705   2.173  17.682 -0.0844 -0.4416 -0.2407
  574TMC3     O 8515   0.786   2.175   0.068 -0.1639 -0.2238 -0.2387
  574TMC3     H 8516   0.515   2.249  17.530  0.1776 -0.1340 -1.3386
  574TMC3    H1 8517   0.914   2.340  17.661  1.2864  0.7968 -0.2791
  574TMC3    H2 8518   0.664   2.636  17.473 -1.6215  0.4537 -0.7428
  574TMC3    C7 8519   0.878   2.601  17.610  0.1537 -0.4820  0.6591
  574TMC3    C8 8520   0.461   2.481  17.436 -0.3630 -0.2400  0.5194
  574TMC3    O1 8521   0.913   2.697  17.539 -1.0146 -0.0735 -0.1462
  574TMC3    O2 8522   0.417   2.418  17.340 -0.2116 -0.4123 -0.7226
  575TMC3    C1 8523   2.280   3.415  11.427  0.3295  0.1716  0.4283
  575TMC3    C2 8524   2.262   3.287  11.466 -0.1638 -0.3088  0.0021
  575TMC3    C3 8525   2.286   3.195  11.370 -0.5109 -0.2958 -0.0534
  575TMC3    C4 8526   2.321   3.454  11.308  0.4428 -0.4079 -0.5213
  575TMC3    C5 8527   2.357   3.357  11.218 -0.2806 -0.3817 -0.7832
  575TMC3    C6 8528   2.341   3.226  11.248  0.2245 -0.2639  0.2361
  575TMC3     C 8529   2.262   3.518  11.520  1.2309 -0.2533  0.2896
  575TMC3     O 8530   2.206   3.490  11.625  0.6933  0.4364 -0.2494
  575TMC3     H 8531   2.233   3.268  11.568 -1.1192 -3.7284 -0.8910
  575TMC3    H1 8532   2.328   3.556  11.272 -0.5216  0.5711  2.1192
  575TMC3    H2 8533   2.382   3.144  11.190  1.5595 -0.5397  1.5686
  575TMC3    C7 8534   2.376   3.397  11.079  0.2183 -0.0979 -0.3875
  575TMC3    C8 8535   2.309   3.061  11.427 -0.4006 -0.6319  0.0819
  575TMC3    O1 8536   2.436   3.497  11.044  0.6572 -0.7017 -0.5102
  575TMC3    O2 8537   2.383   2.990  11.355 -0.6902  0.2351  0.1982
  576MPD2     C 8538   2.113   0.225  12.954  0.5482 -0.2984  0.2176
  576MPD2    C1 8539   2.149   0.349  12.897  0.2963 -0.0389 -1.1549
  576MPD2    C2 8540   2.103   0.464  12.959 -0.9423 -0.4890  0.2193
  576MPD2    C3 8541   2.013   0.459  13.060  0.7407  0.7542  0.0536
  576MPD2    C4 8542   1.952   0.333  13.092  0.6538 -0.2461 -0.2947
  576MPD2    C5 8543   2.003   0.216  13.038 -0.2957  0.3031 -0.3226
  576MPD2     H 8544   2.134   0.561  12.922 -0.3371  0.1234  2.3290
  576MPD2    H1 8545   1.864   0.326  13.154 -0.1191  0.8541 -1.2636
  576MPD2    H2 8546   2.142   0.127  12.917  1.0303  0.3766 -1.1682
  576MPD2    H3 8547   1.965   0.118  13.064 -2.2804  0.7945 -1.3541
  576MPD2     N 8548   1.975   0.584  13.115  0.2880 -0.0660  0.1671
  576MPD2    H5 8549   2.005   0.666  13.064  2.9951 -0.8672  0.4572
  576MPD2    N1 8550   2.234   0.364  12.789  0.8680  0.1923 -0.9249
  576MPD2    H7 8551   2.264   0.457  12.763  1.0864  0.0920 -1.0327
  577TMC3    C1 8552   2.391   0.298  12.622 -0.4454 -0.6612  0.5982
  577TMC3    C2 8553   2.466   0.196  12.574  0.0277 -0.7276 -0.5605
  577TMC3    C3 8554   2.530   0.214  12.455 -0.4624 -0.6223 -0.3543
  577TMC3    C4 8555   2.393   0.429  12.575  0.1630 -0.1713 -0.7304
  577TMC3    C5 8556   2.458   0.449  12.457  0.5774  0.6174  0.5170
  577TMC3    C6 8557   2.523   0.338  12.400 -0.1567  0.3774  0.2583
  577TMC3     C 8558   2.300   0.258  12.727  0.3028 -0.6697  0.0040
  577TMC3     O 8559   2.289   0.137  12.746 -0.2214 -0.3021  0.0381
  577TMC3     H 8560   2.475   0.096  12.615  1.1266 -1.1167 -1.7260
  577TMC3    H1 8561   2.327   0.506  12.614  0.0567  0.2264 -1.6809
  577TMC3    H2 8562   2.572   0.355  12.304 -1.5303 -0.4450 -0.5962
  577TMC3    C7 8563   2.475   0.583  12.398  0.4435 -0.3365  0.4034
  577TMC3    C8 8564   2.606   0.104  12.396  0.0639  0.4713  0.2834
  577TMC3    O1 8565   2.513   0.601  12.284  0.6060 -0.3852 -0.0624
  577TMC3    O2 8566   2.605   0.000  12.459  0.2509 -0.3411 -0.3943
  578MPD2     C 8567   4.645   4.622   1.511 -0.6099 -0.1997 -0.6132
  578MPD2    C1 8568   0.023   4.571   1.431 -0.2306  0.4925  0.2027
  578MPD2    C2 8569   0.132   4.516   1.493 -0.3158  0.2681  0.7574
  578MPD2    C3 8570   0.147   4.523   1.630  0.5080 -0.4989  0.4166
  578MPD2    C4 8571   0.060   4.596   1.702 -0.1168 -0.0662 -0.3541
  578MPD2    C5 8572   4.671   4.642   1.646 -0.0110  0.0986 -0.7664
  578MPD2     H 8573   0.215   4.482   1.433 -0.4314  2.4706 -0.6387
  578MPD2    H1 8574   0.075   4.630   1.804 -1.0858  1.9571 -0.8804
  578MPD2    H2 8575   4.556   4.658   1.461 -1.7230 -0.6595  1.0699
  578MPD2    H3 8576   4.603   4.699   1.708  0.5590 -1.1869  1.0573
  578MPD2     N 8577   0.273   4.486   1.685  0.1231 -0.0485  0.5122
  578MPD2    H5 8578   0.346   4.458   1.621 -0.4106 -0.4447  0.0706
  578MPD2    N1 8579   0.023   4.585   1.282 -0.0635  0.2322 -0.5455
  578MPD2    H7 8580   4.670   4.630   1.237 -0.0991  1.2225  0.5167
  579TMC3    C1 8581   0.439   4.458   1.837  0.3649  0.0346 -0.1037
  579TMC3    C2 8582   0.525   4.541   1.909 -0.2314  0.3773 -0.6742
  579TMC3    C3 8583   0.650   4.492   1.913  0.6222  0.4749  0.8450
  579TMC3    C4 8584   0.473   4.344   1.768 -0.1081  0.0865  0.3773
  579TMC3    C5 8585   0.599   4.302   1.784 -0.5002  0.4795 -0.3034
  579TMC3    C6 8586   0.701   4.381   1.844 -0.2139 -0.0818  0.6793
  579TMC3     C 8587   0.305   4.496   1.820  0.1447 -0.3448 -0.0744
  579TMC3     O 8588   0.252   4.548   1.916 -0.2441 -0.1633 -0.4347
  579TMC3     H 8589   0.503   4.638   1.951 -1.3112 -0.5376  0.9170
  579TMC3    H1 8590   0.394   4.280   1.730  1.7213 -1.5004 -0.7217
  579TMC3    H2 8591   0.801   4.341   1.857  0.6313  2.3168  1.5541
  579TMC3    C7 8592   0.638   4.166   1.746 -0.7685 -0.5072  0.1098
  579TMC3    C8 8593   0.723   4.543   2.023 -0.5659 -0.5067 -0.4098
  579TMC3    O1 8594   0.748   4.139   1.788 -0.3035 -0.5873  0.7155
  579TMC3    O2 8595   0.660   4.608   2.107 -0.1188  0.0255  0.5365
  580TMC3    C1 8596   4.407   4.270  12.517  0.1407 -0.0244  0.2624
  580TMC3    C2 8597   4.500   4.254  12.411 -0.4435 -0.2205 -0.0590
  580TMC3    C3 8598   4.542   4.131  12.383  0.1023  0.6813 -0.1885
  580TMC3    C4 8599   4.379   4.165  12.598  0.6100  0.5027  0.9435
  580TMC3    C5 8600   4.425   4.040  12.566  0.0822 -0.0192 -0.4007
  580TMC3    C6 8601   4.510   4.023  12.454  0.0854  1.0098  0.5855
  580TMC3     C 8602   4.438   4.393  12.591 -0.1116  0.3429  0.0759
  580TMC3     O 8603   4.425   4.383  12.713  0.3791 -0.1080  0.3320
  580TMC3     H 8604   4.526   4.329  12.338  0.8852  0.5781  1.2474
  580TMC3    H1 8605   4.336   4.189  12.695  0.5019  0.9619  0.7761
  580TMC3    H2 8606   4.565   3.930  12.441  0.2609  1.6047 -2.9616
  580TMC3    C7 8607   4.474   3.973  12.683  0.6695  0.9276  0.3215
  580TMC3    C8 8608   4.670   4.118  12.307 -0.4372 -0.0711 -0.6382
  580TMC3    O1 8609   4.494   4.038  12.782  0.4168  0.1935 -0.0517
  580TMC3    O2 8610   4.696   4.029  12.222 -0.2046 -0.5925  0.1150
  581MPD2     C 8611   3.172   3.377  14.806 -0.0851  0.0089  0.2772
  581MPD2    C1 8612   3.101   3.366  14.927 -0.4131 -0.4189  0.4254
  581MPD2    C2 8613   3.015   3.469  14.958  0.1137  0.3752 -0.4941
  581MPD2    C3 8614   2.985   3.570  14.873  0.9236  0.6274 -0.1878
  581MPD2    C4 8615   3.063   3.585  14.763 -0.5620 -0.5260 -0.8865
  581MPD2    C5 8616   3.152   3.486  14.730 -0.1378  0.2266  0.1765
  581MPD2     H 8617   2.959   3.449  15.049 -0.5021 -1.6357 -1.3174
  581MPD2    H1 8618   3.065   3.670  14.696  0.1545  0.0393 -0.1449
  581MPD2    H2 8619   3.244   3.301  14.778 -0.0983  0.7709 -1.8630
  581MPD2    H3 8620   3.208   3.484  14.637  0.7887  0.7461  0.7372
  581MPD2     N 8621   2.885   3.665  14.914  0.2471  0.2360  0.0226
  581MPD2    H5 8622   2.826   3.637  14.992 -0.2393  0.5650 -0.2273
  581MPD2    N1 8623   3.125   3.249  14.997  0.6853 -0.0508 -0.0461
  581MPD2    H7 8624   3.199   3.191  14.958  1.5589  1.8102 -1.1448
  582TMC3    C1 8625   3.096   3.070  15.154  0.4719 -0.2691  0.3182
  582TMC3    C2 8626   3.173   3.069  15.269  0.5535 -0.2580  0.4573
  582TMC3    C3 8627   3.116   3.004  15.377 -0.0885 -0.3721  0.0601
  582TMC3    C4 8628   2.980   3.007  15.158 -0.5470  0.3334  0.2212
  582TMC3    C5 8629   2.940   2.926  15.260  0.7473  0.0473  0.0676
  582TMC3    C6 8630   3.010   2.922  15.371  1.4733 -0.6310 -0.5909
  582TMC3     C 8631   3.055   3.206  15.107 -0.1495  0.6864 -0.6310
  582TMC3     O 8632   2.941   3.237  15.139 -0.0583 -0.0549  0.6538
  582TMC3     H 8633   3.254   3.140  15.285 -0.0354  0.6221 -0.4716
  582TMC3    H1 8634   2.913   3.015  15.074  0.9880  0.1140 -1.0258
  582TMC3    H2 8635   2.957   2.894  15.461  0.0385  2.8365 -0.3760
  582TMC3    C7 8636   2.797   2.926  15.283 -0.8499  0.6670  0.5055
  582TMC3    C8 8637   3.161   3.028  15.515 -0.7119 -0.5053 -0.5548
  582TMC3    O1 8638   2.750   2.842  15.365 -0.0749 -0.2446 -0.8898
  582TMC3    O2 8639   3.081   3.023  15.607 -0.3436 -0.2131 -0.0947
  583MPD2     C 8640   2.754   0.447  17.045  0.1941  0.1554  0.7561
  583MPD2    C1 8641   2.704   0.567  16.996  0.4493 -0.1070  0.0944
  583MPD2    C2 8642   2.661   0.658  17.090 -0.1735 -1.2075  0.0930
  583MPD2    C3 8643   2.666   0.640  17.226 -0.3330 -0.0108 -0.5368
  583MPD2    C4 8644   2.728   0.526  17.267  0.4963 -0.1637  0.3068
  583MPD2    C5 8645   2.767   0.425  17.183  0.6122 -0.0160 -0.2490
  583MPD2     H 8646   2.620   0.755  17.062 -0.3428 -1.6263 -1.1061
  583MPD2    H1 8647   2.764   0.504  17.367 -0.2028  0.7693  0.7623
  583MPD2    H2 8648   2.798   0.366  16.987 -0.7701 -0.7363  1.2684
  583MPD2    H3 8649   2.811   0.330  17.210 -1.4979 -0.9167  0.0269
  583MPD2     N 8650   2.632   0.751  17.309 -0.0238  0.1600 -0.1533
  583MPD2    H5 8651   2.603   0.837  17.264  2.7596 -0.3217 -2.8552
  583MPD2    N1 8652   2.721   0.600  16.859 -0.2925  0.3611  0.2022
  583MPD2    H7 8653   2.684   0.692  16.836 -0.4696 -0.2301 -1.8183
  584TMC3    C1 8654   2.618   0.880  17.498  0.2644 -0.2835 -0.0797
  584TMC3    C2 8655   2.634   0.997  17.429 -0.4765  0.6638 -0.2608
  584TMC3    C3 8656   2.614   1.112  17.496 -0.0799 -0.0003 -0.2615
  584TMC3    C4 8657   2.591   0.886  17.630  0.1308 -0.1901 -0.6451
  584TMC3    C5 8658   2.552   1.001  17.688  0.3910  0.2133 -0.6898
  584TMC3    C6 8659   2.574   1.120  17.626 -0.0166 -0.3672 -0.3857
  584TMC3     C 8660   2.656   0.758  17.444  0.1964  0.0037 -0.1475
  584TMC3     O 8661   2.692   0.672  17.523 -0.0787 -0.0903  0.4035
  584TMC3     H 8662   2.664   0.998  17.325 -0.7310  0.4816 -0.3373
  584TMC3    H1 8663   2.581   0.788  17.676  0.5231  1.1430  2.2335
  584TMC3    H2 8664   2.510   1.206  17.645 -0.4856 -0.6767 -0.5679
  584TMC3    C7 8665   2.513   0.994   0.122  0.0556  0.2819  0.3004
  584TMC3    C8 8666   2.654   1.219  17.415 -0.3356 -0.4667  0.3716
  584TMC3    O1 8667   2.473   0.886   0.158 -0.2500 -0.1348 -0.2022
  584TMC3    O2 8668   2.611   1.223  17.303 -0.4362 -0.1201 -0.1802
  585MPD2     C 8669   2.159   4.499   1.244  0.2860 -0.4752 -0.1989
  585MPD2    C1 8670   2.132   4.565   1.124 -0.0948  0.5445 -0.4940
  585MPD2    C2 8671   2.188   4.514   1.002  0.6460 -0.1935  0.3548
  585MPD2    C3 8672   2.259   4.395   1.000  0.6197 -0.5529 -0.0857
  585MPD2    C4 8673   2.283   4.328   1.117  0.1178  0.5131 -0.3180
  585MPD2    C5 8674   2.235   4.385   1.232  0.4550  0.2417 -0.5599
  585MPD2     H 8675   2.166   4.551   0.903  2.1083  1.5435  0.6805
  585MPD2    H1 8676   2.338   4.235   1.120 -1.6378 -0.4258  2.3292
  585MPD2    H2 8677   2.116   4.532   1.337 -2.0520 -1.4945 -0.9144
  585MPD2    H3 8678   2.252   4.341   1.329  0.2586  1.2127 -0.0845
  585MPD2     N 8679   2.295   4.339   0.870 -0.1216  0.5235  0.8278
  585MPD2    H5 8680   2.259   4.395   0.794 -0.2665  0.2834  0.7201
  585MPD2    N1 8681   2.045   4.679   1.133  0.2614 -0.8080  0.4820
  585MPD2    H7 8682   1.984   4.707   1.209 -0.3655 -1.1158  0.0935
  586TMC3    C1 8683   2.368   4.201   0.705 -0.0711 -0.4676  0.8596
  586TMC3    C2 8684   2.463   4.115   0.669 -0.8027 -0.7919  0.3479
  586TMC3    C3 8685   2.480   4.088   0.535 -0.6165 -0.2900  0.0597
  586TMC3    C4 8686   2.282   4.261   0.616 -0.0440  0.3481 -0.1728
  586TMC3    C5 8687   2.294   4.225   0.487 -0.2819  0.0090  0.2779
  586TMC3    C6 8688   2.399   4.148   0.440 -0.0184 -0.3104  0.3540
  586TMC3     C 8689   2.372   4.228   0.845 -0.2466  0.1359 -0.1236
  586TMC3     O 8690   2.432   4.158   0.924 -0.3048  0.3192 -0.2551
  586TMC3     H 8691   2.512   4.057   0.746  2.5842  1.7342  0.0734
  586TMC3    H1 8692   2.194   4.318   0.641  1.5741  0.7000  4.6427
  586TMC3    H2 8693   2.410   4.123   0.335 -0.6889 -2.2466  0.7463
  586TMC3    C7 8694   2.176   4.199   0.411 -0.3065  0.1687  0.4851
  586TMC3    C8 8695   2.555   3.967   0.509 -0.7067 -0.4108  0.6706
  586TMC3    O1 8696   2.085   4.139   0.470  0.7838  0.2432 -0.0530
  586TMC3    O2 8697   2.596   3.901   0.605 -0.0043 -0.5139 -0.3520
  587TMC3    C1 8698   0.259   3.067  16.863  0.2363  0.1689 -0.9355
  587TMC3    C2 8699   0.168   3.145  16.796 -0.3510  0.4314  0.0102
  587TMC3    C3 8700   0.220   3.232  16.701  0.3488 -0.3174  0.5114
  587TMC3    C4 8701   0.390   3.075  16.841 -0.1770  0.7927 -0.2797
  587TMC3    C5 8702   0.435   3.151  16.742 -0.4597  0.6220 -0.3328
  587TMC3    C6 8703   0.352   3.234  16.667  0.2306 -1.2490 -0.1396
  587TMC3     C 8704   0.219   2.935  16.895  0.4364 -0.7884 -0.1973
  587TMC3     O 8705   0.287   2.871  16.975 -0.8266  0.0948 -0.2496
  587TMC3     H 8706   0.060   3.146  16.807 -0.0250  1.4364  2.9170
  587TMC3    H1 8707   0.456   3.001  16.886  2.4183  2.0387 -2.0377
  587TMC3    H2 8708   0.391   3.309  16.600  1.4384  0.0978  2.0702
  587TMC3    C7 8709   0.574   3.174  16.721 -0.4089 -0.0869 -0.3319
  587TMC3    C8 8710   0.148   3.349  16.669 -0.3317 -0.3456  0.0456
  587TMC3    O1 8711   0.602   3.283  16.671  0.5958 -0.5195 -0.3047
  587TMC3    O2 8712   0.219   3.438  16.626  0.3677 -0.4000 -0.3756
  588TMC3    C1 8713   2.096   1.266   9.695  0.5666 -0.3369 -0.8309
  588TMC3    C2 8714   2.071   1.124   9.694 -0.5787  0.3353 -0.1964
  588TMC3    C3 8715   2.105   1.045   9.803  0.6635  0.0423  0.1581
  588TMC3    C4 8716   2.120   1.316   9.820  0.2561  0.8480 -0.3707
  588TMC3    C5 8717   2.132   1.234   9.926 -0.3700 -0.3091  0.2714
  588TMC3    C6 8718   2.142   1.100   9.925 -0.6838 -0.3287 -0.6088
  588TMC3     C 8719   1.982   1.322   9.629 -0.1654 -0.2964 -0.1683
  588TMC3     O 8720   1.893   1.243   9.598  0.5430 -0.4008 -0.1598
  588TMC3     H 8721   2.041   1.076   9.602 -0.1379 -0.4610  0.0782
  588TMC3    H1 8722   2.115   1.422   9.842  0.5005  0.5085  1.3168
  588TMC3    H2 8723   2.159   1.044  10.016  1.2098  0.9803 -0.1473
  588TMC3    C7 8724   2.131   1.301  10.059 -0.2345 -0.1771 -0.0272
  588TMC3    C8 8725   2.057   0.907   9.788  0.0662 -0.1444 -0.1810
  588TMC3    O1 8726   2.220   1.268  10.141 -0.4361 -0.1225  0.4480
  588TMC3    O2 8727   1.996   0.875   9.684  0.2507  0.7232  0.1601
  589TMC3    C1 8728   0.896   2.682   1.476  0.1881 -0.2632  0.9206
  589TMC3    C2 8729   0.953   2.710   1.600  0.0898  0.6182 -0.0356
  589TMC3    C3 8730   1.088   2.681   1.620  0.3532 -0.0946  0.6082
  589TMC3    C4 8731   0.976   2.639   1.371 -0.3794  0.1562  0.1513
  589TMC3    C5 8732   1.112   2.620   1.389 -1.0077  0.0801  0.1166
  589TMC3    C6 8733   1.164   2.629   1.516 -0.8010 -0.1377 -0.4915
  589TMC3     C 8734   0.777   2.752   1.436 -0.1108  0.0687 -0.1637
  589TMC3     O 8735   0.759   2.751   1.314  0.2531  0.9118 -0.0912
  589TMC3     H 8736   0.896   2.765   1.674  0.8647 -0.4406  1.3486
  589TMC3    H1 8737   0.936   2.624   1.272 -0.9677  0.6174  0.3184
  589TMC3    H2 8738   1.266   2.602   1.542 -0.7574 -1.0613 -1.6678
  589TMC3    C7 8739   1.197   2.571   1.283  0.3591  0.7381  1.2350
  589TMC3    C8 8740   1.144   2.737   1.742 -0.3577  0.3453 -0.5390
  589TMC3    O1 8741   1.302   2.524   1.319  0.3054 -0.3185  0.0074
  589TMC3    O2 8742   1.081   2.740   1.843  0.1482 -0.2058  0.0448
  590MPD2     C 8743   0.508   1.361  16.861 -0.0919 -0.0730  0.2582
  590MPD2    C1 8744   0.401   1.368  16.770  0.3122  0.4394  0.1278
  590MPD2    C2 8745   0.417   1.362  16.628 -0.3171  0.3627  0.0915
  590MPD2    C3 8746   0.539   1.333  16.582  0.2302 -0.0439  0.6728
  590MPD2    C4 8747   0.645   1.315  16.673  0.2714 -0.7046  0.2048
  590MPD2    C5 8748   0.635   1.323  16.811 -0.4381 -0.0360 -0.0588
  590MPD2     H 8749   0.340   1.376  16.553 -0.5381 -0.6371  0.1331
  590MPD2    H1 8750   0.745   1.296  16.636  0.0115 -0.8063 -0.4522
  590MPD2    H2 8751   0.505   1.375  16.968 -2.2602  2.7477 -0.1739
  590MPD2    H3 8752   0.724   1.317  16.873 -0.7577 -0.1241  0.3883
  590MPD2     N 8753   0.555   1.336  16.441 -0.3051  0.5866  0.2215
  590MPD2    H5 8754   0.468   1.356  16.392 -0.4126 -0.4427  0.0085
  590MPD2    N1 8755   0.273   1.405  16.817  0.2588  0.1147  0.7706
  590MPD2    H7 8756   0.202   1.420  16.746  0.1406  2.1624  1.3280
  591TMC3    C1 8757   0.667   1.388  16.229 -0.2962 -0.6242 -0.6529
  591TMC3    C2 8758   0.792   1.401  16.161  0.8924  0.2048 -0.7596
  591TMC3    C3 8759   0.783   1.470  16.041  0.1729  0.5176 -1.7154
  591TMC3    C4 8760   0.552   1.458  16.187  1.1382 -0.1416  0.6838
  591TMC3    C5 8761   0.557   1.531  16.074  0.1710  0.1864 -0.2606
  591TMC3    C6 8762   0.672   1.541  15.994 -0.4429  0.1432 -0.2131
  591TMC3     C 8763   0.673   1.338  16.367  0.2523  0.3084  0.4227
  591TMC3     O 8764   0.782   1.297  16.403 -0.3884 -0.1562  0.3803
  591TMC3     H 8765   0.880   1.346  16.192  0.8421  1.6999  2.0646
  591TMC3    H1 8766   0.461   1.452  16.245  1.0552 -0.7482  0.4821
  591TMC3    H2 8767   0.686   1.608  15.910  1.5542 -1.6637 -1.3251
  591TMC3    C7 8768   0.443   1.622  16.045  0.7000  0.2068 -0.5659
  591TMC3    C8 8769   0.896   1.459  15.951  0.4850 -0.3893 -0.0643
  591TMC3    O1 8770   0.332   1.583  16.085 -0.6057 -0.4528 -0.8822
  591TMC3    O2 8771   0.959   1.355  15.963 -0.1002 -0.0975 -0.6301
  592MPD2     C 8772   0.581   3.902  11.931 -0.1395 -0.1285 -0.9325
  592MPD2    C1 8773   0.604   3.921  12.060 -0.0686 -0.3877 -0.5427
  592MPD2    C2 8774   0.497   3.893  12.147 -0.7656 -0.0507 -0.8983
  592MPD2    C3 8775   0.374   3.843  12.099  0.4274  0.3390 -0.2219
  592MPD2    C4 8776   0.355   3.831  11.960 -0.1979  0.0834  0.0488
  592MPD2    C5 8777   0.465   3.858  11.879  0.3036  0.0243 -0.0720
  592MPD2     H 8778   0.505   3.892  12.255 -2.1699 -0.1896 -0.7894
  592MPD2    H1 8779   0.260   3.796  11.919  0.5751 -0.1776 -1.5372
  592MPD2    H2 8780   0.669   3.910  11.868 -0.1618  2.4808 -0.6333
  592MPD2    H3 8781   0.459   3.813  11.781  0.8587 -1.1215  0.4220
  592MPD2     N 8782   0.270   3.806  12.189  0.7403  0.2846 -0.6784
  592MPD2    H5 8783   0.294   3.814  12.288 -1.7220 -2.8001  0.1879
  592MPD2    N1 8784   0.733   3.964  12.091  0.6068 -0.5244 -0.1566
  592MPD2    H7 8785   0.798   3.982  12.015  1.6076  2.4049  1.3930
  593TMC3    C1 8786   0.911   4.007  12.218 -0.3401  0.3398 -0.0712
  593TMC3    C2 8787   0.955   4.057  12.340 -0.7332  0.2277 -0.2154
  593TMC3    C3 8788   1.087   4.083  12.356  0.0252 -0.1275  0.5464
  593TMC3    C4 8789   1.002   4.000  12.114 -0.6524 -0.0376  0.0640
  593TMC3    C5 8790   1.133   4.037  12.129  1.0042  0.4124  0.8699
  593TMC3    C6 8791   1.173   4.071  12.248 -0.2749 -0.4599 -0.5409
  593TMC3     C 8792   0.775   3.963  12.216 -0.1111  0.3377 -0.1922
  593TMC3     O 8793   0.712   3.954  12.323  0.4371  0.2156  0.3922
  593TMC3     H 8794   0.884   4.070  12.421  0.0663  0.3282  0.4646
  593TMC3    H1 8795   0.972   3.950  12.023  1.1258  0.5177 -0.8445
  593TMC3    H2 8796   1.273   4.108  12.267 -0.5425 -1.0063  1.8781
  593TMC3    C7 8797   1.217   4.089  12.019 -0.3165  0.6530 -0.0482
  593TMC3    C8 8798   1.110   4.195  12.446  0.3018  0.4872 -0.2719
  593TMC3    O1 8799   1.322   4.142  12.046  0.4522  0.0756  0.3202
  593TMC3    O2 8800   1.017   4.274  12.465  0.2264 -0.5479  0.6829
  594MPD2     C 8801   0.145   1.884  14.928  0.5467  0.2207 -0.2880
  594MPD2    C1 8802   0.056   1.958  14.848  0.7145 -0.3090  0.0286
  594MPD2    C2 8803   0.094   2.088  14.822 -0.0814 -0.0867  0.7221
  594MPD2    C3 8804   0.209   2.144  14.869  0.4854  0.3906 -0.7364
  594MPD2    C4 8805   0.293   2.078  14.949 -0.3020 -0.2968  0.3406
  594MPD2    C5 8806   0.259   1.948  14.982  0.2780  0.1458 -0.3581
  594MPD2     H 8807   0.022   2.156  14.777  0.0741 -0.3654  0.0510
  594MPD2    H1 8808   0.386   2.120  14.984 -0.5493  0.4378  0.1053
  594MPD2    H2 8809   0.118   1.788  14.970 -0.2260  0.6533  0.2138
  594MPD2    H3 8810   0.323   1.886  15.043  0.6502  0.1076 -0.7907
  594MPD2     N 8811   0.232   2.274  14.818  1.0037 -0.5016 -0.6479
  594MPD2    H5 8812   0.155   2.319  14.769  0.7601  0.1324  0.3168
  594MPD2    N1 8813   4.670   1.893  14.788 -0.3270 -0.5628 -0.2179
  594MPD2    H7 8814   4.651   1.804  14.833  2.8869 -1.2088 -0.1528
  595TMC3    C1 8815   0.434   2.662  14.678 -0.1325 -0.1274 -0.4610
  595TMC3    C2 8816   0.454   2.546  14.753 -0.2195 -0.1696 -0.2460
  595TMC3    C3 8817   0.341   2.477  14.786 -0.2405 -0.2890  0.1783
  595TMC3    C4 8818   0.313   2.711  14.659  0.1871  0.6247 -0.1645
  595TMC3    C5 8819   0.202   2.639  14.698 -0.1138  0.2522  0.3261
  595TMC3    C6 8820   0.219   2.530  14.771 -0.1843  0.2085 -0.4357
  595TMC3     C 8821   0.545   2.750  14.676  0.7701  0.4161  0.8667
  595TMC3     O 8822   0.526   2.869  14.684 -0.3703  0.0580 -0.3175
  595TMC3     H 8823   0.553   2.503  14.762 -0.1714 -0.4376 -1.9909
  595TMC3    H1 8824   0.311   2.806  14.606  0.9048 -0.1606 -1.6202
  595TMC3    H2 8825   0.133   2.487  14.821  2.4418 -1.3203  2.7488
  595TMC3    C7 8826   0.090   2.731  14.720  0.3341 -0.3535  0.0789
  595TMC3    C8 8827   0.348   2.346  14.837  0.4716 -0.2948 -0.0617
  595TMC3    O1 8828   0.042   2.766  14.824  1.0414 -0.3330  0.1798
  595TMC3    O2 8829   0.457   2.300  14.865 -0.8992 -0.5299  0.1694
  596MPD2     C 8830   3.502   0.245  16.848 -0.1249  0.6768  0.4526
  596MPD2    C1 8831   3.472   0.362  16.785  0.0928  0.1845 -0.1044
  596MPD2    C2 8832   3.432   0.361  16.656 -0.6257  0.4534 -0.3023
  596MPD2    C3 8833   3.444   0.245  16.576  0.6468 -0.6204 -0.5717
  596MPD2    C4 8834   3.471   0.132  16.646  0.2289  0.1286  0.2806
  596MPD2    C5 8835   3.494   0.126  16.779  0.3930  0.3220 -0.0871
  596MPD2     H 8836   3.392   0.452  16.614 -3.1090 -1.1727 -1.5200
  596MPD2    H1 8837   3.482   0.040  16.588 -2.2338  0.6851 -1.0609
  596MPD2    H2 8838   3.527   0.240  16.953 -2.0535  0.3799  0.8976
  596MPD2    H3 8839   3.528   0.035  16.827  1.4639  2.1967  2.7057
  596MPD2     N 8840   3.424   0.244  16.432  0.2440 -0.3448  0.0434
  596MPD2    H5 8841   3.392   0.157  16.390 -0.3571  0.1665 -0.5484
  596MPD2    N1 8842   3.468   0.485  16.852  0.2372  0.0148  0.0180
  596MPD2    H7 8843   3.444   0.565  16.794 -0.2096  0.4071  0.7513
  597TMC3    C1 8844   3.455   0.643  17.018  0.1707 -0.3092  0.6407
  597TMC3    C2 8845   3.512   0.741  16.946  0.0901  0.1762  0.1774
  597TMC3    C3 8846   3.486   0.869  16.979 -0.3316 -0.3742 -0.5886
  597TMC3    C4 8847   3.366   0.662  17.122 -0.4556  0.0811  0.1711
  597TMC3    C5 8848   3.334   0.793  17.145 -0.5692 -0.5346  0.5051
  597TMC3    C6 8849   3.400   0.896  17.084  0.1298  0.2145 -0.1084
  597TMC3     C 8850   3.491   0.507  16.982  0.4793 -0.5672  0.2639
  597TMC3     O 8851   3.508   0.435  17.076  0.3987  0.7001 -0.0165
  597TMC3     H 8852   3.601   0.714  16.889 -0.8283  0.6562 -1.4869
  597TMC3    H1 8853   3.323   0.583  17.182 -1.1249  0.0746 -0.3206
  597TMC3    H2 8854   3.393   0.999  17.115  0.9565  0.7238 -1.6192
  597TMC3    C7 8855   3.261   0.817  17.268  0.0846 -0.0971  0.1990
  597TMC3    C8 8856   3.566   0.983  16.930 -0.4888  0.9208 -0.6302
  597TMC3    O1 8857   3.250   0.718  17.338  0.1868 -1.4689  0.4570
  597TMC3    O2 8858   3.553   1.097  16.984 -0.2325  0.4636  0.2308
  598TMC3    C1 8859   1.850   2.504  15.292 -1.1672  0.2385 -0.2497
  598TMC3    C2 8860   1.785   2.383  15.292  0.3563  0.2440  1.1129
  598TMC3    C3 8861   1.835   2.285  15.212 -0.4402 -0.0086 -0.2132
  598TMC3    C4 8862   1.964   2.528  15.220  0.7248  0.4010  0.1646
  598TMC3    C5 8863   2.017   2.421  15.161  0.5318 -0.2063  0.7990
  598TMC3    C6 8864   1.954   2.294  15.148  0.4550 -0.9462 -0.1135
  598TMC3     C 8865   1.808   2.603  15.390  0.5420 -0.4253  0.3184
  598TMC3     O 8866   1.693   2.596  15.431  0.0421 -0.2214  0.0036
  598TMC3     H 8867   1.689   2.368  15.340 -0.1233 -0.0217  0.0564
  598TMC3    H1 8868   2.027   2.615  15.238  1.8611 -0.6601  1.3233
  598TMC3    H2 8869   1.998   2.209  15.097 -0.0977 -2.9934  2.8307
  598TMC3    C7 8870   2.167   2.419  15.140 -0.6035  0.2921 -0.1945
  598TMC3    C8 8871   1.768   2.153  15.212 -0.8188 -0.0580  0.1799
  598TMC3    O1 8872   2.216   2.311  15.107 -0.0224  0.6429 -0.3929
  598TMC3    O2 8873   1.774   2.087  15.112 -0.3640  0.1231  0.1024
  599MPD2     C 8874   1.790   4.185  16.010  0.6591 -0.3383  0.1572
  599MPD2    C1 8875   1.885   4.138  16.096 -0.5826 -0.5540  0.1127
  599MPD2    C2 8876   1.857   4.138  16.234 -0.4867  0.6623  0.4159
  599MPD2    C3 8877   1.743   4.211  16.283  0.3120 -0.0273  0.7107
  599MPD2    C4 8878   1.658   4.273  16.195 -0.0178  0.2342  0.1452
  599MPD2    C5 8879   1.682   4.248  16.059 -0.0787  0.6818  0.5104
  599MPD2     H 8880   1.928   4.102  16.308  1.3124  0.2417 -1.5135
  599MPD2    H1 8881   1.570   4.332  16.215  0.8360  1.8050 -0.7532
  599MPD2    H2 8882   1.810   4.181  15.903  2.1883  0.5207  0.4113
  599MPD2    H3 8883   1.609   4.286  15.989  3.0877  1.8416 -2.1286
  599MPD2     N 8884   1.717   4.228  16.420 -0.3278  1.0623  0.1726
  599MPD2    H5 8885   1.638   4.288  16.442  0.0129  1.9972 -1.1791
  599MPD2    N1 8886   2.010   4.089  16.041  0.3906 -0.2670  0.3603
  599MPD2    H7 8887   2.002   4.059  15.944 -0.6380 -1.8243  0.9352
  600TMC3    C1 8888   1.736   4.201  16.651 -0.0160  0.1800  0.2467
  600TMC3    C2 8889   1.722   4.103  16.743 -0.8971  0.6083 -0.2564
  600TMC3    C3 8890   1.713   4.151  16.875 -0.0026 -0.3454 -0.2695
  600TMC3    C4 8891   1.713   4.333  16.671  0.0717 -0.3988  0.2940
  600TMC3    C5 8892   1.683   4.372  16.797  0.1348 -0.6122 -0.2899
  600TMC3    C6 8893   1.695   4.285  16.906 -0.5472  0.4402 -0.1267
  600TMC3     C 8894   1.767   4.148  16.522 -0.3629 -0.4126 -1.2575
  600TMC3     O 8895   1.828   4.046  16.513  0.4016 -0.1083  0.1919
  600TMC3     H 8896   1.739   3.998  16.723 -1.4682  0.3842  0.4361
  600TMC3    H1 8897   1.707   4.404  16.589  0.3441  0.7863  1.3179
  600TMC3    H2 8898   1.677   4.308  17.010 -1.7009 -0.6589 -0.0811
  600TMC3    C7 8899   1.677   4.519  16.826  0.5221  0.6469  0.0169
  600TMC3    C8 8900   1.633   4.070  16.964 -0.5415 -0.4502 -0.4953
  600TMC3    O1 8901   1.632   4.589  16.735  0.2927  0.0760 -0.6900
  600TMC3    O2 8902   1.651   4.061  17.084 -0.0834  0.6291 -0.1638
  601MPD2     C 8903   4.241   2.579   0.200 -0.6317 -0.0852 -0.1063
  601MPD2    C1 8904   4.167   2.530   0.094  0.1908  0.0460  0.7991
  601MPD2    C2 8905   4.081   2.429   0.122  0.2688 -0.5562 -0.2717
  601MPD2    C3 8906   4.066   2.370   0.243  0.3882  0.0531  0.7033
  601MPD2    C4 8907   4.133   2.428   0.352  0.2523  0.4974  0.0468
  601MPD2    C5 8908   4.224   2.527   0.325 -0.2417 -0.1101  0.9207
  601MPD2     H 8909   4.038   2.381   0.035 -3.4825 -0.5306  1.5696
  601MPD2    H1 8910   4.119   2.386   0.451  3.0794  1.5937  0.9116
  601MPD2    H2 8911   4.310   2.662   0.188  0.5706 -1.4861 -2.8697
  601MPD2    H3 8912   4.288   2.559   0.406  1.7927 -1.7359 -0.0204
  601MPD2     N 8913   3.962   2.276   0.269 -0.6612  0.5232 -0.1525
  601MPD2    H5 8914   3.944   2.244   0.363  3.2858  1.1929  0.8285
  601MPD2    N1 8915   4.174   2.590  17.671 -0.5443  0.7720  0.4356
  601MPD2    H7 8916   4.100   2.581  17.603  0.3124  1.3199 -0.5736
  602TMC3    C1 8917   4.234   2.745  17.510 -0.0681 -0.4267 -0.0959
  602TMC3    C2 8918   4.331   2.773  17.410 -0.6103  0.2963  0.4562
  602TMC3    C3 8919   4.277   2.824  17.298 -0.6836  0.5474 -0.3896
  602TMC3    C4 8920   4.103   2.787  17.501  0.5178  0.2693 -0.0546
  602TMC3    C5 8921   4.064   2.852  17.385  0.7029  0.2057 -0.3533
  602TMC3    C6 8922   4.152   2.884  17.289 -0.1876  1.0198  0.7440
  602TMC3     C 8923   4.274   2.684  17.633 -0.3412 -0.6092  0.6521
  602TMC3     O 8924   4.388   2.683  17.675 -0.3088  0.5456  0.0469
  602TMC3     H 8925   4.428   2.724  17.409  0.3979  2.3460 -1.6860
  602TMC3    H1 8926   4.028   2.761  17.575  0.6732  0.0190  0.0183
  602TMC3    H2 8927   4.120   2.955  17.213 -0.9982  1.0780  1.1379
  602TMC3    C7 8928   3.925   2.899  17.380 -0.1324 -1.1669 -0.2209
  602TMC3    C8 8929   4.365   2.845  17.185  0.5255  0.6042  0.2304
  602TMC3    O1 8930   3.861   2.898  17.482 -0.3588  0.3158  0.3915
  602TMC3    O2 8931   4.486   2.863  17.196  0.1572 -0.1138 -0.2451
  603TMC3    C1 8932   1.574   3.492  11.560  1.0608  0.0301  0.0614
  603TMC3    C2 8933   1.632   3.503  11.683 -0.1706 -0.4718  0.5643
  603TMC3    C3 8934   1.766   3.488  11.689  0.5686 -0.1966  0.0755
  603TMC3    C4 8935   1.653   3.490  11.443 -0.5923 -0.0066 -0.0901
  603TMC3    C5 8936   1.787   3.505  11.456  0.3496  0.4408 -0.6333
  603TMC3    C6 8937   1.847   3.496  11.578 -0.5878 -0.4991 -0.2420
  603TMC3     C 8938   1.436   3.440  11.551 -0.3599 -0.0204  0.3199
  603TMC3     O 8939   1.390   3.445  11.438 -0.3964  0.3959  0.0130
  603TMC3     H 8940   1.576   3.515  11.775 -0.5706  0.4306  0.1992
  603TMC3    H1 8941   1.601   3.463  11.352  1.1286 -0.0767 -1.0617
  603TMC3    H2 8942   1.949   3.532  11.581 -0.9786  0.6888 -1.2105
  603TMC3    C7 8943   1.872   3.504  11.340  0.1789  0.0858 -0.7466
  603TMC3    C8 8944   1.811   3.422  11.813  0.4171  0.5171 -0.2605
  603TMC3    O1 8945   1.992   3.493  11.357 -0.4082 -0.2307  0.0413
  603TMC3    O2 8946   1.734   3.417  11.905 -0.0151 -0.3213 -0.0112
  604MPD2     C 8947   2.512   1.667  16.602  0.2594  0.4553 -0.3300
  604MPD2    C1 8948   2.436   1.734  16.513 -0.0751 -0.2722 -0.1633
  604MPD2    C2 8949   2.433   1.703  16.380  0.1636 -0.0853  0.3628
  604MPD2    C3 8950   2.512   1.594  16.332  0.1892 -0.4777  0.3913
  604MPD2    C4 8951   2.587   1.520  16.422 -0.7149  0.4941 -0.9838
  604MPD2    C5 8952   2.582   1.559  16.557 -0.1812  1.0992  0.4635
  604MPD2     H 8953   2.389   1.773  16.309 -0.3949  0.0081  0.7997
  604MPD2    H1 8954   2.641   1.429  16.397 -1.4401  0.3601 -2.0542
  604MPD2    H2 8955   2.506   1.707  16.703 -1.8086  1.2109 -0.7506
  604MPD2    H3 8956   2.647   1.504  16.624 -2.1122 -2.1509 -0.3253
  604MPD2     N 8957   2.489   1.561  16.196 -0.2488  0.3457 -0.9652
  604MPD2    H5 8958   2.424   1.627  16.155  0.4319  1.3558 -0.3928
  604MPD2    N1 8959   2.363   1.844  16.563 -0.2365 -0.3049 -0.0433
  604MPD2    H7 8960   2.378   1.872  16.659  3.8268 -0.8818 -0.5079
  605TMC3    C1 8961   2.246   2.041  16.556  0.1420  0.2145 -1.1676
  605TMC3    C2 8962   2.286   2.063  16.685  0.2760  0.3279  0.4817
  605TMC3    C3 8963   2.292   2.197  16.719 -0.1520 -0.4453  0.3051
  605TMC3    C4 8964   2.204   2.139  16.471 -0.3047 -0.0879 -0.0069
  605TMC3    C5 8965   2.208   2.265  16.506 -0.2601 -0.2354  0.2361
  605TMC3    C6 8966   2.255   2.299  16.630  0.0326 -0.7661  0.3493
  605TMC3     C 8967   2.258   1.908  16.502 -0.3866  0.7900  0.3392
  605TMC3     O 8968   2.211   1.881  16.395 -0.2598 -0.2325  0.6788
  605TMC3     H 8969   2.299   1.980  16.753 -0.9479 -0.4590 -0.2524
  605TMC3    H1 8970   2.170   2.110  16.372 -0.0561 -3.0759  0.7954
  605TMC3    H2 8971   2.243   2.400  16.667 -0.0648 -0.0431 -1.6528
  605TMC3    C7 8972   2.144   2.355  16.414 -0.2810 -0.3919 -0.1033
  605TMC3    C8 8973   2.384   2.218  16.827  0.9625  0.1732  0.0184
  605TMC3    O1 8974   2.081   2.310  16.319  0.8119  0.1693  0.0445
  605TMC3    O2 8975   2.390   2.114  16.894 -0.1667 -0.2516 -0.3832
  606TMC3    C1 8976   3.934   0.198  16.948 -0.5086  0.4718  1.0514
  606TMC3    C2 8977   4.032   0.183  17.044 -0.1495 -0.5502  0.4057
  606TMC3    C3 8978   4.069   0.057  17.082 -0.0526 -0.2965  0.9068
  606TMC3    C4 8979   3.877   0.088  16.884 -0.1401 -0.9148  0.4929
  606TMC3    C5 8980   3.919   4.693  16.932  0.1120 -0.1087 -0.0025
  606TMC3    C6 8981   4.012   4.668  17.031 -0.0858  0.0769 -0.5194
  606TMC3     C 8982   3.895   0.329  16.895  0.5896 -0.0376 -0.0131
  606TMC3     O 8983   3.903   0.417  16.979  0.7413 -0.1402  0.1151
  606TMC3     H 8984   4.077   0.266  17.096  2.5651 -2.2400  0.7119
  606TMC3    H1 8985   3.798   0.087  16.810 -0.6555 -2.6037  1.0731
  606TMC3    H2 8986   4.028   4.570  17.073  1.5436 -0.3845 -2.2069
  606TMC3    C7 8987   3.810   4.593  16.928 -0.4377  0.0418  0.2802
  606TMC3    C8 8988   4.176   0.033  17.176  0.4174 -0.6320 -0.0645
  606TMC3    O1 8989   3.745   4.567  16.826 -0.0800  0.5272 -0.0141
  606TMC3    O2 8990   4.204   0.122  17.252 -0.2818  0.5413  0.5343
  607MPD2     C 8991   0.948   3.656  11.772 -1.1473 -0.4269 -0.1959
  607MPD2    C1 8992   1.062   3.675  11.850  0.3858  0.2509 -0.0718
  607MPD2    C2 8993   1.063   3.651  11.987 -0.9763 -0.6878 -0.7907
  607MPD2    C3 8994   0.941   3.624  12.050  0.1458 -0.2058  0.3200
  607MPD2    C4 8995   0.822   3.610  11.974  0.5662 -0.1529  0.6745
  607MPD2    C5 8996   0.829   3.623  11.841  0.2770  0.0752 -0.2840
  607MPD2     H 8997   1.147   3.678  12.049 -0.1236 -1.9150 -1.4071
  607MPD2    H1 8998   0.726   3.597  12.021  0.1364 -1.0147 -0.4490
  607MPD2    H2 8999   0.953   3.671  11.664 -0.2190  0.3713 -0.0509
  607MPD2    H3 9000   0.737   3.607  11.786  0.5826  3.7662 -1.8583
  607MPD2     N 9001   0.940   3.616  12.188 -0.1902 -0.1387 -0.2236
  607MPD2    H5 9002   1.033   3.630  12.227  1.0662 -0.4916 -3.1207
  607MPD2    N1 9003   1.184   3.699  11.789 -0.0576 -0.5001 -0.1280
  607MPD2    H7 9004   1.267   3.688  11.846 -0.1096 -0.0025  0.0459
  608TMC3    C1 9005   1.360   3.756  11.670  0.6809  0.5754 -0.2842
  608TMC3    C2 9006   1.404   3.822  11.784 -0.0148  0.1805 -0.7105
  608TMC3    C3 9007   1.530   3.874  11.795 -0.3385 -0.9452 -0.0858
  608TMC3    C4 9008   1.427   3.778  11.557  0.4521  0.1444  0.4075
  608TMC3    C5 9009   1.539   3.859  11.561 -0.2232 -0.5387 -0.3260
  608TMC3    C6 9010   1.594   3.914  11.682  0.1333  0.3642 -0.3573
  608TMC3     C 9011   1.222   3.712  11.656  0.0242  0.1266 -0.3307
  608TMC3     O 9012   1.155   3.733  11.559 -0.1708  0.2183  0.2273
  608TMC3     H 9013   1.336   3.847  11.865  3.2953  2.1452  1.4303
  608TMC3    H1 9014   1.389   3.742  11.462  2.0870  1.1020 -0.6123
  608TMC3    H2 9015   1.678   3.983  11.685 -1.4603  2.1868  2.1352
  608TMC3    C7 9016   1.630   3.868  11.448 -0.3777  0.1863 -0.7013
  608TMC3    C8 9017   1.578   3.924  11.923  0.3493  0.3423 -0.6329
  608TMC3    O1 9018   1.575   3.837  11.342  0.8372  0.4572  0.3600
  608TMC3    O2 9019   1.648   4.024  11.932  0.0510 -0.4876 -0.2527
  609TMC3    C1 9020   4.619   2.255   9.259 -0.3940 -0.7544 -0.3426
  609TMC3    C2 9021   4.570   2.243   9.135  0.2710 -0.4081 -0.8128
  609TMC3    C3 9022   4.654   2.204   9.041 -0.2160  0.2952  0.0372
  609TMC3    C4 9023   0.019   2.223   9.288  0.8694  0.5989  0.3777
  609TMC3    C5 9024   0.103   2.176   9.188 -0.5052  0.7240 -0.6989
  609TMC3    C6 9025   0.061   2.173   9.062 -0.1768  0.6459 -0.0611
  609TMC3     C 9026   4.532   2.273   9.374  0.1184 -0.3120 -0.5476
  609TMC3     O 9027   4.586   2.260   9.482 -0.1973  0.2126 -0.3162
  609TMC3     H 9028   4.466   2.266   9.115  0.1279 -0.4463 -0.1142
  609TMC3    H1 9029   0.062   2.221   9.388 -0.8074 -0.6053  1.0725
  609TMC3    H2 9030   0.123   2.143   8.978  1.3066 -1.2702  1.7039
  609TMC3    C7 9031   0.234   2.132   9.224  0.9884  0.0323 -0.2727
  609TMC3    C8 9032   4.597   2.176   8.908  0.1369 -0.7363 -0.2940
  609TMC3    O1 9033   0.269   2.160   9.339  0.0905  0.5951  0.1681
  609TMC3    O2 9034   4.654   2.103   8.827  0.1489  0.1062 -0.2101
  610TMC3    C1 9035   1.868   2.958  13.023 -0.1363 -0.2151 -0.9807
  610TMC3    C2 9036   1.848   3.064  12.936  0.3531 -0.1124  0.3367
  610TMC3    C3 9037   1.946   3.158  12.919  0.5058 -0.5153 -0.0528
  610TMC3    C4 9038   1.992   2.928  13.073 -0.0240 -0.1257 -0.3577
  610TMC3    C5 9039   2.091   3.013  13.038 -0.4650  0.0383 -0.3265
  610TMC3    C6 9040   2.071   3.125  12.958  0.1340  0.1158 -0.2252
  610TMC3     C 9041   1.750   2.894  13.093  0.4019  0.5562 -0.2644
  610TMC3     O 9042   1.641   2.941  13.054 -0.4659 -0.3238  0.0610
  610TMC3     H 9043   1.746   3.096  12.916 -0.1802 -1.8435  0.2705
  610TMC3    H1 9044   2.009   2.849  13.145 -1.0304 -1.3847 -1.5154
  610TMC3    H2 9045   2.152   3.193  12.935 -0.0518  0.3516 -0.1776
  610TMC3    C7 9046   2.225   2.969  13.073 -0.2813  0.2280 -0.4623
  610TMC3    C8 9047   1.938   3.263  12.821 -0.2415  0.0363 -0.5421
  610TMC3    O1 9048   2.236   2.898  13.172 -0.3459  0.1066  0.0983
  610TMC3    O2 9049   2.043   3.286  12.762 -0.1004  0.2261 -0.3571
  611MPD2     C 9050   0.971   3.225  10.864 -0.3323  1.0966 -0.8900
  611MPD2    C1 9051   0.976   3.193  10.733  0.0995 -0.0171  0.0850
  611MPD2    C2 9052   1.090   3.231  10.667  0.4705 -0.5439  0.3040
  611MPD2    C3 9053   1.201   3.288  10.733 -0.0421 -0.6534  0.4871
  611MPD2    C4 9054   1.195   3.305  10.868  0.0471 -0.0104  0.4047
  611MPD2    C5 9055   1.078   3.283  10.929 -1.0325 -0.7617 -0.2606
  611MPD2     H 9056   1.084   3.229  10.559  1.3598 -3.7888  0.3063
  611MPD2    H1 9057   1.276   3.335  10.933 -1.2108 -0.2337  2.0793
  611MPD2    H2 9058   0.881   3.210  10.922  1.1726 -0.5574  0.9955
  611MPD2    H3 9059   1.074   3.276  11.037  0.7998 -3.1051 -0.3179
  611MPD2     N 9060   1.303   3.358  10.658 -0.1441 -0.3678  0.6970
  611MPD2    H5 9061   1.371   3.413  10.711 -0.3757  4.0567 -3.6270
  611MPD2    N1 9062   0.856   3.140  10.671  0.2377 -0.2904 -0.2469
  611MPD2    H7 9063   0.780   3.125  10.736  0.9347  2.4961  1.2088
  612TMC3    C1 9064   1.430   3.443  10.485  0.0181  0.1577  0.6999
  612TMC3    C2 9065   1.538   3.461  10.574 -0.5537  0.2522  0.1184
  612TMC3    C3 9066   1.634   3.551  10.534 -0.1271  0.1185  0.3217
  612TMC3    C4 9067   1.415   3.511  10.375 -0.9524  0.0680 -1.0601
  612TMC3    C5 9068   1.516   3.589  10.329  0.1216  0.1278 -0.3300
  612TMC3    C6 9069   1.625   3.610  10.412  0.2085 -0.4435  0.5345
  612TMC3     C 9070   1.327   3.356  10.524 -0.5527 -0.0158 -0.3660
  612TMC3     O 9071   1.264   3.293  10.439  0.5759  0.3697 -0.5562
  612TMC3     H 9072   1.547   3.402  10.665  0.5445 -1.9095 -1.3917
  612TMC3    H1 9073   1.323   3.494  10.320 -2.2273  0.5591  0.9201
  612TMC3    H2 9074   1.705   3.676  10.380  0.8768 -0.8598  1.3220
  612TMC3    C7 9075   1.507   3.676  10.209  0.2412  0.1924 -0.0580
  612TMC3    C8 9076   1.741   3.599  10.620  0.0346  0.5571 -0.0205
  612TMC3    O1 9077   1.599   3.754  10.211 -0.3438 -0.7409 -0.6163
  612TMC3    O2 9078   1.843   3.638  10.560 -1.0118 -0.0258  0.3416
  613MPD2     C 9079   0.320   0.405  17.162 -0.2173 -0.4141  0.6121
  613MPD2    C1 9080   0.232   0.462  17.074  0.4115  0.3407 -0.7520
  613MPD2    C2 9081   0.187   0.368  16.980 -0.5538  0.3469  0.3306
  613MPD2    C3 9082   0.234   0.239  16.969 -0.6599 -0.3547 -0.2384
  613MPD2    C4 9083   0.332   0.199  17.047 -0.7873  0.0839 -0.5131
  613MPD2    C5 9084   0.376   0.279  17.145  0.0515  0.2311 -0.0558
  613MPD2     H 9085   0.115   0.400  16.906 -0.7310 -1.3082 -0.2143
  613MPD2    H1 9086   0.380   0.102  17.034  0.1307  0.4458  0.1124
  613MPD2    H2 9087   0.365   0.468  17.238 -1.6409  0.1316  1.0022
  613MPD2    H3 9088   0.455   0.245  17.211  1.0184  3.9958  0.7303
  613MPD2     N 9089   0.196   0.159  16.857 -0.0141 -0.5665  0.0310
  613MPD2    H5 9090   0.272   0.097  16.829  0.8278  0.2533  0.4888
  613MPD2    N1 9091   0.192   0.594  17.090 -0.2394  0.3419 -0.5412
  613MPD2    H7 9092   0.210   0.635  17.181  1.4260 -0.8174 -0.3452
  614TMC3    C1 9093   0.110   0.641  16.864  0.0988  0.0947  0.3614
  614TMC3    C2 9094   0.223   0.620  16.790  0.6448  0.4108 -0.2532
  614TMC3    C3 9095   0.207   0.612  16.653  0.4667 -0.5342 -0.2209
  614TMC3    C4 9096   4.715   0.689  16.814  0.1447 -0.3995 -0.0321
  614TMC3    C5 9097   4.705   0.693  16.677 -0.0876 -0.2314  0.0928
  614TMC3    C6 9098   0.091   0.656  16.596  0.5704  0.1691 -0.9390
  614TMC3     C 9099   0.129   0.677  17.004 -0.0756 -0.2405  0.0793
  614TMC3     O 9100   0.108   0.795  17.023 -0.0552 -0.0312  0.2739
  614TMC3     H 9101   0.311   0.580  16.838  0.3590 -1.4388 -1.2729
  614TMC3    H1 9102   4.631   0.714  16.877 -0.2166 -2.1117  0.1609
  614TMC3    H2 9103   0.091   0.662  16.487 -3.1438  0.8429 -0.8950
  614TMC3    C7 9104   4.587   0.742  16.612  0.6975  0.4769  0.1678
  614TMC3    C8 9105   0.264   0.498  16.584 -0.1402 -0.2707 -0.1600
  614TMC3    O1 9106   4.494   0.772  16.680  0.7104 -1.1191 -0.2369
  614TMC3    O2 9107   0.292   0.405  16.652  0.3769 -0.3490 -0.2507
  615MPD2     C 9108   4.350   1.820  16.438  0.3803  0.7111  0.6675
  615MPD2    C1 9109   4.359   1.935  16.363 -0.1379 -0.0388  0.1300
  615MPD2    C2 9110   4.301   1.945  16.238  0.3325 -0.5432 -0.2316
  615MPD2    C3 9111   4.227   1.836  16.190  0.2715 -0.1341 -0.5672
  615MPD2    C4 9112   4.216   1.719  16.263 -0.3574  0.0540  0.3423
  615MPD2    C5 9113   4.285   1.711  16.378  0.4003 -0.1346  0.0334
  615MPD2     H 9114   4.320   2.035  16.181  0.6831  0.4897  1.4808
  615MPD2    H1 9115   4.161   1.631  16.235  1.0381 -0.8136  0.3435
  615MPD2    H2 9116   4.398   1.806  16.534  2.1074 -1.2091 -0.4824
  615MPD2    H3 9117   4.285   1.612  16.423 -2.1799  0.1824  0.7397
  615MPD2     N 9118   4.164   1.838  16.065  0.3330  0.3668  0.2545
  615MPD2    H5 9119   4.173   1.918  16.002 -0.0330 -1.4485 -2.0929
  615MPD2    N1 9120   4.427   2.044  16.411  0.7660  0.1130  0.0143
  615MPD2    H7 9121   4.437   2.121  16.345  2.4124  0.9711  1.2690
  616TMC3    C1 9122   4.559   2.183  16.551 -0.2229 -0.0497 -0.1958
  616TMC3    C2 9123   4.536   2.295  16.477 -0.1821 -0.4524 -0.0412
  616TMC3    C3 9124   4.622   2.402  16.495  0.5181 -0.2053  0.7423
  616TMC3    C4 9125   4.656   2.178  16.641  0.2241  0.4853 -0.4796
  616TMC3    C5 9126   0.005   2.288  16.663  0.0646 -0.0770  0.7976
  616TMC3    C6 9127   0.003   2.395  16.578 -0.4288  0.2841 -0.3495
  616TMC3     C 9128   4.483   2.056  16.535  0.0016  0.4344 -0.0392
  616TMC3     O 9129   4.505   1.972  16.618 -0.6607  0.3131  0.0839
  616TMC3     H 9130   4.446   2.297  16.416 -0.0945  0.3335 -0.1483
  616TMC3    H1 9131   4.669   2.095  16.709 -3.3109 -0.3006 -0.7743
  616TMC3    H2 9132   0.077   2.470  16.603 -0.7325  0.5991 -0.4064
  616TMC3    C7 9133   0.126   2.247  16.741 -0.5395 -0.3604 -0.0921
  616TMC3    C8 9134   4.616   2.509  16.396  0.1280  0.5322  0.9239
  616TMC3    O1 9135   0.112   2.160  16.826  0.3974 -0.1263  0.3177
  616TMC3    O2 9136   4.525   2.511  16.313 -0.0195  0.0996 -0.1775
  617MPD2     C 9137   2.273   0.309  13.815  0.1000 -0.3340 -0.8254
  617MPD2    C1 9138   2.338   0.215  13.886  0.5352  0.0818 -0.1408
  617MPD2    C2 9139   2.271   0.146  13.983  0.3186 -0.2703  0.2903
  617MPD2    C3 9140   2.139   0.183  14.017 -0.6223  0.3013  0.4205
  617MPD2    C4 9141   2.088   0.292  13.959 -0.0534  0.6052 -0.4131
  617MPD2    C5 9142   2.154   0.357  13.859 -0.0268 -0.3394 -0.0297
  617MPD2     H 9143   2.318   0.062  14.031  0.4534 -0.7209 -0.6224
  617MPD2    H1 9144   1.994   0.339  13.984 -1.6795 -1.7547 -2.0314
  617MPD2    H2 9145   2.319   0.364  13.733  0.1783  0.5270 -0.2012
  617MPD2    H3 9146   2.117   0.443  13.804  1.4443  1.0142  1.0974
  617MPD2     N 9147   2.057   0.126  14.121  0.6691 -0.2380 -0.0593
  617MPD2    H5 9148   1.962   0.156  14.138  0.6042 -0.3742 -0.1841
  617MPD2    N1 9149   2.472   0.179  13.853  0.3103  0.0550  0.8172
  617MPD2    H7 9150   2.512   0.105  13.910 -0.1228  0.4974  1.6901
  618TMC3    C1 9151   2.689   0.184  13.750 -0.4872 -0.3760  0.6048
  618TMC3    C2 9152   2.729   0.072  13.825  0.0504  0.9498  0.2963
  618TMC3    C3 9153   2.860   0.052  13.849 -0.6979 -0.3131 -0.4523
  618TMC3    C4 9154   2.791   0.258  13.695 -0.2219  0.6411  0.5275
  618TMC3    C5 9155   2.927   0.224  13.707  0.1569 -0.2381  0.1515
  618TMC3    C6 9156   2.956   0.139  13.804 -0.9682  0.5236  1.3375
  618TMC3     C 9157   2.555   0.240  13.759  0.3977 -0.9025 -0.4697
  618TMC3     O 9158   2.541   0.353  13.715  0.2857  0.0091 -0.0439
  618TMC3     H 9159   2.652   0.004  13.858  1.8380 -1.0786  0.2893
  618TMC3    H1 9160   2.761   0.346  13.640 -1.1452 -0.3652 -0.5767
  618TMC3    H2 9161   3.063   0.122  13.810 -1.1250 -0.6915  0.6547
  618TMC3    C7 9162   3.029   0.324  13.679  0.0305  0.5900 -0.1883
  618TMC3    C8 9163   2.899   4.654  13.909 -0.1753  0.4011 -0.5120
  618TMC3    O1 9164   3.081   0.352  13.786 -0.0213 -0.1651  0.3344
  618TMC3    O2 9165   2.831   4.608  13.996 -0.0584  0.0958 -0.1503
  619MPD2     C 9166   3.803   0.973  13.805 -0.4478  0.3041 -0.6249
  619MPD2    C1 9167   3.791   1.070  13.905  0.3231  0.2721  0.1010
  619MPD2    C2 9168   3.679   1.072  13.977  0.1130 -0.6119 -0.3443
  619MPD2    C3 9169   3.568   0.993  13.951 -0.2311 -0.3819  0.3997
  619MPD2    C4 9170   3.579   0.900  13.848 -0.3010  0.5449 -0.2243
  619MPD2    C5 9171   3.697   0.887  13.782  0.1484  1.0014 -0.5222
  619MPD2     H 9172   3.669   1.150  14.051 -0.8101 -1.5648  0.5348
  619MPD2    H1 9173   3.496   0.841  13.810  2.1442 -2.7151 -0.5581
  619MPD2    H2 9174   3.884   0.983  13.734 -0.7558 -1.2368 -1.1873
  619MPD2    H3 9175   3.702   0.809  13.706 -2.1930 -0.0125  0.3718
  619MPD2     N 9176   3.445   1.000  14.024 -0.0775  0.1423  0.4347
  619MPD2    H5 9177   3.373   0.934  13.998  0.5994 -1.4359  2.5946
  619MPD2    N1 9178   3.882   1.173  13.930  0.9787  0.3499 -0.8713
  619MPD2    H7 9179   3.855   1.251  13.990  1.8723 -1.3852  1.7699
  620TMC3    C1 9180   4.020   1.339  13.879  0.2313 -0.7737 -0.8486
  620TMC3    C2 9181   3.914   1.430  13.873 -0.3299 -0.4221 -1.0562
  620TMC3    C3 9182   3.946   1.562  13.892 -0.4113 -0.2718  0.0960
  620TMC3    C4 9183   4.144   1.386  13.874  0.5782 -0.4632  0.3973
  620TMC3    C5 9184   4.178   1.520  13.874  0.2565 -0.2455  0.6598
  620TMC3    C6 9185   4.077   1.610  13.896 -0.0691  0.4560 -0.5648
  620TMC3     C 9186   3.990   1.205  13.855  0.6023 -1.0948  0.3234
  620TMC3     O 9187   4.070   1.125  13.809 -0.4977  0.3269  0.0257
  620TMC3     H 9188   3.813   1.393  13.888 -1.1251  1.7124 -1.2171
  620TMC3    H1 9189   4.223   1.321  13.836  0.3409 -0.8592  0.5907
  620TMC3    H2 9190   4.098   1.714  13.919 -2.1682  0.9673 -0.9344
  620TMC3    C7 9191   4.244   1.556  13.747 -0.0006  0.1682 -0.3121
  620TMC3    C8 9192   3.854   1.658  13.827 -0.0848  0.1702  0.8151
  620TMC3    O1 9193   4.320   1.473  13.694  0.0829 -0.1847 -0.3949
  620TMC3    O2 9194   3.896   1.770  13.793 -0.3682  0.0028  0.1586
  621MPD2     C 9195   0.061   1.328   9.742  0.2428  0.1634  0.2656
  621MPD2    C1 9196   0.107   1.339   9.867  0.9175 -0.3403 -0.3429
  621MPD2    C2 9197   0.101   1.464   9.928  0.6361  0.3486  0.2295
  621MPD2    C3 9198   0.067   1.577   9.858  0.3554 -0.1642 -0.2695
  621MPD2    C4 9199   0.032   1.568   9.726  0.4373  0.3370  0.3380
  621MPD2    C5 9200   0.023   1.442   9.676  0.4818 -0.0512 -0.6049
  621MPD2     H 9201   0.118   1.465  10.035  5.0310 -1.5922 -0.4320
  621MPD2    H1 9202   0.007   1.649   9.659  0.1098  0.0396  0.1028
  621MPD2    H2 9203   0.056   1.235   9.687 -0.6141  0.6158 -0.4216
  621MPD2    H3 9204   4.718   1.422   9.574 -2.2979  1.9073 -0.1511
  621MPD2     N 9205   0.097   1.703   9.916  0.1072 -0.9246 -0.4219
  621MPD2    H5 9206   0.131   1.709  10.011 -2.4341 -0.8994  0.4926
  621MPD2    N1 9207   0.154   1.227   9.944  0.2804 -0.0097  0.0980
  621MPD2    H7 9208   0.166   1.236  10.044 -1.5850  0.4080  0.2807
  622TMC3    C1 9209   0.275   1.014   9.965  0.4746  0.2156 -0.0966
  622TMC3    C2 9210   0.233   1.010  10.094 -0.2626 -0.8142  0.5066
  622TMC3    C3 9211   0.240   0.889  10.155  0.0894 -0.4759  0.8992
  622TMC3    C4 9212   0.329   0.907   9.905 -0.4149 -0.1084 -0.1977
  622TMC3    C5 9213   0.368   0.800   9.976 -0.5920 -0.2270 -0.7251
  622TMC3    C6 9214   0.307   0.792  10.098 -1.0693 -0.3741 -0.1215
  622TMC3     C 9215   0.218   1.121   9.878 -0.5795 -0.4307  0.6155
  622TMC3     O 9216   0.227   1.100   9.756 -0.8347  0.4553 -0.9257
  622TMC3     H 9217   0.164   1.084  10.134  0.9334  0.4052  0.3052
  622TMC3    H1 9218   0.363   0.913   9.802  1.7079  3.2386  0.7025
  622TMC3    H2 9219   0.288   0.694  10.141 -1.0799  0.0893  0.9481
  622TMC3    C7 9220   0.347   0.674   9.916 -0.4070  0.4718 -0.1086
  622TMC3    C8 9221   0.148   0.857  10.268  0.4755  0.3640 -0.2753
  622TMC3    O1 9222   0.447   0.600   9.899  0.3561 -0.2815 -0.0873
  622TMC3    O2 9223   0.125   0.732  10.286  0.5975 -0.1510 -0.6023
  623MPD2     C 9224   2.856   1.739  16.368 -0.3318  0.1108  0.2931
  623MPD2    C1 9225   2.797   1.843  16.435 -0.0602 -0.2140 -0.6202
  623MPD2    C2 9226   2.814   1.862  16.568  0.3094  0.9484  0.1193
  623MPD2    C3 9227   2.888   1.773  16.645  0.4728  0.5475  0.4339
  623MPD2    C4 9228   2.948   1.668  16.579 -0.4390 -0.8475  0.3849
  623MPD2    C5 9229   2.930   1.653  16.441  0.1618 -0.3805 -0.3383
  623MPD2     H 9230   2.764   1.942  16.621 -2.3268 -0.2616 -0.5446
  623MPD2    H1 9231   3.009   1.591  16.624  0.6920  0.2594  0.7226
  623MPD2    H2 9232   2.844   1.721  16.262 -1.6983 -0.8068  0.6143
  623MPD2    H3 9233   2.984   1.571  16.394 -0.4787 -1.3154  0.5525
  623MPD2     N 9234   2.905   1.804  16.780  0.2682 -0.2369  0.1192
  623MPD2    H5 9235   2.849   1.880  16.817 -0.8944 -1.2039  0.3716
  623MPD2    N1 9236   2.730   1.948  16.365 -0.1472 -0.1399 -0.6665
  623MPD2    H7 9237   2.704   2.030  16.420 -0.1223 -0.2710 -0.4591
  624TMC3    C1 9238   3.124   1.990  17.063  0.4583  0.3123 -0.1301
  624TMC3    C2 9239   3.010   2.052  17.109  0.1231  0.5666 -0.7357
  624TMC3    C3 9240   2.891   1.985  17.095 -0.3435 -0.5814  0.1812
  624TMC3    C4 9241   3.120   1.873  16.999 -0.6640 -0.0294  0.1231
  624TMC3    C5 9242   2.997   1.813  16.986  0.6252 -0.2589  0.2152
  624TMC3    C6 9243   2.883   1.867  17.032 -0.5398 -0.4999  0.7548
  624TMC3     C 9244   3.233   2.088  17.043  0.4160 -0.0677  0.3944
  624TMC3     O 9245   3.260   2.157  17.139 -0.2224 -0.0095 -0.5870
  624TMC3     H 9246   3.014   2.157  17.134 -0.2265  0.8546 -1.8866
  624TMC3    H1 9247   3.197   1.825  16.940  0.3297  0.9913  0.6033
  624TMC3    H2 9248   2.792   1.812  17.012 -1.9793  2.2116 -0.0069
  624TMC3    C7 9249   2.994   1.734  16.869 -0.2399 -0.3445  0.1939
  624TMC3    C8 9250   2.761   2.047  17.111 -0.0678 -0.1777 -0.1481
  624TMC3    O1 9251   3.078   1.648  16.841  0.1015 -0.1630  0.5951
  624TMC3    O2 9252   2.660   1.987  17.077 -1.1982  0.2427  0.5851
  625MPD2     C 9253   3.276   2.838   0.536  0.0101 -0.3025 -0.4227
  625MPD2    C1 9254   3.340   2.947   0.591  0.0883 -0.2639 -0.3529
  625MPD2    C2 9255   3.444   2.925   0.684 -0.7636  0.1328 -0.1131
  625MPD2    C3 9256   3.473   2.801   0.743  0.1705 -0.0613 -0.7275
  625MPD2    C4 9257   3.391   2.690   0.696 -0.4870  0.5714  0.5438
  625MPD2    C5 9258   3.304   2.719   0.595  0.0838 -0.3599 -0.2045
  625MPD2     H 9259   3.498   3.017   0.704 -0.9026 -0.0670  1.2093
  625MPD2    H1 9260   3.395   2.589   0.736  0.0840  1.2807  2.2608
  625MPD2    H2 9261   3.193   2.854   0.469  0.2822 -2.8643 -1.3980
  625MPD2    H3 9262   3.249   2.636   0.552  0.2357 -0.0349 -1.0201
  625MPD2     N 9263   3.574   2.807   0.841  0.2406  0.0964  0.1147
  625MPD2    H5 9264   3.622   2.896   0.853 -0.2218  0.3754 -0.1347
  625MPD2    N1 9265   3.314   3.080   0.563 -0.1398  0.2580 -0.1114
  625MPD2    H7 9266   3.359   3.151   0.620  0.3481  0.7590 -1.1372
  626TMC3    C1 9267   3.202   3.267   0.472  0.5986  0.4440  0.7190
  626TMC3    C2 9268   3.134   3.335   0.376 -0.1280 -0.5549 -0.2380
  626TMC3    C3 9269   3.134   3.476   0.379 -0.0071 -0.2320  0.1131
  626TMC3    C4 9270   3.264   3.335   0.574  0.6124 -0.3814 -0.0233
  626TMC3    C5 9271   3.253   3.468   0.578  0.3845 -0.4168  0.2626
  626TMC3    C6 9272   3.185   3.542   0.489 -0.1970  0.2813 -0.7235
  626TMC3     C 9273   3.221   3.120   0.466  0.4555  0.5041 -0.0641
  626TMC3     O 9274   3.150   3.065   0.382  0.2842 -0.7489  0.8909
  626TMC3     H 9275   3.082   3.278   0.299  0.7159 -3.4544  1.3574
  626TMC3    H1 9276   3.321   3.285   0.652  2.3768 -0.5159 -1.4039
  626TMC3    H2 9277   3.178   3.649   0.503  0.0713  0.3381 -1.0318
  626TMC3    C7 9278   3.310   3.529   0.696 -0.3623 -1.1239 -0.2384
  626TMC3    C8 9279   3.072   3.541   0.264  0.2824 -0.0558 -0.0581
  626TMC3    O1 9280   3.402   3.466   0.742  1.0535 -0.4865  0.0503
  626TMC3    O2 9281   3.059   3.465   0.166  0.2092  0.0965 -0.6654
  627MPD2     C 9282   2.431   3.401  14.555  0.7885  0.2029  0.1900
  627MPD2    C1 9283   2.339   3.472  14.626 -0.4965  0.2012  0.5691
  627MPD2    C2 9284   2.203   3.427  14.633  0.1735 -0.3720 -0.0151
  627MPD2    C3 9285   2.174   3.300  14.591  0.3053  0.7879  0.8007
  627MPD2    C4 9286   2.271   3.225  14.526  0.1450 -0.0117 -0.2475
  627MPD2    C5 9287   2.393   3.278  14.503  0.5814  0.3353 -0.9164
  627MPD2     H 9288   2.132   3.483  14.694 -0.8913 -0.2899 -1.3295
  627MPD2    H1 9289   2.245   3.133  14.474 -0.0412  1.3626 -2.5699
  627MPD2    H2 9290   2.537   3.427  14.553  0.9050 -0.1603  1.6368
  627MPD2    H3 9291   2.472   3.221  14.455 -0.7654 -1.4832 -0.9824
  627MPD2     N 9292   2.047   3.246  14.619 -0.6638 -0.7693 -0.1629
  627MPD2    H5 9293   1.976   3.312  14.647 -0.5394 -0.8829  0.4215
  627MPD2    N1 9294   2.378   3.589  14.690  0.0830 -0.0605  0.5869
  627MPD2    H7 9295   2.304   3.637  14.741  0.5170 -1.2237  2.3116
  628TMC3    C1 9296   2.514   3.734  14.805 -0.1024  0.0967  0.1630
  628TMC3    C2 9297   2.633   3.718  14.868  0.3885 -0.3138  0.2469
  628TMC3    C3 9298   2.714   3.828  14.884 -0.2866  0.2880 -1.1536
  628TMC3    C4 9299   2.473   3.856  14.758  0.2860  0.0014  0.0049
  628TMC3    C5 9300   2.561   3.961  14.770  0.2568 -0.1774  0.0668
  628TMC3    C6 9301   2.678   3.947  14.835 -0.2276 -0.2224  0.2067
  628TMC3     C 9302   2.508   3.635  14.707  0.1282  0.4187 -0.0418
  628TMC3     O 9303   2.617   3.591  14.673  0.4809  0.2345 -0.1988
  628TMC3     H 9304   2.654   3.620  14.910 -0.8660  0.2536  2.1826
  628TMC3    H1 9305   2.381   3.872  14.703 -0.1375  0.5321  0.8711
  628TMC3    H2 9306   2.758   4.013  14.802 -0.8066  0.0206 -0.6880
  628TMC3    C7 9307   2.567   4.050  14.656 -0.7081  0.5565 -0.1226
  628TMC3    C8 9308   2.852   3.783  14.858 -0.2330 -0.3529 -0.1766
  628TMC3    O1 9309   2.651   4.016  14.570 -0.2684  0.0114  0.2239
  628TMC3    O2 9310   2.926   3.853  14.786  0.3465  0.0358 -0.0445
  629MPD2     C 9311   0.119   2.953  16.243 -0.3072 -0.0318 -1.0878
  629MPD2    C1 9312   0.200   2.900  16.343 -0.5202  0.3455  0.5403
  629MPD2    C2 9313   0.157   2.776  16.388 -0.4308 -0.0084 -0.2614
  629MPD2    C3 9314   0.033   2.718  16.350  0.4072  0.1477 -0.0002
  629MPD2    C4 9315   4.684   2.774  16.250 -0.1173  0.3413 -0.1709
  629MPD2    C5 9316   0.008   2.894  16.200 -0.5257 -0.3391 -0.4344
  629MPD2     H 9317   0.214   2.724  16.464 -1.2716  0.9078  0.9952
  629MPD2    H1 9318   4.584   2.741  16.226 -0.4200  0.7857  0.4817
  629MPD2    H2 9319   0.135   3.057  16.216 -1.9796  0.7554  0.9309
  629MPD2    H3 9320   4.672   2.944  16.126 -1.2247 -0.9647 -0.2686
  629MPD2     N 9321   4.722   2.598  16.415  0.5973  0.4814 -0.0265
  629MPD2    H5 9322   0.067   2.561  16.479 -0.4536  0.0441  0.8776
  629MPD2    N1 9323   0.327   2.954  16.372 -0.5680 -0.1538  0.7054
  629MPD2    H7 9324   0.357   3.039  16.326 -1.9967  0.5059  1.0164
  630TMC3    C1 9325   0.541   2.944  16.479 -0.8092 -0.4070 -0.1431
  630TMC3    C2 9326   0.595   3.023  16.384  0.1756 -0.0520 -0.8991
  630TMC3    C3 9327   0.732   3.023  16.370 -0.7103 -0.6986 -0.0887
  630TMC3    C4 9328   0.615   2.846  16.546 -0.1249 -0.2074 -0.2939
  630TMC3    C5 9329   0.748   2.856  16.539 -0.2543  0.0169  0.1387
  630TMC3    C6 9330   0.808   2.948  16.450 -0.8290  0.0795  0.3948
  630TMC3     C 9331   0.399   2.928  16.490  0.6945  0.5041  0.7007
  630TMC3     O 9332   0.362   2.861  16.586  0.2289  0.1011 -0.5130
  630TMC3     H 9333   0.536   3.082  16.314  0.6483  0.0356 -1.2265
  630TMC3    H1 9334   0.570   2.779  16.619  1.4163  0.0228  0.8651
  630TMC3    H2 9335   0.916   2.949  16.447 -0.7999 -1.5811  0.8624
  630TMC3    C7 9336   0.819   2.728  16.541 -0.2353 -0.3988  0.0580
  630TMC3    C8 9337   0.793   3.146  16.325 -0.3907  0.6251 -0.3701
  630TMC3    O1 9338   0.942   2.733  16.552  0.4668  0.7970  0.7620
  630TMC3    O2 9339   0.729   3.215  16.245 -0.7511 -0.0936  0.0063
  631MPD2     C 9340   3.390   2.325  15.684 -0.0814  0.2994 -0.0350
  631MPD2    C1 9341   3.432   2.249  15.570  0.3721  0.2255 -0.3634
  631MPD2    C2 9342   3.496   2.128  15.591 -0.1766 -0.2576 -0.5427
  631MPD2    C3 9343   3.541   2.095  15.717  0.2051  0.1164 -0.6721
  631MPD2    C4 9344   3.513   2.178  15.828  0.2559  1.1616  1.0186
  631MPD2    C5 9345   3.440   2.293  15.809  0.6449  0.2556  0.4591
  631MPD2     H 9346   3.526   2.065  15.508 -0.9228 -3.4929  1.6236
  631MPD2    H1 9347   3.555   2.161  15.927  0.7795  0.3720  0.6641
  631MPD2    H2 9348   3.343   2.423  15.678  0.0610  0.4256  0.8881
  631MPD2    H3 9349   3.410   2.349  15.897 -0.1328 -0.3096  0.5464
  631MPD2     N 9350   3.627   1.983  15.723 -0.3195 -0.0139 -0.4560
  631MPD2    H5 9351   3.660   1.939  15.638 -0.1563 -0.1793 -0.3085
  631MPD2    N1 9352   3.407   2.304  15.445 -0.1755  0.3899  0.2569
  631MPD2    H7 9353   3.363   2.395  15.435 -0.0011  0.0863 -3.5874
  632TMC3    C1 9354   3.442   2.360  15.226  0.0829  0.5090  0.2374
  632TMC3    C2 9355   3.415   2.484  15.289  0.2472  0.2236 -0.6030
  632TMC3    C3 9356   3.509   2.585  15.295  0.2653  0.2026 -0.0172
  632TMC3    C4 9357   3.566   2.349  15.166 -0.2051 -0.3506 -0.3550
  632TMC3    C5 9358   3.654   2.455  15.172 -0.1917 -0.2455  0.0940
  632TMC3    C6 9359   3.634   2.570  15.239  0.4701 -0.5774  0.5233
  632TMC3     C 9360   3.428   2.252  15.324 -0.7868 -0.3518  1.0844
  632TMC3     O 9361   3.483   2.145  15.296 -0.6616 -0.4119 -0.3506
  632TMC3     H 9362   3.314   2.501  15.325  1.1199 -1.0500  2.4521
  632TMC3    H1 9363   3.582   2.253  15.118  0.3653  0.4977 -1.8523
  632TMC3    H2 9364   3.715   2.642  15.241 -1.1872  1.2249  2.9770
  632TMC3    C7 9365   3.755   2.442  15.071 -0.7870 -0.5152 -0.1032
  632TMC3    C8 9366   3.501   2.652  15.422 -0.0436  0.4261  0.4101
  632TMC3    O1 9367   3.721   2.371  14.971 -0.3444 -0.2481  0.6239
  632TMC3    O2 9368   3.389   2.658  15.475 -0.5314  0.7611 -0.3713
  633MPD2     C 9369   2.964   0.201  17.576  0.2498 -0.0872 -0.7709
  633MPD2    C1 9370   3.095   0.182  17.532 -0.3665  0.6178  0.0743
  633MPD2    C2 9371   3.175   0.086  17.590 -0.1895 -0.5849  0.7025
  633MPD2    C3 9372   3.111   4.721  17.678 -0.2314  0.4684 -0.4297
  633MPD2    C4 9373   2.983   0.011   0.017 -0.2043  0.1548  0.1656
  633MPD2    C5 9374   2.907   0.111  17.668  0.3872 -0.2179  0.1754
  633MPD2     H 9375   3.281   0.082  17.568 -0.8468 -0.5357 -2.4344
  633MPD2    H1 9376   2.950   4.678   0.102  1.3728  0.6337  1.1083
  633MPD2    H2 9377   2.894   0.275  17.538  1.0125  0.7207 -0.6018
  633MPD2    H3 9378   2.804   0.133  17.694 -0.1757 -2.5889 -0.0678
  633MPD2     N 9379   3.168   4.602   0.023 -0.3624 -0.2107 -0.7612
  633MPD2    H5 9380   3.111   4.529   0.065  0.3123  0.2309  0.9219
  633MPD2    N1 9381   3.144   0.261  17.427 -0.2629  0.0241  0.9560
  633MPD2    H7 9382   3.242   0.244  17.404 -0.5427  0.4333 -0.5623
  634TMC3    C1 9383   3.113   0.399  17.226  0.8206 -0.3952 -0.0824
  634TMC3    C2 9384   3.142   0.288  17.151  0.2793  0.1472 -0.6934
  634TMC3    C3 9385   3.143   0.315  17.016 -0.6770 -0.4239 -0.8595
  634TMC3    C4 9386   3.068   0.520  17.184 -0.7078 -0.3484  0.3151
  634TMC3    C5 9387   3.086   0.542  17.049 -0.0124  0.8396 -0.4479
  634TMC3    C6 9388   3.120   0.441  16.963 -1.0563 -0.2467 -0.3613
  634TMC3     C 9389   3.082   0.368  17.364 -0.5325 -0.1383 -0.3063
  634TMC3     O 9390   2.992   0.436  17.404 -0.1315  0.2860  0.1808
  634TMC3     H 9391   3.169   0.192  17.192 -0.5701  1.0254  1.9171
  634TMC3    H1 9392   3.048   0.595  17.259 -0.6297  1.3896 -1.4289
  634TMC3    H2 9393   3.126   0.460  16.857 -1.6714  0.2939 -0.2952
  634TMC3    C7 9394   3.057   0.662  16.987  0.5312  0.0606 -0.2187
  634TMC3    C8 9395   3.151   0.201  16.932 -0.1065  0.2596  0.4565
  634TMC3    O1 9396   3.101   0.685  16.873 -0.6377 -0.2441 -0.0153
  634TMC3    O2 9397   3.184   0.094  16.979  0.3176  0.2212  0.3445
  635TMC3    C1 9398   3.425   1.188  17.678  0.3553 -0.0169 -0.0328
  635TMC3    C2 9399   3.463   1.110  17.571  0.3878  0.0139 -0.2691
  635TMC3    C3 9400   3.439   0.975  17.579 -0.2066 -0.2415  0.4626
  635TMC3    C4 9401   3.363   1.140   0.077 -1.0037 -0.4466 -0.7149
  635TMC3    C5 9402   3.329   1.011   0.084  0.1120  0.0527  1.3258
  635TMC3    C6 9403   3.380   0.925  17.693 -0.1726 -0.2468 -0.1544
  635TMC3     C 9404   3.476   1.323  17.694 -0.5424  0.3969  0.0067
  635TMC3     O 9405   3.487   1.366   0.103 -0.6184  0.2347 -0.2551
  635TMC3     H 9406   3.523   1.144  17.488  0.3085 -1.1437 -0.8033
  635TMC3    H1 9407   3.336   1.205   0.159 -4.1031 -0.4083 -1.7545
  635TMC3    H2 9408   3.349   0.821  17.689  1.9113 -0.8910  0.3980
  635TMC3    C7 9409   3.282   0.950   0.209  0.4971 -0.2091 -0.6081
  635TMC3    C8 9410   3.507   0.875  17.500 -0.6650  0.2985 -0.3075
  635TMC3    O1 9411   3.252   0.833   0.189  0.1440 -0.3083  0.0135
  635TMC3    O2 9412   3.507   0.762  17.549 -0.0438 -0.3957 -0.0021
  636MPD2     C 9413   4.187   0.442  16.223  0.6309 -0.6426 -0.6166
  636MPD2    C1 9414   4.252   0.508  16.324  0.3306 -0.2948  0.1279
  636MPD2    C2 9415   4.341   0.440  16.402  0.7140  0.0615  0.3724
  636MPD2    C3 9416   4.392   0.311  16.365  0.3325 -0.1313 -0.2122
  636MPD2    C4 9417   4.331   0.251  16.260  0.2269 -0.4398  0.4420
  636MPD2    C5 9418   4.227   0.318  16.197 -0.1894 -0.6270  0.0538
  636MPD2     H 9419   4.405   0.485  16.476  0.0319 -0.8027  1.4942
  636MPD2    H1 9420   4.347   0.147  16.235  0.1702  0.3377 -2.8765
  636MPD2    H2 9421   4.114   0.482  16.154  1.5176 -0.4479 -1.4459
  636MPD2    H3 9422   4.171   0.260  16.125  0.2595 -2.4684  1.1700
  636MPD2     N 9423   4.510   0.257  16.423  0.7703  0.1364  0.4629
  636MPD2    H5 9424   4.556   0.309  16.497  0.9265 -0.1236  0.5510
  636MPD2    N1 9425   4.232   0.647  16.364 -0.0572  0.0540 -0.3577
  636MPD2    H7 9426   4.293   0.676  16.439  0.2861  1.8993 -1.3750
  637TMC3    C1 9427   4.693   0.112  16.463  0.7241 -0.0946 -0.2496
  637TMC3    C2 9428   4.679   0.125  16.596  0.1972 -0.5776 -0.7828
  637TMC3    C3 9429   0.062   0.087  16.671  0.0966  0.1181 -0.9708
  637TMC3    C4 9430   0.076   0.054  16.402 -0.4475  0.9965  0.0702
  637TMC3    C5 9431   0.179   0.014  16.483  0.7578  0.2187 -0.7132
  637TMC3    C6 9432   0.174   0.023  16.622  0.7129 -0.5903  0.7234
  637TMC3     C 9433   4.586   0.154  16.369 -0.0074  0.0341 -0.0992
  637TMC3     O 9434   4.593   0.106  16.256  0.3785 -0.2652 -0.2254
  637TMC3     H 9435   4.590   0.169  16.637  1.3315 -1.4558  2.6397
  637TMC3    H1 9436   0.088   0.041  16.295  1.2469  1.2685  0.2288
  637TMC3    H2 9437   0.256   4.716  16.685  0.3342 -1.6736  0.6527
  637TMC3    C7 9438   0.312   0.002  16.427  0.7407 -0.3754  0.2327
  637TMC3    C8 9439   0.074   0.171  16.792 -0.4084  0.1565  0.0567
  637TMC3    O1 9440   0.377   4.641  16.485  0.3748 -0.1821  0.2627
  637TMC3    O2 9441   4.699   0.233  16.825 -0.0035 -0.1435 -0.2658
  638MPD2     C 9442   4.184   4.420  15.276 -0.3740  0.2099  0.5679
  638MPD2    C1 9443   4.131   4.336  15.181 -0.1610 -0.0606  0.5951
  638MPD2    C2 9444   4.032   4.249  15.208 -0.3728  0.3554 -0.0174
  638MPD2    C3 9445   4.007   4.231  15.344  0.2218 -0.1650  0.0244
  638MPD2    C4 9446   4.067   4.305  15.445  0.3890 -0.0526 -0.3028
  638MPD2    C5 9447   4.151   4.402  15.412  0.3463 -0.4426 -0.6501
  638MPD2     H 9448   4.009   4.174  15.132  1.5411 -1.7157  1.4658
  638MPD2    H1 9449   4.054   4.291  15.551  0.5840  1.5549 -0.0692
  638MPD2    H2 9450   4.255   4.496  15.246 -1.8940  1.1972 -0.5637
  638MPD2    H3 9451   4.197   4.462  15.489 -4.3199  1.1574  0.9010
  638MPD2     N 9452   3.936   4.114  15.385 -0.6496  0.0280 -0.1515
  638MPD2    H5 9453   3.938   4.103  15.486  0.0313 -1.9668 -0.3872
  638MPD2    N1 9454   4.186   4.359  15.052  0.3268  0.1847  0.6921
  638MPD2    H7 9455   4.262   4.426  15.052  1.3487 -0.9727 -1.8762
  639TMC3    C1 9456   3.882   3.887  15.378  0.3180 -0.7127 -0.1502
  639TMC3    C2 9457   3.825   3.792  15.299 -0.2010 -0.0360  0.0651
  639TMC3    C3 9458   3.900   3.679  15.278  0.2021 -0.1747 -0.0688
  639TMC3    C4 9459   3.992   3.866  15.456  0.7251  0.4572  0.1427
  639TMC3    C5 9460   4.057   3.750  15.441 -0.5442 -0.6235 -0.6336
  639TMC3    C6 9461   4.016   3.657  15.348  0.0261  0.5314  0.2899
  639TMC3     C 9462   3.880   4.013  15.308 -0.4058 -0.4527 -0.1084
  639TMC3     O 9463   3.848   4.015  15.188  0.0430 -0.3664 -0.6625
  639TMC3     H 9464   3.746   3.820  15.231 -1.8475  1.0927  2.4402
  639TMC3    H1 9465   4.027   3.937  15.531  0.7650  0.2249  0.3455
  639TMC3    H2 9466   4.073   3.566  15.335 -2.3235 -0.5356 -2.4159
  639TMC3    C7 9467   4.157   3.718  15.544  0.2062 -0.7251 -0.2891
  639TMC3    C8 9468   3.866   3.592  15.169 -0.7708 -0.1981  0.4333
  639TMC3    O1 9469   4.154   3.785  15.645  0.1718 -0.2717  0.0886
  639TMC3    O2 9470   3.955   3.553  15.096 -0.6220 -0.5555 -1.0637
  640MPD2     C 9471   0.128   2.616  10.235 -0.0799 -0.8940 -0.5192
  640MPD2    C1 9472   0.156   2.739  10.193 -0.6224  0.2444 -0.6235
  640MPD2    C2 9473   0.107   2.854  10.259 -0.4185 -0.2483  0.3112
  640MPD2    C3 9474   0.034   2.838  10.377  0.5125 -1.4013  0.3224
  640MPD2    C4 9475   0.006   2.711  10.422 -0.2721 -0.2223 -0.0153
  640MPD2    C5 9476   0.055   2.604  10.349 -0.1991  0.2492  0.3898
  640MPD2     H 9477   0.127   2.951  10.215  0.5620 -0.0654  1.1369
  640MPD2    H1 9478   4.666   2.681  10.504  3.3718 -1.3572  2.5064
  640MPD2    H2 9479   0.179   2.539  10.178 -1.3743 -3.0828  1.2370
  640MPD2    H3 9480   0.040   2.503  10.385  0.7602 -0.4896 -1.2972
  640MPD2     N 9481   4.712   2.947  10.447 -0.2791 -1.0922 -0.5760
  640MPD2    H5 9482   4.638   2.936  10.516  1.0910 -1.2501  0.8731
  640MPD2    N1 9483   0.235   2.750  10.078 -0.9060  0.5571 -0.2247
  640MPD2    H7 9484   0.278   2.662  10.052 -1.3388 -0.0876  1.2295
  641TMC3    C1 9485   0.375   2.834   9.918  0.4211  0.4897 -0.3261
  641TMC3    C2 9486   0.475   2.752   9.961 -0.1931 -0.1462 -0.0593
  641TMC3    C3 9487   0.596   2.764   9.893  0.5219 -0.6548  0.6790
  641TMC3    C4 9488   0.389   2.915   9.807  0.2343 -0.1802  0.6237
  641TMC3    C5 9489   0.495   2.902   9.722  0.2133 -0.1673  0.1368
  641TMC3    C6 9490   0.602   2.831   9.769  0.3541 -0.0813 -0.3409
  641TMC3     C 9491   0.273   2.863  10.014 -0.5565  0.0416  0.3121
  641TMC3     O 9492   0.216   2.972  10.023  1.2485  0.3338  0.7639
  641TMC3     H 9493   0.480   2.703  10.058  0.0947 -2.1425 -1.0828
  641TMC3    H1 9494   0.304   2.981   9.790  1.0751  0.4546 -1.0513
  641TMC3    H2 9495   0.681   2.807   9.699  0.8634  3.2659 -0.9019
  641TMC3    C7 9496   0.528   2.989   9.613  0.1475 -0.0967 -0.7017
  641TMC3    C8 9497   0.710   2.677   9.917 -0.1411  0.2029 -0.1284
  641TMC3    O1 9498   0.635   2.967   9.551 -0.0129 -0.3489 -0.1905
  641TMC3    O2 9499   0.787   2.647   9.827 -0.0498 -0.5021  0.1889
  642TMC3    C1 9500   1.045   3.753  12.948  0.5075  0.1374 -0.3731
  642TMC3    C2 9501   1.098   3.626  12.947 -0.1055 -0.5047 -0.8433
  642TMC3    C3 9502   1.013   3.517  12.928 -0.0488  0.0326  0.0699
  642TMC3    C4 9503   0.909   3.770  12.909  0.2507  0.0852  0.0897
  642TMC3    C5 9504   0.829   3.658  12.900 -0.2397 -0.0277 -0.4758
  642TMC3    C6 9505   0.881   3.535  12.917  0.0395  0.3587  0.9761
  642TMC3     C 9506   1.133   3.868  12.931  0.3721  0.3899 -0.0436
  642TMC3     O 9507   1.248   3.844  12.895 -0.2967  0.0210  0.0197
  642TMC3     H 9508   1.205   3.614  12.957 -0.1269 -1.9039 -2.3429
  642TMC3    H1 9509   0.862   3.854  12.860 -0.7992 -0.8483 -0.4930
  642TMC3    H2 9510   0.816   3.449  12.930 -0.7811  0.7045 -0.9409
  642TMC3    C7 9511   0.692   3.668  12.874 -0.1325 -0.3444  0.1392
  642TMC3    C8 9512   1.069   3.380  12.932 -0.5598  0.2482 -0.0629
  642TMC3    O1 9513   0.633   3.586  12.804  0.0805 -0.0739  0.1560
  642TMC3    O2 9514   1.189   3.372  12.948 -0.0644 -0.0743  0.4079
  643TMC3    C1 9515   0.467   3.435   0.564 -0.6746  0.0079  0.2957
  643TMC3    C2 9516   0.356   3.510   0.528 -0.1150 -0.6578 -0.1604
  643TMC3    C3 9517   0.273   3.448   0.441 -0.4114  0.3174 -0.4321
  643TMC3    C4 9518   0.507   3.324   0.498  0.0390  0.0699 -0.0473
  643TMC3    C5 9519   0.429   3.275   0.400 -0.2090 -0.0122  0.4473
  643TMC3    C6 9520   0.316   3.336   0.373  0.4630  0.4678  0.0082
  643TMC3     C 9521   0.536   3.482   0.684 -0.6001 -0.0040 -0.0987
  643TMC3     O 9522   0.535   3.605   0.695 -0.5787  0.3760  0.2227
  643TMC3     H 9523   0.329   3.592   0.595  1.2415 -1.4471  1.3657
  643TMC3    H1 9524   0.608   3.284   0.504 -0.6777 -1.4087  1.9898
  643TMC3    H2 9525   0.258   3.294   0.291 -0.6137 -0.1138  1.0704
  643TMC3    C7 9526   0.505   3.222   0.288 -0.0052  0.0030  0.6382
  643TMC3    C8 9527   0.183   3.531   0.367  0.0419 -0.5612  0.3009
  643TMC3    O1 9528   0.614   3.280   0.271  0.1646 -0.1638 -0.1207
  643TMC3    O2 9529   0.083   3.475   0.316 -0.3354 -0.3192  0.4576
  644MPD2     C 9530   0.395   3.626   9.600 -0.8646 -0.2783 -0.0820
  644MPD2    C1 9531   0.409   3.504   9.668 -0.1172 -0.2268  0.3916
  644MPD2    C2 9532   0.294   3.431   9.690  0.2823  0.1500  0.4060
  644MPD2    C3 9533   0.164   3.471   9.667  0.0106 -0.1177 -0.2371
  644MPD2    C4 9534   0.150   3.597   9.610 -0.2557 -0.3107  0.8674
  644MPD2    C5 9535   0.267   3.672   9.571  0.0591  0.4401  0.0315
  644MPD2     H 9536   0.303   3.328   9.722 -3.5460  0.0884  1.2799
  644MPD2    H1 9537   0.059   3.641   9.572 -0.4577  1.2751  3.1398
  644MPD2    H2 9538   0.482   3.687   9.578 -0.9132 -0.8963 -1.9700
  644MPD2    H3 9539   0.252   3.759   9.509 -0.0829 -1.2555 -2.3006
  644MPD2     N 9540   0.050   3.393   9.700  0.4982 -0.1859  0.0264
  644MPD2    H5 9541   0.072   3.297   9.727 -0.0885 -0.3779 -0.1694
  644MPD2    N1 9542   0.540   3.453   9.697 -0.6131 -0.3684  0.0257
  644MPD2    H7 9543   0.620   3.502   9.659 -0.2665  0.2023  1.4871
  645TMC3    C1 9544   4.554   3.313   9.701  0.7359 -0.4104  0.1111
  645TMC3    C2 9545   4.436   3.335   9.769 -0.1884 -0.2770 -0.3115
  645TMC3    C3 9546   4.341   3.235   9.774 -0.9885 -0.4565 -0.1674
  645TMC3    C4 9547   4.596   3.185   9.675  0.3440 -0.1416 -0.8027
  645TMC3    C5 9548   4.506   3.088   9.699  0.0644  0.6329  0.0149
  645TMC3    C6 9549   4.378   3.112   9.741 -0.6107  0.6669  0.7745
  645TMC3     C 9550   4.643   3.431   9.692  1.2077  0.1281  0.6074
  645TMC3     O 9551   4.598   3.540   9.711  0.5152  0.5280  0.6314
  645TMC3     H 9552   4.411   3.438   9.793  0.8901  0.0571 -0.6640
  645TMC3    H1 9553   4.693   3.167   9.629 -0.4520 -0.6431 -2.2742
  645TMC3    H2 9554   4.316   3.024   9.743 -1.9246  1.5443 -1.3077
  645TMC3    C7 9555   4.557   2.959   9.736 -0.7246 -0.4407 -0.1630
  645TMC3    C8 9556   4.208   3.273   9.796 -0.6497  0.6303 -0.1538
  645TMC3    O1 9557   4.497   2.881   9.803  0.2173 -0.1800 -0.0581
  645TMC3    O2 9558   4.194   3.383   9.843 -0.1397  0.1315  0.2317
  646MPD2     C 9559   4.418   2.805  14.650  0.0618  0.5543  0.0810
  646MPD2    C1 9560   4.352   2.866  14.753 -0.1346 -0.0842 -0.1002
  646MPD2    C2 9561   4.260   2.964  14.724  0.2338  0.7182 -0.7790
  646MPD2    C3 9562   4.238   3.003  14.596  0.1562 -0.2788 -0.5205
  646MPD2    C4 9563   4.302   2.934  14.490  0.6858  0.3875 -0.3192
  646MPD2    C5 9564   4.391   2.839  14.525 -1.4462  0.5652  0.1880
  646MPD2     H 9565   4.225   3.019  14.810 -1.0657 -0.3056 -0.6377
  646MPD2    H1 9566   4.290   2.956  14.385  0.0599 -0.0839 -0.3480
  646MPD2    H2 9567   4.488   2.723  14.653 -1.4828 -0.8061 -0.5481
  646MPD2    H3 9568   4.457   2.796  14.450  0.2743 -0.1615  2.1181
  646MPD2     N 9569   4.132   3.098  14.571 -0.0599 -0.1492  0.1475
  646MPD2    H5 9570   4.072   3.125  14.649  0.3478 -0.4573  0.5680
  646MPD2    N1 9571   4.405   2.835  14.888 -0.1881 -0.5418  0.5383
  646MPD2    H7 9572   4.480   2.767  14.885  1.7884  1.7431 -1.0752
  647TMC3    C1 9573   4.421   2.803  15.126  0.2908 -0.0108  0.0962
  647TMC3    C2 9574   4.357   2.794  15.247  0.0914  0.3584 -0.2883
  647TMC3    C3 9575   4.412   2.724  15.347  0.0455  0.3796 -0.8988
  647TMC3    C4 9576   4.551   2.750  15.113  0.2230  0.6048 -0.0968
  647TMC3    C5 9577   4.606   2.698  15.226 -0.4670  0.0902 -0.2250
  647TMC3    C6 9578   4.536   2.673  15.342 -0.0439 -0.6801  1.5842
  647TMC3     C 9579   4.339   2.851  15.012 -0.4065  0.0617  0.4688
  647TMC3     O 9580   4.230   2.908  15.035 -0.6637  0.4301 -0.6612
  647TMC3     H 9581   4.251   2.815  15.247  0.0401  0.1085  0.3037
  647TMC3    H1 9582   4.600   2.747  15.017  1.1821 -1.4029  0.4644
  647TMC3    H2 9583   4.596   2.646  15.428 -0.0065  4.3262  3.1637
  647TMC3    C7 9584   0.018   2.650  15.230 -0.3530 -0.2805  0.0773
  647TMC3    C8 9585   4.325   2.686  15.456  0.3868  0.1022  0.7911
  647TMC3    O1 9586   0.060   2.601  15.333 -0.7191 -0.2843 -0.1821
  647TMC3    O2 9587   4.213   2.733  15.451 -0.0659 -0.3241  0.5972
  648TMC3    C1 9588   3.337   0.336  16.228 -0.0276 -0.3586  0.1574
  648TMC3    C2 9589   3.331   0.213  16.169  0.0627  0.1427 -0.5840
  648TMC3    C3 9590   3.267   0.203  16.043  0.1695  0.8117  0.1575
  648TMC3    C4 9591   3.287   0.450  16.163 -0.5495  0.0320 -0.0308
  648TMC3    C5 9592   3.225   0.437  16.037  0.2023 -0.1503 -0.1731
  648TMC3    C6 9593   3.212   0.314  15.976 -0.1897 -0.0315  0.1825
  648TMC3     C 9594   3.395   0.360  16.362 -0.7298 -0.8565  0.3770
  648TMC3     O 9595   3.420   0.476  16.393 -0.0521  0.0162  0.1913
  648TMC3     H 9596   3.367   0.127  16.225 -1.4174 -0.2553 -0.2477
  648TMC3    H1 9597   3.309   0.541  16.218  3.1523  1.3620 -3.6818
  648TMC3    H2 9598   3.172   0.306  15.876 -1.9702  1.0610  0.8148
  648TMC3    C7 9599   3.175   0.551  15.970  0.0618  0.8002 -0.1940
  648TMC3    C8 9600   3.295   0.085  15.959  0.3332  0.7577 -0.3240
  648TMC3    O1 9601   3.161   0.534  15.848 -0.3451  0.5378 -0.6291
  648TMC3    O2 9602   3.229   0.050  15.860 -0.0099  0.2200 -0.1384
  649TMC3    C1 9603   2.223   1.609  13.526  0.1195 -0.2422  0.2288
  649TMC3    C2 9604   2.351   1.653  13.544 -0.3188 -0.2193 -0.5013
  649TMC3    C3 9605   2.422   1.605  13.647 -0.4700 -0.6400  0.1505
  649TMC3    C4 9606   2.163   1.514  13.604  0.3671 -0.5254 -1.1022
  649TMC3    C5 9607   2.240   1.470  13.710 -0.1260 -0.6606 -0.3689
  649TMC3    C6 9608   2.369   1.516  13.736  0.4129 -0.1681  0.5995
  649TMC3     C 9609   2.138   1.677  13.426 -0.3558  1.0139 -0.7995
  649TMC3     O 9610   2.175   1.792  13.405 -0.5943 -0.2547 -0.6880
  649TMC3     H 9611   2.390   1.717  13.466 -2.2828 -2.7022 -3.5190
  649TMC3    H1 9612   2.056   1.502  13.598  0.3058 -1.0518  1.1804
  649TMC3    H2 9613   2.429   1.490  13.822  1.6187 -2.5873 -0.9830
  649TMC3    C7 9614   2.185   1.383  13.812 -0.0975  0.1534  0.5890
  649TMC3    C8 9615   2.562   1.629  13.651 -0.2663  0.2582  0.0854
  649TMC3    O1 9616   2.065   1.375  13.824 -0.2624  0.2355 -0.3238
  649TMC3    O2 9617   2.611   1.613  13.763  0.2037 -0.7448 -0.2390
  650TMC3    C1 9618   0.450   3.650  13.240 -0.0682  0.6993 -0.8489
  650TMC3    C2 9619   0.451   3.778  13.280  0.5018 -0.4801 -0.0827
  650TMC3    C3 9620   0.342   3.856  13.263  0.2752 -0.0470  0.0457
  650TMC3    C4 9621   0.337   3.588  13.190 -1.2093 -0.6069 -0.0510
  650TMC3    C5 9622   0.225   3.670  13.175 -0.1680  0.4831 -0.9240
  650TMC3    C6 9623   0.226   3.803  13.207  0.0488 -0.5763  0.7496
  650TMC3     C 9624   0.576   3.580  13.247 -0.0625  0.9668  0.5890
  650TMC3     O 9625   0.685   3.636  13.241  0.5652 -0.2390 -0.3224
  650TMC3     H 9626   0.543   3.819  13.320 -1.7741  1.3775  3.2844
  650TMC3    H1 9627   0.332   3.484  13.159  1.0083 -0.2501 -1.5854
  650TMC3    H2 9628   0.135   3.861  13.197  0.3274 -0.1949  0.4476
  650TMC3    C7 9629   0.127   3.611  13.095 -0.2762 -0.4891 -0.1934
  650TMC3    C8 9630   0.360   3.994  13.286 -0.0198  0.3834 -0.8029
  650TMC3    O1 9631   0.124   3.490  13.103 -0.3945  0.1044 -0.5971
  650TMC3    O2 9632   0.476   4.024  13.305  0.1612 -0.1443  0.3955
  651MPD2     C 9633   4.716   0.168  11.079  0.7977  0.5395 -0.1578
  651MPD2    C1 9634   4.651   0.282  11.031  0.4098 -0.0465 -0.9554
  651MPD2    C2 9635   4.720   0.365  10.943  0.0261  0.1656 -0.3825
  651MPD2    C3 9636   0.116   0.336  10.896 -0.1414  0.4810 -0.2294
  651MPD2    C4 9637   0.176   0.222  10.934 -0.0778  0.1803  0.8096
  651MPD2    C5 9638   0.116   0.141  11.028  0.8864  0.2406  0.4326
  651MPD2     H 9639   4.660   0.444  10.899 -0.0119  1.2903  1.6723
  651MPD2    H1 9640   0.275   0.195  10.900 -1.0439 -2.3885  0.0174
  651MPD2    H2 9641   4.661   0.102  11.145  1.9638  1.2087  1.4767
  651MPD2    H3 9642   0.167   0.053  11.065  0.4224 -0.5122 -0.7166
  651MPD2     N 9643   0.175   0.435  10.813 -0.2715  0.2496 -0.0327
  651MPD2    H5 9644   0.116   0.517  10.803  0.1035  0.4601 -0.5560
  651MPD2    N1 9645   4.521   0.315  11.059  0.1138  0.3637  0.5765
  651MPD2    H7 9646   4.481   0.388  11.002  1.2871  0.1551 -0.5247
  652TMC3    C1 9647   0.482   0.712  10.702 -0.5503 -0.1061 -0.3507
  652TMC3    C2 9648   0.454   0.580  10.691 -0.7032 -0.0422 -0.2714
  652TMC3    C3 9649   0.322   0.552  10.685 -0.2491  0.3079 -0.2314
  652TMC3    C4 9650   0.387   0.812  10.692 -0.3484 -0.3115 -0.2352
  652TMC3    C5 9651   0.256   0.783  10.678  0.2329 -0.7081 -0.4898
  652TMC3    C6 9652   0.224   0.648  10.669  0.5438  0.7157  0.7700
  652TMC3     C 9653   0.613   0.753  10.758 -0.6828  0.0350 -0.1623
  652TMC3     O 9654   0.670   0.681  10.841  0.4913  0.3451 -1.1824
  652TMC3     H 9655   0.525   0.501  10.710 -1.7874 -0.4623  2.0306
  652TMC3    H1 9656   0.418   0.909  10.727 -0.1991  0.2778 -2.0111
  652TMC3    H2 9657   0.120   0.619  10.660  1.6473 -2.7948 -0.5967
  652TMC3    C7 9658   0.172   0.847  10.773 -0.4639  0.1944  0.7630
  652TMC3    C8 9659   0.291   0.426  10.747  0.6593 -0.6376 -0.3701
  652TMC3    O1 9660   0.114   0.773  10.845  0.1656  0.1122 -0.5597
  652TMC3    O2 9661   0.373   0.336  10.738 -0.1869  0.4858 -0.2314
  653MPD2     C 9662   2.562   0.241   0.079  0.3160 -0.1530 -0.2326
  653MPD2    C1 9663   2.605   0.351   0.002 -0.1110 -0.8281  0.1343
  653MPD2    C2 9664   2.614   0.323  17.568 -0.0293 -0.5852  0.1486
  653MPD2    C3 9665   2.594   0.197  17.515 -0.0273 -0.6843  0.7335
  653MPD2    C4 9666   2.568   0.088  17.599 -1.5508  0.3825 -0.0129
  653MPD2    C5 9667   2.538   0.118   0.027  0.4036  0.4879 -0.2787
  653MPD2     H 9668   2.665   0.399  17.510  0.9095  0.2194  2.0232
  653MPD2    H1 9669   2.567   4.708  17.576 -0.8237  0.5993 -1.0535
  653MPD2    H2 9670   2.563   0.243   0.188  0.7229 -2.6112 -0.1904
  653MPD2    H3 9671   2.507   0.039   0.094 -2.0638 -0.1685 -2.1843
  653MPD2     N 9672   2.609   0.180  17.374 -0.3185  0.4566 -0.1755
  653MPD2    H5 9673   2.602   0.260  17.312 -2.6430  0.4959  0.1303
  653MPD2    N1 9674   2.638   0.479   0.059 -0.2167 -0.2770 -0.8360
  653MPD2    H7 9675   2.697   0.540   0.003  0.9185 -0.3572  0.2743
  654TMC3    C1 9676   2.623   0.077  17.165 -0.2458 -0.5370 -0.2242
  654TMC3    C2 9677   2.552   0.182  17.115  0.2318  0.2089  0.0173
  654TMC3    C3 9678   2.544   0.193  16.981 -0.0920 -0.0187 -1.0152
  654TMC3    C4 9679   2.695   4.717  17.093 -0.3515 -0.0465  1.1100
  654TMC3    C5 9680   2.692   0.013  16.958 -0.2451 -0.4887  0.6333
  654TMC3    C6 9681   2.616   0.114  16.897 -0.3188  0.1794 -0.2766
  654TMC3     C 9682   2.638   0.066  17.310 -0.4237  0.1976 -0.0158
  654TMC3     O 9683   2.683   4.685  17.354  0.3660 -0.1566 -0.3713
  654TMC3     H 9684   2.491   0.251  17.172 -0.6351 -1.4936  1.1694
  654TMC3    H1 9685   2.762   4.640  17.133 -0.4355 -1.1907 -0.9529
  654TMC3    H2 9686   2.625   0.137  16.791  0.6388 -2.0393 -0.6832
  654TMC3    C7 9687   2.724   4.631  16.876 -1.1528  0.4374  0.5098
  654TMC3    C8 9688   2.480   0.316  16.934  0.8609 -0.3298  0.3471
  654TMC3    O1 9689   2.720   4.663  16.754 -0.0107  0.3684 -0.4348
  654TMC3    O2 9690   2.429   0.392  17.016  0.1132 -0.4575  0.1131
  655MPD2     C 9691   4.013   0.848  15.910  0.0510  0.2724  0.7771
  655MPD2    C1 9692   3.886   0.866  15.848 -0.1242  0.1675  0.1920
  655MPD2    C2 9693   3.844   0.778  15.751 -0.0951 -0.4799  0.0076
  655MPD2    C3 9694   3.927   0.673  15.710 -0.0661 -0.3225  0.3698
  655MPD2    C4 9695   4.055   0.666  15.768 -0.1452  0.7413 -0.1402
  655MPD2    C5 9696   4.096   0.750  15.869  0.4309  0.0236 -0.2179
  655MPD2     H 9697   3.741   0.784  15.717 -0.2894  1.1256  0.8703
  655MPD2    H1 9698   4.120   0.585  15.736 -0.0178  0.8283 -0.1027
  655MPD2    H2 9699   4.040   0.914  15.992 -1.2325 -0.3505  1.6890
  655MPD2    H3 9700   4.187   0.735  15.927  0.8579  0.2543 -0.8298
  655MPD2     N 9701   3.892   0.582  15.611  1.0206  0.1101  0.3849
  655MPD2    H5 9702   3.957   0.506  15.596 -0.0124 -0.1347 -2.8829
  655MPD2    N1 9703   3.792   0.966  15.891  1.0647 -0.4721 -0.0787
  655MPD2    H7 9704   3.709   0.983  15.835  0.4277 -0.7554  0.7856
  656TMC3    C1 9705   3.688   1.131  16.015 -0.1072 -0.0787 -0.2817
  656TMC3    C2 9706   3.627   1.119  16.139  0.0672 -0.7374 -0.3106
  656TMC3    C3 9707   3.495   1.141  16.153 -0.2031 -0.2679  0.1636
  656TMC3    C4 9708   3.628   1.177  15.904  0.1229 -0.8376  0.2291
  656TMC3    C5 9709   3.496   1.208  15.927 -0.7048 -0.2095  0.2538
  656TMC3    C6 9710   3.424   1.184  16.046 -0.1994  0.4231 -0.4598
  656TMC3     C 9711   3.810   1.052  15.998 -0.8128 -0.6001  0.5945
  656TMC3     O 9712   3.886   1.053  16.092  0.2932  0.3464 -0.5440
  656TMC3     H 9713   3.685   1.078  16.221  0.8035 -3.4613 -2.1706
  656TMC3    H1 9714   3.676   1.196  15.809  1.1939  0.3171  0.9967
  656TMC3    H2 9715   3.316   1.178  16.050 -0.1852  1.2556  1.2470
  656TMC3    C7 9716   3.422   1.247  15.812  0.4687 -0.5075  0.6961
  656TMC3    C8 9717   3.428   1.048  16.243  0.2649 -0.6575 -0.0849
  656TMC3    O1 9718   3.477   1.226  15.704 -0.1175 -0.0935  0.2715
  656TMC3    O2 9719   3.398   0.943  16.191 -0.3320 -0.0905  0.1918
  657TMC3    C1 9720   2.796   0.023  15.376 -0.2546  0.1964 -0.3263
  657TMC3    C2 9721   2.772   0.126  15.455  0.1679  0.0951  0.8354
  657TMC3    C3 9722   2.676   0.213  15.417  0.1226 -0.1170  0.0988
  657TMC3    C4 9723   2.742   0.013  15.247  0.6271  0.1343 -0.7109
  657TMC3    C5 9724   2.661   0.115  15.208  0.3140  0.1155  0.3664
  657TMC3    C6 9725   2.622   0.213  15.289 -0.2863  0.0163 -0.5316
  657TMC3     C 9726   2.898   4.661  15.420  0.4552 -0.1423  0.0826
  657TMC3     O 9727   2.973   4.687  15.511  0.7010  0.3772 -0.1118
  657TMC3     H 9728   2.828   0.142  15.547 -0.7441 -0.1630  1.4383
  657TMC3    H1 9729   2.757   4.652  15.184  0.9176 -0.1843 -0.2025
  657TMC3    H2 9730   2.561   0.299  15.264 -0.3724  0.7010  2.0530
  657TMC3    C7 9731   2.634   0.125  15.067  0.5145  0.3537  0.0392
  657TMC3    C8 9732   2.659   0.339  15.484  0.4789  0.1466 -0.7920
  657TMC3    O1 9733   2.684   0.046  14.993  0.1687  0.6720 -0.1327
  657TMC3    O2 9734   2.673   0.444  15.419 -0.3363 -0.0180 -0.5658
  658MPD2     C 9735   4.364   0.333  15.298 -0.2246 -0.2256  0.0975
  658MPD2    C1 9736   4.254   0.307  15.221 -0.2285 -0.2613 -0.1095
  658MPD2    C2 9737   4.263   0.310  15.080  0.7273 -0.4779 -0.0883
  658MPD2    C3 9738   4.383   0.346  15.021  0.2462 -0.7289  0.5104
  658MPD2    C4 9739   4.493   0.354  15.104 -0.1082 -1.0320 -0.1633
  658MPD2    C5 9740   4.484   0.338  15.240 -0.1824  0.3646  0.3172
  658MPD2     H 9741   4.177   0.301  15.014  0.8211 -0.2168 -0.2462
  658MPD2    H1 9742   4.595   0.358  15.068 -0.6510 -0.5449 -1.6496
  658MPD2    H2 9743   4.354   0.351  15.404 -1.1108  1.4596 -0.2700
  658MPD2    H3 9744   4.572   0.333  15.302 -1.3176  0.2843  1.9291
  658MPD2     N 9745   4.383   0.357  14.882  0.1887 -0.2967 -0.6651
  658MPD2    H5 9746   4.310   0.308  14.831 -0.7406  0.0041  0.3609
  658MPD2    N1 9747   4.129   0.320  15.284  0.1328 -0.3886 -0.6019
  658MPD2    H7 9748   4.132   0.327  15.385  0.8749  0.6405 -0.7055
  659TMC3    C1 9749   3.881   0.333  15.294 -0.1064 -0.2522  0.0949
  659TMC3    C2 9750   3.900   0.435  15.380 -0.0914  0.2432 -0.4447
  659TMC3    C3 9751   3.784   0.501  15.419 -0.2285  0.1851 -0.1983
  659TMC3    C4 9752   3.759   0.288  15.251 -0.6044 -0.3057 -0.4715
  659TMC3    C5 9753   3.652   0.359  15.289  0.0808 -0.0689  0.0340
  659TMC3    C6 9754   3.661   0.473  15.366  0.2534  0.0096 -0.0941
  659TMC3     C 9755   4.005   0.294  15.218 -0.5362 -0.1731 -0.2503
  659TMC3     O 9756   3.985   0.233  15.115 -0.0260 -0.1605 -0.2349
  659TMC3     H 9757   3.997   0.471  15.412 -0.0463  0.7793 -1.1736
  659TMC3    H1 9758   3.749   0.240  15.154  0.4453 -1.0878 -0.2013
  659TMC3    H2 9759   3.577   0.531  15.402 -0.0981 -0.6637  0.1529
  659TMC3    C7 9760   3.520   0.315  15.249 -0.3946  1.0107  0.1687
  659TMC3    C8 9761   3.787   0.599  15.525 -0.3458  0.2722 -0.0927
  659TMC3    O1 9762   3.440   0.408  15.242 -0.3935 -0.3974 -0.0144
  659TMC3    O2 9763   3.692   0.667  15.545 -0.4102  0.6638  0.6247
  660MPD2     C 9764   2.331   3.860  12.788  0.0010 -0.4064  0.3055
  660MPD2    C1 9765   2.221   3.939  12.807  0.1698 -0.0193 -0.3787
  660MPD2    C2 9766   2.147   3.917  12.924 -0.1170  0.3327 -0.3071
  660MPD2    C3 9767   2.180   3.818  13.019 -0.5533 -0.1078 -0.1071
  660MPD2    C4 9768   2.304   3.761  12.999 -0.7832 -0.1208  0.0228
  660MPD2    C5 9769   2.375   3.776  12.887 -0.8418 -0.6854  0.5469
  660MPD2     H 9770   2.056   3.975  12.931 -0.1484  0.1079  1.0712
  660MPD2    H1 9771   2.344   3.692  13.072 -2.0006 -0.0849  0.7069
  660MPD2    H2 9772   2.393   3.877  12.701  0.0759 -1.8615  0.0784
  660MPD2    H3 9773   2.470   3.726  12.873  0.4150  1.4948  1.2405
  660MPD2     N 9774   2.105   3.781  13.132 -0.2852 -0.6705 -0.1791
  660MPD2    H5 9775   2.151   3.719  13.199 -0.3002  0.6194  1.0101
  660MPD2    N1 9776   2.182   4.040  12.711  0.2135 -0.0494 -0.5746
  660MPD2    H7 9777   2.237   4.047  12.626  0.2412 -1.5144 -0.6694
  661TMC3    C1 9778   2.056   4.213  12.599  0.6204  0.0103  0.0371
  661TMC3    C2 9779   2.159   4.262  12.518 -0.4133 -0.4245  0.9212
  661TMC3    C3 9780   2.139   4.385  12.454 -0.2483 -0.3313 -0.2778
  661TMC3    C4 9781   1.937   4.286  12.619 -0.1129 -0.4780 -0.1801
  661TMC3    C5 9782   1.920   4.401  12.542 -0.3798  0.1950 -0.3760
  661TMC3    C6 9783   2.010   4.442  12.447  0.2641  0.0441 -0.5788
  661TMC3     C 9784   2.086   4.136  12.722  0.0898  0.2848  0.7552
  661TMC3     O 9785   2.027   4.162  12.824  0.0537  0.1744 -0.0332
  661TMC3     H 9786   2.253   4.209  12.511 -0.1569  0.2510 -0.7924
  661TMC3    H1 9787   1.862   4.253  12.689  0.8329 -1.7197  0.2331
  661TMC3    H2 9788   1.986   4.531  12.389  0.3783  1.3774  1.4339
  661TMC3    C7 9789   1.789   4.462  12.530  0.1827 -0.3197 -0.0289
  661TMC3    C8 9790   2.238   4.448  12.370 -0.2292  0.6648  0.3641
  661TMC3    O1 9791   1.788   4.580  12.489  0.2954 -0.3321  0.5527
  661TMC3    O2 9792   2.316   4.378  12.309 -0.3197 -0.2901  0.0609
  662MPD2     C 9793   2.696   3.568   0.215 -0.4158  0.5738 -0.4489
  662MPD2    C1 9794   2.690   3.573   0.349 -0.4051  0.3411 -0.1938
  662MPD2    C2 9795   2.639   3.690   0.407  0.6033 -0.6922 -0.0872
  662MPD2    C3 9796   2.585   3.791   0.330  0.5289  0.3995 -0.3745
  662MPD2    C4 9797   2.578   3.768   0.193 -0.6118 -0.1957 -0.0011
  662MPD2    C5 9798   2.637   3.660   0.134  0.1583  0.2887 -0.4502
  662MPD2     H 9799   2.644   3.708   0.514 -2.1343 -2.8795  0.4080
  662MPD2    H1 9800   2.540   3.844   0.126  1.2020 -0.3350 -1.1886
  662MPD2    H2 9801   2.745   3.482   0.171 -1.7689 -0.7369  0.6032
  662MPD2    H3 9802   2.638   3.647   0.026 -1.3167  0.4867 -0.4852
  662MPD2     N 9803   2.542   3.919   0.374 -0.2075  0.7074 -0.3630
  662MPD2    H5 9804   2.531   3.983   0.296 -0.2658 -1.4168 -2.0914
  662MPD2    N1 9805   2.736   3.476   0.436 -0.2076 -0.0547 -0.3485
  662MPD2    H7 9806   2.733   3.493   0.536 -0.5125  2.2724 -0.7458
  663TMC3    C1 9807   2.811   3.286   0.529  0.2697  0.0116  0.5030
  663TMC3    C2 9808   2.866   3.357   0.632 -0.5400 -0.1369 -0.1446
  663TMC3    C3 9809   2.962   3.296   0.711  0.6029 -0.2087 -0.2039
  663TMC3    C4 9810   2.824   3.152   0.523  0.3341 -0.6254  0.2297
  663TMC3    C5 9811   2.903   3.094   0.624  0.0039  0.7143  0.1350
  663TMC3    C6 9812   2.983   3.164   0.701  0.2337  0.4093  0.3892
  663TMC3     C 9813   2.757   3.343   0.416 -0.3603 -0.5587  0.0187
  663TMC3     O 9814   2.725   3.280   0.317 -0.1060  0.1184  0.1658
  663TMC3     H 9815   2.878   3.464   0.622 -1.8205  0.1398  1.3036
  663TMC3    H1 9816   2.763   3.094   0.454  0.0536  0.6373 -0.5848
  663TMC3    H2 9817   3.031   3.105   0.779  1.0542  1.2344  0.5031
  663TMC3    C7 9818   2.906   2.950   0.639 -0.5972  0.1701 -0.1768
  663TMC3    C8 9819   2.987   3.354   0.841 -0.1890  0.2164  0.1039
  663TMC3    O1 9820   3.003   2.892   0.685  0.4617  0.2244  0.4021
  663TMC3    O2 9821   3.071   3.301   0.910  0.1975 -0.1279 -0.3775
  664MPD2     C 9822   0.779   1.828  17.326 -0.4692  0.3821  0.4580
  664MPD2    C1 9823   0.866   1.927  17.360 -0.1466 -0.5861  0.0197
  664MPD2    C2 9824   0.915   1.931  17.489 -0.0090  0.6848 -0.0686
  664MPD2    C3 9825   0.874   1.847  17.590  0.6669 -0.1142 -0.3097
  664MPD2    C4 9826   0.776   1.757  17.553  0.5864 -0.4227 -0.3224
  664MPD2    C5 9827   0.739   1.741  17.424  0.2601  0.7946 -0.6510
  664MPD2     H 9828   0.992   2.005  17.507  1.3483 -0.6165 -0.5471
  664MPD2    H1 9829   0.751   1.676  17.620  0.8674  0.6854  1.1137
  664MPD2    H2 9830   0.743   1.813  17.224  0.8865  0.2913 -0.0072
  664MPD2    H3 9831   0.685   1.654  17.388  0.6483 -0.0727  0.8432
  664MPD2     N 9832   0.937   1.852   0.009  0.5272 -0.1087  0.9789
  664MPD2    H5 9833   1.005   1.926   0.024  0.6550 -0.0122 -0.1009
  664MPD2    N1 9834   0.914   2.018  17.266  0.5130  0.3032 -0.0114
  664MPD2    H7 9835   0.986   2.086  17.290  1.2015 -0.5131  0.2487
  665TMC3    C1 9836   0.995   1.814   0.232 -0.1906  0.1638  0.1715
  665TMC3    C2 9837   1.038   1.727   0.324  0.3839 -0.0932  0.6519
  665TMC3    C3 9838   1.077   1.772   0.450 -0.2139 -0.0422 -0.4365
  665TMC3    C4 9839   0.989   1.949   0.258  0.3987  0.2108 -0.2303
  665TMC3    C5 9840   1.018   1.993   0.381 -0.6899  0.1145  0.0979
  665TMC3    C6 9841   1.064   1.910   0.480 -0.2863  0.0997 -0.2971
  665TMC3     C 9842   0.926   1.764   0.112  0.1029  0.6397  0.4198
  665TMC3     O 9843   0.866   1.657   0.113  0.4448 -0.3579 -0.3585
  665TMC3     H 9844   1.024   1.621   0.306  3.1335  0.0052 -2.0419
  665TMC3    H1 9845   0.951   2.023   0.188  0.5622 -0.8115 -1.4096
  665TMC3    H2 9846   1.079   1.950   0.580 -0.4686 -2.6747  0.8319
  665TMC3    C7 9847   0.987   2.137   0.403  0.4193 -0.0228  0.8121
  665TMC3    C8 9848   1.034   1.697   0.565  0.6997 -0.5870  0.6211
  665TMC3    O1 9849   0.956   2.220   0.313  0.1252 -0.2650 -0.0539
  665TMC3    O2 9850   1.089   1.725   0.672 -0.8552 -0.6134  0.4152
  666TMC3    C1 9851   0.129   1.918   9.938 -0.3387  0.6824 -0.9403
  666TMC3    C2 9852   0.236   1.898  10.016 -0.3208 -0.3893 -0.3886
  666TMC3    C3 9853   0.297   2.002  10.074 -1.0952  0.2139  0.9973
  666TMC3    C4 9854   0.066   2.041   9.935 -0.2438 -0.5959 -0.2130
  666TMC3    C5 9855   0.134   2.143   9.992  0.3071 -0.5501  0.4668
  666TMC3    C6 9856   0.255   2.127  10.053  0.3723 -0.0615 -0.6560
  666TMC3     C 9857   0.064   1.819   9.861 -0.0005 -0.3335  0.0821
  666TMC3     O 9858   4.721   1.849   9.761  0.1822 -0.6914  0.1218
  666TMC3     H 9859   0.285   1.803  10.036  0.8313  0.4148  0.6077
  666TMC3    H1 9860   4.694   2.051   9.888 -0.2551  0.3135  0.0040
  666TMC3    H2 9861   0.285   2.203  10.123 -1.4339  0.2724 -0.2338
  666TMC3    C7 9862   0.055   2.260  10.036  0.1160  0.3516 -0.2898
  666TMC3    C8 9863   0.348   1.979  10.202 -0.0708  0.0665  0.1731
  666TMC3    O1 9864   0.074   2.290  10.153 -0.1749 -0.3601 -0.6250
  666TMC3    O2 9865   0.327   1.865  10.261  0.4562  0.1681  0.3743
  667MPD2     C 9866   1.305   2.154  15.463 -0.1271 -0.2945 -0.3464
  667MPD2    C1 9867   1.248   2.261  15.393  0.4266  0.2605  1.3047
  667MPD2    C2 9868   1.162   2.229  15.290 -0.2290  0.3389 -0.0199
  667MPD2    C3 9869   1.131   2.094  15.252  0.1777  0.0643 -0.2818
  667MPD2    C4 9870   1.188   1.993  15.320  0.6187  0.7766 -0.7056
  667MPD2    C5 9871   1.279   2.028  15.415  0.9616 -0.1221 -0.2519
  667MPD2     H 9872   1.112   2.308  15.236  0.2611 -0.1112 -1.1218
  667MPD2    H1 9873   1.172   1.889  15.294 -1.9977  0.3303  2.7433
  667MPD2    H2 9874   1.378   2.179  15.539 -0.1769 -1.8570  0.2265
  667MPD2    H3 9875   1.332   1.942  15.456 -0.0508 -1.7483 -2.3847
  667MPD2     N 9876   1.034   2.056  15.157  0.0617  0.2455  0.1624
  667MPD2    H5 9877   1.012   1.957  15.149 -1.2138  0.6236 -0.9629
  667MPD2    N1 9878   1.258   2.395  15.428  0.5329  0.5673  0.3165
  667MPD2    H7 9879   1.220   2.461  15.361  1.0577  1.3936  0.8382
  668TMC3    C1 9880   1.328   2.584  15.559 -0.3621 -0.5667  0.3295
  668TMC3    C2 9881   1.372   2.662  15.455  0.4110  0.0733  0.1800
  668TMC3    C3 9882   1.414   2.790  15.483  0.2509 -0.4989  0.2660
  668TMC3    C4 9883   1.333   2.630  15.684  0.5171  0.0689  0.3178
  668TMC3    C5 9884   1.378   2.761  15.701 -1.0946 -0.1535 -0.3006
  668TMC3    C6 9885   1.412   2.850  15.605 -0.5471  0.1943 -0.2124
  668TMC3     C 9886   1.311   2.441  15.550 -0.0492  0.5943  0.1229
  668TMC3     O 9887   1.335   2.366  15.644  0.1070 -0.5818 -0.7702
  668TMC3     H 9888   1.361   2.626  15.353 -1.8207 -2.2761  1.2316
  668TMC3    H1 9889   1.337   2.560  15.767  0.0972 -0.9592 -0.5283
  668TMC3    H2 9890   1.438   2.952  15.634  0.0935 -0.1377  0.3849
  668TMC3    C7 9891   1.394   2.804  15.837 -0.1660 -0.1675  0.0788
  668TMC3    C8 9892   1.452   2.873  15.370 -0.4349  0.0314  0.3588
  668TMC3    O1 9893   1.468   2.899  15.860  0.0158  0.7893  0.0733
  668TMC3    O2 9894   1.480   2.991  15.388 -0.0609 -0.1600  0.0679
  669TMC3    C1 9895   4.295   1.762  14.679 -0.3233 -0.3321  0.5051
  669TMC3    C2 9896   4.225   1.832  14.585 -0.0675 -0.2630  0.2615
  669TMC3    C3 9897   4.300   1.910  14.500  0.7879 -0.3131  0.4709
  669TMC3    C4 9898   4.424   1.776  14.701  0.5648  0.2548  0.1194
  669TMC3    C5 9899   4.489   1.867  14.620  0.9231 -0.7168  0.1425
  669TMC3    C6 9900   4.433   1.922  14.513 -0.1146  0.1553  0.4654
  669TMC3     C 9901   4.216   1.671  14.779 -0.5346 -0.0314 -0.2210
  669TMC3     O 9902   4.270   1.633  14.884  0.1076  0.0259 -0.5092
  669TMC3     H 9903   4.117   1.821  14.587  0.0995 -2.1010 -0.9021
  669TMC3    H1 9904   4.470   1.747  14.795 -3.0324 -0.7925  1.5595
  669TMC3    H2 9905   4.481   1.989  14.443 -0.9154 -1.5802 -1.7323
  669TMC3    C7 9906   4.603   1.947  14.678  0.3814  0.4414 -0.0302
  669TMC3    C8 9907   4.221   1.979  14.397 -0.0267 -0.0059  0.1159
  669TMC3    O1 9908   4.622   2.054  14.622  0.7124  0.3807 -0.0637
  669TMC3    O2 9909   4.106   1.958  14.400  0.0843  0.1197 -0.2002
  670MPD2     C 9910   2.202   4.597  13.731  0.2705 -0.3786 -0.1320
  670MPD2    C1 9911   2.258   4.489  13.665 -1.1081  0.1515  0.2606
  670MPD2    C2 9912   2.252   4.363  13.728  0.8295 -0.4973  0.4017
  670MPD2    C3 9913   2.203   4.351  13.859 -0.3549 -0.2753 -0.0146
  670MPD2    C4 9914   2.141   4.456  13.916 -0.2909 -0.0228  0.7078
  670MPD2    C5 9915   2.145   4.576  13.855 -0.3280  0.3105  0.8362
  670MPD2     H 9916   2.291   4.277  13.676  0.6935 -0.4773  0.2672
  670MPD2    H1 9917   2.100   4.454  14.016 -2.6309 -0.1570 -0.2742
  670MPD2    H2 9918   2.203   4.697  13.689 -0.6974 -1.2701 -2.2993
  670MPD2    H3 9919   2.095   4.653  13.912  0.9014  3.0290 -1.8131
  670MPD2     N 9920   2.235   4.236  13.925  0.1289  0.1306  0.0758
  670MPD2    H5 9921   2.310   4.178  13.889  1.2132  1.4071  0.2596
  670MPD2    N1 9922   2.323   4.516  13.541 -0.6469  0.0510  0.4953
  670MPD2    H7 9923   2.320   4.615  13.517  1.3461 -0.5625 -2.3629
  671TMC3    C1 9924   2.280   4.126  14.121 -0.0420 -0.0766 -0.1623
  671TMC3    C2 9925   2.417   4.129  14.106 -0.4636 -0.3267  0.1727
  671TMC3    C3 9926   2.502   4.088  14.205 -0.5267  0.5449 -0.1278
  671TMC3    C4 9927   2.226   4.066  14.233  0.0798  0.1482 -0.6527
  671TMC3    C5 9928   2.311   3.997  14.317  0.0517 -0.3476  0.0119
  671TMC3    C6 9929   2.453   4.014  14.313 -0.7501  0.6806 -0.0300
  671TMC3     C 9930   2.195   4.217  14.055  0.3473  0.9674  0.1030
  671TMC3     O 9931   2.087   4.235  14.112  0.1966 -0.3851  0.3771
  671TMC3     H 9932   2.460   4.197  14.034  0.2038 -0.8128  0.1109
  671TMC3    H1 9933   2.118   4.062  14.246  0.2232  0.8780  0.7773
  671TMC3    H2 9934   2.516   3.962  14.383  0.5107  2.4348  0.1286
  671TMC3    C7 9935   2.251   3.913  14.423  0.0143  0.1731 -0.2377
  671TMC3    C8 9936   2.643   4.091  14.169 -1.0116 -0.0304 -0.0828
  671TMC3    O1 9937   2.179   3.974  14.496 -0.0768 -0.0435 -0.2550
  671TMC3    O2 9938   2.678   4.142  14.064  0.0009 -0.4417 -0.4570
  672MPD2     C 9939   2.881   4.464   1.475 -0.0677 -0.2829 -0.1861
  672MPD2    C1 9940   3.013   4.469   1.420  0.3094  0.2898 -0.3759
  672MPD2    C2 9941   3.121   4.503   1.501  0.1431 -0.1328 -0.3624
  672MPD2    C3 9942   3.101   4.547   1.630  0.3351  0.3493  1.1059
  672MPD2    C4 9943   2.973   4.564   1.678  0.3370 -0.3758  0.0857
  672MPD2    C5 9944   2.868   4.508   1.604  0.6402 -0.9072 -0.0826
  672MPD2     H 9945   3.218   4.508   1.453 -0.0418 -1.8055 -0.9192
  672MPD2    H1 9946   2.957   4.604   1.778  2.3160 -0.3913  0.4076
  672MPD2    H2 9947   2.795   4.420   1.426 -1.8893  1.6702  1.2774
  672MPD2    H3 9948   2.767   4.510   1.642  0.2948 -1.2404 -0.9653
  672MPD2     N 9949   3.202   4.585   1.725 -0.9663 -0.3682  0.4225
  672MPD2    H5 9950   3.171   4.614   1.817  1.6158 -0.1721  1.2278
  672MPD2    N1 9951   3.043   4.441   1.286  0.0913 -0.0770 -0.0066
  672MPD2    H7 9952   3.141   4.424   1.262 -0.1034 -1.9889  0.5176
  673TMC3    C1 9953   2.989   4.416   1.049 -0.4533 -0.0623  0.1311
  673TMC3    C2 9954   3.065   4.306   1.014 -0.0441  1.1557  0.4331
  673TMC3    C3 9955   3.094   4.295   0.881  0.0710 -1.1622  0.6748
  673TMC3    C4 9956   2.940   4.500   0.949  0.9013 -0.0531  0.3469
  673TMC3    C5 9957   2.963   4.474   0.816 -0.0118  0.1276 -0.2086
  673TMC3    C6 9958   3.036   4.371   0.772 -0.6914 -0.0300  0.2186
  673TMC3     C 9959   2.947   4.442   1.184 -0.0717 -0.0066  0.0215
  673TMC3     O 9960   2.836   4.495   1.189 -0.0337 -0.3475  0.2247
  673TMC3     H 9961   3.094   4.242   1.097  1.2604  1.0156 -0.1427
  673TMC3    H1 9962   2.867   4.575   0.975 -0.9952 -1.9355  0.4364
  673TMC3    H2 9963   3.065   4.365   0.667 -0.4235 -1.0354  0.3498
  673TMC3    C7 9964   2.975   4.585   0.726  0.0226  0.0524 -0.3043
  673TMC3    C8 9965   3.182   4.194   0.833  0.3099  0.5959 -0.1039
  673TMC3    O1 9966   3.065   4.598   0.642  0.1924 -0.2883 -0.0803
  673TMC3    O2 9967   3.167   4.150   0.722 -0.3620  0.3088  0.2111
  674MPD2     C 9968   2.248   0.481   0.456  0.1267  0.2158  0.8057
  674MPD2    C1 9969   2.285   0.366   0.516 -0.0697 -0.2224  0.0317
  674MPD2    C2 9970   2.216   0.326   0.630  0.2392 -0.4515 -0.1497
  674MPD2    C3 9971   2.110   0.404   0.679  1.1840 -0.6980 -0.5542
  674MPD2    C4 9972   2.066   0.509   0.604 -0.3355  0.2443 -0.2963
  674MPD2    C5 9973   2.137   0.559   0.496 -0.3487  0.3580  0.1450
  674MPD2     H 9974   2.237   0.236   0.686  0.4069 -0.6930 -0.6032
  674MPD2    H1 9975   1.995   0.583   0.637 -0.3047 -0.7157  1.8949
  674MPD2    H2 9976   2.306   0.509   0.369 -0.0076  0.5406  0.8206
  674MPD2    H3 9977   2.097   0.645   0.444  0.4401 -0.1489 -1.3126
  674MPD2     N 9978   2.049   0.378   0.797 -0.2190  0.8145  0.3873
  674MPD2    H5 9979   2.078   0.292   0.844  0.7477  1.1842  0.4701
  674MPD2    N1 9980   2.398   0.298   0.461 -0.3190 -0.0147  0.0728
  674MPD2    H7 9981   2.445   0.346   0.385  2.0017  0.7255  1.9669
  675TMC3    C1 9982   2.560   0.123   0.454 -0.6825  0.2432  0.8668
  675TMC3    C2 9983   2.569   4.717   0.422 -0.0246  0.3935 -0.2878
  675TMC3    C3 9984   2.683   4.688   0.351  0.1298  0.2276 -0.1312
  675TMC3    C4 9985   2.656   0.216   0.430 -0.2688  0.0927  0.1909
  675TMC3    C5 9986   2.776   0.178   0.368  0.1779  0.1427  0.0479
  675TMC3    C6 9987   2.788   0.049   0.323 -0.0753  0.5550 -0.9765
  675TMC3     C 9988   2.433   0.172   0.500 -0.0486  0.2990 -0.0673
  675TMC3     O 9989   2.360   0.083   0.539  0.1144  0.2055 -0.4549
  675TMC3     H 9990   2.484   4.652   0.433  1.2305 -1.3117 -0.5907
  675TMC3    H1 9991   2.640   0.320   0.454  1.4112  0.5702 -0.7947
  675TMC3    H2 9992   2.878   0.002   0.283 -1.2486  0.0007 -2.9435
  675TMC3    C7 9993   2.878   0.275   0.324 -0.3781  0.2601  0.0602
  675TMC3    C8 9994   2.706   4.546   0.335 -1.0803 -0.5423 -0.1697
  675TMC3    O1 9995   2.848   0.395   0.345 -0.2028  0.5969 -0.8018
  675TMC3    O2 9996   2.766   4.508   0.235  0.2444  0.1315 -0.3622
  676MPD2     C 9997   0.280   3.177  11.217 -0.0535 -0.2783  0.0382
  676MPD2    C1 9998   0.194   3.108  11.296  0.3800 -0.6087 -0.3912
  676MPD2    C2 9999   0.194   2.969  11.295  0.4391 -0.1783  1.2013
  676MPD2    C310000   0.261   2.893  11.200 -0.1512 -0.1643  0.0410
  676MPD2    C410001   0.354   2.964  11.123 -0.0201  0.8830 -0.9859
  676MPD2    C510002   0.358   3.105  11.130  0.3587  0.2235  0.3527
  676MPD2     H10003   0.130   2.916  11.365 -0.7240 -0.6198 -0.1860
  676MPD2    H110004   0.405   2.912  11.043 -0.0970  1.1551 -1.2102
  676MPD2    H210005   0.296   3.284  11.213  0.7839 -0.4278 -0.8225
  676MPD2    H310006   0.422   3.162  11.065  0.4081  2.4005  2.3165
  676MPD2     N10007   0.245   2.755  11.179 -0.6818  1.1254 -0.2413
  676MPD2    H510008   0.320   2.711  11.126 -0.2256 -0.4524  1.7075
  676MPD2    N110009   0.093   3.161  11.381  0.0415 -0.7749 -0.3450
  676MPD2    H710010   0.041   3.089  11.430 -1.2948  0.4863  0.0853
  677TMC3    C110011   4.655   3.315  11.460 -0.1990  0.1090  0.3812
  677TMC3    C210012   4.598   3.218  11.539 -0.4912  0.0898  0.0476
  677TMC3    C310013   4.504   3.259  11.631 -0.5788  0.8128 -0.0548
  677TMC3    C410014   4.602   3.442  11.453 -0.0255  0.3765  0.3163
  677TMC3    C510015   4.497   3.470  11.535  0.5397 -0.2819  0.0746
  677TMC3    C610016   4.456   3.387  11.634  0.4721  0.5767 -0.3511
  677TMC3     C10017   0.051   3.295  11.383  0.4486 -0.3663 -0.3626
  677TMC3     O10018   0.095   3.396  11.323 -0.8276 -0.0044 -0.6329
  677TMC3     H10019   4.623   3.113  11.533  2.6262  0.8293 -0.2177
  677TMC3    H110020   4.629   3.516  11.379  0.1706 -1.1652 -1.1546
  677TMC3    H210021   4.375   3.422  11.697 -0.8977 -0.5874 -1.4566
  677TMC3    C710022   4.467   3.606  11.578  0.4479 -0.4599  0.2164
  677TMC3    C810023   4.511   3.190  11.759 -0.3812  0.2674  0.2535
  677TMC3    O110024   4.359   3.632  11.628  0.7011 -0.1001 -0.3947
  677TMC3    O210025   4.627   3.151  11.784  0.2453  0.5494 -0.4499
  678MPD2     C10026   1.553   2.975   1.960  0.9795 -0.1995  0.2766
  678MPD2    C110027   1.571   2.958   1.821 -0.0221 -0.0216  0.6502
  678MPD2    C210028   1.474   2.900   1.750  0.3509  0.8394 -0.6413
  678MPD2    C310029   1.359   2.858   1.802  0.1635 -0.8201 -0.1027
  678MPD2    C410030   1.339   2.873   1.938 -0.2409 -0.0205 -0.2608
  678MPD2    C510031   1.436   2.923   2.017 -0.4275  0.4191  0.5932
  678MPD2     H10032   1.495   2.892   1.643 -3.2542 -2.9277 -1.0174
  678MPD2    H110033   1.254   2.839   1.995 -0.1728  0.3057  0.0327
  678MPD2    H210034   1.631   3.022   2.018  0.3031 -0.4730  1.3956
  678MPD2    H310035   1.423   2.917   2.125  1.7839  1.8936  0.9468
  678MPD2     N10036   1.264   2.797   1.719 -0.2342 -0.0054 -0.1953
  678MPD2    H510037   1.278   2.810   1.619 -3.2873 -0.3413 -0.6694
  678MPD2    N110038   1.678   3.005   1.742  0.3546 -0.3364  0.1528
  678MPD2    H710039   1.684   2.985   1.642 -0.5649  1.6299 -0.3046
  679TMC3    C110040   1.976   3.095   1.473 -0.4249  0.2367  0.4921
  679TMC3    C210041   1.904   3.041   1.577 -0.1135  0.5652  0.7902
  679TMC3    C310042   1.861   3.129   1.674  0.1377 -0.3825  0.2073
  679TMC3    C410043   1.992   3.234   1.469 -0.3935  0.2585 -0.1307
  679TMC3    C510044   1.964   3.308   1.580  0.1901  0.0993  0.9939
  679TMC3    C610045   1.893   3.263   1.684  0.4511 -0.8451  0.6493
  679TMC3     C10046   1.981   3.024   1.355  0.1388  0.2091  0.1088
  679TMC3     O10047   2.001   2.903   1.359  0.2968 -0.0781 -0.2236
  679TMC3     H10048   1.885   2.934   1.576  0.8433  0.3966  0.8040
  679TMC3    H110049   2.049   3.275   1.387 -0.6007  1.5375  0.3645
  679TMC3    H210050   1.876   3.314   1.778 -2.4085 -0.5133 -0.0477
  679TMC3    C710051   2.017   3.438   1.573 -0.3711 -0.3158  0.1674
  679TMC3    C810052   1.777   3.091   1.783 -0.2366 -0.4053  0.7600
  679TMC3    O110053   2.080   3.471   1.476 -0.2105 -0.2216  0.1815
  679TMC3    O210054   1.791   3.126   1.896  0.7092  0.1382  0.3440
  680MPD2     C10055   1.614   1.682  14.159 -0.1360  0.1697  0.5368
  680MPD2    C110056   1.727   1.647  14.229 -0.0904 -0.3714  0.2954
  680MPD2    C210057   1.836   1.730  14.225 -0.9485  0.0281 -0.2576
  680MPD2    C310058   1.835   1.843  14.145 -0.2398  0.3139  0.3812
  680MPD2    C410059   1.719   1.871  14.071 -0.1720 -0.8358  0.4664
  680MPD2    C510060   1.606   1.791  14.080 -0.2295 -0.1256 -0.4455
  680MPD2     H10061   1.922   1.703  14.285 -0.8521 -0.6325 -0.6995
  680MPD2    H110062   1.717   1.955  14.003 -2.6785 -1.1745  0.1319
  680MPD2    H210063   1.524   1.622  14.167 -1.6314  2.3721  0.0589
  680MPD2    H310064   1.520   1.804  14.016 -0.8545  0.7172  0.5692
  680MPD2     N10065   1.941   1.935  14.122  0.0027  0.2383  0.4886
  680MPD2    H510066   1.931   2.000  14.045  0.4135  0.0293  0.2608
  680MPD2    N110067   1.745   1.536  14.314  0.3610  0.1084 -0.0149
  680MPD2    H710068   1.826   1.539  14.374 -0.6457  0.4999  1.3195
  681TMC3    C110069   1.725   1.325  14.401  0.1055  0.3120  0.6788
  681TMC3    C210070   1.758   1.374  14.528 -0.1173 -0.4165 -1.1280
  681TMC3    C310071   1.842   1.299  14.601 -0.5212 -0.3000  0.7625
  681TMC3    C410072   1.783   1.216  14.346  0.2700 -0.3650 -0.1739
  681TMC3    C510073   1.877   1.146  14.425  0.4738  0.0185  0.5610
  681TMC3    C610074   1.907   1.188  14.553  0.1319  0.1568 -0.4771
  681TMC3     C10075   1.671   1.429  14.308 -0.4671  0.6556  0.3646
  681TMC3     O10076   1.575   1.397  14.243  0.3059  0.7607  0.1711
  681TMC3     H10077   1.715   1.467  14.565  1.1753 -0.6871  1.0829
  681TMC3    H110078   1.772   1.197  14.240  0.7202 -0.8638 -0.1305
  681TMC3    H210079   1.975   1.129  14.613  2.0825  2.3849 -0.4996
  681TMC3    C710080   1.982   1.075  14.355 -0.0698  0.1373 -0.3783
  681TMC3    C810081   1.890   1.354  14.727  0.6197 -0.4147  0.6466
  681TMC3    O110082   2.047   0.997  14.422 -0.6494  0.0513 -0.5101
  681TMC3    O210083   1.820   1.445  14.774 -0.2457  0.3849  0.6875
  682MPD2     C10084   4.467   3.084  10.771  0.5446  0.1383 -0.5022
  682MPD2    C110085   4.346   3.023  10.788 -0.4202 -0.1935 -0.1422
  682MPD2    C210086   4.239   3.101  10.820  0.0218 -0.3794  0.1268
  682MPD2    C310087   4.248   3.241  10.823 -0.2899  0.5993 -0.4511
  682MPD2    C410088   4.372   3.300  10.815 -0.2530  0.1534  0.1710
  682MPD2    C510089   4.486   3.221  10.794 -0.0189 -0.1501  0.2657
  682MPD2     H10090   4.144   3.055  10.842  0.3331 -0.2438  1.7703
  682MPD2    H110091   4.384   3.406  10.835  0.0529  0.0155  0.7259
  682MPD2    H210092   4.556   3.027  10.747  1.8187  1.6100  0.6746
  682MPD2    H310093   4.584   3.264  10.780 -0.3245  0.2556 -0.5595
  682MPD2     N10094   4.134   3.321  10.859 -0.5756 -0.3049  0.1252
  682MPD2    H510095   4.142   3.421  10.878  0.6051 -0.4376  0.3375
  682MPD2    N110096   4.332   2.887  10.761  0.0736  0.6180  0.1266
  682MPD2    H710097   4.243   2.844  10.783  1.8176 -2.7150  0.6315
  683TMC3    C110098   3.918   3.447  11.188 -0.2625 -0.5884 -0.3372
  683TMC3    C210099   3.779   3.430  11.181 -0.0372  0.3081 -0.2430
  683TMC3    C310100   3.725   3.395  11.064 -0.2008 -0.4117 -0.3967
  683TMC3    C410101   4.000   3.423  11.072 -0.4119  0.5195  0.2644
  683TMC3    C510102   3.943   3.369  10.962 -1.0085 -0.4189 -0.0985
  683TMC3    C610103   3.802   3.365  10.951 -0.0619  0.3080  0.3271
  683TMC3     C10104   3.982   3.454  11.319 -0.3464  0.2016  0.2628
  683TMC3     O10105   4.087   3.518  11.325  0.4055 -0.3110  0.2290
  683TMC3     H10106   3.728   3.467  11.269 -0.2837 -2.2516  0.7128
  683TMC3    H110107   4.106   3.441  11.083 -0.0517 -2.1544  1.1712
  683TMC3    H210108   3.755   3.334  10.859 -1.5107  0.4305  1.0173
  683TMC3    C710109   4.013   3.268  10.898  0.3508  0.2999  0.0667
  683TMC3    C810110   3.602   3.318  11.069  0.3171  0.6996 -0.2937
  683TMC3    O110111   3.948   3.166  10.871 -0.2603 -0.4803 -0.1089
  683TMC3    O210112   3.503   3.358  11.130 -0.2981  0.1902 -0.2285
  684MPD2     C10113   2.667   2.487  16.673  0.2426  0.1621  0.1475
  684MPD2    C110114   2.608   2.504  16.552 -0.5012 -0.2171 -0.0765
  684MPD2    C210115   2.605   2.625  16.495 -0.3903  1.0055 -0.0092
  684MPD2    C310116   2.653   2.736  16.564 -0.5358 -0.2770 -0.6793
  684MPD2    C410117   2.694   2.720  16.691 -0.0014  0.4156 -0.3833
  684MPD2    C510118   2.717   2.594  16.741 -0.6017  0.4061 -0.1218
  684MPD2     H10119   2.590   2.646  16.390 -2.5185  0.1585  0.1244
  684MPD2    H110120   2.732   2.807  16.744  0.6124 -1.3692  2.0859
  684MPD2    H210121   2.699   2.390  16.710  0.2938  0.1263  0.0071
  684MPD2    H310122   2.772   2.577  16.833  0.5176 -2.6945 -1.3688
  684MPD2     N10123   2.669   2.858  16.499  0.3267  0.1950 -0.4863
  684MPD2    H510124   2.705   2.932  16.558 -0.8976 -1.4875  2.3429
  684MPD2    N110125   2.581   2.386  16.477 -0.4043  0.3019  0.6537
  684MPD2    H710126   2.603   2.298  16.523  3.1304  0.4536 -0.7678
  685TMC3    C110127   2.493   2.254  16.309 -0.4428  0.1234 -0.0769
  685TMC3    C210128   2.396   2.239  16.209  0.0368  0.0806 -0.5560
  685TMC3    C310129   2.397   2.129  16.133 -0.7695 -0.6144  0.2065
  685TMC3    C410130   2.596   2.169  16.309  0.1776 -0.0676  0.4537
  685TMC3    C510131   2.601   2.064  16.216  0.0716 -0.1424 -0.2141
  685TMC3    C610132   2.500   2.044  16.128 -0.5599 -0.1234  0.2318
  685TMC3     C10133   2.517   2.387  16.357 -0.3569  0.5927 -0.1135
  685TMC3     O10134   2.454   2.471  16.294 -0.2675 -0.1313 -0.1048
  685TMC3     H10135   2.318   2.313  16.198 -0.3719 -0.6440 -2.6677
  685TMC3    H110136   2.686   2.198  16.361  0.6463 -0.5069 -0.1093
  685TMC3    H210137   2.498   1.957  16.063  1.2933  0.4790 -0.6121
  685TMC3    C710138   2.687   1.951  16.232 -0.6305 -0.3683 -0.1695
  685TMC3    C810139   2.281   2.112  16.042  0.2764 -0.2550  0.1205
  685TMC3    O110140   2.696   1.863  16.148  0.2564  0.3002  0.7374
  685TMC3    O210141   2.180   2.151  16.094  0.3416 -0.0079  0.1336
  686MPD2     C10142   3.775   2.339  15.654  0.0722 -1.1382  0.2189
  686MPD2    C110143   3.844   2.260  15.748  0.5955 -0.5724  0.1484
  686MPD2    C210144   3.936   2.179  15.693 -0.0553 -0.1550  0.6372
  686MPD2    C310145   3.953   2.147  15.559 -0.2988  0.1359 -0.2994
  686MPD2    C410146   3.873   2.218  15.468 -0.0067  0.1447  0.9992
  686MPD2    C510147   3.794   2.318  15.514  0.0885  0.1657 -0.4616
  686MPD2     H10148   3.988   2.111  15.759 -0.7490 -0.5208  0.8084
  686MPD2    H110149   3.881   2.207  15.360 -1.1200  0.6826  0.8584
  686MPD2    H210150   3.708   2.414  15.692 -0.0594 -0.8583 -0.5673
  686MPD2    H310151   3.754   2.385  15.439  0.0427 -0.1824 -0.7459
  686MPD2     N10152   4.028   2.032  15.508 -0.1077 -0.3802  0.1283
  686MPD2    H510153   4.074   2.045  15.418  2.3389  2.0202  1.7141
  686MPD2    N110154   3.812   2.281  15.885 -0.0425  0.9533 -0.1532
  686MPD2    H710155   3.725   2.329  15.906  0.3869  1.0804  1.3633
  687TMC3    C110156   4.002   1.883  15.694  0.9063 -0.1976 -0.2142
  687TMC3    C210157   3.863   1.896  15.688  0.1365  0.3724  0.0171
  687TMC3    C310158   3.799   1.851  15.793  0.4368  0.0563  0.0224
  687TMC3    C410159   4.073   1.841  15.806 -0.1215  0.2701 -0.3876
  687TMC3    C510160   3.992   1.797  15.912  0.5932 -0.4056  0.3571
  687TMC3    C610161   3.858   1.799  15.898  0.3169  0.5470 -0.7594
  687TMC3     C10162   4.080   1.938  15.591  0.0532 -0.3691  0.5797
  687TMC3     O10163   4.191   1.887  15.571 -0.2500 -0.1479 -0.2668
  687TMC3     H10164   3.817   1.942  15.601 -1.0397 -0.1695  0.3559
  687TMC3    H110165   4.180   1.829  15.817 -0.0287  0.2846 -1.2659
  687TMC3    H210166   3.788   1.751  15.965  1.1172 -0.9189 -0.9734
  687TMC3    C710167   4.048   1.763  16.044 -0.1623 -0.8121  0.7186
  687TMC3    C810168   3.689   1.936  15.835  0.2943  0.1087  0.0477
  687TMC3    O110169   3.977   1.699  16.115  0.3196  0.0732 -0.4390
  687TMC3    O210170   3.659   1.944  15.954 -0.6432 -1.0416  0.6187
  688MPD2     C10171   2.978   1.081  17.588  0.8889  0.4150  0.6035
  688MPD2    C110172   3.011   0.947  17.593  0.2046 -0.4721 -0.0234
  688MPD2    C210173   3.075   0.894  17.484 -0.0720 -0.4766 -0.4735
  688MPD2    C310174   3.129   0.985  17.386 -0.2925  0.4015 -0.3562
  688MPD2    C410175   3.121   1.122  17.412  0.3357  0.0048 -0.0842
  688MPD2    C510176   3.035   1.164  17.504 -0.0088 -0.6384 -0.0677
  688MPD2     H10177   3.080   0.786  17.475 -0.1857 -0.3195 -2.4929
  688MPD2    H110178   3.171   1.185  17.340 -0.8931 -0.2780 -1.1959
  688MPD2    H210179   2.914   1.133  17.659 -1.2635 -0.3540 -0.7963
  688MPD2    H310180   3.011   1.269  17.516 -2.3683 -1.4679  2.2695
  688MPD2     N10181   3.215   0.946  17.282 -0.5087  0.0838 -0.2348
  688MPD2    H510182   3.227   1.007  17.202  1.5449 -0.7311 -0.5663
  688MPD2    N110183   2.958   0.857  17.689 -0.2248 -0.5524 -0.9957
  688MPD2    H710184   2.967   0.756  17.688  0.9425 -0.4571  0.3475
  689TMC3    C110185   2.863   0.796   0.192 -0.2935 -0.1640  0.3546
  689TMC3    C210186   2.871   0.823   0.326  0.0285  0.4678  0.5110
  689TMC3    C310187   2.783   0.757   0.403  0.1951  0.1059 -0.2580
  689TMC3    C410188   2.780   0.698   0.141  0.1445  0.6869 -0.7963
  689TMC3    C510189   2.692   0.639   0.222 -0.2462  0.6429 -0.7187
  689TMC3    C610190   2.694   0.665   0.358 -0.3321 -0.7534  0.0306
  689TMC3     C10191   2.903   0.906   0.102 -0.5059  0.0926  0.0462
  689TMC3     O10192   2.872   1.016   0.142  0.5046 -0.0488 -0.1451
  689TMC3     H10193   2.937   0.901   0.362  1.4317 -1.5502  2.2922
  689TMC3    H110194   2.783   0.683   0.033 -0.4116  1.0295 -0.8556
  689TMC3    H210195   2.630   0.614   0.428  1.5143  1.7769  3.5670
  689TMC3    C710196   2.614   0.519   0.186 -0.1765  0.0457 -0.6156
  689TMC3    C810197   2.790   0.772   0.547  0.5786 -0.3852  0.0598
  689TMC3    O110198   2.557   0.462   0.276  0.1481  0.3924  0.1341
  689TMC3    O210199   2.782   0.671   0.617 -0.1134  0.2341 -0.3801
  690MPD2     C10200   1.107   3.121  15.985 -0.3474 -0.6430 -0.1437
  690MPD2    C110201   1.012   3.130  15.884  0.0391  0.0503  0.6841
  690MPD2    C210202   1.049   3.179  15.764 -0.5432  0.2159  0.1257
  690MPD2    C310203   1.168   3.252  15.752  0.1828  0.1861 -0.0488
  690MPD2    C410204   1.255   3.257  15.858 -0.3526 -0.4913 -0.6753
  690MPD2    C510205   1.230   3.182  15.969 -0.5649  0.5456  0.3261
  690MPD2     H10206   0.975   3.184  15.684 -1.3317 -0.7460  0.7957
  690MPD2    H110207   1.354   3.300  15.868 -1.7560  2.5315 -0.0289
  690MPD2    H210208   1.087   3.073  16.080 -1.0361  1.5305  0.7929
  690MPD2    H310209   1.305   3.168  16.047 -1.3127  3.2048  1.5352
  690MPD2     N10210   1.207   3.305  15.624  0.3964  0.1050 -0.0337
  690MPD2    H510211   1.146   3.283  15.545 -1.9994 -1.4711  2.2231
  690MPD2    N110212   0.884   3.069  15.890  0.1061  0.1293 -0.1762
  690MPD2    H710213   0.823   3.077  15.810 -3.0600 -0.1975  2.1939
  691TMC3    C110214   0.692   2.965  15.991  0.7762  0.1662  0.6827
  691TMC3    C210215   0.607   3.025  15.901 -0.3289  0.0913  0.8589
  691TMC3    C310216   0.479   2.987  15.913  0.3017 -0.7897 -0.0060
  691TMC3    C410217   0.647   2.869  16.072  0.0839  0.5403 -0.5885
  691TMC3    C510218   0.520   2.833  16.076  0.2044  0.4789  0.4144
  691TMC3    C610219   0.427   2.904  16.006 -0.5484 -0.8527 -0.5898
  691TMC3     C10220   0.832   3.009  16.008  0.1019 -0.3359  0.3494
  691TMC3     O10221   0.883   2.972  16.106 -0.0747 -0.0628 -0.4890
  691TMC3     H10222   0.637   3.111  15.842 -0.9784 -1.9758 -2.4813
  691TMC3    H110223   0.717   2.823  16.141 -0.4534 -2.4216 -2.0003
  691TMC3    H210224   0.325   2.865  16.012 -0.9944  0.6187  1.2782
  691TMC3    C710225   0.482   2.730  16.173 -0.8828 -0.3270 -0.2583
  691TMC3    C810226   0.392   3.027  15.808 -0.1105 -0.4092  0.6511
  691TMC3    O110227   0.568   2.709  16.258 -0.5000  0.1872  0.0528
  691TMC3    O210228   0.451   3.061  15.702  0.0354  0.3029 -0.0502
  692TMC3    C110229   2.236   4.068  16.012 -0.5363 -0.1709 -0.5042
  692TMC3    C210230   2.359   4.104  16.057 -0.1146 -0.7053 -0.8544
  692TMC3    C310231   2.473   4.061  16.000 -0.0787  0.3064  0.3100
  692TMC3    C410232   2.224   3.967  15.919  0.3358 -0.4348  0.0079
  692TMC3    C510233   2.345   3.909  15.886  0.5840 -0.4985  0.2924
  692TMC3    C610234   2.464   3.962  15.912 -0.3870 -0.3479  0.3499
  692TMC3     C10235   2.135   4.079  16.108 -0.0705 -0.3329 -0.2322
  692TMC3     O10236   2.172   4.109  16.222 -0.0316  0.2021  0.0442
  692TMC3     H10237   2.359   4.204  16.100 -2.2748 -1.3121  0.5788
  692TMC3    H110238   2.129   3.924  15.889  0.7846 -0.8118 -0.8424
  692TMC3    H210239   2.548   3.893  15.913 -1.9668 -2.2419  1.7467
  692TMC3    C710240   2.335   3.775  15.825  0.5705 -0.3002 -0.6295
  692TMC3    C810241   2.591   4.054  16.083  0.3251 -0.4050  0.1280
  692TMC3    O110242   2.244   3.756  15.741 -0.0630 -0.0594 -0.1107
  692TMC3    O210243   2.691   4.014  16.027  0.0883 -0.0860 -0.4449
  693MPD2     C10244   1.448   2.609  11.201  0.1867 -0.6789  0.1701
  693MPD2    C110245   1.410   2.509  11.113  0.5228  0.5956 -0.4117
  693MPD2    C210246   1.493   2.404  11.089 -0.2113  0.2801  0.2518
  693MPD2    C310247   1.605   2.391  11.177  0.3254  0.1442  0.6672
  693MPD2    C410248   1.638   2.487  11.267 -0.0602 -0.0827  0.0630
  693MPD2    C510249   1.558   2.596  11.283  0.4651  0.4780  0.4054
  693MPD2     H10250   1.456   2.327  11.022 -0.8313 -0.2570  1.2223
  693MPD2    H110251   1.722   2.484  11.335  0.3421 -1.2469 -0.4821
  693MPD2    H210252   1.382   2.694  11.212  0.1537 -0.9809  2.2165
  693MPD2    H310253   1.584   2.670  11.357 -1.9181  0.9764  0.7596
  693MPD2     N10254   1.686   2.281  11.181 -0.3689 -0.2105  0.1766
  693MPD2    H510255   1.764   2.271  11.245 -0.0803 -2.2409 -0.4965
  693MPD2    N110256   1.289   2.536  11.037 -0.2715  0.3065 -0.4811
  693MPD2    H710257   1.225   2.608  11.069 -1.6766 -1.4059  0.5747
  694TMC3    C110258   1.104   2.487  10.903 -0.3282 -0.0681 -0.1568
  694TMC3    C210259   1.063   2.395  10.811 -0.2965  0.3900 -0.0726
  694TMC3    C310260   0.938   2.343  10.833  0.9233 -0.3803 -0.0750
  694TMC3    C410261   1.024   2.525  11.005  0.2152 -0.2814  0.1137
  694TMC3    C510262   0.896   2.472  11.013  0.3198 -0.4041  0.3128
  694TMC3    C610263   0.848   2.379  10.929 -0.0409  0.0632 -0.7967
  694TMC3     C10264   1.246   2.468  10.924  0.4482  0.5214 -0.0837
  694TMC3     O10265   1.312   2.389  10.853  0.2021 -0.2415 -0.7247
  694TMC3     H10266   1.128   2.360  10.732 -0.0067 -1.3561  0.9297
  694TMC3    H110267   1.037   2.611  11.070 -0.7097  1.9859 -2.7129
  694TMC3    H210268   0.755   2.328  10.952  0.0642 -0.2718 -1.1297
  694TMC3    C710269   0.839   2.489  11.139  0.3827 -0.9947  0.8952
  694TMC3    C810270   0.903   2.214  10.765  0.0030  0.2156  0.4089
  694TMC3    O110271   0.833   2.600  11.180 -1.1088 -0.2672  0.4051
  694TMC3    O210272   0.834   2.134  10.835 -0.1547 -0.6558  0.0206
  695MPD2     C10273   2.812   3.669  13.306  0.2762  0.8388  0.1451
  695MPD2    C110274   2.798   3.723  13.432  0.1190  0.4834 -0.8131
  695MPD2    C210275   2.677   3.756  13.479 -0.2731 -0.4385  0.1469
  695MPD2    C310276   2.562   3.724  13.417  0.3807  0.2581 -1.2767
  695MPD2    C410277   2.566   3.660  13.295  0.6764  0.1851 -1.3475
  695MPD2    C510278   2.691   3.640  13.238  0.1750 -0.1862 -0.0634
  695MPD2     H10279   2.652   3.814  13.567  2.6574 -0.6102  1.1065
  695MPD2    H110280   2.482   3.647  13.228 -0.6836  2.2724 -0.0387
  695MPD2    H210281   2.902   3.642  13.251  1.1846  1.2304  1.4483
  695MPD2    H310282   2.718   3.582  13.151  3.4079  0.4867  0.4626
  695MPD2     N10283   2.448   3.764  13.485 -1.0895  0.4261 -0.1210
  695MPD2    H510284   2.460   3.801  13.578 -1.1474  2.4045 -0.8904
  695MPD2    N110285   2.906   3.741  13.520 -0.5939  0.0873  0.4779
  695MPD2    H710286   2.888   3.773  13.615  1.1647 -1.1511  1.2126
  696TMC3    C110287   2.243   3.817  13.552 -0.5135  0.4419 -0.1865
  696TMC3    C210288   2.274   3.783  13.680 -0.5607 -0.2073  0.3704
  696TMC3    C310289   2.181   3.821  13.776  0.0907 -0.0567 -0.0667
  696TMC3    C410290   2.144   3.896  13.512  0.0900  0.5009 -0.7682
  696TMC3    C510291   2.062   3.947  13.608  0.1375 -0.4196 -0.4583
  696TMC3    C610292   2.069   3.899  13.739  0.6637 -0.5559 -0.4400
  696TMC3     C10293   2.317   3.756  13.445  0.0446 -0.1281  0.0495
  696TMC3     O10294   2.262   3.711  13.348 -0.3747 -0.0060  0.3779
  696TMC3     H10295   2.359   3.719  13.700 -0.4368 -0.0964  0.1953
  696TMC3    H110296   2.147   3.946  13.416  1.8129  2.9073  0.5384
  696TMC3    H210297   2.004   3.932  13.820 -0.2607 -2.1270 -0.5407
  696TMC3    C710298   1.997   4.071  13.572  0.4596 -0.1711  0.0120
  696TMC3    C810299   2.220   3.811  13.914 -0.4548  0.2626 -0.4005
  696TMC3    O110300   1.968   4.101  13.455 -0.0875 -0.5130 -0.1263
  696TMC3    O210301   2.161   3.884  13.993  0.3629  0.1473 -0.4382
  697MPD2     C10302   1.807   0.815  15.979  0.7179  0.1540 -0.2992
  697MPD2    C110303   1.787   0.778  15.846 -0.7303  0.5158 -0.2086
  697MPD2    C210304   1.792   0.874  15.752 -0.3867  0.2062  0.2092
  697MPD2    C310305   1.835   1.003  15.774  0.1541  0.2634  0.4576
  697MPD2    C410306   1.860   1.038  15.904 -0.5546 -0.5638 -0.9765
  697MPD2    C510307   1.835   0.945  16.004 -0.1118  0.9086 -0.1237
  697MPD2     H10308   1.774   0.839  15.651 -1.8972  3.2476 -0.5663
  697MPD2    H110309   1.899   1.135  15.936  0.2818 -0.7183 -1.5359
  697MPD2    H210310   1.804   0.755  16.069 -2.7367  0.4628 -0.2020
  697MPD2    H310311   1.863   0.977  16.104  1.5362  1.0652 -0.6441
  697MPD2     N10312   1.854   1.091  15.666  0.6013 -0.1158 -0.3811
  697MPD2    H510313   1.825   1.056  15.576  0.8219 -1.1396 -0.0599
  697MPD2    N110314   1.756   0.651  15.795 -0.2988 -0.0118  0.2310
  697MPD2    H710315   1.737   0.634  15.696 -1.4878 -0.1992  0.4937
  698TMC3    C110316   1.934   1.277  15.556 -0.0227 -0.0090  0.2740
  698TMC3    C210317   1.981   1.408  15.568  0.0407  0.1830 -1.3375
  698TMC3    C310318   2.074   1.458  15.479 -1.3988  0.4285  0.3370
  698TMC3    C410319   1.990   1.193  15.456 -0.1212  0.3625  0.0215
  698TMC3    C510320   2.087   1.245  15.374  0.5798 -0.3223 -0.2455
  698TMC3    C610321   2.126   1.376  15.386 -0.0267 -0.2688 -0.0091
  698TMC3     C10322   1.892   1.215  15.681  0.5360 -0.3863 -0.2279
  698TMC3     O10323   1.896   1.291  15.782  0.2599  0.0209 -0.4165
  698TMC3     H10324   1.935   1.481  15.634 -0.0907 -2.7851  1.8221
  698TMC3    H110325   1.967   1.088  15.444 -0.1934  0.3486  0.2943
  698TMC3    H210326   2.198   1.408  15.312  1.8228 -2.6193  0.7682
  698TMC3    C710327   2.119   1.176  15.249 -0.4290  0.5090  0.3465
  698TMC3    C810328   2.053   1.590  15.432 -0.5795  0.1337 -0.7660
  698TMC3    O110329   2.235   1.181  15.217  0.5788  0.3340 -0.6185
  698TMC3    O210330   1.931   1.616  15.423  0.6170  0.1694 -0.0640
  699TMC3    C110331   1.920   3.765  13.275  0.0219  0.1214  0.8046
  699TMC3    C210332   1.970   3.664  13.354 -0.2861 -0.4336  0.3210
  699TMC3    C310333   1.901   3.633  13.465 -0.5686 -0.3531 -0.5491
  699TMC3    C410334   1.814   3.842  13.323  0.5892 -0.0241  0.5902
  699TMC3    C510335   1.753   3.810  13.446 -0.5176 -0.9309  0.3262
  699TMC3    C610336   1.794   3.702  13.516  0.0844 -0.0928 -0.9660
  699TMC3     C10337   1.976   3.817  13.153 -0.7931  0.0810 -0.4339
  699TMC3     O10338   1.908   3.889  13.078  0.0059  0.3302  0.3309
  699TMC3     H10339   2.043   3.598  13.307 -0.5374 -0.3586 -0.1771
  699TMC3    H110340   1.787   3.928  13.263  3.7250 -0.1526 -1.0457
  699TMC3    H210341   1.748   3.680  13.611 -0.5743  0.6391 -1.1127
  699TMC3    C710342   1.682   3.905  13.529  0.0883  0.5853  0.3843
  699TMC3    C810343   1.973   3.565  13.577 -0.6326  0.5169 -0.4499
  699TMC3    O110344   1.695   3.893  13.649 -0.2642 -0.5175 -0.5585
  699TMC3    O210345   1.915   3.570  13.686  0.1587  0.0162 -0.3781
  700TMC3    C110346   1.137   1.674  17.247  0.8578 -0.4741 -0.7477
  700TMC3    C210347   1.153   1.536  17.245 -0.7669 -0.7956 -0.9184
  700TMC3    C310348   1.212   1.485  17.359  0.0734 -0.3559  0.0571
  700TMC3    C410349   1.179   1.753  17.352 -0.0282  0.0305 -0.2185
  700TMC3    C510350   1.223   1.694  17.464  0.3762 -0.4020  0.3789
  700TMC3    C610351   1.249   1.562  17.464  0.8728  0.3699 -0.0086
  700TMC3     C10352   1.132   1.736  17.118 -0.2474 -0.5043 -0.2820
  700TMC3     O10353   1.054   1.697  17.036 -0.0072 -0.3604  0.0126
  700TMC3     H10354   1.121   1.488  17.153  1.5697 -1.6849 -1.2567
  700TMC3    H110355   1.152   1.858  17.347  1.5958  0.5226  1.1933
  700TMC3    H210356   1.308   1.526  17.547 -0.4151  0.3097  0.8827
  700TMC3    C710357   1.246   1.769  17.587  1.0334 -0.1773  0.5689
  700TMC3    C810358   1.288   1.363  17.336 -0.2499 -0.2905  0.1189
  700TMC3    O110359   1.246   1.706  17.692 -0.3194 -0.1956  0.0547
  700TMC3    O210360   1.390   1.335  17.393 -0.0913  0.3129  0.1485
  701TMC3    C110361   1.196   0.008  15.781 -0.2932 -0.6716  0.8482
  701TMC3    C210362   1.230   4.652  15.677  0.0812 -0.0930  0.4094
  701TMC3    C310363   1.319   4.712  15.588 -0.3540 -0.3851  0.9424
  701TMC3    C410364   1.253   0.128  15.804  0.3610 -0.1062 -0.6023
  701TMC3    C510365   1.343   0.185  15.707 -0.4263  0.5190 -0.2168
  701TMC3    C610366   1.381   0.107  15.603  0.3938 -0.1735 -0.7315
  701TMC3     C10367   1.104   4.692  15.890  0.8275  0.6012 -0.3165
  701TMC3     O10368   1.080   0.049  15.977 -0.1011 -0.2370 -0.5500
  701TMC3     H10369   1.187   4.554  15.659 -0.8929  0.5852 -0.9415
  701TMC3    H110370   1.224   0.192  15.887  1.7022 -1.6044  1.0170
  701TMC3    H210371   1.447   0.142  15.524  2.3876 -0.3549  0.8502
  701TMC3    C710372   1.381   0.317  15.712 -0.5221  0.3413  0.6550
  701TMC3    C810373   1.353   4.629  15.474 -0.3618 -0.2289  0.1644
  701TMC3    O110374   1.418   0.373  15.605 -0.8671  0.0861  0.1760
  701TMC3    O210375   1.471   4.634  15.445 -0.0516 -0.3462 -0.1791
  702MPD2     C10376   0.290   2.389  10.578 -0.3304 -0.1122  0.0100
  702MPD2    C110377   0.340   2.468  10.681  0.3082  0.0234  0.5393
  702MPD2    C210378   0.413   2.581  10.645 -0.2493 -0.4175  0.0007
  702MPD2    C310379   0.429   2.615  10.517  0.5146 -1.0751  0.1559
  702MPD2    C410380   0.382   2.530  10.416 -0.3805 -1.1136 -0.2078
  702MPD2    C510381   0.313   2.423  10.453  0.0056 -0.1285 -0.0720
  702MPD2     H10382   0.442   2.651  10.721  0.3375 -0.9407  0.2612
  702MPD2    H110383   0.405   2.540  10.310  0.0236  1.1932  0.0909
  702MPD2    H210384   0.235   2.297  10.594 -0.5718  0.4375  2.3090
  702MPD2    H310385   0.287   2.341  10.386 -0.2069 -0.3622  0.2970
  702MPD2     N10386   0.495   2.738  10.500  0.5901  0.2371 -0.0898
  702MPD2    H510387   0.507   2.795  10.583 -0.0212  1.2671 -0.7042
  702MPD2    N110388   0.300   2.451  10.820 -0.0779  0.1180 -0.3293
  702MPD2    H710389   0.342   2.520  10.881 -1.6713  0.4806  0.3453
  703TMC3    C110390   0.570   2.920  10.383 -0.0955 -0.3822 -0.5741
  703TMC3    C210391   0.462   2.979  10.451 -0.4191 -0.3945 -0.4787
  703TMC3    C310392   0.481   3.079  10.540 -0.5416 -0.3753  0.5907
  703TMC3    C410393   0.696   2.960  10.417 -0.0789 -0.0076  0.1465
  703TMC3    C510394   0.710   3.045  10.527  0.2454 -0.3118 -0.7727
  703TMC3    C610395   0.608   3.117  10.585  0.2740  0.0053 -0.4220
  703TMC3     C10396   0.555   2.775  10.378 -0.0458 -0.6575 -0.5076
  703TMC3     O10397   0.573   2.705  10.276  0.6591 -0.3598 -0.0995
  703TMC3     H10398   0.366   2.938  10.423  0.0815 -0.8885 -1.4572
  703TMC3    H110399   0.782   2.917  10.367 -0.7161  1.9027 -2.5940
  703TMC3    H210400   0.608   3.198  10.657  1.1872 -0.9667  0.6717
  703TMC3    C710401   0.843   3.099  10.542 -0.5408  0.4368  0.6747
  703TMC3    C810402   0.387   3.083  10.651  0.3494 -0.3327  0.0450
  703TMC3    O110403   0.921   3.109  10.449  0.5023  0.1125  0.1559
  703TMC3    O210404   0.406   3.146  10.753  0.1062 -0.2550  0.2090
  704TMC3    C110405   3.136   1.039  12.822 -0.6163 -0.3880  0.2101
  704TMC3    C210406   3.258   1.049  12.767  0.1410  0.1509 -0.1185
  704TMC3    C310407   3.352   0.961  12.812  0.1241  0.1835 -0.4224
  704TMC3    C410408   3.092   0.939  12.909 -0.4316  0.1241  0.4827
  704TMC3    C510409   3.192   0.848  12.946  0.3335 -0.2306  0.3322
  704TMC3    C610410   3.321   0.859  12.897 -0.6960 -0.8301  0.2277
  704TMC3     C10411   3.024   1.087  12.733  0.2708 -0.1817 -0.5656
  704TMC3     O10412   2.917   1.113  12.785  0.0534  0.1219 -0.1549
  704TMC3     H10413   3.294   1.134  12.710  0.6336 -1.0430 -1.5823
  704TMC3    H110414   2.996   0.945  12.959 -0.4686 -2.0605  0.6446
  704TMC3    H210415   3.392   0.784  12.928  1.9385  1.4070 -0.3666
  704TMC3    C710416   3.139   0.710  12.955  0.7369 -0.0426  1.0318
  704TMC3    C810417   3.464   0.940  12.726 -0.6862 -0.0041  0.2382
  704TMC3    O110418   3.223   0.629  12.920  0.2265  0.3261  0.0045
  704TMC3    O210419   3.444   0.977  12.610  0.2102 -0.3944 -0.9222
  705MPD2     C10420   2.988   3.429  16.746  0.3351  0.0582  0.1158
  705MPD2    C110421   2.912   3.482  16.645 -0.8377 -0.2844  0.7098
  705MPD2    C210422   2.775   3.498  16.675  0.1441 -0.2583  0.6784
  705MPD2    C310423   2.730   3.481  16.804  0.2546  0.6310 -0.3061
  705MPD2    C410424   2.816   3.444  16.907  0.1335  0.1442  0.5678
  705MPD2    C510425   2.944   3.419  16.877 -0.1989 -0.4360  0.2981
  705MPD2     H10426   2.713   3.535  16.595  0.5717 -0.1260  0.4072
  705MPD2    H110427   2.786   3.415  17.007 -1.2871  0.4429  0.2249
  705MPD2    H210428   3.089   3.395  16.728  0.4461  0.6576 -0.3748
  705MPD2    H310429   3.005   3.363  16.948  3.0906  2.2704 -0.3970
  705MPD2     N10430   2.596   3.479  16.848 -0.4092 -0.0101  0.2251
  705MPD2    H510431   2.569   3.467  16.945 -0.3407  0.6902  0.3257
  705MPD2    N110432   2.958   3.493  16.511 -0.0853  0.8869  0.2683
  705MPD2    H710433   2.890   3.519  16.441 -1.5990 -1.4471  0.8688
  706TMC3    C110434   3.204   3.447  16.123 -0.5364  0.3704  0.2655
  706TMC3    C210435   3.151   3.552  16.068 -0.2958 -0.0914  0.8213
  706TMC3    C310436   3.072   3.633  16.142 -0.3349  0.3051 -0.0281
  706TMC3    C410437   3.172   3.406  16.251  0.0537 -0.9647  0.1153
  706TMC3    C510438   3.099   3.491  16.325 -0.0905 -0.2974  0.1202
  706TMC3    C610439   3.045   3.606  16.279  0.4718 -0.2503  0.0427
  706TMC3     C10440   3.307   3.367  16.056 -0.0354  0.4675  0.0533
  706TMC3     O10441   3.412   3.363  16.112 -0.5806 -0.0123  0.3976
  706TMC3     H10442   3.182   3.585  15.969 -1.3879 -0.7591  0.2613
  706TMC3    H110443   3.228   3.324  16.296  2.8799  0.5646 -0.6054
  706TMC3    H210444   2.968   3.668  16.322  0.4401 -0.0921 -0.2395
  706TMC3    C710445   3.084   3.449  16.464  0.1562 -0.1811 -0.2012
  706TMC3    C810446   3.043   3.764  16.089 -0.8348  0.7469  0.1678
  706TMC3    O110447   3.182   3.400  16.514  0.3208  0.2164  0.2497
  706TMC3    O210448   2.988   3.776  15.976  0.0990  0.2052  0.2112
  707TMC3    C110449   0.269   2.284   1.445 -0.2239 -0.0920  0.7121
  707TMC3    C210450   0.352   2.221   1.530  0.2375 -0.3834 -0.3686
  707TMC3    C310451   0.326   2.212   1.663 -0.1387  1.0962 -0.0702
  707TMC3    C410452   0.153   2.348   1.504  0.0418 -0.1735  0.0467
  707TMC3    C510453   0.135   2.337   1.638  0.6586  0.2898 -0.1624
  707TMC3    C610454   0.220   2.271   1.723  0.9844  0.4021 -0.9763
  707TMC3     C10455   0.276   2.249   1.305 -0.9012 -0.4255  0.2903
  707TMC3     O10456   0.360   2.173   1.272  0.4148  0.6413 -0.2360
  707TMC3     H10457   0.448   2.187   1.491  0.0003  0.2006 -1.4351
  707TMC3    H110458   0.086   2.409   1.445  2.6339 -0.5896 -3.3376
  707TMC3    H210459   0.194   2.255   1.827  2.0250  0.3973 -0.7235
  707TMC3    C710460   0.047   2.438   1.690  0.3306  0.6302 -0.2165
  707TMC3    C810461   0.402   2.120   1.746 -0.1432  0.4498  0.3004
  707TMC3    O110462   4.709   2.504   1.612  0.1765  0.1044  0.0444
  707TMC3    O210463   0.364   2.103   1.859 -0.6960  0.7807  0.3656
  708MPD2     C10464   1.226   1.760  14.176  0.0493 -0.1810 -0.5949
  708MPD2    C110465   1.176   1.881  14.133  1.0403  0.5307 -1.0596
  708MPD2    C210466   1.129   1.973  14.225 -0.0135  0.0619 -0.0326
  708MPD2    C310467   1.141   1.947  14.363 -0.1701 -0.2011 -0.7343
  708MPD2    C410468   1.190   1.821  14.406  0.1615  0.4166  0.7411
  708MPD2    C510469   1.233   1.737  14.314 -0.1109  0.6207  0.5136
  708MPD2     H10470   1.109   2.075  14.194  0.0832 -0.1515 -0.7936
  708MPD2    H110471   1.175   1.792  14.509  0.1201 -2.8583 -0.1886
  708MPD2    H210472   1.272   1.688  14.110 -0.9390 -0.3379 -1.1130
  708MPD2    H310473   1.272   1.641  14.345 -2.4317 -0.0044  1.5407
  708MPD2     N10474   1.090   2.044  14.458 -0.2784 -0.2549 -0.4667
  708MPD2    H510475   1.050   2.128  14.416 -0.2201 -0.2002 -0.4114
  708MPD2    N110476   1.155   1.891  13.993 -0.0510  0.8319 -0.0715
  708MPD2    H710477   1.147   1.803  13.943 -0.9033  0.8150  0.0923
  709TMC3    C110478   1.027   1.993  13.825 -1.0226  0.2584  0.1631
  709TMC3    C210479   1.022   2.087  13.727 -0.0487  0.0409  0.4444
  709TMC3    C310480   0.908   2.154  13.703  0.3817  0.4384  0.5553
  709TMC3    C410481   0.909   1.940  13.892  0.2844  0.6692 -0.2959
  709TMC3    C510482   0.800   2.019  13.864 -0.1255 -0.3837  0.1841
  709TMC3    C610483   0.796   2.126  13.779  0.1134 -0.5665 -1.2361
  709TMC3     C10484   1.127   2.013  13.924 -0.1652 -0.0217 -0.2261
  709TMC3     O10485   1.175   2.121  13.946 -0.1593 -0.2944 -0.0242
  709TMC3     H10486   1.112   2.128  13.683  0.7525 -0.9378  1.1541
  709TMC3    H110487   0.911   1.869  13.973  1.7913 -1.4038 -2.1613
  709TMC3    H210488   0.700   2.169  13.752 -0.9014 -0.5653  2.4700
  709TMC3    C710489   0.723   2.026  13.980 -0.7124  0.1160 -0.0133
  709TMC3    C810490   0.882   2.217  13.575 -0.1537  0.7083  0.2209
  709TMC3    O110491   0.740   1.956  14.077 -0.1972  0.2503  0.3855
  709TMC3    O210492   0.804   2.310  13.575 -0.2264  0.6741 -0.6537
  710TMC3    C110493   2.255   3.979   1.145 -0.7012  1.5435  0.2706
  710TMC3    C210494   2.362   3.933   1.080 -0.1309 -0.3169  0.2396
  710TMC3    C310495   2.468   3.891   1.155 -0.9269 -0.7459  0.8270
  710TMC3    C410496   2.250   3.993   1.280  0.0484  0.2527  0.3176
  710TMC3    C510497   2.345   3.937   1.351 -0.6694  0.2366  0.1382
  710TMC3    C610498   2.460   3.889   1.290  1.1012 -0.6528 -0.3532
  710TMC3     C10499   2.140   4.019   1.054  0.2388  0.3926  0.5097
  710TMC3     O10500   2.162   4.004   0.934 -0.1423  0.4415  0.5386
  710TMC3     H10501   2.360   3.918   0.973 -0.3793  1.0034  0.0601
  710TMC3    H110502   2.161   4.024   1.334  0.6431  5.3484 -1.5981
  710TMC3    H210503   2.531   3.835   1.352  1.2389 -0.1896 -0.1147
  710TMC3    C710504   2.293   3.848   1.455 -0.2217  0.6014 -0.4653
  710TMC3    C810505   2.578   3.827   1.080  0.3415 -0.1177 -0.0711
  710TMC3    O110506   2.321   3.731   1.442 -0.1883  0.5765 -0.3301
  710TMC3    O210507   2.573   3.808   0.959 -0.0656  0.2100 -0.3788
  711TMC3    C110508   1.778   4.556  15.152  0.7580  0.2570  0.3936
  711TMC3    C210509   1.767   4.574  15.291  0.1222 -0.4287  0.4229
  711TMC3    C310510   1.879   4.607  15.357 -0.5975 -0.2575  0.5741
  711TMC3    C410511   1.898   4.551  15.086 -0.2863 -0.6596  0.4250
  711TMC3    C510512   2.001   4.566  15.164 -0.1174  0.7169 -0.1920
  711TMC3    C610513   1.995   4.611  15.289 -0.2114  0.2144  0.5684
  711TMC3     C10514   1.685   4.481  15.077 -0.4280  0.5043 -0.4415
  711TMC3     O10515   1.642   4.532  14.977 -0.3785  0.2188 -0.1686
  711TMC3     H10516   1.673   4.564  15.345  0.5342 -2.3188  0.8076
  711TMC3    H110517   1.895   4.507  14.987 -0.1802 -2.1170  1.0750
  711TMC3    H210518   2.078   4.651  15.346  1.4099 -0.9571 -0.9565
  711TMC3    C710519   2.105   4.459  15.150 -0.4114  0.2193 -0.1565
  711TMC3    C810520   1.889   4.582  15.496  0.1323 -0.2430  0.0417
  711TMC3    O110521   2.155   4.437  15.259  0.1506 -0.3074  0.2398
  711TMC3    O210522   1.789   4.604  15.565 -0.1970 -0.2425 -0.2567
  712MPD2     C10523   2.797   0.465  13.969  0.4565 -0.2107  0.5237
  712MPD2    C110524   2.755   0.579  13.912  0.2765 -0.7103  0.2525
  712MPD2    C210525   2.826   0.701  13.935  0.3704  0.7933  0.1811
  712MPD2    C310526   2.937   0.705  14.024  0.9293 -0.0616 -0.7916
  712MPD2    C410527   2.986   0.589  14.074  0.5585 -0.0985  0.0239
  712MPD2    C510528   2.915   0.468  14.047  0.4588  0.3140 -0.2435
  712MPD2     H10529   2.789   0.797  13.901 -0.8067  0.0736 -0.5390
  712MPD2    H110530   3.078   0.594  14.131  0.9922 -1.9837 -0.5015
  712MPD2    H210531   2.754   0.366  13.959  1.5556 -0.5531 -0.7885
  712MPD2    H310532   2.971   0.378  14.068  1.5127  0.3663 -2.8222
  712MPD2     N10533   3.004   0.826  14.061 -0.0918 -0.7603 -0.2536
  712MPD2    H510534   3.096   0.824  14.103  0.7866 -0.3171 -2.1510
  712MPD2    N110535   2.640   0.576  13.836  0.3664 -0.3886 -0.0272
  712MPD2    H710536   2.585   0.493  13.857  0.4865 -1.4556 -3.9083
  713TMC3    C110537   3.047   1.052  14.094  1.0167  0.0430  0.2906
  713TMC3    C210538   3.180   1.033  14.082  0.4830  0.3747  0.1997
  713TMC3    C310539   3.263   1.138  14.099  0.2301  1.1179 -1.1424
  713TMC3    C410540   3.003   1.179  14.101  0.2398 -0.4374 -0.3123
  713TMC3    C510541   3.090   1.284  14.109  0.5558  0.1534 -0.3064
  713TMC3    C610542   3.225   1.262  14.114 -0.1440  0.0726 -0.3366
  713TMC3     C10543   2.954   0.951  14.046 -0.0868  0.4353  0.0330
  713TMC3     O10544   2.850   0.986  13.987  0.0371  0.8491 -0.2721
  713TMC3     H10545   3.226   0.935  14.091 -0.0711  0.0360 -0.6657
  713TMC3    H110546   2.896   1.194  14.095  0.1197 -2.1960 -2.5405
  713TMC3    H210547   3.285   1.352  14.109 -2.9638  1.9275 -0.7414
  713TMC3    C710548   3.048   1.408  14.168  0.4008  0.3620  0.0041
  713TMC3    C810549   3.406   1.119  14.083 -0.1831  1.0523  0.0259
  713TMC3    O110550   3.127   1.452  14.254  0.1828 -0.1369  0.0628
  713TMC3    O210551   3.470   1.224  14.084  0.7132  0.2570  0.0955
  714MPD2     C10552   4.661   4.173   1.723  0.1894  0.5036  0.2905
  714MPD2    C110553   0.007   4.079   1.653  0.0475 -0.1285  0.2366
  714MPD2    C210554   0.003   4.080   1.515 -0.2870  0.0542 -0.7725
  714MPD2    C310555   4.649   4.175   1.446 -0.2608 -0.7299 -0.2848
  714MPD2    C410556   4.577   4.267   1.517 -0.1711 -0.1929  0.7039
  714MPD2    C510557   4.578   4.263   1.651 -0.2411  0.3420 -0.6348
  714MPD2     H10558   0.063   4.006   1.462 -0.6662 -1.7631  1.3676
  714MPD2    H110559   4.520   4.344   1.465 -1.1703  0.0682  2.2141
  714MPD2    H210560   4.665   4.174   1.832 -2.4677  0.4367  0.3922
  714MPD2    H310561   4.510   4.337   1.693  1.4381  1.4461  0.1371
  714MPD2     N10562   4.641   4.187   1.304  0.1646  0.1258  0.6389
  714MPD2    H510563   4.555   4.233   1.279  0.5486  1.0077  0.9413
  714MPD2    N110564   0.090   3.991   1.725 -0.4931 -0.2905 -0.2784
  714MPD2    H710565   0.103   4.006   1.824  1.4089 -0.4149 -0.5020
  715TMC3    C110566   0.265   3.844   1.755 -0.1954  0.1993  0.0159
  715TMC3    C210567   0.322   3.721   1.731  0.6273  0.2308 -0.7495
  715TMC3    C310568   0.412   3.678   1.822 -0.5201 -0.3017  0.4155
  715TMC3    C410569   0.322   3.939   1.839 -0.4450 -0.4629  0.4738
  715TMC3    C510570   0.416   3.884   1.930 -0.2354  0.1991  0.1380
  715TMC3    C610571   0.459   3.756   1.923  0.5498 -0.2991 -0.2213
  715TMC3     C10572   0.161   3.889   1.670  0.0772 -0.0272  0.3500
  715TMC3     O10573   0.133   3.816   1.576  0.3566  0.4376 -0.2700
  715TMC3     H10574   0.296   3.645   1.658  0.9570 -0.0526 -0.5721
  715TMC3    H110575   0.287   4.041   1.853  1.9471 -0.0327  3.2610
  715TMC3    H210576   0.536   3.738   1.997  1.2354 -1.0500 -1.1153
  715TMC3    C710577   0.478   3.967   2.028 -0.2747  0.1568 -0.0207
  715TMC3    C810578   0.489   3.569   1.782 -0.4282 -0.4632 -0.6107
  715TMC3    O110579   0.571   3.925   2.086  0.0837  0.5421 -0.0272
  715TMC3    O210580   0.480   3.536   1.664  0.3276 -0.1117 -0.9969
  716MPD2     C10581   0.794   2.464  10.199  0.0553  0.3967 -0.3766
  716MPD2    C110582   0.767   2.498  10.066 -0.5426 -0.1600  0.3103
  716MPD2    C210583   0.785   2.400   9.967 -0.3107 -0.1060  0.0295
  716MPD2    C310584   0.842   2.278  10.000  0.0606 -0.0109 -0.1060
  716MPD2    C410585   0.871   2.249  10.133  0.0698  0.1011  0.0999
  716MPD2    C510586   0.846   2.342  10.231 -0.1565  0.7986  0.3891
  716MPD2     H10587   0.765   2.408   9.861 -0.5145 -1.4372 -0.0339
  716MPD2    H110588   0.910   2.155  10.169 -0.4963  0.0167  0.4903
  716MPD2    H210589   0.787   2.534  10.282  0.5302 -1.0646  0.9028
  716MPD2    H310590   0.844   2.319  10.337 -0.7968  1.0050  0.4261
  716MPD2     N10591   0.849   2.180   9.898 -0.4419  0.3138 -0.5688
  716MPD2    H510592   0.816   2.207   9.806  0.0484  0.7209 -0.6253
  716MPD2    N110593   0.699   2.616  10.040 -0.3597 -0.3277  0.9064
  716MPD2    H710594   0.649   2.657  10.119  0.3296 -1.3573  1.8675
  717TMC3    C110595   0.885   1.977   9.790 -0.6622  0.2024 -0.0633
  717TMC3    C210596   0.817   2.027   9.679  0.5162 -0.0685  0.2143
  717TMC3    C310597   0.777   1.931   9.586  0.0685 -0.9001 -0.6154
  717TMC3    C410598   0.940   1.851   9.788  0.0270  0.0417  0.0178
  717TMC3    C510599   0.926   1.771   9.683  0.1864 -0.0556  0.3038
  717TMC3    C610600   0.833   1.805   9.593  0.1141  0.2899  0.4395
  717TMC3     C10601   0.902   2.050   9.913  0.1289 -0.3091 -0.5134
  717TMC3     O10602   0.959   1.995  10.009  0.0512  0.2239 -0.1893
  717TMC3     H10603   0.776   2.127   9.676 -0.7886 -0.6355 -0.8900
  717TMC3    H110604   0.993   1.827   9.879 -0.9128 -1.6632  0.1136
  717TMC3    H210605   0.819   1.738   9.508  2.4161 -0.0772  0.3394
  717TMC3    C710606   0.986   1.640   9.679  0.3943 -0.4610 -0.4047
  717TMC3    C810607   0.684   1.980   9.487 -0.5716 -0.3206 -0.2923
  717TMC3    O110608   0.951   1.568   9.589 -0.0765 -0.4922 -0.2594
  717TMC3    O210609   0.634   2.090   9.502  0.8187  0.0029 -0.0987
  718MPD2     C10610   3.814   1.880  12.868  0.2322  0.1701 -0.2998
  718MPD2    C110611   3.907   1.783  12.857  0.6243 -0.3887 -0.2033
  718MPD2    C210612   3.940   1.719  12.969 -1.1537  0.7036  0.5348
  718MPD2    C310613   3.885   1.749  13.096 -0.1534  0.0409 -0.5944
  718MPD2    C410614   3.805   1.857  13.105 -0.5866 -0.1561  0.0963
  718MPD2    C510615   3.769   1.921  12.991  0.0300  0.5400 -0.2434
  718MPD2     H10616   4.003   1.632  12.959  1.3766  2.3354  2.3524
  718MPD2    H110617   3.772   1.891  13.202 -2.6199 -0.4999 -0.4765
  718MPD2    H210618   3.763   1.917  12.780  0.5480  0.1192 -0.5068
  718MPD2    H310619   3.696   2.002  12.988 -0.4306  0.1823  1.0479
  718MPD2     N10620   3.944   1.682  13.205  0.0382  0.4923  0.3047
  718MPD2    H510621   3.993   1.598  13.178 -0.5427 -0.4384  2.1921
  718MPD2    N110622   3.975   1.753  12.740 -0.0639 -0.2595 -0.2870
  718MPD2    H710623   4.042   1.678  12.748 -1.3261 -1.3491  0.1092
  719TMC3    C110624   4.089   1.781  12.550  0.3690 -0.4454 -0.0841
  719TMC3    C210625   4.114   1.648  12.561 -0.1879  0.1490 -0.6669
  719TMC3    C310626   4.234   1.592  12.597 -0.7076 -0.9751  0.5038
  719TMC3    C410627   4.196   1.867  12.542 -0.5004 -0.7835 -0.3781
  719TMC3    C510628   4.318   1.812  12.584 -1.3279  0.6245  0.2309
  719TMC3    C610629   4.334   1.681  12.625 -0.4098  0.5801  0.1605
  719TMC3     C10630   3.976   1.829  12.622 -0.0346  0.1163 -0.0145
  719TMC3     O10631   3.944   1.950  12.606 -0.3995 -0.1185  0.2602
  719TMC3     H10632   4.027   1.584  12.561  0.8117 -1.1957 -0.7828
  719TMC3    H110633   4.178   1.973  12.529 -0.8720 -0.3241  3.6589
  719TMC3    H210634   4.428   1.637  12.659  0.4051  1.7269 -0.5934
  719TMC3    C710635   4.435   1.878  12.529 -0.6271  0.5044 -0.0475
  719TMC3    C810636   4.218   1.495  12.704 -0.0798 -0.6478  0.7310
  719TMC3    O110637   4.548   1.858  12.576  0.2589 -0.1386  0.3326
  719TMC3    O210638   4.109   1.506  12.757  0.0724  0.2093 -0.2847
  720MPD2     C10639   3.320   2.564  13.988  0.3673  0.2247 -0.2973
  720MPD2    C110640   3.416   2.606  13.897 -0.3828  0.0643  0.1088
  720MPD2    C210641   3.548   2.611  13.939 -0.6206 -0.4646  0.5123
  720MPD2    C310642   3.585   2.574  14.067 -0.4882  0.5209 -0.6202
  720MPD2    C410643   3.479   2.522  14.149  0.3372  0.2777 -0.1872
  720MPD2    C510644   3.351   2.518  14.110  0.7351 -0.0092  0.6554
  720MPD2     H10645   3.623   2.643  13.868 -1.4790  2.0318  0.7455
  720MPD2    H110646   3.504   2.495  14.251  0.8950 -0.5472 -0.5412
  720MPD2    H210647   3.214   2.558  13.968  0.7076  1.0882 -2.3247
  720MPD2    H310648   3.269   2.488  14.175 -1.5182  0.0956 -2.1443
  720MPD2     N10649   3.720   2.586  14.104  0.8645  0.0312  0.5745
  720MPD2    H510650   3.784   2.617  14.031 -0.8030  1.9235 -0.0773
  720MPD2    N110651   3.384   2.653  13.763  0.3335 -0.5637  0.4528
  720MPD2    H710652   3.464   2.680  13.707  0.7849 -1.3616  0.7102
  721TMC3    C110653   3.908   2.559  14.259 -0.2132 -0.0716  0.3006
  721TMC3    C210654   3.958   2.501  14.379  0.4774 -0.0772  0.4060
  721TMC3    C310655   4.087   2.513  14.408  0.3051 -0.5572  0.2985
  721TMC3    C410656   3.995   2.626  14.176  0.7643  0.4114  0.1698
  721TMC3    C510657   4.129   2.625  14.211  0.1048  0.0208 -0.5788
  721TMC3    C610658   4.173   2.574  14.330 -0.4912  0.2970 -0.0025
  721TMC3     C10659   3.768   2.553  14.228 -0.3047 -0.2966  0.2456
  721TMC3     O10660   3.712   2.520  14.328  0.2642  0.1278 -0.5259
  721TMC3     H10661   3.891   2.435  14.432 -0.3659 -0.0697 -0.6652
  721TMC3    H110662   3.948   2.686  14.099 -0.3514  0.8374  1.1647
  721TMC3    H210663   4.276   2.594  14.358 -0.1223 -0.1437 -1.0407
  721TMC3    C710664   4.219   2.695  14.127  0.0523  0.4866  0.4244
  721TMC3    C810665   4.130   2.489  14.541 -0.4865 -0.1960 -0.4358
  721TMC3    O110666   4.334   2.700  14.174 -0.2746 -0.1459  0.4003
  721TMC3    O210667   4.248   2.481  14.545  0.6974  0.3384  0.1296
  722MPD2     C10668   1.954   1.790  13.808  0.0313  0.6271  0.2210
  722MPD2    C110669   2.001   1.861  13.706 -1.2018  0.2192 -0.1164
  722MPD2    C210670   1.917   1.877  13.593  0.3907 -0.1181  0.3880
  722MPD2    C310671   1.801   1.801  13.570  0.4057  0.2331 -0.1989
  722MPD2    C410672   1.761   1.713  13.672 -0.0003  0.1777 -0.4281
  722MPD2    C510673   1.835   1.712  13.790 -0.1273  0.2709 -0.2674
  722MPD2     H10674   1.953   1.934  13.508  1.3334 -1.3547 -0.0523
  722MPD2    H110675   1.667   1.659  13.670 -1.8180  3.2650  1.3015
  722MPD2    H210676   2.009   1.781  13.900  0.4933  1.3742  0.0198
  722MPD2    H310677   1.801   1.644  13.867 -2.5117  1.9558  0.1760
  722MPD2     N10678   1.727   1.805  13.448  0.1446  0.1366 -0.8992
  722MPD2    H510679   1.738   1.882  13.383 -0.0336 -0.5270 -1.7220
  722MPD2    N110680   2.124   1.931  13.706 -0.1931  0.3687 -0.4802
  722MPD2    H710681   2.148   1.984  13.623 -0.6835 -2.4507 -2.4086
  723TMC3    C110682   1.569   1.762  13.285 -0.3929 -0.3471  0.1282
  723TMC3    C210683   1.534   1.675  13.191  0.3788 -0.1012 -0.1420
  723TMC3    C310684   1.469   1.718  13.079 -0.1190 -0.1156  0.6994
  723TMC3    C410685   1.530   1.895  13.273  0.5051  0.0518 -1.2070
  723TMC3    C510686   1.461   1.934  13.164  0.3248  1.4280  0.0774
  723TMC3    C610687   1.437   1.845  13.061 -0.4493  0.1081 -0.4566
  723TMC3     C10688   1.633   1.717  13.410  0.1510  0.1091  0.4201
  723TMC3     O10689   1.630   1.597  13.437  0.1369  0.3349 -0.1349
  723TMC3     H10690   1.555   1.569  13.196 -0.3375 -0.2083  0.6420
  723TMC3    H110691   1.550   1.957  13.360 -2.0075  0.0469 -0.6359
  723TMC3    H210692   1.373   1.881  12.981 -0.0926 -1.3241 -1.3795
  723TMC3    C710693   1.404   2.068  13.151 -0.2416  0.9415 -0.0160
  723TMC3    C810694   1.442   1.626  12.969  0.1756  1.0269  0.2035
  723TMC3    O110695   1.407   2.126  13.039 -0.3081 -0.3129  0.2085
  723TMC3    O210696   1.416   1.680  12.861  0.7020  0.0831  0.0006
  724TMC3    C110697   2.335   4.408  10.591  0.6499 -0.0348  0.9413
  724TMC3    C210698   2.366   4.436  10.457  0.5981 -0.1348  0.0783
  724TMC3    C310699   2.426   4.559  10.441 -0.1305 -0.0352 -1.0203
  724TMC3    C410700   2.327   4.505  10.687  0.2113  0.1455  0.2567
  724TMC3    C510701   2.382   4.628  10.664  0.1166 -0.1940 -0.1901
  724TMC3    C610702   2.427   4.657  10.536 -0.3181  0.2914 -0.4570
  724TMC3     C10703   2.299   4.272  10.633 -0.0693  0.2862 -0.6110
  724TMC3     O10704   2.316   4.238  10.750 -0.7782 -0.3402 -0.1432
  724TMC3     H10705   2.386   4.362  10.380 -2.5672  0.0668 -0.9579
  724TMC3    H110706   2.290   4.485  10.787 -1.4346  1.1747 -0.1586
  724TMC3    H210707   2.458   0.034  10.519 -0.0319  0.1815 -0.5868
  724TMC3    C710708   2.461   4.692  10.766  0.4098  0.6225  0.2350
  724TMC3    C810709   2.459   4.596  10.298 -0.5403  0.4354  0.7911
  724TMC3    O110710   2.565   0.013  10.722  0.1957 -0.5084  0.4949
  724TMC3    O210711   2.398   4.529  10.216  0.1053 -0.1459  0.2413
  725TMC3    C110712   3.730   3.094  13.070  0.1465  0.2051 -0.2027
  725TMC3    C210713   3.629   3.141  12.985 -0.1621  0.4374  0.2134
  725TMC3    C310714   3.547   3.043  12.931  0.4048  0.4544 -0.0283
  725TMC3    C410715   3.750   2.963  13.102 -0.3138 -0.0505 -0.8189
  725TMC3    C510716   3.668   2.873  13.036 -0.7626  0.2697  0.5336
  725TMC3    C610717   3.568   2.909  12.945 -0.6556  0.3459  0.2612
  725TMC3     C10718   3.838   3.194  13.098  0.6973 -0.2359 -0.5514
  725TMC3     O10719   3.837   3.297  13.031  0.0760 -0.4087 -0.9700
  725TMC3     H10720   3.605   3.247  12.985 -0.1386  0.4361 -1.5554
  725TMC3    H110721   3.828   2.926  13.167 -0.9457  1.0008  0.5382
  725TMC3    H210722   3.505   2.831  12.901 -1.1726 -0.3239  2.1977
  725TMC3    C710723   3.736   2.751  13.004 -0.3372  0.0239  0.4887
  725TMC3    C810724   3.474   3.081  12.818  0.7679  0.4345 -0.3183
  725TMC3    O110725   3.794   2.693  13.099  0.4028  0.5119  0.3809
  725TMC3    O210726   3.381   3.003  12.799 -0.4220  0.1783  0.1896
  726MPD2     C10727   1.620   4.531  10.384 -0.0204  0.4256  0.1496
  726MPD2    C110728   1.606   4.569  10.514  0.0884 -0.8227  0.0745
  726MPD2    C210729   1.511   4.501  10.602 -0.3802 -0.3328  0.6126
  726MPD2    C310730   1.431   4.403  10.542  0.5238  0.2461 -0.1675
  726MPD2    C410731   1.443   4.375  10.409 -0.3004  0.2970  0.5068
  726MPD2    C510732   1.532   4.443  10.330  0.0919  0.4464  0.1368
  726MPD2     H10733   1.502   4.533  10.705 -0.1643  2.2355 -0.1809
  726MPD2    H110734   1.368   4.318  10.355  1.7743 -2.0552  0.1220
  726MPD2    H210735   1.687   4.581  10.314  0.3338 -1.6906 -1.0168
  726MPD2    H310736   1.527   4.415  10.225  0.0579 -0.8456  0.4856
  726MPD2     N10737   1.330   4.333  10.613  0.2011  0.7277  0.0259
  726MPD2    H510738   1.269   4.269  10.564 -0.2491  0.7097  0.6001
  726MPD2    N110739   1.690   4.674  10.557  0.5409  0.5835  0.4077
  726MPD2    H710740   1.756   4.713  10.490  1.3580  2.3847  2.2517
  727TMC3    C110741   1.779   0.128  10.670 -0.8614 -0.2618  0.6996
  727TMC3    C210742   1.808   0.184  10.787  0.4537 -0.1690  0.7985
  727TMC3    C310743   1.868   0.306  10.779  0.4611  0.2939 -0.2930
  727TMC3    C410744   1.784   0.197  10.548  1.1495 -0.3962 -0.3547
  727TMC3    C510745   1.840   0.322  10.547 -0.4907 -0.1333 -1.2566
  727TMC3    C610746   1.890   0.377  10.667  0.1488  0.5209  0.1352
  727TMC3     C10747   1.700   0.005  10.682 -0.1759  0.1690  0.0815
  727TMC3     O10748   1.645   4.698  10.788  0.3307  0.0784 -0.4073
  727TMC3     H10749   1.785   0.135  10.881 -1.4085  2.9570  1.9625
  727TMC3    H110750   1.745   0.151  10.458 -0.8126 -0.6477  0.6132
  727TMC3    H210751   1.939   0.473  10.679  0.8999  0.1039  0.3956
  727TMC3    C710752   1.846   0.398  10.422  0.8722  0.4195 -0.1810
  727TMC3    C810753   1.915   0.372  10.902  0.0631  0.7014  0.0456
  727TMC3    O110754   1.772   0.362  10.332 -0.1987  0.0492  0.2075
  727TMC3    O210755   1.956   0.489  10.894 -0.6064  0.3444 -0.2421
  728TMC3    C110756   1.314   3.403  15.446 -0.1290  0.4266  0.5166
  728TMC3    C210757   1.433   3.425  15.390 -0.3689 -0.3296  1.5090
  728TMC3    C310758   1.437   3.450  15.258 -0.1151  0.0624 -0.4332
  728TMC3    C410759   1.200   3.410  15.380 -0.5323 -0.0851  0.2567
  728TMC3    C510760   1.207   3.419  15.247  0.4041 -0.1626 -0.0036
  728TMC3    C610761   1.325   3.437  15.181  0.2936  0.5679  0.6444
  728TMC3     C10762   1.316   3.374  15.590 -0.2963 -1.0921  0.2313
  728TMC3     O10763   1.420   3.396  15.656 -0.6151 -0.4741  0.0581
  728TMC3     H10764   1.518   3.436  15.457 -0.3059 -2.4993  1.7664
  728TMC3    H110765   1.106   3.410  15.432 -1.0704  0.9149 -0.7336
  728TMC3    H210766   1.333   3.459  15.076 -0.3791  1.6351  0.8166
  728TMC3    C710767   1.083   3.450  15.181  0.1188  0.7148 -0.2712
  728TMC3    C810768   1.563   3.472  15.190 -0.3922 -0.3275  0.2668
  728TMC3    O110769   0.981   3.438  15.248  0.0206 -0.3108 -0.5484
  728TMC3    O210770   1.585   3.447  15.072  0.1668  0.9270  0.6040
  729MPD2     C10771   3.054   4.510  17.145  1.1281  0.6755 -0.3122
  729MPD2    C110772   3.083   4.375  17.143 -0.4960 -0.1347 -0.3150
  729MPD2    C210773   3.074   4.305  17.263  0.0148 -0.2946  0.4490
  729MPD2    C310774   3.052   4.373  17.386  0.8328  0.7400 -0.0807
  729MPD2    C410775   3.030   4.510  17.380  0.0548  0.0781  0.2572
  729MPD2    C510776   3.037   4.576  17.263 -0.7258  0.0136 -0.1353
  729MPD2     H10777   3.098   4.200  17.264 -0.6361 -0.4777 -3.3938
  729MPD2    H110778   3.014   4.563  17.473 -0.3393 -0.9505  0.7829
  729MPD2    H210779   3.059   4.568  17.053  0.4547 -0.7603 -1.2483
  729MPD2    H310780   3.030   4.684  17.269 -2.1614 -0.1189  0.7361
  729MPD2     N10781   3.072   4.310  17.508  0.1464  0.2200  0.1513
  729MPD2    H510782   3.052   4.363  17.593 -1.7305  0.0575 -0.1949
  729MPD2    N110783   3.105   4.322  17.018  0.0458 -0.5709  0.1148
  729MPD2    H710784   3.098   4.395  16.948  0.0111 -1.4082 -0.7549
  730TMC3    C110785   3.218   4.194  17.656  0.0777 -0.2468 -0.1861
  730TMC3    C210786   3.344   4.145  17.632 -0.4276  0.5491 -0.1488
  730TMC3    C310787   3.444   4.234  17.599 -0.3763  0.2766  0.3302
  730TMC3    C410788   3.208   4.321   0.010 -0.3447  0.0703  0.0009
  730TMC3    C510789   3.311   4.409  17.697  0.0676  0.1110 -0.1089
  730TMC3    C610790   3.427   4.365  17.629  0.4345 -0.1644  0.1700
  730TMC3     C10791   3.150   4.197  17.523  0.0836  0.8260 -0.0979
  730TMC3     O10792   3.195   4.119  17.444 -0.2350 -0.1727  0.4942
  730TMC3     H10793   3.345   4.044  17.593  1.2260  0.9337 -1.1020
  730TMC3    H110794   3.116   4.348   0.061 -2.0805 -0.4063 -2.8724
  730TMC3    H210795   3.506   4.440  17.628 -0.1017  0.3732 -1.8326
  730TMC3    C710796   3.297   4.557  17.691 -0.3519 -0.0459 -0.1196
  730TMC3    C810797   3.516   4.200  17.478 -0.2298 -0.1243 -0.5843
  730TMC3    O110798   3.397   4.627  17.671 -0.0750  0.2778 -0.6108
  730TMC3    O210799   3.521   4.083  17.442  0.0243 -0.5111 -0.6026
  731MPD2     C10800   2.714   2.836  12.524  0.4227 -0.0207  0.2531
  731MPD2    C110801   2.692   2.713  12.478 -0.6119  0.2240 -0.1430
  731MPD2    C210802   2.714   2.600  12.562  0.9225  0.2052 -0.3564
  731MPD2    C310803   2.753   2.625  12.694  0.3152 -1.1461 -0.6319
  731MPD2    C410804   2.771   2.755  12.740 -0.5039  0.0171 -0.8307
  731MPD2    C510805   2.751   2.859  12.652  0.3017  0.3967  0.4300
  731MPD2     H10806   2.697   2.498  12.531  0.3977  0.7173 -1.7510
  731MPD2    H110807   2.804   2.782  12.840  0.2178 -1.0043 -0.7831
  731MPD2    H210808   2.720   2.911  12.447  0.6948 -0.9163 -0.5926
  731MPD2    H310809   2.789   2.957  12.678  1.9680  0.3327 -1.7308
  731MPD2     N10810   2.793   2.515  12.770  0.6586 -0.4724 -0.1142
  731MPD2    H510811   2.772   2.426  12.726 -1.3581 -0.4284  0.7948
  731MPD2    N110812   2.644   2.680  12.343  0.5707 -0.1609  0.1520
  731MPD2    H710813   2.617   2.584  12.322  4.2020 -1.4086  1.0646
  732TMC3    C110814   2.588   2.710  12.117  0.0497  0.5222  0.2637
  732TMC3    C210815   2.481   2.630  12.116 -0.0896  0.4151  0.7921
  732TMC3    C310816   2.455   2.558  11.999 -0.5665  0.1113  0.5868
  732TMC3    C410817   2.671   2.718  12.009 -0.3667  1.0079 -0.9232
  732TMC3    C510818   2.641   2.650  11.898  0.2317 -0.0547  0.0258
  732TMC3    C610819   2.530   2.574  11.893  1.0233 -0.5071 -0.5900
  732TMC3     C10820   2.622   2.776  12.244  0.7558 -0.2150 -0.0320
  732TMC3     O10821   2.668   2.893  12.232  0.2167 -0.4036  0.5309
  732TMC3     H10822   2.419   2.626  12.205 -1.9537  1.6133 -0.4570
  732TMC3    H110823   2.749   2.794  12.019  1.5667 -1.3575  1.9932
  732TMC3    H210824   2.513   2.508  11.809  0.8659 -0.0501 -0.9205
  732TMC3    C710825   2.742   2.578  11.833  0.4606  0.2700  0.4440
  732TMC3    C810826   2.419   2.423  12.029  0.2358 -0.4817 -0.2961
  732TMC3    O110827   2.721   2.543  11.720  0.2456  0.0161  0.0927
  732TMC3    O210828   2.510   2.336  12.019 -0.4403 -0.4325 -0.0326
  733TMC3    C110829   3.944   1.386  13.541  0.0812 -0.2239  0.2570
  733TMC3    C210830   3.904   1.510  13.510 -0.7536  0.6760  0.0672
  733TMC3    C310831   3.977   1.570  13.410 -0.0739 -0.0667  0.7043
  733TMC3    C410832   4.053   1.322  13.492 -0.0919  0.0472  0.4889
  733TMC3    C510833   4.136   1.388  13.410  0.0221  0.4569  0.4867
  733TMC3    C610834   4.103   1.521  13.373 -0.0837  0.8148 -1.4419
  733TMC3     C10835   3.830   1.301  13.558 -0.2919  0.0331  1.3044
  733TMC3     O10836   3.743   1.335  13.642  0.5257  0.1208 -0.0365
  733TMC3     H10837   3.801   1.537  13.532 -0.7881  1.8262 -1.5832
  733TMC3    H110838   4.067   1.219  13.521  0.7120 -0.3828 -1.4141
  733TMC3    H210839   4.164   1.586  13.311 -1.0914  1.3934 -1.8140
  733TMC3    C710840   4.230   1.317  13.328 -0.2308 -0.1358  0.3256
  733TMC3    C810841   3.908   1.681  13.331  0.3277  0.4108 -0.2475
  733TMC3    O110842   4.305   1.232  13.383 -0.2033  0.2124  0.1208
  733TMC3    O210843   3.824   1.741  13.392  0.5057 -0.1138 -0.0130
  734MPD2     C10844   1.513   3.917  12.442  0.2309  0.0084  0.1995
  734MPD2    C110845   1.428   3.828  12.377  0.0425 -0.8809 -0.6297
  734MPD2    C210846   1.430   3.814  12.242  0.0836 -0.2043  0.1512
  734MPD2    C310847   1.523   3.883  12.170  0.6354  0.6174 -0.0816
  734MPD2    C410848   1.618   3.966  12.235 -0.6157 -0.2089 -0.1387
  734MPD2    C510849   1.613   3.981  12.368  0.2460  0.0746  0.1498
  734MPD2     H10850   1.370   3.737  12.194 -1.8338  1.7840 -0.6395
  734MPD2    H110851   1.698   4.016  12.181 -1.2392  0.1206 -0.7598
  734MPD2    H210852   1.507   3.936  12.549  2.9648 -1.4037  0.5909
  734MPD2    H310853   1.683   4.049  12.416 -1.1239  1.4055  0.2202
  734MPD2     N10854   1.522   3.856  12.027 -0.4684  0.2388  0.3669
  734MPD2    H510855   1.458   3.780  12.007 -1.3453  0.2245  3.2141
  734MPD2    N110856   1.329   3.763  12.452  0.2598 -0.5561  0.0093
  734MPD2    H710857   1.334   3.756  12.553  1.1505 -1.3410 -0.0920
  735TMC3    C110858   1.108   3.671  12.483  0.3812  0.3394  0.1476
  735TMC3    C210859   0.983   3.677  12.425  1.0438  0.2916  0.4029
  735TMC3    C310860   0.909   3.566  12.399 -0.6442  0.7245 -0.2020
  735TMC3    C410861   1.156   3.553  12.536  0.6740  0.4325  0.7969
  735TMC3    C510862   1.078   3.441  12.509  0.1729 -0.6027  0.3833
  735TMC3    C610863   0.959   3.445  12.440  0.0011  0.2799 -0.0105
  735TMC3     C10864   1.208   3.726  12.390 -0.2647 -0.1513 -0.2209
  735TMC3     O10865   1.157   3.756  12.282 -0.0691  0.4486 -0.8016
  735TMC3     H10866   0.944   3.772  12.392  0.9139 -0.1839 -0.8332
  735TMC3    H110867   1.248   3.548  12.593 -0.0589  0.4473  2.0025
  735TMC3    H210868   0.907   3.352  12.417  0.4493 -0.2051  0.9178
  735TMC3    C710869   1.145   3.312  12.533  0.4435 -0.0761 -0.3311
  735TMC3    C810870   0.843   3.576  12.274  0.0550  0.2623  0.4303
  735TMC3    O110871   1.263   3.321  12.539 -0.1262 -0.2220 -0.3051
  735TMC3    O210872   0.744   3.511  12.241  0.3643  0.0690  0.6544
  736MPD2     C10873   1.033   2.958  12.594 -0.6276  0.1667  0.5776
  736MPD2    C110874   1.122   3.062  12.569  0.4047  0.0439 -0.0333
  736MPD2    C210875   1.250   3.025  12.538  0.0654 -0.9914 -0.1816
  736MPD2    C310876   1.285   2.891  12.527  0.3795 -0.4633  0.1329
  736MPD2    C410877   1.189   2.793  12.559  0.7045  0.0455  0.0141
  736MPD2    C510878   1.062   2.825  12.588 -0.7322 -1.5560  0.5853
  736MPD2     H10879   1.316   3.107  12.514 -1.0180 -0.3961 -1.1223
  736MPD2    H110880   1.194   2.685  12.549 -0.6068 -0.0338  0.1448
  736MPD2    H210881   0.928   2.978  12.610 -0.3425  0.2960  2.3651
  736MPD2    H310882   0.996   2.740  12.600 -1.0045 -1.7465 -2.2441
  736MPD2     N10883   1.414   2.837  12.485 -0.1799 -0.5751 -0.2850
  736MPD2    H510884   1.421   2.736  12.472 -1.4829 -0.6814 -0.1310
  736MPD2    N110885   1.069   3.197  12.559  0.8782 -0.5629  0.3537
  736MPD2    H710886   0.970   3.213  12.578  0.9510  0.3535 -0.0668
  737TMC3    C110887   1.630   2.833  12.385  0.3420 -0.9585 -0.3578
  737TMC3    C210888   1.728   2.911  12.328 -0.4593  0.6598  0.9714
  737TMC3    C310889   1.832   2.846  12.266  0.0820  0.6694 -0.2651
  737TMC3    C410890   1.632   2.699  12.391  0.0209  0.4047 -0.7907
  737TMC3    C510891   1.746   2.635  12.338  0.1975  0.4385 -0.4119
  737TMC3    C610892   1.843   2.711  12.273  0.0992  0.3617 -0.0052
  737TMC3     C10893   1.516   2.916  12.438  0.3538  1.6118 -0.9290
  737TMC3     O10894   1.531   3.039  12.448 -0.4454  0.1660  0.2707
  737TMC3     H10895   1.717   3.019  12.322 -3.3457  0.3564  0.9303
  737TMC3    H110896   1.558   2.635  12.438  0.5068  0.6343  0.2715
  737TMC3    H210897   1.935   2.666  12.236 -0.3026  1.4909 -2.3794
  737TMC3    C710898   1.728   2.499  12.319  0.9996  1.0412 -0.0365
  737TMC3    C810899   1.951   2.926  12.227  0.1699 -0.3961 -1.0207
  737TMC3    O110900   1.666   2.430  12.396 -0.3927  0.1386  0.0130
  737TMC3    O210901   2.058   2.868  12.224  0.5329  0.1627 -0.5997
  738MPD2     C10902   2.068   1.852  15.308  0.0305 -0.3296  0.6189
  738MPD2    C110903   2.178   1.779  15.333  0.7892  0.0722 -0.0020
  738MPD2    C210904   2.306   1.813  15.288  0.0763 -0.1573 -0.7573
  738MPD2    C310905   2.307   1.914  15.194 -0.5875  0.4211  0.8195
  738MPD2    C410906   2.196   1.985  15.156 -0.5915  0.2496 -0.6759
  738MPD2    C510907   2.081   1.954  15.213 -0.0940  0.2633  0.2812
  738MPD2     H10908   2.395   1.754  15.307  0.6359  0.8386 -0.2757
  738MPD2    H110909   2.198   2.071  15.091  1.7583 -0.0589 -1.0160
  738MPD2    H210910   1.967   1.832  15.343 -0.2156 -0.4734 -0.1724
  738MPD2    H310911   1.992   2.003  15.177 -0.0137 -1.1843 -1.8746
  738MPD2     N10912   2.428   1.945  15.130 -0.2285  0.3874 -0.1034
  738MPD2    H510913   2.415   2.016  15.059 -1.3621  0.3063  0.0316
  738MPD2    N110914   2.175   1.654  15.400 -0.4280  0.3942 -0.1458
  738MPD2    H710915   2.262   1.611  15.429 -0.4055  0.4339 -0.1554
  739TMC3    C110916   2.647   1.975  15.080 -0.1711 -0.3328  0.1474
  739TMC3    C210917   2.647   1.971  14.944  0.3175  0.3780 -0.2581
  739TMC3    C310918   2.758   2.015  14.874  0.4371 -0.4301  0.8071
  739TMC3    C410919   2.752   2.030  15.142 -0.2904 -0.3770  0.3622
  739TMC3    C510920   2.865   2.079  15.074 -0.0637 -0.2777  0.8155
  739TMC3    C610921   2.867   2.074  14.935  0.7190  0.1510  0.1360
  739TMC3     C10922   2.555   1.902  15.160 -0.2475 -0.3251  0.4244
  739TMC3     O10923   2.600   1.842  15.255 -0.9777  0.1621  0.3026
  739TMC3     H10924   2.568   1.924  14.887  0.0162  0.0405  0.4341
  739TMC3    H110925   2.738   2.043  15.249  0.7462  1.3716  0.2807
  739TMC3    H210926   2.946   2.119  14.875 -0.4705  1.3736 -0.5149
  739TMC3    C710927   2.933   2.184  15.140 -0.2420 -0.0808 -0.5023
  739TMC3    C810928   2.745   2.035  14.731 -0.4271  0.4972  0.4072
  739TMC3    O110929   2.965   2.277  15.065  0.7181 -0.0403  0.1022
  739TMC3    O210930   2.659   1.956  14.685  0.4836 -0.1342 -0.0841
  740TMC3    C110931   3.353   3.255  14.149  0.2319  0.1359 -0.3974
  740TMC3    C210932   3.392   3.181  14.256 -0.1231  0.2984  0.8060
  740TMC3    C310933   3.471   3.077  14.235 -0.4167 -0.0014  0.1373
  740TMC3    C410934   3.386   3.230  14.020  0.0204 -1.1375 -1.0374
  740TMC3    C510935   3.468   3.120  14.001 -0.2931  0.5278  0.2696
  740TMC3    C610936   3.510   3.050  14.110  0.1910 -0.0666  1.3876
  740TMC3     C10937   3.264   3.366  14.191 -0.8361  0.4353  0.0751
  740TMC3     O10938   3.271   3.466  14.121 -0.0021 -0.1034  0.1794
  740TMC3     H10939   3.370   3.202  14.360 -0.5636  2.1072  0.3359
  740TMC3    H110940   3.358   3.297  13.939  0.8140  0.8227  0.2877
  740TMC3    H210941   3.574   2.966  14.084 -0.8624 -1.2780  2.6986
  740TMC3    C710942   3.503   3.073  13.868  0.3454 -0.3590  0.1166
  740TMC3    C810943   3.544   3.007  14.340  0.1832  0.0454  0.4964
  740TMC3    O110944   3.599   2.999  13.850  0.3939 -0.0335 -0.0911
  740TMC3    O210945   3.472   2.956  14.423 -0.6880  0.3032  0.3143
  741TMC3    C110946   2.482   2.793  14.067 -0.0668 -0.2505 -0.0184
  741TMC3    C210947   2.398   2.711  14.141  0.3625 -0.5663 -0.1345
  741TMC3    C310948   2.454   2.614  14.219 -0.0801 -0.3215 -0.1622
  741TMC3    C410949   2.611   2.772  14.076  0.1828  0.2137 -0.2564
  741TMC3    C510950   2.661   2.681  14.165  0.4070  0.0757 -0.0260
  741TMC3    C610951   2.588   2.597  14.237 -0.1305 -0.6607  0.5366
  741TMC3     C10952   2.433   2.893  13.976  0.2934 -1.0081  0.8036
  741TMC3     O10953   2.501   2.945  13.887 -0.3927 -0.1463 -0.0680
  741TMC3     H10954   2.290   2.719  14.129  0.4024  0.9598  0.5072
  741TMC3    H110955   2.677   2.841  14.024  0.1357  0.3842 -0.0896
  741TMC3    H210956   2.642   2.525  14.297 -1.7960 -0.9330  1.6869
  741TMC3    C710957   2.801   2.692  14.184  0.4636  0.3155  0.0687
  741TMC3    C810958   2.356   2.527  14.282 -0.2267  0.4368  0.4384
  741TMC3    O110959   2.865   2.755  14.102 -0.0264 -0.2734  0.0693
  741TMC3    O210960   2.241   2.536  14.243  0.8464  0.1070 -1.0722
  742TMC3    C110961   2.093   0.813  15.600 -0.2873  0.1889  0.0614
  742TMC3    C210962   2.000   0.784  15.499 -0.4450 -0.2868  0.0385
  742TMC3    C310963   2.028   0.816  15.372 -0.3279  0.3194  0.1778
  742TMC3    C410964   2.215   0.866  15.574 -0.7571  0.3883  0.5074
  742TMC3    C510965   2.248   0.885  15.441  0.1105 -0.2842 -0.2873
  742TMC3    C610966   2.154   0.857  15.341 -0.0435  0.0635  0.5512
  742TMC3     C10967   2.100   0.728  15.718 -0.3908 -0.4848  0.2048
  742TMC3     O10968   2.076   0.607  15.702  0.4912  0.4696 -0.6554
  742TMC3     H10969   1.917   0.719  15.524 -0.0767 -0.4578  0.8323
  742TMC3    H110970   2.291   0.885  15.649  0.9027 -2.8415 -0.3811
  742TMC3    H210971   2.185   0.841  15.239  1.2260  0.8491  0.8135
  742TMC3    C710972   2.389   0.861  15.424 -0.0637 -0.0925  0.0182
  742TMC3    C810973   1.965   0.748  15.265  0.1778 -0.0721  0.0127
  742TMC3    O110974   2.430   0.784  15.335 -0.1889  0.9581  0.2176
  742TMC3    O210975   2.030   0.689  15.181  0.1445 -0.0111 -0.4423
  743MPD2     C10976   1.428   1.250   1.618 -0.1187 -0.3603  0.8820
  743MPD2    C110977   1.407   1.387   1.592 -0.4099 -0.0745  0.3245
  743MPD2    C210978   1.492   1.475   1.653 -0.1169 -0.1000 -0.3936
  743MPD2    C310979   1.596   1.433   1.730 -0.4026 -0.6023  0.2938
  743MPD2    C410980   1.621   1.299   1.749  0.2132 -0.4286 -0.1716
  743MPD2    C510981   1.538   1.207   1.690 -0.0227  0.6368  0.9487
  743MPD2     H10982   1.473   1.582   1.648 -0.3155 -0.0485  1.4353
  743MPD2    H110983   1.705   1.261   1.805  0.4627  1.9698  1.1042
  743MPD2    H210984   1.368   1.177   1.564  0.3097 -0.0672 -0.0003
  743MPD2    H310985   1.543   1.104   1.723  0.3608  0.0653 -0.8922
  743MPD2     N10986   1.677   1.534   1.788 -0.2839 -0.1539  0.2696
  743MPD2    H510987   1.662   1.632   1.765  0.8854 -0.2825 -1.0221
  743MPD2    N110988   1.296   1.421   1.510  0.0874 -0.0043 -0.2018
  743MPD2    H710989   1.230   1.352   1.475 -0.8162  0.9050 -0.2959
  744TMC3    C110990   1.139   1.545   1.392  0.2942  0.3835 -0.1764
  744TMC3    C210991   1.035   1.581   1.473  0.4632  0.0759  0.1739
  744TMC3    C310992   0.912   1.591   1.419 -0.0571  0.7815 -0.1539
  744TMC3    C410993   1.119   1.536   1.259  0.3495  0.5346 -0.4563
  744TMC3    C510994   0.998   1.538   1.208 -0.5746  0.3766 -0.1610
  744TMC3    C610995   0.887   1.553   1.287 -0.5528 -0.0470  0.4631
  744TMC3     C10996   1.273   1.537   1.445  1.0699  0.1095  0.3002
  744TMC3     O10997   1.349   1.629   1.427 -0.0870 -0.1189 -0.2560
  744TMC3     H10998   1.045   1.583   1.581 -2.9639  0.6820  0.4861
  744TMC3    H110999   1.204   1.527   1.191  1.1634  0.5611  0.5563
  744TMC3    H211000   0.789   1.569   1.245 -0.5530  3.6715  1.8060
  744TMC3    C711001   0.986   1.533   1.058 -0.3203  0.2482 -0.1388
  744TMC3    C811002   0.788   1.641   1.483 -0.0577  0.0997  0.0893
  744TMC3    O111003   1.077   1.585   1.006 -0.6552 -0.3361  0.0210
  744TMC3    O211004   0.681   1.643   1.421  0.0226 -0.0888 -0.4156
  745TMC3    C111005   2.453   0.678  13.735  0.9001 -0.5474 -0.2716
  745TMC3    C211006   2.384   0.628  13.845 -0.5844  0.7954  0.0622
  745TMC3    C311007   2.275   0.705  13.900  0.4834  0.2943 -0.6304
  745TMC3    C411008   2.416   0.801  13.681  0.0372  0.1959  0.9109
  745TMC3    C511009   2.315   0.872  13.738  1.0734  0.3655 -0.3551
  745TMC3    C611010   2.232   0.823  13.838 -0.5188 -0.8165  0.3289
  745TMC3     C11011   2.595   0.668  13.742 -0.6280  0.1856  0.2233
  745TMC3     O11012   2.668   0.742  13.671  0.0653  0.1529  0.3727
  745TMC3     H11013   2.412   0.535  13.894 -0.5754  1.1469  0.7334
  745TMC3    H111014   2.477   0.843  13.602  0.7725 -0.3474  1.1920
  745TMC3    H211015   2.146   0.877  13.876  0.0146  0.7622 -0.7529
  745TMC3    C711016   2.291   1.002  13.675 -0.9834  0.7998 -0.1463
  745TMC3    C811017   2.245   0.702  14.037 -0.1679  0.1521  0.0716
  745TMC3    O111018   2.174   1.034  13.661 -0.2555 -0.2825  0.2760
  745TMC3    O211019   2.137   0.753  14.065 -0.5517 -0.1894 -0.0599
  746TMC3    C111020   0.151   2.548  11.183  0.7404  0.7079 -0.1938
  746TMC3    C211021   0.184   2.532  11.050 -0.0134 -0.3333 -0.3318
  746TMC3    C311022   0.159   2.403  11.002  0.1518  0.0663 -0.1317
  746TMC3    C411023   0.092   2.450  11.260  0.4955  0.0693 -0.3784
  746TMC3    C511024   0.065   2.330  11.203  0.0423  0.1634 -0.1067
  746TMC3    C611025   0.094   2.308  11.071  0.0137 -0.4996 -0.0032
  746TMC3     C11026   0.147   2.680  11.233 -0.8064 -0.1861 -0.2883
  746TMC3     O11027   0.056   2.711  11.316  0.3552 -0.5368 -0.2009
  746TMC3     H11028   0.213   2.618  10.991 -0.0224  0.5091  0.8881
  746TMC3    H111029   0.065   2.478  11.361  2.4745 -0.8629  0.4032
  746TMC3    H211030   0.049   2.220  11.026 -1.6530  0.8191 -0.9179
  746TMC3    C711031   4.673   2.260  11.254 -0.5887 -0.2845  0.2948
  746TMC3    C811032   0.207   2.367  10.869 -0.3944 -0.2620 -1.1191
  746TMC3    O111033   4.602   2.203  11.171  0.2744  0.2143 -0.2218
  746TMC3    O211034   0.165   2.257  10.825  0.0645  0.6202  0.2480
  747TMC3    C111035   2.134   2.371  11.438  0.6871 -0.2644 -0.5214
  747TMC3    C211036   2.057   2.347  11.551 -0.5025 -0.5636  0.0489
  747TMC3    C311037   2.110   2.290  11.661  0.5932  0.2150 -0.0969
  747TMC3    C411038   2.272   2.348  11.435  0.8993  0.4431 -0.1496
  747TMC3    C511039   2.315   2.292  11.552 -0.1616  0.3072 -0.0574
  747TMC3    C611040   2.242   2.258  11.663 -0.2604  0.2449 -0.2610
  747TMC3     C11041   2.059   2.377  11.313 -0.7696  0.2258  0.3862
  747TMC3     O11042   1.940   2.348  11.321  0.3888 -0.5661 -0.2945
  747TMC3     H11043   1.949   2.354  11.555 -0.2939  2.0253  1.1347
  747TMC3    H111044   2.345   2.383  11.364 -0.0187  1.3732 -0.6336
  747TMC3    H211045   2.290   2.211  11.748 -2.8234  0.2865  1.1781
  747TMC3    C711046   2.454   2.260  11.565  0.1304 -0.2748  0.5799
  747TMC3    C811047   2.036   2.319  11.789  0.0373 -0.0979 -0.0856
  747TMC3    O111048   2.503   2.251  11.679 -0.8480 -1.0023 -0.1148
  747TMC3    O211049   2.017   2.438  11.799 -0.1507 -0.6661 -0.1687
  748MPD2     C11050   4.184   3.274   2.026  0.5670  0.0270 -0.3346
  748MPD2    C111051   4.183   3.222   1.897 -0.0820  0.3312  0.2160
  748MPD2    C211052   4.290   3.149   1.851 -0.5936  0.3307  0.3050
  748MPD2    C311053   4.403   3.137   1.927 -0.5852  0.2836 -0.5268
  748MPD2    C411054   4.397   3.176   2.058 -0.4624  0.2087 -0.3359
  748MPD2    C511055   4.294   3.257   2.104 -0.2153  0.5435  0.3126
  748MPD2     H11056   4.298   3.111   1.750  0.5692  2.5838 -0.4624
  748MPD2    H111057   4.477   3.153   2.127 -0.4854 -2.8856 -1.3448
  748MPD2    H211058   4.110   3.341   2.067  0.3017  0.5172 -1.6258
  748MPD2    H311059   4.299   3.301   2.203 -0.6941  0.2717  0.4597
  748MPD2     N11060   4.518   3.076   1.869  0.2882  0.0325 -0.1074
  748MPD2    H511061   4.519   3.058   1.769  0.0507 -0.3623 -0.0404
  748MPD2    N111062   4.076   3.260   1.818 -0.2584  0.6300 -0.3827
  748MPD2    H711063   4.021   3.336   1.857 -2.7506 -1.6858  0.5597
  749TMC3    C111064   0.014   2.985   1.835  0.1794 -0.2068  0.0159
  749TMC3    C211065   0.094   2.881   1.875  0.1440  0.1751 -0.4335
  749TMC3    C311066   0.195   2.847   1.788 -0.1954  0.3251  0.1786
  749TMC3    C411067   0.015   3.038   1.712 -0.2540 -0.1960 -0.0093
  749TMC3    C511068   0.109   2.990   1.628  0.1528  0.1855 -0.2361
  749TMC3    C611069   0.210   2.895   1.661 -0.3554  0.9906  0.4500
  749TMC3     C11070   4.629   3.030   1.933 -0.2077  0.5113  0.0842
  749TMC3     O11071   4.661   3.025   2.053 -0.0325  0.0923  0.0418
  749TMC3     H11072   0.097   2.861   1.981  1.5689 -0.5559 -0.6226
  749TMC3    H111073   4.681   3.126   1.690 -0.5429 -0.2483  0.5792
  749TMC3    H211074   0.292   2.875   1.592  0.0169 -2.6840  1.9517
  749TMC3    C711075   0.121   3.064   1.504  0.4335 -0.5155 -0.0771
  749TMC3    C811076   0.287   2.743   1.842  0.3982  0.3810 -0.0436
  749TMC3    O111077   0.103   3.186   1.523  0.9158 -0.5871  0.2715
  749TMC3    O211078   0.283   2.731   1.962  0.4431 -0.5810  0.8752
  750MPD2     C11079   0.585   4.695  11.644  0.0596  1.1792  0.2878
  750MPD2    C111080   0.460   4.651  11.685 -0.0691 -0.0264 -0.1687
  750MPD2    C211081   0.379   4.568  11.611 -0.3927 -0.1606 -0.2682
  750MPD2    C311082   0.425   4.523  11.486 -0.2195 -0.8455 -0.9156
  750MPD2    C411083   0.554   4.565  11.450  0.0190  0.2444  0.3559
  750MPD2    C511084   0.631   4.648  11.525  0.2763  0.5995  0.2794
  750MPD2     H11085   0.274   4.560  11.639 -0.6702 -2.5935 -1.9441
  750MPD2    H111086   0.608   4.519  11.368  0.9196 -0.9357  1.6041
  750MPD2    H211087   0.650   0.035  11.701  2.4619 -0.7177 -0.2353
  750MPD2    H311088   0.733   4.679  11.504  0.3602  0.3261  0.2818
  750MPD2     N11089   0.361   4.427  11.407 -0.4335 -0.2761  0.3123
  750MPD2    H511090   0.396   4.411  11.313  0.1772 -0.9276  0.6508
  750MPD2    N111091   0.421   4.708  11.807  0.8622 -0.7406  0.2576
  750MPD2    H711092   0.489   0.047  11.844  0.6012  0.4514 -1.3264
  751TMC3    C111093   0.201   4.287  11.325  0.8675 -0.3262  0.5721
  751TMC3    C211094   0.073   4.261  11.303 -0.5774  0.2574 -0.1018
  751TMC3    C311095   0.030   4.201  11.184  0.3875 -0.2297  0.1377
  751TMC3    C411096   0.299   4.242  11.240  0.6155  0.2194  0.0096
  751TMC3    C511097   0.251   4.184  11.124  0.2825  0.0862 -0.9806
  751TMC3    C611098   0.126   4.166  11.097 -0.6238  0.5651 -0.3068
  751TMC3     C11099   0.237   4.371  11.436 -0.0508 -0.4287  0.3376
  751TMC3     O11100   0.165   4.370  11.537 -0.0407 -0.2091  0.5303
  751TMC3     H11101   0.009   4.329  11.359 -0.2560  0.8436 -0.4573
  751TMC3    H111102   0.406   4.255  11.257  0.6005 -0.1013  0.3530
  751TMC3    H211103   0.103   4.153  10.992 -1.0918 -2.0740  0.1384
  751TMC3    C711104   0.328   4.061  11.103 -0.1742  0.0789 -0.0556
  751TMC3    C811105   4.670   4.088  11.196  0.0624 -0.2620 -0.1988
  751TMC3    O111106   0.449   4.050  11.116 -0.4891  0.4134 -0.1150
  751TMC3    O211107   4.703   3.994  11.126  0.2579  0.2649  0.4819
  752TMC3    C111108   4.102   3.794  17.132 -0.4182 -0.0928 -0.1615
  752TMC3    C211109   4.239   3.755  17.122 -0.1222  0.3362 -0.1479
  752TMC3    C311110   4.280   3.660  17.213 -0.5257 -0.0698  0.0285
  752TMC3    C411111   4.019   3.756  17.225  0.4712 -0.2141  0.2431
  752TMC3    C511112   4.061   3.656  17.307  0.2870 -0.0150  0.6786
  752TMC3    C611113   4.191   3.601  17.301  0.5209  0.1243  0.7736
  752TMC3     C11114   4.055   3.841  17.003 -0.4986 -0.1530  0.1095
  752TMC3     O11115   4.134   3.840  16.909  0.5810 -0.2797 -0.3098
  752TMC3     H11116   4.302   3.781  17.037  1.1549 -2.4586 -0.0431
  752TMC3    H111117   3.918   3.790  17.242  0.4750  0.3780 -0.9321
  752TMC3    H211118   4.226   3.535  17.379 -0.0607  0.4677  1.3254
  752TMC3    C711119   3.972   3.631  17.417 -0.9116  0.1656 -0.2261
  752TMC3    C811120   4.421   3.618  17.211 -0.1577 -0.0841  0.3009
  752TMC3    O111121   3.889   3.714  17.447 -0.0002  0.2172  0.1764
  752TMC3    O211122   4.481   3.675  17.121 -0.5138 -0.5292 -0.1308
  753TMC3    C111123   0.927   0.656  13.763  0.5474  0.0280 -0.1213
  753TMC3    C211124   1.022   0.619  13.858 -0.0883  0.5404  0.2036
  753TMC3    C311125   1.007   0.494  13.903  0.0507 -1.2838  0.0476
  753TMC3    C411126   0.818   0.580  13.739  0.7884 -0.9231 -0.3260
  753TMC3    C511127   0.807   0.459  13.783  0.5619  0.5168  0.2413
  753TMC3    C611128   0.909   0.410  13.867  0.0253  0.1154 -0.9231
  753TMC3     C11129   0.938   0.785  13.693 -0.2737  0.0233 -0.4559
  753TMC3     O11130   0.911   0.794  13.572 -0.6168  0.0324  0.6969
  753TMC3     H11131   1.114   0.674  13.874  0.0692 -0.0469  1.2903
  753TMC3    H111132   0.747   0.620  13.668  0.4036  0.2033  0.7040
  753TMC3    H211133   0.900   0.314  13.915  0.3255  0.5696  0.0400
  753TMC3    C711134   0.698   0.375  13.760 -0.4430  0.1089  0.7227
  753TMC3    C811135   1.099   0.441  14.002 -0.2856 -0.6566 -0.2851
  753TMC3    O111136   0.672   0.295  13.852 -0.0259  0.1104  0.2162
  753TMC3    O211137   1.118   0.322  14.000  0.1685  0.0605 -0.3368
  754MPD2     C11138   4.643   4.182  13.624 -0.1238 -0.6561 -0.4607
  754MPD2    C111139   4.709   4.069  13.583 -0.4536  1.4001 -0.2016
  754MPD2    C211140   4.655   3.998  13.483  0.4926 -0.1994 -0.4680
  754MPD2    C311141   4.542   4.044  13.419 -0.2310 -0.1067 -0.4777
  754MPD2    C411142   4.475   4.156  13.459  0.4755  0.6220  0.2481
  754MPD2    C511143   4.527   4.225  13.565 -0.3177  0.4300  0.1753
  754MPD2     H11144   4.698   3.903  13.453 -0.5322 -0.6907 -0.3710
  754MPD2    H111145   4.393   4.196  13.400 -0.8372 -1.5744  0.5898
  754MPD2    H211146   4.678   4.240  13.709 -0.7948 -1.4786  0.3733
  754MPD2    H311147   4.478   4.315  13.602  1.6131  2.0875 -1.3222
  754MPD2     N11148   4.483   3.980  13.309 -0.2979  0.7042  0.1514
  754MPD2    H511149   4.396   4.012  13.269 -1.1162 -0.0495  1.3342
  754MPD2    N111150   0.100   4.035  13.664 -0.1895  0.0802  0.1987
  754MPD2    H711151   0.128   4.099  13.738 -4.0846  0.1149  1.6935
  755MPD2     C11152   3.964   4.433  13.107  0.8998  0.0722 -0.2536
  755MPD2    C111153   3.925   4.301  13.128  0.4448 -0.2163 -0.1219
  755MPD2    C211154   4.001   4.194  13.079  1.2884  0.0600  0.2193
  755MPD2    C311155   4.115   4.213  13.012  0.4127 -0.0310  0.3675
  755MPD2    C411156   4.156   4.350  12.995  0.0909 -0.0131 -0.2070
  755MPD2    C511157   4.080   4.457  13.041  0.2729  0.2254 -0.2164
  755MPD2     H11158   3.972   4.091  13.096 -0.9221  0.4299 -1.3547
  755MPD2    H111159   4.257   4.368  12.959  0.0514 -0.5073 -0.5720
  755MPD2    H211160   3.893   4.512  13.130  0.0581 -1.0172  0.9331
  755MPD2    H311161   4.119   4.558  13.038 -0.2331  0.4012 -0.8210
  755MPD2     N11162   4.201   4.110  12.976 -0.3513 -0.1192  0.0158
  755MPD2    H511163   4.291   4.132  12.934  0.8399 -1.0163  2.1363
  755MPD2    N111164   3.815   4.272  13.215  0.7222  0.3356 -0.1693
  755MPD2    H711165   3.794   4.173  13.221  0.8094  0.3709  0.7448
  756MPD2     C11166   0.315   4.660   9.716  0.3598 -0.4262  0.3451
  756MPD2    C111167   0.249   4.590   9.815  0.3650  0.4467  0.1156
  756MPD2    C211168   0.113   4.564   9.805 -0.2873 -0.9096 -0.7746
  756MPD2    C311169   0.043   4.614   9.696 -0.6736  0.8641 -0.0060
  756MPD2    C411170   0.105   4.696   9.605  0.5147 -0.6741 -0.3096
  756MPD2    C511171   0.244   4.706   9.614  0.1338  0.9379 -0.4091
  756MPD2     H11172   0.059   4.512   9.883 -0.1066  2.5289  1.6532
  756MPD2    H111173   0.063   0.012   9.514  0.4607 -1.3392 -0.5889
  756MPD2    H211174   0.419   4.692   9.723  0.9232 -2.1384 -0.1577
  756MPD2    H311175   0.298   0.038   9.540 -1.3803  0.7549 -1.6475
  756MPD2     N11176   4.633   4.589   9.684 -0.1076  0.0519  0.5317
  756MPD2    H511177   4.594   4.511   9.737 -3.4944  0.9137 -0.7363
  756MPD2    N111178   0.310   4.541   9.929  0.1842  0.0051 -0.0111
  756MPD2    H711179   0.244   4.523  10.004  2.3570  0.1766  1.9437
  757MPD2     C11180   4.400   3.795   9.634  0.4393 -0.2159  0.3020
  757MPD2    C111181   4.499   3.876   9.684 -0.2074  0.1424  0.8690
  757MPD2    C211182   4.487   4.012   9.664 -0.5562 -0.6956 -0.3910
  757MPD2    C311183   4.373   4.071   9.624  0.7953 -0.7410  0.3169
  757MPD2    C411184   4.270   3.985   9.586  0.1165 -0.2351  0.5042
  757MPD2    C511185   4.282   3.850   9.581 -0.2548 -0.0565 -0.5822
  757MPD2     H11186   4.569   4.078   9.690 -1.8309  0.9758 -0.5949
  757MPD2    H111187   4.171   4.026   9.565  0.7718  0.0645 -2.0035
  757MPD2    H211188   4.399   3.686   9.636  2.0457 -0.1986  1.4508
  757MPD2    H311189   4.200   3.784   9.554  0.9080 -2.2851  1.4057
  757MPD2     N11190   4.354   4.210   9.642  0.6625  0.6734 -0.1543
  757MPD2    H511191   4.433   4.246   9.694  0.0872  1.2653  0.3125
  757MPD2    N111192   4.605   3.815   9.746  0.0219 -0.1688  0.3494
  757MPD2    H711193   4.619   3.715   9.738 -1.4756 -0.4169  0.9271
  758MPD2     C11194   0.096   3.863  16.106  0.3825 -0.2479  0.4185
  758MPD2    C111195   0.159   3.826  16.222 -0.3804  0.9612 -0.9072
  758MPD2    C211196   0.117   3.884  16.340 -0.2148 -0.3749  0.2184
  758MPD2    C311197   0.026   3.980  16.352 -0.0624 -0.9575 -0.3828
  758MPD2    C411198   4.683   4.010  16.234 -0.0406  0.1003  0.3985
  758MPD2    C511199   4.713   3.950  16.113 -0.6644 -0.7420  0.6835
  758MPD2     H11200   0.172   3.873  16.433  0.4498  1.7812  0.0812
  758MPD2    H111201   4.614   4.093  16.235 -1.0702 -0.7612  0.3536
  758MPD2    H211202   0.123   3.817  16.012 -4.1757 -2.3484  0.1384
  758MPD2    H311203   4.651   3.987  16.032 -1.2681 -0.3520  1.3223
  758MPD2     N11204   4.720   4.044  16.473  0.3809  0.1913 -0.1247
  758MPD2    H511205   4.673   4.133  16.463  1.0081  0.4493 -0.8058
  758MPD2    N111206   0.266   3.734  16.211  0.1631 -0.8918  0.1459
  758MPD2    H711207   0.298   3.716  16.116 -1.6363 -0.9748 -0.4480
  759MPD2     C11208   0.015   1.920  10.520 -0.1465 -0.2428  0.4598
  759MPD2    C111209   4.614   1.908  10.568 -0.4456 -0.1105  0.0025
  759MPD2    C211210   4.509   1.956  10.490 -0.8551  0.1049 -0.5719
  759MPD2    C311211   4.524   2.016  10.376 -0.9231  0.0741 -0.1552
  759MPD2    C411212   4.651   2.054  10.336  0.2799  0.4136  0.2127
  759MPD2    C511213   0.033   1.989  10.401 -0.5072  0.1552  0.1177
  759MPD2     H11214   4.406   1.939  10.521 -0.9301 -0.0076 -0.8840
  759MPD2    H111215   4.673   2.108  10.245 -1.3574  2.4006  0.9954
  759MPD2    H211216   0.095   1.852  10.545  0.4232  0.6507  1.0577
  759MPD2    H311217   0.135   2.007  10.368 -0.9307 -0.7790 -1.7358
  759MPD2     N11218   4.408   2.052  10.307  0.1983  0.2980  0.2751
  759MPD2    H511219   4.315   2.022  10.336  0.2376 -1.2773 -1.2431
  759MPD2    N111220   4.573   1.823  10.672  0.0229 -0.5693  0.4441
  759MPD2    H711221   4.477   1.791  10.676  0.1426 -0.7042  2.0343
  760MPD2     C11222   3.412   4.308  12.362 -0.4643 -0.3908 -0.5478
  760MPD2    C111223   3.553   4.314  12.351  0.2736 -0.6402  0.1317
  760MPD2    C211224   3.632   4.199  12.358  0.5745  0.3267  0.2764
  760MPD2    C311225   3.574   4.071  12.356  0.6083  0.5024 -0.4261
  760MPD2    C411226   3.435   4.069  12.365  0.2291  0.5400  0.8925
  760MPD2    C511227   3.356   4.183  12.381 -0.2374  0.0481  0.5202
  760MPD2     H11228   3.738   4.213  12.339  1.2021 -2.0139  2.1403
  760MPD2    H111229   3.383   3.974  12.373  0.8904 -0.0221 -1.2414
  760MPD2    H211230   3.338   4.388  12.368  0.3097  0.2857 -0.0970
  760MPD2    H311231   3.250   4.169  12.366 -0.2561  1.3981 -0.6238
  760MPD2     N11232   3.642   3.948  12.341 -0.1908  0.1890 -0.8563
  760MPD2    H511233   3.593   3.860  12.351  0.7868 -0.2553 -0.0143
  760MPD2    N111234   3.621   4.442  12.335 -0.2376 -0.6288 -0.0047
  760MPD2    H711235   3.722   4.439  12.344 -0.3775  0.5815  2.0705
  761MPD2     C11236   4.241   3.823  11.248 -0.6799  0.2656  0.4831
  761MPD2    C111237   4.373   3.779  11.227 -0.0075  0.2450 -0.5222
  761MPD2    C211238   4.478   3.867  11.232 -0.2204  0.1943 -0.2417
  761MPD2    C311239   4.450   3.997  11.258 -0.2184 -0.5121 -0.3358
  761MPD2    C411240   4.318   4.037  11.281  0.3919 -0.1974  0.1403
  761MPD2    C511241   4.214   3.956  11.264 -0.4005 -0.0051 -0.4421
  761MPD2     H11242   4.582   3.837  11.238 -0.4727 -0.7183 -0.3172
  761MPD2    H111243   4.301   4.142  11.302 -1.2146 -0.1982 -1.1753
  761MPD2    H211244   4.160   3.750  11.241 -1.8619  1.4044  2.1489
  761MPD2    H311245   4.112   3.990  11.275  0.1408  1.2522  0.7136
  761MPD2     N11246   4.551   4.097  11.263 -0.3658  0.0930  0.7512
  761MPD2    H511247   4.530   4.190  11.296  0.2602  0.4883  0.0252
  761MPD2    N111248   4.396   3.651  11.190 -0.4040 -0.4265  0.8041
  761MPD2    H711249   4.316   3.594  11.216 -2.3544  2.4722  1.1076
  762MPD2     C11250   0.002   2.837  10.882 -0.1663  0.3079  0.2886
  762MPD2    C111251   0.041   2.967  10.904 -0.5595 -0.6118  0.3090
  762MPD2    C211252   0.153   3.013  10.831  0.0634  0.5793 -0.0443
  762MPD2    C311253   0.205   2.926  10.730  0.7093  0.4215  0.1361
  762MPD2    C411254   0.160   2.800  10.712 -0.1311 -0.3998 -0.6141
  762MPD2    C511255   0.059   2.755  10.791  0.0272  0.7639 -0.2095
  762MPD2     H11256   0.192   3.114  10.837  0.8204  0.2970 -0.2430
  762MPD2    H111257   0.190   2.728  10.636 -2.1726 -0.1818 -1.6341
  762MPD2    H211258   4.640   2.803  10.935  0.6851 -1.1735  0.7572
  762MPD2    H311259   0.018   2.656  10.777 -2.5240  1.5294  1.8048
  762MPD2     N11260   0.318   2.962  10.652  0.4548 -0.2443 -0.2471
  762MPD2    H511261   0.336   2.889  10.583 -1.8313  0.2598 -1.3718
  762MPD2    N111262   4.704   3.044  11.000  0.5195  0.0562 -0.3388
  762MPD2    H711263   4.638   3.002  11.065  0.0080 -0.0198 -0.9146
  763MPD2     C11264   2.267   3.276  16.135  0.2134 -0.1998  0.5319
  763MPD2    C111265   2.209   3.392  16.083  0.3878 -0.1124  0.3613
  763MPD2    C211266   2.229   3.511  16.141 -0.0425  0.1624 -0.0115
  763MPD2    C311267   2.301   3.518  16.258  0.6214  0.5709  0.1546
  763MPD2    C411268   2.356   3.403  16.314  0.3654  0.1580  0.6335
  763MPD2    C511269   2.343   3.286  16.244 -0.5463 -0.3382  0.1283
  763MPD2     H11270   2.192   3.601  16.093 -0.6122  0.0461  0.2101
  763MPD2    H111271   2.412   3.405  16.407 -1.7636 -1.9731  1.9861
  763MPD2    H211272   2.259   3.178  16.090 -0.7647  1.1163 -2.1593
  763MPD2    H311273   2.388   3.196  16.284  0.4493  0.3732  0.5925
  763MPD2     N11274   2.307   3.635  16.337 -0.2043 -0.3972  0.4249
  763MPD2    H511275   2.366   3.620  16.417  1.3951  0.0029 -0.6829
  763MPD2    N111276   2.129   3.390  15.968  0.3943 -0.5172 -0.2804
  763MPD2    H711277   2.090   3.482  15.950 -1.7832 -1.5625 -0.9392
  764MPD2     C11278   0.038   0.870  17.605  0.6643  0.0045  0.2724
  764MPD2    C111279   4.688   0.796  17.518  0.5443 -0.3813 -0.2330
  764MPD2    C211280   4.658   0.667  17.568 -0.3606  0.0203  0.5588
  764MPD2    C311281   4.719   0.606  17.676 -0.2154  0.1295  0.8077
  764MPD2    C411282   0.065   0.691   0.049 -0.0554 -0.5534  0.1852
  764MPD2    C511283   0.091   0.818   0.016  0.7239 -0.2420  0.3594
  764MPD2     H11284   4.600   0.606  17.499 -0.5413  0.0180  0.7101
  764MPD2    H111285   0.106   0.655   0.142  1.8870  2.2290  0.4060
  764MPD2    H211286   0.060   0.975  17.597 -0.3430 -0.0131 -2.6381
  764MPD2    H311287   0.153   0.879   0.080  0.2276 -1.1134  1.6650
  764MPD2     N11288   4.694   0.471  17.703 -0.2054  0.2848  0.5709
  764MPD2    H511289   4.624   0.421  17.649 -1.8506  2.0031  1.0854
  764MPD2    N111290   4.635   0.837  17.397  0.5191 -0.3327  0.6882
  764MPD2    H711291   4.579   0.765  17.353  0.9410  0.9092 -1.8934
  765MPD2     C11292   4.658   3.134  15.590  0.4102  0.0759 -0.0048
  765MPD2    C111293   4.652   3.136  15.731  0.2820  0.1736 -0.3077
  765MPD2    C211294   0.032   3.104  15.807  0.1203  1.1315 -0.1333
  765MPD2    C311295   0.154   3.074  15.753 -0.1325 -0.5859  0.2817
  765MPD2    C411296   0.164   3.064  15.614  0.5371 -0.0343  0.5090
  765MPD2    C511297   0.050   3.093  15.538  0.2831 -0.2216  0.5107
  765MPD2     H11298   0.027   3.108  15.915  0.4562  2.6607 -0.1663
  765MPD2    H111299   0.256   3.026  15.571 -0.2061  0.6659 -1.7124
  765MPD2    H211300   4.577   3.169  15.527  0.1791 -1.1140 -0.3530
  765MPD2    H311301   0.047   3.100  15.430 -0.5254  1.6190  0.6586
  765MPD2     N11302   0.259   3.045  15.843 -0.0426 -0.7361  0.1127
  765MPD2    H511303   0.232   3.044  15.941  0.5612  1.6826  0.2882
  765MPD2    N111304   4.523   3.167  15.786  0.3874  0.2751 -0.1260
  765MPD2    H711305   4.447   3.183  15.720 -2.3976 -1.7518  2.5906
  766MPD2     C11306   3.814   3.303  15.518 -0.2674  0.1924  0.4054
  766MPD2    C111307   3.949   3.294  15.533  0.4513  0.2552 -0.6953
  766MPD2    C211308   4.024   3.286  15.414  0.4913  0.5954 -0.0235
  766MPD2    C311309   3.962   3.268  15.286  0.2566 -0.3455  0.4297
  766MPD2    C411310   3.833   3.270  15.278 -0.3604 -0.3824 -0.1625
  766MPD2    C511311   3.759   3.294  15.393 -0.4125  0.2330 -0.7388
  766MPD2     H11312   4.132   3.277  15.413  0.1392 -3.3070  0.1372
  766MPD2    H111313   3.778   3.263  15.184  1.7282  1.0417 -1.4961
  766MPD2    H211314   3.753   3.291  15.607  0.0234  0.0331  0.5815
  766MPD2    H311315   3.650   3.288  15.395 -0.2897 -1.5645  0.2252
  766MPD2     N11316   4.041   3.261  15.161  0.5237  0.0400 -0.3964
  766MPD2    H511317   3.981   3.255  15.079  1.2269  0.2351 -0.9204
  766MPD2    N111318   4.002   3.287  15.659  0.2392 -0.0365  0.1243
  766MPD2    H711319   3.939   3.302  15.737 -0.6545 -1.6556 -0.2831
  767MPD2     C11320   3.535   3.471  15.059  0.5510  1.0658 -0.1371
  767MPD2    C111321   3.669   3.507  15.048  0.3960 -0.1482 -0.3658
  767MPD2    C211322   3.728   3.478  14.925  0.7202 -0.5584  0.4859
  767MPD2    C311323   3.660   3.419  14.816  0.8992  0.2504 -0.5899
  767MPD2    C411324   3.529   3.390  14.830  0.1719 -0.3542 -0.3627
  767MPD2    C511325   3.473   3.417  14.950 -0.8446 -0.0536  0.4506
  767MPD2     H11326   3.830   3.513  14.911 -0.1649  1.7150 -0.2230
  767MPD2    H111327   3.462   3.338  14.762 -2.2150 -1.0555  2.5260
  767MPD2    H211328   3.475   3.487  15.148  3.5424  2.7229  1.5843
  767MPD2    H311329   3.370   3.388  14.970 -1.4230  1.2869 -0.6254
  767MPD2     N11330   3.731   3.372  14.702  0.1456 -0.2264 -0.7004
  767MPD2    H511331   3.830   3.389  14.689  0.1647  0.8183  0.8074
  767MPD2    N111332   3.729   3.574  15.153 -0.1159  0.4405 -0.3793
  767MPD2    H711333   3.682   3.600  15.239 -1.6900  1.7527 -1.6318
  768MPD2     C11334   4.409   1.520  11.106  0.6759  0.5864 -0.3066
  768MPD2    C111335   4.396   1.628  11.187  0.0681  0.3755  0.2468
  768MPD2    C211336   4.512   1.677  11.239 -0.2331 -0.1812  0.0817
  768MPD2    C311337   4.637   1.620  11.218 -0.3685  0.7408  0.5205
  768MPD2    C411338   4.645   1.505  11.148 -0.0617 -0.0673 -0.1331
  768MPD2    C511339   4.535   1.457  11.092  1.0184  0.3708  0.0061
  768MPD2     H11340   4.501   1.770  11.293 -0.9651  0.7990 -1.7335
  768MPD2    H111341   0.015   1.459  11.127  0.8914  2.8227 -2.0668
  768MPD2    H211342   4.325   1.465  11.066  0.6670  1.2091 -1.1362
  768MPD2    H311343   4.539   1.371  11.027 -1.9136  1.0697 -1.1350
  768MPD2     N11344   0.037   1.677  11.261 -0.2044  0.3213  0.0778
  768MPD2    H511345   0.114   1.615  11.238  1.1733  1.9295  0.3706
  768MPD2    N111346   4.280   1.695  11.217  0.1951  0.7868 -0.8439
  768MPD2    H711347   4.292   1.767  11.287  0.4452  0.0489 -0.1222
  769MPD2     C11348   1.252   4.297  15.112 -0.3651 -0.5447 -0.5234
  769MPD2    C111349   1.134   4.354  15.155 -0.3720  0.0708 -0.3128
  769MPD2    C211350   1.138   4.432  15.268  0.2567  0.4721 -0.4258
  769MPD2    C311351   1.258   4.466  15.327  0.3569  0.6280  0.3679
  769MPD2    C411352   1.377   4.411  15.277  0.8485 -0.1730  0.0436
  769MPD2    C511353   1.369   4.331  15.172  0.2902  0.5591 -0.0646
  769MPD2     H11354   1.047   4.464  15.317 -0.4834 -0.6945 -1.0341
  769MPD2    H111355   1.475   4.428  15.318  1.5702 -0.7639 -1.4473
  769MPD2    H211356   1.260   4.234  15.025  0.2672  0.9882 -1.5801
  769MPD2    H311357   1.454   4.265  15.157 -0.8398 -0.0527 -3.6347
  769MPD2     N11358   1.250   4.554  15.434 -0.3282  0.2814 -0.2203
  769MPD2    H511359   1.156   4.578  15.462 -0.6763 -0.0915 -1.0542
  769MPD2    N111360   1.011   4.342  15.092  0.2127  0.4700 -0.3667
  769MPD2    H711361   0.935   4.387  15.142 -0.2151 -0.8045  0.1233
  770MPD2     C11362   0.384   3.567  14.773  0.1388  0.6435 -0.9202
  770MPD2    C111363   0.365   3.607  14.903 -0.5127  0.2278 -0.1856
  770MPD2    C211364   0.410   3.733  14.943 -0.6841  0.5601  0.0205
  770MPD2    C311365   0.459   3.825  14.856  0.0786  0.1534  0.4201
  770MPD2    C411366   0.462   3.788  14.722 -0.1248  0.3495 -0.7341
  770MPD2    C511367   0.429   3.659  14.685  0.3957 -0.1149  0.0292
  770MPD2     H11368   0.413   3.754  15.050  1.9775 -1.4699  0.3503
  770MPD2    H111369   0.504   3.848  14.642  0.7769  0.7451  0.0429
  770MPD2    H211370   0.354   3.473  14.728  0.0653 -0.6523  1.8869
  770MPD2    H311371   0.415   3.623  14.583 -0.2501  0.3315 -0.0420
  770MPD2     N11372   0.523   3.943  14.901  0.2906 -0.6386 -0.2202
  770MPD2    H511373   0.520   3.971  14.998 -1.8008 -0.3894 -0.3555
  770MPD2    N111374   0.317   3.509  14.993  0.0026 -0.1822 -0.0476
  770MPD2    H711375   0.285   3.422  14.953 -1.0194 -0.2161  0.8108
  771MPD2     C11376   1.909   2.661  14.122 -0.4888  0.3886  0.0297
  771MPD2    C111377   1.835   2.773  14.146  0.3975 -0.1409 -0.6795
  771MPD2    C211378   1.701   2.760  14.131  0.0484  0.1928  0.3904
  771MPD2    C311379   1.643   2.644  14.089  0.7312  0.1519 -0.2210
  771MPD2    C411380   1.718   2.532  14.074 -0.6820 -0.0178  0.0712
  771MPD2    C511381   1.852   2.540  14.098 -0.1470  0.1649  0.1095
  771MPD2     H11382   1.642   2.841  14.171 -1.1772 -0.5071 -0.0185
  771MPD2    H111383   1.682   2.435  14.041  2.5639 -1.0716 -0.3936
  771MPD2    H211384   2.017   2.667  14.138 -0.4836 -0.3126  0.2348
  771MPD2    H311385   1.911   2.449  14.096 -1.2639 -0.5686  0.6307
  771MPD2     N11386   1.509   2.646  14.055  0.1508 -0.2814  0.0584
  771MPD2    H511387   1.465   2.736  14.068  0.8912  0.2157 -0.8343
  771MPD2    N111388   1.886   2.903  14.176  0.1254  0.0833  0.1966
  771MPD2    H711389   1.817   2.978  14.177 -0.6593 -0.6273  0.4974
  772MPD2     C11390   1.578   3.477  14.370  0.0269 -0.5147  0.1573
  772MPD2    C111391   1.582   3.351  14.319  0.4180  0.0515 -0.2105
  772MPD2    C211392   1.472   3.262  14.328  0.3259  0.2158  0.2029
  772MPD2    C311393   1.353   3.306  14.382 -0.7817 -0.0367  0.0912
  772MPD2    C411394   1.351   3.430  14.426  0.0881 -0.7464 -0.1568
  772MPD2    C511395   1.458   3.521  14.415 -0.5538 -0.0109  0.4614
  772MPD2     H11396   1.482   3.169  14.275  1.3547 -0.0073  0.8014
  772MPD2    H111397   1.259   3.477  14.458  1.1916 -0.0609  2.0586
  772MPD2    H211398   1.652   3.556  14.386 -0.6493  0.0158  0.6880
  772MPD2    H311399   1.445   3.618  14.460  1.2161  0.0148  0.8979
  772MPD2     N11400   1.235   3.230  14.393 -0.5401 -0.3939  0.0255
  772MPD2    H511401   1.156   3.284  14.425 -1.2353  0.1088 -2.4795
  772MPD2    N111402   1.709   3.298  14.278 -0.3167 -0.5556  0.3385
  772MPD2    H711403   1.704   3.210  14.227  0.3752 -0.4299  0.0546
  773MPD2     C11404   0.932   4.290   0.376 -0.4980 -0.6728 -0.3155
  773MPD2    C111405   0.828   4.218   0.430  0.4537  0.7210 -0.8672
  773MPD2    C211406   0.855   4.095   0.487 -0.1920 -0.2419 -0.1075
  773MPD2    C311407   0.984   4.037   0.502  0.2061 -0.5499  0.7201
  773MPD2    C411408   1.082   4.111   0.451 -0.1341 -0.2101 -0.4753
  773MPD2    C511409   1.058   4.234   0.389 -0.0015 -0.3005  0.1188
  773MPD2     H11410   0.768   4.052   0.536 -1.4927  3.1331  0.5214
  773MPD2    H111411   1.184   4.075   0.465 -0.3295  0.3722  2.2884
  773MPD2    H211412   0.915   4.388   0.332 -1.4200  0.0466  1.6224
  773MPD2    H311413   1.146   4.291   0.361 -0.7608  0.0877 -1.4499
  773MPD2     N11414   1.020   3.918   0.566 -0.1341 -0.9280  0.6187
  773MPD2    H511415   1.118   3.892   0.567 -0.6296 -2.8874 -1.5102
  773MPD2    N111416   0.695   4.266   0.422 -0.0180  0.2149  0.3668
  773MPD2    H711417   0.622   4.196   0.433  0.6833 -0.5854 -0.0240
  774MPD2     C11418   0.729   3.195  13.580  0.0675  0.8558  0.7286
  774MPD2    C111419   0.592   3.192  13.602  0.0797  0.1043  0.2757
  774MPD2    C211420   0.530   3.311  13.642  0.4000  0.1051 -0.1031
  774MPD2    C311421   0.602   3.428  13.652  0.3547 -0.0475  0.1013
  774MPD2    C411422   0.729   3.432  13.615  0.9458  0.1547 -0.0647
  774MPD2    C511423   0.792   3.318  13.575  0.0825 -0.2492  0.0712
  774MPD2     H11424   0.423   3.314  13.660  0.2991  0.1715 -0.6821
  774MPD2    H111425   0.786   3.524  13.617  2.7675 -1.0308  1.8065
  774MPD2    H211426   0.787   3.105  13.563 -1.3626  0.5096 -2.3803
  774MPD2    H311427   0.899   3.334  13.566 -0.1758  1.2140 -0.3974
  774MPD2     N11428   0.517   3.543  13.678  0.6585  0.0713  0.2276
  774MPD2    H511429   0.419   3.522  13.695  0.7244 -0.4150  0.0143
  774MPD2    N111430   0.520   3.065  13.593  0.4001  0.1394 -0.2309
  774MPD2    H711431   0.566   2.982  13.557  0.0391  0.2125 -0.8637
  775MPD2     C11432   1.375   4.380  15.878  0.4629 -0.3023 -0.1455
  775MPD2    C111433   1.404   4.474  15.978  0.6764 -0.0536  0.2692
  775MPD2    C211434   1.499   4.574  15.950  0.4493  0.0357  0.7157
  775MPD2    C311435   1.552   4.582  15.826 -0.1128  0.7228  0.2724
  775MPD2    C411436   1.526   4.483  15.730  0.3130 -0.8807 -0.6807
  775MPD2    C511437   1.443   4.385  15.758 -0.2268 -0.5123 -0.2125
  775MPD2     H11438   1.513   4.656  16.020 -2.2947  3.0539 -2.2992
  775MPD2    H111439   1.570   4.483  15.631  1.4146 -2.4667 -0.1833
  775MPD2    H211440   1.311   4.293  15.885  0.3840 -0.3765 -1.8507
  775MPD2    H311441   1.414   4.311  15.684 -0.8547 -0.7443  0.2630
  775MPD2     N11442   1.636   4.688  15.782 -0.1680 -0.1134  0.6737
  775MPD2    H511443   1.673   4.678  15.688  1.2608  1.8320  1.0545
  775MPD2    N111444   1.334   4.474  16.102  0.0337  0.0959 -0.0114
  775MPD2    H711445   1.343   4.552  16.166 -0.2247  0.2510 -0.1656
  776MPD2     C11446   0.689   0.586  12.228  0.8150  0.1817 -0.3040
  776MPD2    C111447   0.612   0.550  12.118  0.0203 -0.6026  0.4242
  776MPD2    C211448   0.615   0.635  12.009  0.2729 -0.0940 -0.5878
  776MPD2    C311449   0.715   0.733  11.999 -0.0435 -0.2754  0.6259
  776MPD2    C411450   0.792   0.764  12.102 -0.5480  0.4076  0.1748
  776MPD2    C511451   0.775   0.694  12.221 -0.4691  0.1851  0.3458
  776MPD2     H11452   0.545   0.631  11.927  0.3001 -1.7838 -0.5296
  776MPD2    H111453   0.853   0.853  12.107  1.4799 -0.8847 -1.8149
  776MPD2    H211454   0.679   0.536  12.323  0.3407  0.6093 -0.1232
  776MPD2    H311455   0.843   0.718  12.302  0.0841  2.8089 -0.8965
  776MPD2     N11456   0.740   0.802  11.879  0.1969 -0.2327  0.1667
  776MPD2    H511457   0.799   0.884  11.882 -0.8930  0.5548 -0.2877
  776MPD2    N111458   0.520   0.443  12.133 -1.3482  0.0096  0.6143
  776MPD2    H711459   0.536   0.379  12.210 -1.5356  0.3065  0.8992
  777MPD2     C11460   0.842   2.458   0.767 -0.3801 -1.1700 -0.2929
  777MPD2    C111461   0.884   2.340   0.836  0.1043  0.5287  0.4112
  777MPD2    C211462   0.935   2.235   0.758  0.6851  0.4236 -0.0820
  777MPD2    C311463   0.940   2.255   0.615  0.0185 -0.4496 -0.0278
  777MPD2    C411464   0.894   2.371   0.559  0.3428 -0.5845  0.1704
  777MPD2    C511465   0.846   2.472   0.632  0.0277 -0.2016  0.2874
  777MPD2     H11466   0.975   2.141   0.795  2.5130  0.2314 -2.5448
  777MPD2    H111467   0.901   2.402   0.455 -1.2513  3.7583  1.3720
  777MPD2    H211468   0.787   2.533   0.823  1.5493 -0.7286  0.9769
  777MPD2    H311469   0.813   2.561   0.580  1.9139  0.8955  0.9587
  777MPD2     N11470   0.991   2.148   0.540  0.2502  0.6337  0.1491
  777MPD2    H511471   1.018   2.068   0.597 -0.2314  0.2866 -0.1188
  777MPD2    N111472   0.884   2.341   0.978  0.0539  0.0175 -0.3242
  777MPD2    H711473   0.832   2.413   1.028  0.4664 -1.6609  2.5364
  778MPD2     C11474   1.605   2.975  15.137  0.2489  0.0653  0.2710
  778MPD2    C111475   1.582   2.840  15.164 -0.6440 -0.0151 -0.3305
  778MPD2    C211476   1.657   2.751  15.086 -0.3428 -0.7907  1.1177
  778MPD2    C311477   1.743   2.789  14.988 -0.4395 -0.5368 -0.8160
  778MPD2    C411478   1.753   2.920  14.954  0.6074  0.5336 -0.5272
  778MPD2    C511479   1.673   3.009  15.023 -0.2948 -0.6110  0.5226
  778MPD2     H11480   1.643   2.645  15.103 -2.4522 -0.8844 -1.2780
  778MPD2    H111481   1.819   2.959  14.878  0.5928 -1.2975 -1.4920
  778MPD2    H211482   1.542   3.048  15.186  0.2743  1.4167 -1.7262
  778MPD2    H311483   1.672   3.113  14.993 -0.0829 -0.5047  0.8936
  778MPD2     N11484   1.808   2.686  14.907  0.1834 -0.2415  0.4322
  778MPD2    H511485   1.772   2.592  14.917 -0.9358  0.1330 -0.1514
  778MPD2    N111486   1.500   2.795  15.269 -0.1755  0.2677 -0.1520
  778MPD2    H711487   1.496   2.694  15.277  1.2681  0.0838 -1.7740
  779MPD2     C11488   1.311   1.516  14.778 -0.8234  0.2383  0.8150
  779MPD2    C111489   1.373   1.451  14.677 -0.2111  0.6195  0.1624
  779MPD2    C211490   1.438   1.528  14.581 -0.3448  0.5046  0.4160
  779MPD2    C311491   1.463   1.661  14.593  0.4175 -0.5557  1.3678
  779MPD2    C411492   1.392   1.726  14.687  0.1425  0.4104 -0.5117
  779MPD2    C511493   1.310   1.650  14.770 -0.1720  0.5463  0.2944
  779MPD2     H11494   1.485   1.473  14.501  1.0368  2.0748  0.1500
  779MPD2    H111495   1.396   1.834  14.700 -0.8886  0.5744 -1.5274
  779MPD2    H211496   1.253   1.457  14.849 -0.4933  1.0384  1.7418
  779MPD2    H311497   1.245   1.705  14.836 -1.2780  0.8714 -1.0603
  779MPD2     N11498   1.543   1.733  14.497 -0.1252  0.4246 -0.0268
  779MPD2    H511499   1.556   1.697  14.403  0.0082  0.2065  0.0775
  779MPD2    N111500   1.376   1.311  14.655  0.3395  0.1836 -0.0814
  779MPD2    H711501   1.431   1.279  14.577 -0.9072  0.6274 -1.1509
  780MPD2     C11502   0.568   1.106   0.665  0.1044  0.7988 -0.2043
  780MPD2    C111503   0.601   1.078   0.533 -0.1464  0.1413  0.3952
  780MPD2    C211504   0.722   1.130   0.486 -0.2913  0.1739 -0.1804
  780MPD2    C311505   0.814   1.198   0.559  0.0941  0.0925 -0.0029
  780MPD2    C411506   0.777   1.213   0.691 -0.1450  0.2311 -0.4258
  780MPD2    C511507   0.658   1.168   0.742  1.0277 -0.5311 -0.4300
  780MPD2     H11508   0.750   1.098   0.386  0.1005  1.5689 -0.5146
  780MPD2    H111509   0.843   1.265   0.759 -0.3426  1.3411 -1.0971
  780MPD2    H211510   0.477   1.078   0.717  1.4309 -0.8767  1.2243
  780MPD2    H311511   0.631   1.187   0.846  0.7433 -1.9790 -0.2374
  780MPD2     N11512   0.935   1.254   0.513 -0.7979  0.2157 -0.1822
  780MPD2    H511513   0.947   1.251   0.413  0.3877  3.9222 -0.1434
  780MPD2    N111514   0.525   0.983   0.468 -0.3834  0.0623 -0.1450
  780MPD2    H711515   0.457   0.936   0.527 -0.4066 -0.7652 -0.8174
  781MPD2     C11516   2.593   3.153  11.809  0.9385 -0.1195 -0.3015
  781MPD2    C111517   2.683   3.120  11.908  0.2518  0.4931  0.1424
  781MPD2    C211518   2.795   3.037  11.878 -0.1366  0.0206  0.2828
  781MPD2    C311519   2.821   2.993  11.746 -0.2536  0.1835  0.5143
  781MPD2    C411520   2.734   3.031  11.641 -0.0148  0.5245 -0.1377
  781MPD2    C511521   2.619   3.108  11.676  0.6064  0.8006 -0.0552
  781MPD2     H11522   2.859   3.003  11.958 -0.9076 -0.2669  0.7704
  781MPD2    H111523   2.753   3.006  11.537 -0.9569  2.1206 -0.7003
  781MPD2    H211524   2.500   3.209  11.817  1.0614  0.0907 -0.3535
  781MPD2    H311525   2.540   3.134  11.607 -0.3628 -1.4501  0.2056
  781MPD2     N11526   2.930   2.906  11.712 -0.1003  0.2264  0.0460
  781MPD2    H511527   2.932   2.873  11.616 -0.1797 -0.6924  0.3607
  781MPD2    N111528   2.677   3.166  12.045  0.0368  0.1135  0.7313
  781MPD2    H711529   2.753   3.146  12.109  1.8641  0.9179 -1.1884
  782MPD2     C11530   1.010   3.636  10.290 -0.1083  0.5366 -0.6917
  782MPD2    C111531   0.937   3.635  10.407  0.6550 -0.1614 -0.1295
  782MPD2    C211532   0.941   3.749  10.486  0.1412 -0.3427  0.8130
  782MPD2    C311533   1.026   3.858  10.459  0.5460 -0.2514  0.3763
  782MPD2    C411534   1.100   3.851  10.347 -0.2466 -0.4660  0.1947
  782MPD2    C511535   1.100   3.740  10.268 -0.0337  0.7136  0.1285
  782MPD2     H11536   0.876   3.760  10.572  0.5193  1.0219  0.9330
  782MPD2    H111537   1.159   3.940  10.331 -0.6858 -0.0102  1.0855
  782MPD2    H211538   1.025   3.542  10.237 -0.3127  0.2706 -0.2791
  782MPD2    H311539   1.158   3.743  10.177 -1.5368  3.7564 -0.7221
  782MPD2     N11540   1.038   3.973  10.546  0.5936 -0.0565  0.3672
  782MPD2    H511541   1.104   4.043  10.516 -0.6979  0.1085 -2.1137
  782MPD2    N111542   0.852   3.519  10.424  0.5097  0.1436  0.5126
  782MPD2    H711543   0.822   3.468  10.342  0.9134  1.7966 -0.6702
  783MPD2     C11544   0.172   3.745  11.023  0.2178 -0.4879  0.0791
  783MPD2    C111545   0.277   3.825  11.046  0.2219  0.1063 -0.2503
  783MPD2    C211546   0.406   3.773  11.030  0.0100  0.1624  0.2103
  783MPD2    C311547   0.417   3.643  10.986 -0.3460  0.0803  0.2664
  783MPD2    C411548   0.306   3.555  10.971  0.9490  0.1206 -0.2887
  783MPD2    C511549   0.188   3.613  10.992  0.2904  0.1346  0.1735
  783MPD2     H11550   0.494   3.833  11.050  0.0284 -0.1368  1.0298
  783MPD2    H111551   0.319   3.452  10.941  0.2090 -0.5008  1.5604
  783MPD2    H211552   0.070   3.784  11.023 -0.1527 -1.4484  0.1918
  783MPD2    H311553   0.095   3.566  10.963  0.7413  0.5417 -1.9354
  783MPD2     N11554   0.544   3.587  10.958  0.0248  0.1556 -0.1248
  783MPD2    H511555   0.542   3.492  10.922 -0.1877  0.3237 -0.5519
  783MPD2    N111556   0.245   3.959  11.082 -0.3426 -0.0586 -0.7010
  783MPD2    H711557   0.149   3.991  11.077 -0.7865 -1.2710 -0.0083
  784MPD2     C11558   3.598   3.915   0.892 -0.1708 -0.2042  0.3730
  784MPD2    C111559   3.588   3.993   1.007 -0.5265 -0.1880 -0.1877
  784MPD2    C211560   3.476   4.079   1.014 -0.3760  0.3343  0.1436
  784MPD2    C311561   3.371   4.074   0.922  0.4525  0.0813 -0.6333
  784MPD2    C411562   3.385   3.992   0.809 -0.0680  0.6101 -0.0970
  784MPD2    C511563   3.499   3.912   0.795  0.1672 -0.0426  0.6353
  784MPD2     H11564   3.453   4.132   1.106  1.2174  1.4097 -0.0712
  784MPD2    H111565   3.304   3.976   0.739 -0.8993 -0.1538  1.0461
  784MPD2    H211566   3.681   3.845   0.882 -0.1793 -0.2892  0.8995
  784MPD2    H311567   3.506   3.849   0.708  0.1857  1.0412 -0.1522
  784MPD2     N11568   3.268   4.162   0.937 -0.2157 -0.3807 -0.3959
  784MPD2    H511569   3.268   4.229   1.013  2.0141  1.1199 -1.7224
  784MPD2    N111570   3.679   3.989   1.117  0.7237  0.4521  0.2539
  784MPD2    H711571   3.686   4.065   1.184  0.2937  0.2473  0.5316
  785MPD2     C11572   2.975   3.131  11.057 -0.1348 -0.6162  0.1417
  785MPD2    C111573   2.977   3.192  10.940 -0.4771 -0.7305 -0.7001
  785MPD2    C211574   2.928   3.126  10.827 -0.6202 -0.0113 -0.2001
  785MPD2    C311575   2.897   2.994  10.832 -0.0473 -0.0895  0.1938
  785MPD2    C411576   2.918   2.929  10.954  0.6054  0.0022 -0.3049
  785MPD2    C511577   2.958   2.997  11.067  0.5947 -0.2752  0.4881
  785MPD2     H11578   2.922   3.179  10.733 -1.7137 -0.0562 -0.1533
  785MPD2    H111579   2.905   2.822  10.957  0.4237  0.0032 -1.0168
  785MPD2    H211580   3.009   3.187  11.144  0.9970  0.9524 -1.3188
  785MPD2    H311581   2.985   2.937  11.153  0.7667 -1.0811 -0.1243
  785MPD2     N11582   2.855   2.926  10.714  0.0543  0.1768 -0.5918
  785MPD2    H511583   2.846   2.988  10.634  0.3231  1.2748  0.2280
  785MPD2    N111584   3.019   3.326  10.928 -0.1207 -0.5593 -0.5803
  785MPD2    H711585   3.017   3.371  10.837 -4.0463 -2.7525 -1.5748
  786MPD2     C11586   1.570   0.691  14.966  0.0571 -0.0131 -0.2048
  786MPD2    C111587   1.693   0.643  14.952  0.0066 -0.0149 -0.0119
  786MPD2    C211588   1.785   0.656  15.052  0.3949  0.1320  0.2903
  786MPD2    C311589   1.750   0.726  15.161 -0.0623  0.1007 -0.7873
  786MPD2    C411590   1.618   0.777  15.175  0.3008  0.3622 -0.1652
  786MPD2    C511591   1.527   0.758  15.077  0.0593  1.1352  0.9827
  786MPD2     H11592   1.883   0.611  15.039  1.5253  2.9283 -1.0519
  786MPD2    H111593   1.603   0.840  15.262  1.2812  0.6548 -0.2152
  786MPD2    H211594   1.499   0.685  14.883 -0.7549  5.0159  0.1242
  786MPD2    H311595   1.423   0.783  15.090  0.1536  1.3285  1.3738
  786MPD2     N11596   1.832   0.755  15.273 -0.0166  0.8668  0.0166
  786MPD2    H511597   1.792   0.821  15.338  2.4392  2.3829 -0.0418
  786MPD2    N111598   1.736   0.576  14.843  0.4519  0.8434 -0.4369
  786MPD2    H711599   1.833   0.546  14.852  0.0642 -0.5019 -0.7875
  787MPD2     C11600   2.126   0.277  15.048  0.5258 -0.2867  0.8965
  787MPD2    C111601   2.108   0.189  14.948 -0.2677  0.0669 -0.3721
  787MPD2    C211602   2.180   0.073  14.940  0.1053 -0.8125 -0.2599
  787MPD2    C311603   2.258   0.041  15.044  0.5900  0.4614  0.7785
  787MPD2    C411604   2.261   0.119  15.156  0.2478 -0.2700 -0.5272
  787MPD2    C511605   2.195   0.243  15.157  1.0131 -0.0338 -0.2796
  787MPD2     H11606   2.177   0.011  14.852 -0.4575 -1.3828  0.1583
  787MPD2    H111607   2.308   0.094  15.250  1.6416 -1.2039 -1.4855
  787MPD2    H211608   2.075   0.372  15.055 -1.5165 -1.2665 -0.5823
  787MPD2    H311609   2.191   0.312  15.241 -0.2811 -0.2603 -0.1481
  787MPD2     N11610   2.337   4.649  15.031 -0.8199 -0.8124 -0.5255
  787MPD2    H511611   2.342   4.614  14.936  1.7821  1.2907 -1.1605
  787MPD2    N111612   2.024   0.233  14.843  0.1293 -0.5785  0.3602
  787MPD2    H711613   1.991   0.329  14.850  0.0810 -0.4829 -1.2114
  788MPD2     C11614   3.979   3.242   1.265 -0.6411  0.4681 -0.2060
  788MPD2    C111615   3.901   3.211   1.164  0.2907 -0.8173 -0.1736
  788MPD2    C211616   3.876   3.303   1.060  0.3670  0.4295 -0.1974
  788MPD2    C311617   3.937   3.429   1.062  0.0163 -0.3619  0.1991
  788MPD2    C411618   4.019   3.462   1.168  0.1417 -0.0592 -0.3629
  788MPD2    C511619   4.043   3.365   1.260  0.2640  0.4198 -0.1325
  788MPD2     H11620   3.810   3.276   0.978  0.8468  0.3782 -0.5632
  788MPD2    H111621   4.081   3.550   1.174 -1.6141  1.1645 -0.4022
  788MPD2    H211622   4.022   3.168   1.331  0.5482  1.5053  0.1847
  788MPD2    H311623   4.112   3.397   1.337 -0.4030  0.2135  0.5519
  788MPD2     N11624   3.914   3.532   0.958 -0.4643  0.4789 -0.4108
  788MPD2    H511625   3.954   3.625   0.967  0.9623 -0.2456  0.7473
  788MPD2    N111626   3.858   3.084   1.136  0.3358  0.4620 -0.2532
  788MPD2    H711627   3.811   3.078   1.047  1.3054 -1.6272 -0.6198
  789MPD2     C11628   4.701   3.559  16.577 -0.1663  0.5053  0.0972
  789MPD2    C111629   4.659   3.452  16.653  0.8400  0.0548  0.2435
  789MPD2    C211630   4.526   3.448  16.693 -0.5839  0.7890 -0.6442
  789MPD2    C311631   4.442   3.555  16.663 -0.8920  0.4668  0.2146
  789MPD2    C411632   4.489   3.660  16.588  0.4928  0.2532  0.4330
  789MPD2    C511633   4.615   3.657  16.543  0.6155  0.5363 -0.0327
  789MPD2     H11634   4.494   3.371  16.761  1.9299  0.7441  0.5033
  789MPD2    H111635   4.427   3.748  16.572  2.7874  1.3447 -2.3241
  789MPD2    H211636   0.064   3.557  16.514 -0.1163 -0.1497  0.1894
  789MPD2    H311637   4.642   3.732  16.470 -0.4990  0.1816 -0.8091
  789MPD2     N11638   4.313   3.573  16.713 -0.1710  0.2627  0.9713
  789MPD2    H511639   4.263   3.655  16.681  0.0466  0.7053  1.7488
  789MPD2    N111640   0.015   3.338  16.677  1.0270  0.2601 -0.1039
  789MPD2    H711641   4.704   3.261  16.731 -0.2014  0.1224 -1.1275
  790MPD2     C11642   0.680   1.197  13.420 -0.1624  0.2718 -0.1737
  790MPD2    C111643   0.624   1.090  13.473  0.1344  0.1090 -0.3298
  790MPD2    C211644   0.544   1.001  13.397 -0.0235  0.3552 -0.3289
  790MPD2    C311645   0.543   1.010  13.258  0.7459 -0.4438  0.6075
  790MPD2    C411646   0.609   1.112  13.202  0.5171 -0.2470  0.2862
  790MPD2    C511647   0.679   1.204  13.281 -0.1617  0.0622 -0.4393
  790MPD2     H11648   0.498   0.915  13.446  1.2546  0.2341  0.6500
  790MPD2    H111649   0.617   1.131  13.096 -0.3867 -0.6298  0.1505
  790MPD2    H211650   0.725   1.273  13.484  0.0218 -0.6292  0.7717
  790MPD2    H311651   0.735   1.285  13.236 -2.8412  1.3436 -1.4964
  790MPD2     N11652   0.471   0.912  13.184 -0.0054 -0.3089  0.3209
  790MPD2    H511653   0.422   0.837  13.231 -0.4916 -0.2143 -0.0377
  790MPD2    N111654   0.624   1.085  13.609  0.6939 -0.1697  0.3487
  790MPD2    H711655   0.671   1.159  13.660  1.1067 -1.5792  2.0055
  791MPD2     C11656   4.705   0.751  12.639 -0.8051 -0.2922 -0.0563
  791MPD2    C111657   0.004   0.652  12.732 -0.4255 -0.3871  0.5286
  791MPD2    C211658   4.629   0.571  12.773 -0.2191 -0.0486  0.5037
  791MPD2    C311659   4.506   0.581  12.713  0.1835 -0.7766 -0.0773
  791MPD2    C411660   4.483   0.670  12.612  0.1486  0.3953 -0.5325
  791MPD2    C511661   4.584   0.754  12.571  0.0949  0.2568  0.0733
  791MPD2     H11662   4.644   0.494  12.849 -0.8087 -0.8825 -0.2270
  791MPD2    H111663   4.387   0.676  12.562  1.1838  1.9124 -2.3730
  791MPD2    H211664   0.048   0.830  12.609 -3.5419  2.1627  0.1958
  791MPD2    H311665   4.561   0.833  12.501 -0.8088  0.6154  0.7699
  791MPD2     N11666   4.414   0.489  12.753  0.6622 -0.3826  0.8502
  791MPD2    H511667   4.447   0.427  12.827  3.2623  0.5411  0.4685
  791MPD2    N111668   0.134   0.653  12.791  0.5027 -0.3890 -0.3398
  791MPD2    H711669   0.194   0.732  12.767  0.0122  0.0278 -0.2025
  792MPD2     C11670   1.153   0.394  11.632 -0.2357  0.1241 -0.5514
  792MPD2    C111671   1.064   0.461  11.552 -0.5326  0.3421 -0.2737
  792MPD2    C211672   0.966   0.389  11.489 -0.1004  0.7186  0.6431
  792MPD2    C311673   0.968   0.251  11.487 -0.1044  0.2228 -0.4410
  792MPD2    C411674   1.061   0.185  11.570 -0.2476 -0.6139 -0.2351
  792MPD2    C511675   1.152   0.260  11.638  0.2950 -0.1900  0.0595
  792MPD2     H11676   0.890   0.440  11.431 -1.2720  0.3072  1.8444
  792MPD2    H111677   1.050   0.078  11.584  1.2464 -0.6032  1.0274
  792MPD2    H211678   1.227   0.445  11.693  0.5019 -1.7529  0.1134
  792MPD2    H311679   1.217   0.204  11.705  1.8664  3.0248  1.2317
  792MPD2     N11680   0.883   0.180  11.410  0.1107 -0.4542 -0.5250
  792MPD2    H511681   0.901   0.081  11.398  0.2920 -0.7380  1.9726
  792MPD2    N111682   1.081   0.596  11.535  0.4660 -0.0762  0.1059
  792MPD2    H711683   1.152   0.634  11.597  1.7348  0.0902 -1.4293
  793MPD2     C11684   0.308   4.376  10.689 -0.4159  0.5706 -0.1950
  793MPD2    C111685   0.415   4.464  10.657  0.4853  0.2581 -0.6164
  793MPD2    C211686   0.464   4.547  10.753 -0.6900  0.1338 -0.4117
  793MPD2    C311687   0.423   4.551  10.882 -0.0654  0.2397  0.2536
  793MPD2    C411688   0.324   4.462  10.916  0.4372  0.6708 -0.0203
  793MPD2    C511689   0.264   4.378  10.824  0.3445  0.0340 -0.3585
  793MPD2     H11690   0.548   4.611  10.725  0.8007 -1.0986  1.2521
  793MPD2    H111691   0.285   4.456  11.017  1.7008 -0.8227  0.3780
  793MPD2    H211692   0.261   4.308  10.620  1.3490 -0.6602 -0.1928
  793MPD2    H311693   0.181   4.310  10.845 -0.3892  1.1855  0.4443
  793MPD2     N11694   0.487   4.635  10.976 -0.3121  0.7109  0.1891
  793MPD2    H511695   0.556   4.696  10.932  1.1126 -0.9000  0.1980
  793MPD2    N111696   0.465   4.474  10.526  0.2253 -0.5458 -0.5102
  793MPD2    H711697   0.549   4.531  10.518  1.1234 -1.5527  1.6242
  794MPD2     C11698   0.338   0.210   0.094 -1.0368 -0.4233  0.1909
  794MPD2    C111699   0.318   0.075   0.066  0.6593  0.1267 -0.5293
  794MPD2    C211700   0.275   0.037  17.642 -0.4947  0.0073  0.4305
  794MPD2    C311701   0.241   0.132  17.541 -0.2838  0.3100  0.2872
  794MPD2    C411702   0.260   0.264  17.578 -0.1235  0.0037  0.5295
  794MPD2    C511703   0.317   0.296  17.698 -0.3777  0.3036 -0.2964
  794MPD2     H11704   0.252   4.660  17.617  0.5020  0.2671 -1.5140
  794MPD2    H111705   0.247   0.346  17.508 -1.7191 -0.5475  0.1830
  794MPD2    H211706   0.379   0.241   0.190 -0.6502 -1.1286  0.2561
  794MPD2    H311707   0.345   0.398   0.015 -0.8375  0.3059  0.2967
  794MPD2     N11708   0.185   0.101  17.413  0.7220 -0.4826 -0.0867
  794MPD2    H511709   0.165   0.182  17.356 -0.9137 -0.2099  0.8676
  794MPD2    N111710   0.329   4.697   0.159  0.6611 -0.0216  0.0663
  794MPD2    H711711   0.304   4.605   0.125  1.7104 -0.3514  0.1722
  795MPD2     C11712   2.852   1.864  14.103  0.1796  0.0041 -1.0739
  795MPD2    C111713   2.793   1.790  14.011 -0.1661 -0.5272  0.1746
  795MPD2    C211714   2.821   1.654  14.005  0.0750 -0.5252  0.1768
  795MPD2    C311715   2.911   1.603  14.099  0.0257 -0.4256 -0.0132
  795MPD2    C411716   2.965   1.681  14.197  0.5477 -0.4390  0.5996
  795MPD2    C511717   2.929   1.813  14.202  0.0695 -0.1589  0.0797
  795MPD2     H11718   2.766   1.598  13.930  0.0635  2.3526 -1.9424
  795MPD2    H111719   3.036   1.654  14.274  1.3363 -1.1799 -0.3780
  795MPD2    H211720   2.836   1.971  14.110  1.0725  0.0238  0.8485
  795MPD2    H311721   2.979   1.884  14.268  1.0467 -0.8186  0.0432
  795MPD2     N11722   2.952   1.469  14.089  0.1342  0.0192  0.2932
  795MPD2    H511723   2.923   1.419  14.006  1.9846 -0.5530 -0.0063
  795MPD2    N111724   2.702   1.839  13.916 -0.4046 -0.0727  0.0772
  795MPD2    H711725   2.662   1.775  13.849 -1.0419  3.0427 -2.5051
  796MPD2     C11726   2.458   3.283  15.818 -0.2341 -0.5638  0.5465
  796MPD2    C111727   2.524   3.337  15.923  0.2552  0.3897  0.1232
  796MPD2    C211728   2.520   3.472  15.940 -0.1723 -0.1981  1.2551
  796MPD2    C311729   2.440   3.544  15.858 -0.1037 -0.5458  0.7541
  796MPD2    C411730   2.373   3.488  15.749 -0.0112 -0.2581 -0.0200
  796MPD2    C511731   2.381   3.357  15.730  0.4018  0.4994  0.2302
  796MPD2     H11732   2.571   3.527  16.017 -0.2987  0.6371  0.7403
  796MPD2    H111733   2.326   3.554  15.676  1.1487  0.6388  0.0205
  796MPD2    H211734   2.458   3.176  15.798 -0.4085 -0.1556 -1.5597
  796MPD2    H311735   2.344   3.317  15.636 -0.3006  0.2596  0.6065
  796MPD2     N11736   2.420   3.684  15.890 -0.2947 -0.5542 -0.2637
  796MPD2    H511737   2.467   3.725  15.970  0.3733 -0.3745 -0.7498
  796MPD2    N111738   2.598   3.250  15.996  0.4100  0.6039  0.2739
  796MPD2    H711739   2.599   3.154  15.961  0.2175 -0.5362  3.4283
  797MPD2     C11740   3.672   3.023  17.291  0.0161 -0.0990  0.5440
  797MPD2    C111741   3.768   2.974  17.202 -0.1763  0.1642 -0.4719
  797MPD2    C211742   3.758   3.010  17.068  0.2840  0.3789  0.1078
  797MPD2    C311743   3.655   3.083  17.017  0.5708  0.2433 -0.4667
  797MPD2    C411744   3.546   3.109  17.096 -0.5266  0.2516 -1.1093
  797MPD2    C511745   3.561   3.071  17.226  0.1800  0.4398  0.1763
  797MPD2     H11746   3.835   2.970  17.003  0.0676  0.1296  0.0045
  797MPD2    H111747   3.459   3.149  17.044 -0.6330  2.1537  0.5525
  797MPD2    H211748   3.672   2.995  17.396 -0.0139 -0.4983  0.4385
  797MPD2    H311749   3.478   3.081  17.295 -1.0898  1.8913 -1.5564
  797MPD2     N11750   3.661   3.143  16.877 -0.4033 -0.1067 -0.3801
  797MPD2    H511751   3.581   3.198  16.847 -1.2780 -1.8372 -1.2168
  797MPD2    N111752   3.884   2.916  17.244 -0.4718 -0.1480  0.6930
  797MPD2    H711753   3.957   2.901  17.176  1.5076  1.7791  2.4022
  798MPD2     C11754   4.366   3.059  16.709 -0.2208 -0.6153  0.2354
  798MPD2    C111755   4.235   3.030  16.746  0.3832 -0.5272 -0.6566
  798MPD2    C211756   4.216   2.968  16.866  0.4523  0.1873  0.2702
  798MPD2    C311757   4.321   2.934  16.949  0.1299 -0.1686  0.7088
  798MPD2    C411758   4.447   2.964  16.916 -0.3187 -0.1862 -0.2363
  798MPD2    C511759   4.467   3.027  16.799  0.4524  0.2550 -0.4279
  798MPD2     H11760   4.116   2.942  16.897  1.4096 -0.0958  3.1411
  798MPD2    H111761   4.533   2.938  16.977  0.5207  0.6529 -1.0520
  798MPD2    H211762   4.404   3.108  16.620 -1.8214 -0.2858 -0.2601
  798MPD2    H311763   4.567   3.055  16.766  0.3520  0.7757 -0.2945
  798MPD2     N11764   4.293   2.879  17.070 -0.2132 -0.0576 -0.1735
  798MPD2    H511765   4.195   2.852  17.068 -0.4922  1.0716 -1.2149
  798MPD2    N111766   4.117   3.079  16.685  0.2946  0.9218  0.4050
  798MPD2    H711767   4.027   3.062  16.728 -1.1335 -0.9851 -3.3350
  799MPD2     C11768   2.560   4.286  14.479 -0.1564  0.4186 -0.4100
  799MPD2    C111769   2.448   4.235  14.543  0.9481 -0.3254  0.3643
  799MPD2    C211770   2.323   4.298  14.522  0.4811 -0.0393 -0.3578
  799MPD2    C311771   2.303   4.400  14.435 -0.5003  0.4086  0.4692
  799MPD2    C411772   2.411   4.440  14.359  0.0555  0.1934  0.2482
  799MPD2    C511773   2.538   4.379  14.381  0.1132  0.0070  0.4061
  799MPD2     H11774   2.237   4.254  14.571 -1.5813  0.7460 -3.2693
  799MPD2    H111775   2.399   4.517  14.283  0.8545  1.3120  1.2624
  799MPD2    H211776   2.660   4.246  14.494  0.6746  2.2562 -1.0328
  799MPD2    H311777   2.622   4.412  14.322 -0.8476 -0.9579 -1.4866
  799MPD2     N11778   2.170   4.452  14.405  0.6662 -0.1326 -0.1880
  799MPD2    H511779   2.170   4.521  14.331  1.3725  1.4663  1.3137
  799MPD2    N111780   2.455   4.123  14.631 -0.1999 -0.1530 -0.3416
  799MPD2    H711781   2.370   4.108  14.684 -1.2501  1.5768 -1.5323
  800MPD2     C11782   2.450   0.731  14.507  0.0347  0.0170 -0.3258
  800MPD2    C111783   2.537   0.655  14.425  0.7133 -0.2281 -0.7074
  800MPD2    C211784   2.507   0.630  14.291  0.2927 -0.2761 -0.0830
  800MPD2    C311785   2.379   0.660  14.245 -0.1509  0.8345 -0.1372
  800MPD2    C411786   2.291   0.720  14.332 -0.4944  0.1139  0.6481
  800MPD2    C511787   2.330   0.764  14.452 -0.2503  0.1645  0.4472
  800MPD2     H11788   2.588   0.581  14.238  0.0350 -0.5907 -0.1835
  800MPD2    H111789   2.192   0.743  14.293  0.5051 -1.1713 -2.6152
  800MPD2    H211790   2.490   0.764  14.602  1.0868 -0.6206 -0.5500
  800MPD2    H311791   2.257   0.812  14.516 -0.1953  0.9284 -0.0685
  800MPD2     N11792   2.351   0.650  14.109 -0.2596  0.1173  0.7952
  800MPD2    H511793   2.433   0.634  14.052  0.2007  3.2219  0.6119
  800MPD2    N111794   2.661   0.619  14.487 -0.1737  0.1223 -0.3711
  800MPD2    H711795   2.680   0.662  14.577  0.4598 -0.9921  0.0262
  801MPD2     C11796   3.224   1.060  14.440  0.0450 -0.0247  0.0911
  801MPD2    C111797   3.101   1.020  14.489 -0.3911  0.5876 -0.1187
  801MPD2    C211798   3.018   1.120  14.550 -0.1624  0.0556 -0.4823
  801MPD2    C311799   3.064   1.253  14.559 -0.0330 -0.0362 -0.5955
  801MPD2    C411800   3.180   1.293  14.500  0.3916  0.5756  0.6041
  801MPD2    C511801   3.257   1.195  14.448  0.3385 -0.3748  0.3612
  801MPD2     H11802   2.922   1.084  14.586  0.2962 -0.7414 -0.0582
  801MPD2    H111803   3.214   1.396  14.493  0.8239  0.2588 -2.0990
  801MPD2    H211804   3.295   0.987  14.403  0.2804  0.6879 -0.8643
  801MPD2    H311805   3.357   1.220  14.416 -0.2630  0.5556 -0.8222
  801MPD2     N11806   2.989   1.357  14.618  0.2451 -0.1085  0.2978
  801MPD2    H511807   3.028   1.451  14.610  1.7154 -0.8622 -1.2344
  801MPD2    N111808   3.054   0.889  14.463  0.5438 -0.3848 -0.0421
  801MPD2    H711809   2.967   0.858  14.505  0.5485  0.5590  0.6592
  802MPD2     C11810   1.501   1.658  17.232 -0.0541  0.2419  0.4597
  802MPD2    C111811   1.614   1.709  17.289 -0.2285  0.0488  0.9670
  802MPD2    C211812   1.717   1.627  17.319 -0.1976  0.3808 -0.2148
  802MPD2    C311813   1.722   1.499  17.266 -0.3704 -0.3033  0.1646
  802MPD2    C411814   1.626   1.455  17.182 -0.0968 -0.5942  0.4613
  802MPD2    C511815   1.519   1.543  17.164  0.5337 -0.4037 -0.4905
  802MPD2     H11816   1.792   1.655  17.391  1.9073  0.0289 -2.2475
  802MPD2    H111817   1.638   1.367  17.120 -2.5467 -0.5609 -0.0503
  802MPD2    H211818   1.427   1.729  17.196 -0.1220 -1.1183 -2.1039
  802MPD2    H311819   1.455   1.521  17.078  0.4831  2.8146 -1.2941
  802MPD2     N11820   1.825   1.419  17.320  0.2853  0.5090  0.6640
  802MPD2    H511821   1.893   1.460  17.384  0.2981  1.3899  0.0908
  802MPD2    N111822   1.619   1.833  17.352  0.0083  0.0918 -0.0497
  802MPD2    H711823   1.708   1.854  17.396  0.7344 -0.2037 -1.4088
  803MPD2     C11824   3.263   0.754  11.956 -0.3284  0.8459 -0.0780
  803MPD2    C111825   3.359   0.698  12.039  0.0445 -0.3632  0.9506
  803MPD2    C211826   3.319   0.590  12.116  0.2739  0.0718  0.1500
  803MPD2    C311827   3.190   0.542  12.128 -0.2382  0.1070 -0.3730
  803MPD2    C411828   3.101   0.609  12.056  0.9743 -0.9933  0.5830
  803MPD2    C511829   3.137   0.709  11.966  0.6983  0.3943  0.4573
  803MPD2     H11830   3.392   0.538  12.177 -1.3275 -0.4634  1.5907
  803MPD2    H111831   2.996   0.582  12.047  0.7153 -0.0153  0.7316
  803MPD2    H211832   3.274   0.830  11.879  2.6822 -1.4012 -1.8751
  803MPD2    H311833   3.061   0.751  11.902  0.7382  1.2558  0.9829
  803MPD2     N11834   3.153   0.430  12.213 -0.4608 -0.5449  0.6846
  803MPD2    H511835   3.053   0.416  12.213 -0.3452 -1.2976  1.2893
  803MPD2    N111836   3.496   0.738  12.052 -0.6114 -0.8658  0.3747
  803MPD2    H711837   3.551   0.694  12.126  0.5993 -0.4336 -0.2606
  804MPD2     C11838   2.754   1.488  17.313 -0.8327  0.5069  0.1326
  804MPD2    C111839   2.763   1.438  17.445 -0.3084 -0.3886  0.2602
  804MPD2    C211840   2.841   1.522  17.532  0.0826  0.4220 -0.1506
  804MPD2    C311841   2.887   1.650  17.505  1.0238 -0.1663 -0.1357
  804MPD2    C411842   2.861   1.697  17.380  0.3590 -0.3979  0.0268
  804MPD2    C511843   2.793   1.619  17.292  0.2196  0.9864  0.2592
  804MPD2     H11844   2.865   1.486  17.631 -0.9924 -2.0217 -0.7789
  804MPD2    H111845   2.892   1.795  17.343 -2.2599 -0.2802 -1.8636
  804MPD2    H211846   2.697   1.432  17.239  2.8296 -1.8586 -0.8845
  804MPD2    H311847   2.764   1.662  17.197  1.4280  1.6955  0.2112
  804MPD2     N11848   2.942   1.732  17.609 -0.4262  0.1924 -0.9825
  804MPD2    H511849   2.968   1.686  17.696 -1.1420  2.3257  0.3528
  804MPD2    N111850   2.711   1.317  17.488 -0.0810 -0.0301  0.1028
  804MPD2    H711851   2.731   1.297  17.586  1.0644 -0.8213 -0.2946
  805MPD2     C11852   1.979   4.512  15.787  0.5982  0.5837  0.2983
  805MPD2    C111853   2.052   4.494  15.668 -0.1603 -0.3040 -0.0646
  805MPD2    C211854   2.175   4.440  15.669  1.7096  0.7203 -0.2632
  805MPD2    C311855   2.238   4.393  15.785  0.2982 -0.7590 -0.4800
  805MPD2    C411856   2.171   4.414  15.906 -0.1038  0.1004  0.6957
  805MPD2    C511857   2.044   4.470  15.905 -0.1387 -1.1264 -0.6900
  805MPD2     H11858   2.231   4.426  15.577  1.1108  2.4155 -0.9018
  805MPD2    H111859   2.204   4.390  16.006  0.2752 -1.1582  0.2643
  805MPD2    H211860   1.877   4.546  15.799  0.3862 -0.4555  1.3375
  805MPD2    H311861   1.999   4.491  16.002  3.2591  1.2760  0.3948
  805MPD2     N11862   2.371   4.357  15.771 -0.8394 -0.4402 -0.0910
  805MPD2    H511863   2.401   4.342  15.675  0.3252  0.6887  0.1088
  805MPD2    N111864   2.015   4.533  15.536 -0.2945  0.2886  0.7345
  805MPD2    H711865   2.083   4.510  15.464 -0.8192 -0.2085  0.4071
  806MPD2     C11866   2.859   4.120   0.584  0.1424  0.7708 -0.1244
  806MPD2    C111867   2.781   4.196   0.670  0.3735  0.3515  0.5680
  806MPD2    C211868   2.717   4.311   0.618 -0.3874 -0.4040 -0.2149
  806MPD2    C311869   2.733   4.355   0.487  0.4260 -0.4952 -0.1546
  806MPD2    C411870   2.824   4.280   0.415  0.4064 -0.3111  0.5107
  806MPD2    C511871   2.880   4.163   0.456  0.4196  0.4205  0.3432
  806MPD2     H11872   2.648   4.366   0.681 -0.9893 -0.6305 -0.6819
  806MPD2    H111873   2.844   4.311   0.313  1.8868  2.5690  1.6903
  806MPD2    H211874   2.905   4.030   0.624  1.4400  1.4453 -0.0764
  806MPD2    H311875   2.947   4.107   0.392 -2.1364 -0.9837 -1.0993
  806MPD2     N11876   2.675   4.479   0.451  0.4745 -0.0111  0.1523
  806MPD2    H511877   2.647   4.536   0.530 -3.5863  0.0629 -1.3163
  806MPD2    N111878   2.764   4.141   0.799 -0.4410  0.2910  0.1798
  806MPD2    H711879   2.796   4.047   0.819 -0.5501  0.0576 -0.7667
  807MPD2     C11880   2.444   4.246   1.609  0.3308  0.2074 -0.4975
  807MPD2    C111881   2.523   4.135   1.587  0.6284 -0.7955  0.5249
  807MPD2    C211882   2.506   4.024   1.669 -0.2936  0.1049  0.2362
  807MPD2    C311883   2.418   4.032   1.775  0.6622  0.1207 -0.2367
  807MPD2    C411884   2.352   4.148   1.806 -0.4382 -0.3584 -0.3275
  807MPD2    C511885   2.371   4.251   1.719  0.2180  0.4478 -0.5106
  807MPD2     H11886   2.564   3.937   1.643  0.3231  0.3883  0.6558
  807MPD2    H111887   2.288   4.160   1.893 -1.5063 -1.6506 -0.9388
  807MPD2    H211888   2.464   4.337   1.553 -0.4502  1.4275  1.2287
  807MPD2    H311889   2.328   4.348   1.743 -0.5362  0.7642 -3.1315
  807MPD2     N11890   2.403   3.916   1.861  0.0297  0.0756 -0.5106
  807MPD2    H511891   2.462   3.839   1.833  1.3383 -0.0757  2.7028
  807MPD2    N111892   2.617   4.130   1.485 -0.2776 -0.1358 -0.5459
  807MPD2    H711893   2.670   4.044   1.478  0.2601 -0.0838  2.6895
  808MPD2     C11894   3.080   1.040  10.447 -0.3537  0.4378  0.3201
  808MPD2    C111895   3.150   0.981  10.343 -0.3640  0.2216  0.0129
  808MPD2    C211896   3.281   1.017  10.324  0.1556  0.3729 -0.3679
  808MPD2    C311897   3.347   1.119  10.394 -0.6815 -0.1978 -0.1009
  808MPD2    C411898   3.265   1.188  10.480 -0.6512 -1.1478  0.5906
  808MPD2    C511899   3.135   1.154  10.504  0.6642  0.5487 -0.3248
  808MPD2     H11900   3.337   0.963  10.248 -1.4365 -0.4956 -0.9146
  808MPD2    H111901   3.310   1.269  10.537 -1.1549 -0.4242 -0.0476
  808MPD2    H211902   2.980   1.013  10.477  0.0581 -1.8922 -0.4084
  808MPD2    H311903   3.081   1.200  10.585 -0.7060  0.5116 -1.2203
  808MPD2     N11904   3.480   1.164  10.364  0.7794  0.0623  0.0905
  808MPD2    H511905   3.504   1.259  10.389  0.7484 -0.0948  0.7365
  808MPD2    N111906   3.099   0.886  10.261  0.5470  0.4129  0.4959
  808MPD2    H711907   3.163   0.844  10.195  1.5370  1.3019  0.8826
  809MPD2     C11908   3.930   0.923   9.511  0.2099 -0.0214 -0.3868
  809MPD2    C111909   3.974   0.852   9.616 -0.2559  0.1323 -0.4974
  809MPD2    C211910   3.942   0.902   9.740 -0.2581 -0.1658 -0.0731
  809MPD2    C311911   3.874   1.022   9.757  0.0386  0.4289  0.3806
  809MPD2    C411912   3.837   1.095   9.652 -1.0823  0.1235  0.4051
  809MPD2    C511913   3.876   1.041   9.527  0.1163  0.6196  0.1474
  809MPD2     H11914   3.966   0.844   9.828 -0.2242 -0.0283  0.0082
  809MPD2    H111915   3.794   1.194   9.644  0.0989  0.5672 -0.4260
  809MPD2    H211916   3.959   0.907   9.407  1.9476  0.9429 -0.0487
  809MPD2    H311917   3.854   1.096   9.437 -0.4462 -2.0081 -1.3358
  809MPD2     N11918   3.859   1.070   9.883  0.4935  0.0078  0.6258
  809MPD2    H511919   3.864   1.011   9.966 -0.3704  0.4298  0.9837
  809MPD2    N111920   4.041   0.733   9.596 -0.1956 -0.4666 -0.0202
  809MPD2    H711921   4.064   0.691   9.685 -1.8313  1.6198  1.3914
  810MPD2     C11922   2.818   0.644  10.557  0.3039 -0.4829 -0.5349
  810MPD2    C111923   2.713   0.579  10.615  0.0736  0.2128 -0.1610
  810MPD2    C211924   2.680   0.613  10.747  0.3284 -0.1457 -0.1420
  810MPD2    C311925   2.735   0.720  10.811  0.2343  0.6987  0.3006
  810MPD2    C411926   2.843   0.783  10.753  0.1670 -0.5989  0.5449
  810MPD2    C511927   2.886   0.745  10.624  0.4188 -0.4780  0.1465
  810MPD2     H11928   2.610   0.555  10.806  0.2288  0.5064  0.3811
  810MPD2    H111929   2.902   0.859  10.803 -1.0660 -0.6900  2.1113
  810MPD2    H211930   2.846   0.637  10.452 -1.7663  3.2157 -1.3441
  810MPD2    H311931   2.968   0.804  10.584  0.0333 -0.0345  0.0144
  810MPD2     N11932   2.681   0.759  10.938  0.5723  0.4207 -0.5483
  810MPD2    H511933   2.732   0.839  10.976 -0.5389  0.6431  0.5109
  810MPD2    N111934   2.644   0.484  10.540  0.0140 -0.2939  0.1425
  810MPD2    H711935   2.667   0.475  10.442 -2.6338 -0.1531 -0.4952
  811MPD2     C11936   2.085   0.406   9.888  1.1350  0.5951  0.0208
  811MPD2    C111937   2.150   0.473   9.993 -0.1939  0.9939 -0.9051
  811MPD2    C211938   2.169   0.610   9.976  0.1953  0.0342  0.6197
  811MPD2    C311939   2.107   0.679   9.875 -0.0909 -0.7327  0.0716
  811MPD2    C411940   2.057   0.607   9.772  0.2428  0.1107  0.2416
  811MPD2    C511941   2.040   0.474   9.778  0.0774  0.1457 -0.5290
  811MPD2     H11942   2.231   0.664  10.046  1.6107 -2.0029  0.9537
  811MPD2    H111943   2.024   0.652   9.679 -0.2647  0.2953  0.5091
  811MPD2    H211944   2.080   0.298   9.891 -0.0775  0.6894  1.5124
  811MPD2    H311945   1.992   0.423   9.696 -1.6388 -0.2633  0.7311
  811MPD2     N11946   2.122   0.819   9.876 -0.2625 -0.5271  0.4820
  811MPD2    H511947   2.191   0.855   9.941  1.0183 -0.6911 -0.7707
  811MPD2    N111948   2.208   0.402  10.102  0.4928 -0.1914  0.2201
  811MPD2    H711949   2.202   0.301  10.105  2.7610 -0.3221  0.6731
  812MPD2     C11950   0.955   0.939  12.523  0.4103  1.3996  0.0763
  812MPD2    C111951   1.094   0.927  12.517  0.1911 -0.0741  0.8691
  812MPD2    C211952   1.151   0.804  12.543  0.2679  0.3563  0.3492
  812MPD2    C311953   1.074   0.688  12.565  0.2182 -0.8006  0.0702
  812MPD2    C411954   0.937   0.703  12.569  0.0983 -0.3477  0.3032
  812MPD2    C511955   0.880   0.829  12.556  0.7856  0.2958 -0.7359
  812MPD2     H11956   1.259   0.799  12.546  0.3847  1.8132 -1.5939
  812MPD2    H111957   0.876   0.616  12.591  0.0361 -0.3977 -0.0722
  812MPD2    H211958   0.903   1.033  12.505  2.0439  2.0869 -0.9959
  812MPD2    H311959   0.772   0.836  12.561  0.7333 -0.2130 -1.1710
  812MPD2     N11960   1.141   0.569  12.598 -0.3118  0.4146 -0.6356
  812MPD2    H511961   1.242   0.571  12.584 -0.1168  0.7066  0.8610
  812MPD2    N111962   1.166   1.040  12.495 -0.2098 -0.2511 -0.2263
  812MPD2    H711963   1.119   1.130  12.492  0.9903  0.4540  1.7202
  813MPD2     C11964   0.240   2.172  13.090  0.2094 -0.9895 -0.6328
  813MPD2    C111965   0.217   2.284  13.171 -0.1282  0.1317  0.0428
  813MPD2    C211966   0.123   2.283  13.272  0.0662 -0.4549  0.0169
  813MPD2    C311967   0.060   2.164  13.295 -0.3047 -0.1575 -0.3724
  813MPD2    C411968   0.086   2.047  13.222  0.3791  0.1104 -0.1834
  813MPD2    C511969   0.174   2.057  13.115 -0.2512 -0.0690  0.7130
  813MPD2     H11970   0.094   2.377  13.317 -0.2454 -0.2368 -0.6333
  813MPD2    H111971   0.042   1.953  13.253 -1.3422  2.1651  3.6046
  813MPD2    H211972   0.312   2.179  13.009 -0.3119 -2.0728 -1.1985
  813MPD2    H311973   0.192   1.975  13.046 -1.6692  0.8067 -0.6997
  813MPD2     N11974   4.687   2.168  13.397  0.0878  0.3008  0.4827
  813MPD2    H511975   4.664   2.260  13.433 -1.1267  0.8972 -1.8138
  813MPD2    N111976   0.297   2.400  13.140 -0.1610  0.3640 -0.2436
  813MPD2    H711977   0.355   2.400  13.057  0.4382 -3.2063  0.2067
  814MPD2     C11978   0.255   3.944  12.851 -0.1081  0.0875 -0.1177
  814MPD2    C111979   0.290   3.827  12.792 -0.0548 -0.6776 -0.2175
  814MPD2    C211980   0.404   3.761  12.826  0.0368 -0.3734  0.3739
  814MPD2    C311981   0.499   3.824  12.906  0.0258 -0.1955  0.1054
  814MPD2    C411982   0.464   3.951  12.959 -0.8951  0.2435  0.8484
  814MPD2    C511983   0.348   4.008  12.927 -0.0125  0.6758 -0.0817
  814MPD2     H11984   0.423   3.663  12.783 -1.4042 -1.4556  2.2024
  814MPD2    H111985   0.528   4.004  13.028 -1.0342  0.8777  0.4957
  814MPD2    H211986   0.156   3.985  12.835  0.8581  3.1408  1.5563
  814MPD2    H311987   0.334   4.107  12.971 -0.6114 -1.0481  3.5878
  814MPD2     N11988   0.632   3.782  12.928  0.4312 -0.0626 -0.3617
  814MPD2    H511989   0.689   3.833  12.995  0.3662 -0.2898 -0.1358
  814MPD2    N111990   0.204   3.777  12.687  0.0136 -0.5625 -0.0326
  814MPD2    H711991   0.129   3.833  12.649 -0.5407 -0.7526  0.7860
  815MPD2     C11992   1.025   2.309  11.860  0.3487  0.9366  0.8641
  815MPD2    C111993   1.037   2.171  11.886 -0.7307 -0.0828  0.4178
  815MPD2    C211994   0.964   2.108  11.987 -0.4160  0.7232  0.2704
  815MPD2    C311995   0.874   2.187  12.056 -0.3803  0.3060  0.4836
  815MPD2    C411996   0.864   2.323  12.032  0.3312  0.0750 -0.2428
  815MPD2    C511997   0.942   2.382  11.939  0.5600 -0.2433 -0.6910
  815MPD2     H11998   0.965   2.000  11.994 -0.4810  0.7112  0.0887
  815MPD2    H111999   0.793   2.384  12.086  2.4363  1.9636  0.4179
  815MPD2    H212000   1.073   2.356  11.774 -0.7527  0.5505  0.0364
  815MPD2    H312001   0.943   2.489  11.924  1.6839 -0.2885 -0.9049
  815MPD2     N12002   0.790   2.108  12.145  0.5719 -0.2817  0.7544
  815MPD2    H512003   0.813   2.009  12.143  2.0461  0.1091 -1.5478
  815MPD2    N112004   1.141   2.105  11.817  0.6528 -0.0446  0.2359
  815MPD2    H712005   1.188   2.149  11.739 -1.5332  1.0675 -0.4352
  816MPD2     C12006   1.201   1.102  17.087  0.1730 -0.0086 -0.2405
  816MPD2    C112007   1.283   1.183  17.169 -0.5260  0.1981  0.5973
  816MPD2    C212008   1.420   1.154  17.161 -0.3292  0.4591  0.3158
  816MPD2    C312009   1.462   1.053  17.077 -1.0360 -0.1843  0.3065
  816MPD2    C412010   1.379   0.973  17.009  0.6934  0.7272  0.3081
  816MPD2    C512011   1.244   0.993  17.017 -0.7134  0.0210  0.2083
  816MPD2     H12012   1.493   1.203  17.224 -0.5359  0.4964  0.5290
  816MPD2    H112013   1.412   0.884  16.957  0.5925 -0.1063  1.6651
  816MPD2    H212014   1.093   1.114  17.082  0.0335 -0.5038  1.8080
  816MPD2    H312015   1.181   0.917  16.974  0.3335  0.4789 -2.0995
  816MPD2     N12016   1.607   1.040  17.067 -0.2199 -0.6994  0.0276
  816MPD2    H512017   1.669   1.103  17.118 -0.9581 -0.3884  0.5425
  816MPD2    N112018   1.221   1.288  17.245 -0.1483 -0.0353 -0.2031
  816MPD2    H712019   1.120   1.302  17.241  0.1664  1.9432 -1.2601
  817MPD2     C12020   1.104   2.654  10.219 -0.8056  0.5165 -0.6640
  817MPD2    C112021   1.097   2.633  10.080  0.0401 -0.1439 -0.3103
  817MPD2    C212022   1.045   2.733  10.007  0.5640 -0.4099  0.2842
  817MPD2    C312023   1.005   2.853  10.061 -0.3051  0.5337 -0.4356
  817MPD2    C412024   1.009   2.870  10.195  0.2275  0.4638 -0.0700
  817MPD2    C512025   1.059   2.772  10.274 -0.0028  0.7225 -0.2026
  817MPD2     H12026   1.032   2.713   9.901 -0.3804 -2.8222  0.8581
  817MPD2    H112027   0.970   2.956  10.248  5.4762  1.7821  1.7243
  817MPD2    H212028   1.151   2.588  10.292 -1.2904  0.9904  0.0759
  817MPD2    H312029   1.050   2.777  10.382  1.3531  0.3062 -0.0681
  817MPD2     N12030   0.959   2.952   9.969  0.2139  0.2415  0.1610
  817MPD2    H512031   0.964   2.935   9.869 -0.5208  0.6771  0.0485
  817MPD2    N112032   1.134   2.503  10.025  0.7732  0.1305  0.3025
  817MPD2    H712033   1.113   2.497   9.926  0.9671  1.7172  0.1602
  818MPD2     C12034   4.370   2.539  10.028 -0.6840 -0.8137 -0.4438
  818MPD2    C112035   4.442   2.495  10.137  0.7201  0.1044  0.1976
  818MPD2    C212036   4.552   2.423  10.107  0.4626 -0.2330 -0.0725
  818MPD2    C312037   4.597   2.409   9.974  0.0857  0.2889  0.2123
  818MPD2    C412038   4.539   2.479   9.871 -0.1874 -0.1845  0.2877
  818MPD2    C512039   4.421   2.542   9.899 -0.6666 -0.3200  0.0397
  818MPD2     H12040   4.595   2.367  10.190  1.7367 -0.0461 -0.6116
  818MPD2    H112041   4.573   2.475   9.768  2.2227  3.4392  0.9337
  818MPD2    H212042   4.271   2.583  10.037 -0.8869 -1.3669 -0.0019
  818MPD2    H312043   4.360   2.587   9.821  0.0273  1.3957  0.4790
  818MPD2     N12044   4.709   2.322   9.940  0.1971  0.6890  0.2897
  818MPD2    H512045   4.716   2.294   9.843 -1.8129  2.8263 -0.4711
  818MPD2    N112046   4.384   2.502  10.265 -0.2025 -0.7394 -0.0640
  818MPD2    H712047   4.433   2.463  10.345  1.6222  1.7358  0.0402
  819MPD2     C12048   2.825   4.166  15.590 -0.2434 -0.4508  0.3466
  819MPD2    C112049   2.807   4.040  15.624 -0.1369  0.2987  0.4409
  819MPD2    C212050   2.894   3.983  15.711  0.2507 -0.1775  0.3740
  819MPD2    C312051   3.015   4.048  15.728 -0.3124  0.0445  0.3037
  819MPD2    C412052   3.031   4.177  15.684  0.4609 -0.5482  0.4247
  819MPD2    C512053   2.929   4.246  15.624  0.5538  0.3318  0.0472
  819MPD2     H12054   2.881   3.884  15.754  1.8640 -0.1380  0.9626
  819MPD2    H112055   3.123   4.233  15.691  0.5905 -0.3251 -3.1969
  819MPD2    H212056   2.752   4.208  15.522  1.2532  1.1752 -0.2695
  819MPD2    H312057   2.939   4.346  15.585 -1.3378  1.4953  2.5540
  819MPD2     N12058   3.114   3.983  15.806 -0.2512 -0.2613 -0.2165
  819MPD2    H512059   3.084   3.896  15.849 -0.1721 -0.8705 -1.3904
  819MPD2    N112060   2.685   3.987  15.583  0.0742  0.0320  0.2647
  819MPD2    H712061   2.633   4.034  15.510 -0.0535 -2.3434 -1.1570
  820MPD2     C12062   2.125   4.198  14.887 -1.2333 -0.2595  0.2871
  820MPD2    C112063   2.147   4.252  15.009  0.1700 -0.1401 -0.7391
  820MPD2    C212064   2.199   4.170  15.113  0.3805  0.3651 -0.2674
  820MPD2    C312065   2.231   4.037  15.097  0.4832  0.1568 -0.1962
  820MPD2    C412066   2.201   3.983  14.974  0.1588 -1.0735 -0.3767
  820MPD2    C512067   2.161   4.064  14.874  0.5213  0.1092  0.3579
  820MPD2     H12068   2.221   4.221  15.206  1.0253 -0.4931  0.0400
  820MPD2    H112069   2.224   3.881  14.948 -1.9845 -1.3042 -1.2993
  820MPD2    H212070   2.094   4.255  14.800  2.8358 -1.3656 -1.8896
  820MPD2    H312071   2.149   4.010  14.781  1.1028 -0.8258  0.8201
  820MPD2     N12072   2.283   3.953  15.206 -0.0111 -0.3734 -0.2511
  820MPD2    H512073   2.316   3.863  15.175  0.2196 -1.5966  3.5518
  820MPD2    N112074   2.110   4.389  15.028  0.3531  0.2081  0.1685
  820MPD2    H712075   2.073   4.444  14.951  2.5688  1.8551  0.2672
  821MPD2     C12076   2.333   1.239  13.507  0.0829  0.2926 -0.2404
  821MPD2    C112077   2.437   1.171  13.563 -0.2908 -0.4322 -0.1378
  821MPD2    C212078   2.561   1.207  13.533  0.0847  0.3733 -0.4634
  821MPD2    C312079   2.583   1.309  13.442 -0.2761 -0.0454 -0.4370
  821MPD2    C412080   2.480   1.378  13.385  0.4748  0.5439 -0.1674
  821MPD2    C512081   2.355   1.336  13.410  0.4248  0.5430  0.1339
  821MPD2     H12082   2.640   1.143  13.569 -0.7354 -1.7926 -2.5575
  821MPD2    H112083   2.498   1.453  13.308 -3.4275  1.9086  0.2779
  821MPD2    H212084   2.230   1.206  13.511 -0.5440  2.1471 -0.7585
  821MPD2    H312085   2.277   1.379  13.348  0.2561  1.6467  1.1109
  821MPD2     N12086   2.713   1.361  13.421  0.0204  0.1574 -0.5203
  821MPD2    H512087   2.738   1.417  13.341 -0.0247 -0.3327 -0.8806
  821MPD2    N112088   2.411   1.062  13.648  0.7149  0.2147 -0.3225
  821MPD2    H712089   2.490   1.008  13.682  2.2237  2.4642 -0.2242
  822MPD2     C12090   3.120   0.820  15.873 -0.0698  0.3361  0.2120
  822MPD2    C112091   3.126   0.791  16.009 -0.0662  0.2764  0.2258
  822MPD2    C212092   3.121   0.882  16.109  0.6203 -0.3899  0.3682
  822MPD2    C312093   3.092   1.012  16.087  0.1804  0.5069 -0.7565
  822MPD2    C412094   3.074   1.049  15.954 -0.7095  0.7170  0.6385
  822MPD2    C512095   3.094   0.954  15.851  0.3078  0.2543  0.4513
  822MPD2     H12096   3.146   0.847  16.208  2.7128 -1.4409 -0.5262
  822MPD2    H112097   3.041   1.148  15.925  1.2968  1.7362  1.8457
  822MPD2    H212098   3.130   0.751  15.791  1.4997 -0.5083  1.1264
  822MPD2    H312099   3.097   0.993  15.749 -0.0808 -1.9557 -0.3911
  822MPD2     N12100   3.083   1.091  16.201  0.7311  0.3918  0.3742
  822MPD2    H512101   3.096   1.045  16.290  0.0095 -0.6892 -0.0748
  822MPD2    N112102   3.158   0.661  16.047 -0.1306  0.1293  0.1028
  822MPD2    H712103   3.185   0.651  16.144 -1.1838  0.0944  0.3909
  823MPD2     C12104   2.867   1.140  17.004 -0.6113 -0.3476 -0.2972
  823MPD2    C112105   2.914   1.070  16.893  0.0420  0.7178 -0.8990
  823MPD2    C212106   2.939   0.935  16.906  0.8903 -0.0378 -0.2806
  823MPD2    C312107   2.931   0.872  17.033 -0.2310  0.0464  0.2813
  823MPD2    C412108   2.882   0.945  17.137 -0.4705  0.5931  0.4766
  823MPD2    C512109   2.847   1.078  17.127 -0.1838 -0.4632 -0.0798
  823MPD2     H12110   2.979   0.878  16.822 -2.0407 -1.7286 -0.5292
  823MPD2    H112111   2.873   0.889  17.230  2.2490  0.5083  0.6823
  823MPD2    H212112   2.851   1.247  17.000  0.0565 -0.2434 -0.1332
  823MPD2    H312113   2.815   1.134  17.214 -1.8125  0.3487 -1.2097
  823MPD2     N12114   2.980   0.744  17.068  0.0504  0.2143  0.2212
  823MPD2    H512115   2.949   0.717  17.161  0.0399  0.4473  0.2841
  823MPD2    N112116   2.951   1.143  16.778 -0.5917  0.6012 -0.3444
  823MPD2    H712117   2.942   1.244  16.780  0.6382  0.6609  2.4062
  824MPD2     C12118   3.374   4.535  15.919  0.2447  0.2629 -0.5162
  824MPD2    C112119   3.462   4.637  15.962 -0.0169  0.2996  0.4168
  824MPD2    C212120   3.598   4.613  15.974 -0.6024  0.1953 -0.0237
  824MPD2    C312121   3.646   4.488  15.936 -0.2618  0.1600 -0.0847
  824MPD2    C412122   3.559   4.396  15.889 -0.3973  0.1079 -0.7157
  824MPD2    C512123   3.423   4.423  15.877 -0.2161 -0.1626  0.2773
  824MPD2     H12124   3.670   4.689  16.003  1.4590 -1.7465 -0.1154
  824MPD2    H112125   3.586   4.292  15.873  2.1153  1.0603 -2.5861
  824MPD2    H212126   3.267   4.547  15.911  0.1032 -0.7834 -0.2012
  824MPD2    H312127   3.358   4.340  15.851  1.0024 -0.7982 -0.7624
  824MPD2     N12128   3.783   4.464  15.946  0.3222 -0.2132 -0.2403
  824MPD2    H512129   3.841   4.546  15.961  0.8541 -1.2132  3.2900
  824MPD2    N112130   3.415   0.037  16.000  0.2689 -0.5005 -0.2662
  824MPD2    H712131   3.475   0.104  16.047  2.6669 -2.4862 -0.4893
  825MPD2     C12132   4.496   4.655  15.600  0.1692  0.1294  0.5975
  825MPD2    C112133   4.405   4.702  15.688  0.4497  0.1707 -0.4137
  825MPD2    C212134   4.404   0.113  15.709 -0.3027 -0.3182  0.6451
  825MPD2    C312135   4.493   0.194  15.636 -0.7599  0.4171 -0.4791
  825MPD2    C412136   4.580   0.136  15.545 -0.1653  0.3323  0.1684
  825MPD2    C512137   4.581   0.007  15.530 -0.2930 -0.3157  0.1580
  825MPD2     H12138   4.338   0.166  15.776 -1.0136 -0.1564 -0.1771
  825MPD2    H112139   4.651   0.201  15.495 -1.9581  2.9021  0.9416
  825MPD2    H212140   4.500   4.549  15.577 -1.3829 -0.4498  2.8479
  825MPD2    H312141   4.655   4.690  15.463  0.9441  2.4771 -0.2682
  825MPD2     N12142   4.497   0.339  15.636  0.3777 -0.1778  0.5455
  825MPD2    H512143   4.565   0.379  15.571  0.6809 -0.4061  0.7220
  825MPD2    N112144   4.333   4.609  15.769  0.3912  0.3640 -0.1499
  825MPD2    H712145   4.352   4.511  15.751 -0.8238  0.2819 -1.0608
  826MPD2     C12146   3.717   4.240  13.985 -0.1486  0.2800 -0.6314
  826MPD2    C112147   3.787   4.295  13.879 -0.4644 -0.3116 -0.0538
  826MPD2    C212148   3.753   4.421  13.834  0.0471 -0.6476  0.4452
  826MPD2    C312149   3.662   4.500  13.892 -0.1139  0.2577  0.0368
  826MPD2    C412150   3.590   4.437  13.996  0.0207  0.1827  0.1298
  826MPD2    C512151   3.613   4.312  14.041 -0.0337 -0.1467 -0.4462
  826MPD2     H12152   3.797   4.460  13.743  2.3455 -1.3395  1.2582
  826MPD2    H112153   3.516   4.496  14.050  0.4546  0.5019  0.3879
  826MPD2    H212154   3.736   4.138  14.016  2.3940  1.2560  1.0381
  826MPD2    H312155   3.546   4.267  14.114 -0.2686  0.2149 -0.4414
  826MPD2     N12156   3.633   4.631  13.864  0.4502  0.1399  0.6479
  826MPD2    H512157   3.557   4.677  13.912 -0.9648 -0.3475 -1.1104
  826MPD2    N112158   3.889   4.215  13.835  0.6682  0.3779  0.8029
  826MPD2    H712159   3.903   4.125  13.880 -3.6711 -0.4010  0.6393
  827MPD2     C12160   0.448   1.458  10.103  0.2137  0.5523  1.1045
  827MPD2    C112161   0.524   1.384  10.190 -0.0659  0.1937 -0.0123
  827MPD2    C212162   0.590   1.279  10.130  0.5172  1.3207 -0.3691
  827MPD2    C312163   0.573   1.238   9.999 -0.0749 -0.1964 -0.3788
  827MPD2    C412164   0.498   1.316   9.921  0.4417 -0.4542  0.1073
  827MPD2    C512165   0.436   1.430   9.969  0.4069  0.2668 -0.4627
  827MPD2     H12166   0.664   1.222  10.185  0.4465  3.0131  1.4700
  827MPD2    H112167   0.493   1.292   9.815 -0.0369 -0.9136  0.2308
  827MPD2    H212168   0.395   1.547  10.136 -1.4148 -0.5830  1.5431
  827MPD2    H312169   0.387   1.488   9.892 -1.8429  0.5420  1.1700
  827MPD2     N12170   0.639   1.116   9.957  0.5467 -0.3855 -0.2160
  827MPD2    H512171   0.712   1.087  10.021 -0.6334 -0.3235  1.1649
  827MPD2    N112172   0.532   1.414  10.327  0.2407  0.1499  0.3643
  827MPD2    H712173   0.486   1.497  10.364  0.5009 -0.1151  1.3004
  828MPD2     C12174   3.418   1.230  12.982 -0.2170 -0.0162  0.1497
  828MPD2    C112175   3.426   1.305  12.866  0.1894  0.7778  0.2058
  828MPD2    C212176   3.548   1.296  12.791  0.7521  0.6139  0.4804
  828MPD2    C312177   3.651   1.217  12.830 -0.7027  0.2491 -0.4837
  828MPD2    C412178   3.645   1.144  12.944  0.5668  0.4883  0.6070
  828MPD2    C512179   3.528   1.148  13.014  0.2928  0.4588  0.1283
  828MPD2     H12180   3.556   1.358  12.703 -0.1885  0.7867  0.5111
  828MPD2    H112181   3.728   1.083  12.977  2.6962  1.9554 -2.1361
  828MPD2    H212182   3.328   1.229  13.042 -0.6172 -3.1673 -0.4989
  828MPD2    H312183   3.517   1.088  13.104  0.4996 -0.5360 -0.5101
  828MPD2     N12184   3.773   1.204  12.760  0.0948 -0.3970  0.0194
  828MPD2    H512185   3.837   1.132  12.791 -2.0019 -2.0662  0.5189
  828MPD2    N112186   3.321   1.380  12.811 -0.2833  1.1312  0.2656
  828MPD2    H712187   3.340   1.431  12.725 -0.4153  1.8594  0.6710
  829MPD2     C12188   3.261   1.476  11.962  0.1016  0.1599 -0.2844
  829MPD2    C112189   3.135   1.520  11.989  0.6221  0.1758 -0.7092
  829MPD2    C212190   3.096   1.514  12.123  0.1994 -0.8083 -0.0743
  829MPD2    C312191   3.175   1.456  12.219 -0.1380 -0.5507  0.3579
  829MPD2    C412192   3.306   1.413  12.188 -0.7012  0.0031 -0.3086
  829MPD2    C512193   3.347   1.431  12.061 -0.0467 -0.6622 -0.0502
  829MPD2     H12194   2.992   1.542  12.139  0.3408  0.1228 -0.8025
  829MPD2    H112195   3.368   1.367  12.264 -2.7125  0.4783  1.6248
  829MPD2    H212196   3.283   1.490  11.857 -1.5423  0.3399 -0.5939
  829MPD2    H312197   3.446   1.397  12.030  0.5527 -0.2737  1.4356
  829MPD2     N12198   3.146   1.447  12.359 -0.5626 -0.0420 -0.1654
  829MPD2    H512199   3.220   1.409  12.418 -2.0698 -1.0246  1.0848
  829MPD2    N112200   3.057   1.567  11.872 -0.1867 -0.0222 -0.4933
  829MPD2    H712201   3.091   1.567  11.777 -0.8681 -0.4125 -0.7313
  830MPD2     C12202   3.776   3.662  15.781  0.1449  0.1943 -0.2597
  830MPD2    C112203   3.657   3.699  15.729  1.0290  0.5218 -0.4715
  830MPD2    C212204   3.631   3.824  15.678  0.1244 -0.2060  0.3080
  830MPD2    C312205   3.725   3.923  15.705 -0.3544  0.3734  0.0168
  830MPD2    C412206   3.848   3.888  15.755  0.1033 -0.9047 -0.0038
  830MPD2    C512207   3.866   3.763  15.794 -0.7649  0.0743  0.3116
  830MPD2     H12208   3.534   3.850  15.639  1.1061  1.9903 -0.6556
  830MPD2    H112209   3.910   3.970  15.790  2.4508 -2.2289 -1.0404
  830MPD2    H212210   3.801   3.564  15.820 -3.4300 -1.1044 -1.1811
  830MPD2    H312211   3.960   3.729  15.836 -1.0710  0.8776  1.6447
  830MPD2     N12212   3.684   4.041  15.655 -0.4423  0.2417 -0.4662
  830MPD2    H512213   3.592   4.058  15.615 -0.4879 -0.7645 -0.7776
  830MPD2    N112214   3.560   3.595  15.738  0.1156  0.2758  0.3445
  830MPD2    H712215   3.585   3.511  15.789  0.4490  1.3310  1.9194
  831MPD2     C12216   3.356   1.093  16.596 -0.3147  0.2412 -0.5725
  831MPD2    C112217   3.347   1.029  16.476 -0.0912  0.3576  1.1487
  831MPD2    C212218   3.269   0.917  16.461  0.3844 -0.4636  0.7275
  831MPD2    C312219   3.218   0.857  16.572 -0.3274  1.5298  0.2993
  831MPD2    C412220   3.242   0.916  16.695  0.7988  0.1512 -0.1669
  831MPD2    C512221   3.308   1.037  16.708 -0.0313 -0.3442 -0.2842
  831MPD2     H12222   3.279   0.854  16.374 -1.5849 -0.5850  0.5882
  831MPD2    H112223   3.206   0.874  16.788  0.8654  0.0373 -0.1921
  831MPD2    H212224   3.417   1.181  16.609 -1.7832  1.3908 -1.4631
  831MPD2    H312225   3.326   1.082  16.805 -4.7840  3.3996 -1.0864
  831MPD2     N12226   3.150   0.736  16.572  0.7953 -0.4118  0.0792
  831MPD2    H512227   3.113   0.712  16.663  0.8614 -0.5222  0.0768
  831MPD2    N112228   3.421   1.093  16.373 -1.0432 -0.1689  0.1194
  831MPD2    H712229   3.461   1.182  16.400 -0.1897  0.1793 -2.3179
  832MPD2     C12230   2.152   2.218  17.639  0.6499 -0.2704 -0.0013
  832MPD2    C112231   2.108   2.347  17.633 -0.3069 -0.5916  0.3998
  832MPD2    C212232   2.039   2.393  17.521 -0.2607  0.7485  0.6663
  832MPD2    C312233   2.010   2.302  17.421 -0.9104  0.4380  0.5125
  832MPD2    C412234   2.049   2.176  17.428 -0.6006  0.6040  0.2695
  832MPD2    C512235   2.113   2.132  17.541 -0.3760  0.0126  0.3832
  832MPD2     H12236   2.001   2.494  17.523  0.1971  0.9038  1.2311
  832MPD2    H112237   2.030   2.104  17.349  0.8221  2.6126 -1.8792
  832MPD2    H212238   2.219   2.184   0.013  2.0674  1.7326 -0.3198
  832MPD2    H312239   2.151   2.031  17.542 -0.2753  0.0835  2.2413
  832MPD2     N12240   1.932   2.335  17.307  0.5329 -0.0385 -0.2181
  832MPD2    H512241   1.901   2.262  17.244  0.6632 -1.2090  1.0645
  832MPD2    N112242   2.134   2.431   0.045  0.6846  0.8622  0.2792
  832MPD2    H712243   2.184   2.391   0.123 -0.5990  1.4203  1.3901
  833MPD2     C12244   3.949   3.504  12.525 -0.3186  0.0697 -0.2103
  833MPD2    C112245   4.029   3.617  12.542 -0.1066  0.6850  0.4631
  833MPD2    C212246   4.150   3.624  12.467  0.6833  0.0536  0.2643
  833MPD2    C312247   4.169   3.536  12.365  0.5277 -0.4175 -0.1530
  833MPD2    C412248   4.071   3.435  12.339  0.0267  0.4607 -0.4465
  833MPD2    C512249   3.960   3.424  12.416 -0.2665  0.3905  0.2301
  833MPD2     H12250   4.211   3.713  12.481 -2.8105  2.4756 -0.0110
  833MPD2    H112251   4.080   3.370  12.253 -0.7993  1.7185 -1.4826
  833MPD2    H212252   3.864   3.494  12.592  1.9988 -0.5910  2.6389
  833MPD2    H312253   3.887   3.345  12.402 -0.0459 -0.0892  1.8795
  833MPD2     N12254   4.276   3.556  12.278 -0.1717  0.5641 -0.2552
  833MPD2    H512255   4.273   3.508  12.189  0.9539 -0.9126  0.4892
  833MPD2    N112256   3.990   3.726  12.626  0.2119  0.0087 -0.3914
  833MPD2    H712257   3.908   3.709  12.683  1.5503  0.6290  1.7635
  834MPD2     C12258   3.859   3.306  11.632 -0.7419  0.6114 -0.1420
  834MPD2    C112259   3.938   3.390  11.556 -0.4280  0.2971 -0.5855
  834MPD2    C212260   4.033   3.469  11.616 -0.2317 -0.3151 -0.0443
  834MPD2    C312261   4.056   3.451  11.753  0.1292 -0.0561 -0.1883
  834MPD2    C412262   3.983   3.359  11.834 -0.0079  0.7537  0.0299
  834MPD2    C512263   3.875   3.301  11.768 -0.0777 -0.3933  0.1475
  834MPD2     H12264   4.101   3.537  11.566  0.4317 -1.2966 -0.4757
  834MPD2    H112265   4.002   3.347  11.940  2.6506 -0.0050 -0.5488
  834MPD2    H212266   3.771   3.260  11.588 -0.4976 -0.3138  0.3497
  834MPD2    H312267   3.813   3.230  11.822 -1.5446  1.4461  0.8918
  834MPD2     N12268   4.160   3.538  11.802  0.2596  0.6757 -0.4356
  834MPD2    H512269   4.224   3.582  11.737  0.6539  0.7173 -0.0210
  834MPD2    N112270   3.908   3.392  11.412  0.5436 -0.1171  0.5815
  834MPD2    H712271   3.838   3.325  11.381  0.3520  0.8374 -1.0490
  835MPD2     C12272   4.210   1.295  11.264 -0.0876 -0.4072 -0.1490
  835MPD2    C112273   4.076   1.316  11.250  0.6103  0.0740 -0.2791
  835MPD2    C212274   4.007   1.362  11.363  0.0638 -0.3051 -0.2663
  835MPD2    C312275   4.064   1.367  11.490  0.3255 -0.3806 -0.3740
  835MPD2    C412276   4.203   1.346  11.497 -0.4017  0.2337  0.4610
  835MPD2    C512277   4.272   1.312  11.384  0.0377  0.4524  0.2077
  835MPD2     H12278   3.904   1.393  11.352  0.1076  0.0820  0.4147
  835MPD2    H112279   4.264   1.358  11.586  0.8514 -1.7265 -0.1262
  835MPD2    H212280   4.273   1.280  11.177 -0.4483 -0.9489 -0.3150
  835MPD2    H312281   4.380   1.322  11.384  0.0221  0.4179  4.1027
  835MPD2     N12282   4.008   1.418  11.609  0.5925  0.3784  0.2932
  835MPD2    H512283   4.071   1.424  11.689  0.8059  3.5010 -0.1136
  835MPD2    N112284   4.010   1.323  11.124  0.1127 -0.1336  0.2616
  835MPD2    H712285   3.913   1.351  11.120  0.2619  0.1203 -1.5613
  836MPD2     C12286   3.336   1.809  11.723  0.4537 -0.0738 -0.1976
  836MPD2    C112287   3.379   1.758  11.839  0.4227 -0.4352 -0.2411
  836MPD2    C212288   3.311   1.779  11.960  0.0326  0.0167 -0.3128
  836MPD2    C312289   3.199   1.858  11.960 -0.1220 -0.4601  0.0805
  836MPD2    C412290   3.151   1.902  11.839  0.2610 -0.1564  1.2979
  836MPD2    C512291   3.223   1.886  11.727  0.1910  0.9913  0.1916
  836MPD2     H12292   3.343   1.735  12.054 -3.9099 -0.0061  1.0073
  836MPD2    H112293   3.067   1.970  11.837  0.4847  0.1278  1.5532
  836MPD2    H212294   3.392   1.792  11.631 -0.3278 -3.1192 -0.0999
  836MPD2    H312295   3.190   1.933  11.636  2.6615  0.3165 -1.0681
  836MPD2     N12296   3.113   1.875  12.072 -0.5475  0.8914  0.0874
  836MPD2    H512297   3.021   1.916  12.062  0.0303  2.4447  1.1068
  836MPD2    N112298   3.505   1.694  11.834 -0.0781 -0.1957 -0.7839
  836MPD2    H712299   3.544   1.687  11.740  0.9038 -0.3368 -0.3578
  837MPD2     C12300   2.104   1.508  10.281 -0.0178  0.0385  0.6169
  837MPD2    C112301   2.011   1.487  10.174 -0.0765  0.0283 -0.2646
  837MPD2    C212302   1.916   1.580  10.150  0.6178  0.1435  0.5037
  837MPD2    C312303   1.917   1.709  10.216  0.4396 -0.0541  0.0538
  837MPD2    C412304   2.002   1.731  10.316  0.1645  0.2664  0.4067
  837MPD2    C512305   2.094   1.627  10.345 -0.1498 -0.3432  0.2054
  837MPD2     H12306   1.850   1.564  10.066  2.2993 -2.0995 -0.3813
  837MPD2    H112307   2.013   1.823  10.372 -2.6113  0.6513  0.3333
  837MPD2    H212308   2.189   1.445  10.306  1.6405  1.2453 -1.9966
  837MPD2    H312309   2.167   1.636  10.425 -1.3908 -1.3703  1.4667
  837MPD2     N12310   1.829   1.811  10.165  0.0592  0.5619  0.0299
  837MPD2    H512311   1.771   1.784  10.086  1.8415 -0.2353 -1.0065
  837MPD2    N112312   2.025   1.391  10.070  0.3310  0.0306  0.7733
  837MPD2    H712313   1.958   1.384   9.995 -1.1315  0.9325  1.9883
  838MPD2     C12314   0.375   4.406  12.220 -0.7081 -0.0914  0.2516
  838MPD2    C112315   0.323   4.297  12.153 -0.5245 -1.0763  0.5747
  838MPD2    C212316   0.213   4.233  12.208  0.1306 -0.0028  0.3422
  838MPD2    C312317   0.142   4.273  12.317  0.0438 -0.3185  0.3534
  838MPD2    C412318   0.198   4.374  12.394 -0.4530 -0.4503 -0.6836
  838MPD2    C512319   0.310   4.433  12.342 -0.2737 -0.4853  0.3716
  838MPD2     H12320   0.177   4.144  12.157  0.8653 -0.2107  0.1749
  838MPD2    H112321   0.156   4.412  12.486  0.5853 -4.0443  1.2843
  838MPD2    H212322   0.462   4.465  12.194  1.6681 -2.2359  3.3088
  838MPD2    H312323   0.353   4.514  12.398 -1.2667 -0.7517  1.5136
  838MPD2     N12324   0.024   4.217  12.361  0.6166  0.8042 -0.2696
  838MPD2    H512325   4.710   4.259  12.444 -1.2066 -2.8935  0.7184
  838MPD2    N112326   0.367   4.252  12.030  0.2166  0.0499  0.0066
  838MPD2    H712327   0.316   4.166  12.011 -0.4923  0.8911 -1.8418
  839MPD2     C12328   4.466   3.904  11.611  0.2251  0.0353  0.1847
  839MPD2    C112329   4.580   3.821  11.596  0.3990  0.6403  1.0094
  839MPD2    C212330   4.708   3.883  11.595  0.4483 -0.0655 -0.7446
  839MPD2    C312331   4.722   4.018  11.629 -0.1704 -0.1772 -0.0499
  839MPD2    C412332   4.612   4.095  11.661  0.0188 -0.2687 -0.0104
  839MPD2    C512333   4.487   4.039  11.652  0.1885 -0.0535 -0.5854
  839MPD2     H12334   0.066   3.814  11.598  2.1239  1.9331 -1.4133
  839MPD2    H112335   4.606   4.200  11.689  0.7939 -0.7736  2.0732
  839MPD2    H212336   4.366   3.864  11.605 -0.0304  0.8073 -0.7171
  839MPD2    H312337   4.399   4.095  11.683 -1.3032 -2.8503  0.2767
  839MPD2     N12338   0.126   4.079  11.646 -0.5777 -0.1157 -0.2776
  839MPD2    H512339   0.127   4.180  11.658  1.4520  0.2745 -3.6464
  839MPD2    N112340   4.578   3.688  11.571 -0.5816 -0.0850 -0.1006
  839MPD2    H712341   4.662   3.641  11.538  0.5002  0.9639  1.1336
  840MPD2     C12342   0.966   1.858  10.392 -0.5590  0.0616  0.0893
  840MPD2    C112343   0.897   1.850  10.507  0.0049 -0.0151  0.1616
  840MPD2    C212344   0.895   1.960  10.594  0.6901 -0.5740  0.5554
  840MPD2    C312345   0.966   2.079  10.562  0.3471  0.3579  0.0112
  840MPD2    C412346   1.036   2.081  10.442 -0.0610 -0.4743  0.5729
  840MPD2    C512347   1.025   1.976  10.354 -0.0708  0.0717  0.4276
  840MPD2     H12348   0.833   1.961  10.682 -0.3234 -0.5403 -0.1617
  840MPD2    H112349   1.098   2.166  10.416 -1.9520  0.7326  0.0882
  840MPD2    H212350   0.963   1.779  10.317  0.5219  0.5052 -0.4195
  840MPD2    H312351   1.058   1.988  10.251  1.2230 -1.6214  0.6593
  840MPD2     N12352   0.967   2.198  10.638  0.3610  0.0861 -0.0967
  840MPD2    H512353   1.025   2.272  10.599 -1.9090  1.4243 -0.9342
  840MPD2    N112354   0.819   1.735  10.542  0.3888  0.2236 -0.3440
  840MPD2    H712355   0.804   1.667  10.469 -0.0527 -1.5548  1.3959
  841MPD2     C12356   0.437   1.453  15.228  0.4463 -0.3964 -0.0644
  841MPD2    C112357   0.474   1.428  15.101  0.3474  0.4360 -0.9302
  841MPD2    C212358   0.508   1.537  15.021  0.3128  0.0787 -0.0074
  841MPD2    C312359   0.517   1.667  15.075 -0.0391  0.3399  0.2667
  841MPD2    C412360   0.499   1.686  15.209  0.6399 -0.5526  0.0406
  841MPD2    C512361   0.453   1.578  15.281 -0.1107  0.5637 -0.2344
  841MPD2     H12362   0.537   1.529  14.917  0.7682  2.1954 -0.0498
  841MPD2    H112363   0.524   1.777  15.263  2.1963  0.2450 -2.0619
  841MPD2    H212364   0.413   1.370  15.293 -2.1008  0.0792 -0.3968
  841MPD2    H312365   0.431   1.586  15.387  2.0602  1.7384  0.1173
  841MPD2     N12366   0.561   1.775  14.990 -0.4692  0.2527  0.3010
  841MPD2    H512367   0.583   1.749  14.895  1.2581  0.9052  0.5161
  841MPD2    N112368   0.467   1.299  15.045 -0.1560  1.0188  0.0433
  841MPD2    H712369   0.466   1.220  15.109 -0.3349 -1.1615 -2.6504
  842MPD2     C12370   0.720   2.406  16.405  0.7161  0.4551 -0.3645
  842MPD2    C112371   0.794   2.496  16.476 -0.6177  0.5220 -0.3259
  842MPD2    C212372   0.880   2.449  16.573  0.7722  0.0448 -0.2485
  842MPD2    C312373   0.886   2.312  16.602  0.3197 -0.0666 -0.2212
  842MPD2    C412374   0.806   2.225  16.527 -0.0041 -0.5157  1.1104
  842MPD2    C512375   0.727   2.270  16.426  0.1404 -0.1336  0.3312
  842MPD2     H12376   0.935   2.520  16.634 -0.5958  1.0311 -0.1780
  842MPD2    H112377   0.813   2.117  16.538  0.7160 -0.6832 -1.0195
  842MPD2    H212378   0.648   2.444  16.334  0.1133  0.5810  0.3178
  842MPD2    H312379   0.668   2.200  16.367  1.9690 -0.1809 -1.4656
  842MPD2     N12380   0.959   2.255  16.716 -0.0525  0.3761  0.2398
  842MPD2    H512381   0.929   2.164  16.749  1.3340 -0.3080 -0.4147
  842MPD2    N112382   0.754   2.629  16.473 -0.1537 -0.0205  0.2090
  842MPD2    H712383   0.664   2.644  16.429  0.2259 -0.1088 -0.5917
  843MPD2     C12384   2.803   2.579  17.658 -0.7983 -0.5378 -0.5939
  843MPD2    C112385   2.883   2.499   0.040 -0.3771  0.9366 -0.1790
  843MPD2    C212386   3.005   2.545   0.100 -0.2312 -0.0016  0.2466
  843MPD2    C312387   3.052   2.671   0.062 -0.2131  0.5707 -0.2757
  843MPD2    C412388   2.969   2.750  17.681  0.4287  0.1978  0.3944
  843MPD2    C512389   2.846   2.711  17.640 -0.6990  1.0533  0.3878
  843MPD2     H12390   3.059   2.473   0.161  2.6528  2.9394  1.1331
  843MPD2    H112391   2.997   2.849  17.647  0.5669  0.8807  2.4693
  843MPD2    H212392   2.715   2.542  17.607 -0.7355  2.3786 -2.8167
  843MPD2    H312393   2.792   2.774  17.571 -1.9915 -0.3391  0.1451
  843MPD2     N12394   3.178   2.717   0.102 -0.4468 -0.5082  0.5778
  843MPD2    H512395   3.210   2.799   0.051  0.6771 -0.7417  0.8983
  843MPD2    N112396   2.826   2.370   0.065  0.2877 -0.1634  0.2200
  843MPD2    H712397   2.738   2.352   0.019 -0.3987  0.8741  1.1233
  844MPD2     C12398   1.905   2.298  16.745  0.5703 -0.5526 -0.5398
  844MPD2    C112399   1.924   2.175  16.799  0.0044 -0.0715 -0.6947
  844MPD2    C212400   2.009   2.169  16.910  0.5955 -0.2582  0.0283
  844MPD2    C312401   2.081   2.277  16.961 -0.4450 -0.3154 -0.5314
  844MPD2    C412402   2.058   2.401  16.906 -0.2120  0.5515  0.4327
  844MPD2    C512403   1.967   2.412  16.805 -0.0472 -0.0413 -0.7651
  844MPD2     H12404   2.017   2.067  16.946  0.8499 -1.1262 -2.4789
  844MPD2    H112405   2.097   2.496  16.941 -0.1819  0.6969  0.0044
  844MPD2    H212406   1.831   2.324  16.670 -1.3887 -1.2621  1.1571
  844MPD2    H312407   1.954   2.514  16.769  2.4346  0.4099 -0.3641
  844MPD2     N12408   2.161   2.256  17.075  0.4497 -0.1655 -0.0593
  844MPD2    H512409   2.169   2.161  17.109 -0.8788 -0.0015  0.7113
  844MPD2    N112410   1.865   2.062  16.744 -0.3268  0.1276  0.6286
  844MPD2    H712411   1.876   1.975  16.795 -0.3649 -0.2994 -0.0890
  845MPD2     C12412   2.506   2.890   0.054 -0.4027  0.3706  0.6056
  845MPD2    C112413   2.449   2.908  17.635 -0.0633  0.0683  0.2086
  845MPD2    C212414   2.420   2.793  17.565 -0.2761 -0.0697 -0.6232
  845MPD2    C312415   2.444   2.664  17.618  0.3691 -0.6710 -0.3280
  845MPD2    C412416   2.507   2.657   0.034 -0.4001 -0.7107  0.4738
  845MPD2    C512417   2.539   2.772   0.103 -0.4418  0.2543  0.1240
  845MPD2     H12418   2.373   2.803  17.468  1.7993 -1.3868 -1.7875
  845MPD2    H112419   2.525   2.559   0.077  0.1299  0.3805  2.7412
  845MPD2    H212420   2.541   2.973   0.115 -0.4013  1.3952 -0.7797
  845MPD2    H312421   2.594   2.765   0.196  3.7548 -0.9923 -2.4530
  845MPD2     N12422   2.413   2.549  17.539 -1.2330  0.1641  0.5992
  845MPD2    H512423   2.354   2.558  17.457  1.3897  0.0275 -1.2920
  845MPD2    N112424   2.405   3.037  17.596 -0.1679 -0.0713  0.9125
  845MPD2    H712425   2.409   3.106  17.671 -1.8567 -0.3770  1.2754
  846MPD2     C12426   3.438   3.070  13.359 -0.0544  0.1782  0.1331
  846MPD2    C112427   3.353   3.164  13.413  0.4023 -0.5434  0.5280
  846MPD2    C212428   3.352   3.178  13.550 -0.3847  0.2803  0.8033
  846MPD2    C312429   3.433   3.103  13.632  1.1393  0.1140 -0.0386
  846MPD2    C412430   3.518   3.002  13.574 -0.2511  0.0064  0.6066
  846MPD2    C512431   3.522   2.999  13.440  0.2604  0.2601 -0.3844
  846MPD2     H12432   3.296   3.264  13.585  0.9593  2.1123 -1.5169
  846MPD2    H112433   3.579   2.931  13.628 -2.3179 -0.3354  2.5228
  846MPD2    H212434   3.456   3.064  13.252 -0.4901 -1.1780  0.1319
  846MPD2    H312435   3.576   2.925  13.382  2.0726  0.6519  0.8250
  846MPD2     N12436   3.426   3.126  13.768  0.1750 -0.0397  0.1120
  846MPD2    H512437   3.350   3.189  13.793  0.2673  0.6731 -1.4275
  846MPD2    N112438   3.279   3.251  13.332  0.2465 -0.6914  0.1488
  846MPD2    H712439   3.220   3.321  13.376  1.4616  0.2368  0.3308
  847MPD2     C12440   3.417   3.894  14.442  0.2901  0.8862  0.5851
  847MPD2    C112441   3.421   3.992  14.545 -0.3842  0.6306  0.1296
  847MPD2    C212442   3.406   3.936  14.671 -0.2535  0.1531 -0.2650
  847MPD2    C312443   3.391   3.801  14.693  1.1836  0.4639  0.2815
  847MPD2    C412444   3.385   3.713  14.586 -0.3627  0.6803 -0.1740
  847MPD2    C512445   3.415   3.761  14.463 -0.7779 -0.3012 -0.3617
  847MPD2     H12446   3.409   4.008  14.752  1.8698  1.8547 -1.8495
  847MPD2    H112447   3.362   3.608  14.605  0.0847  0.8206  1.1456
  847MPD2    H212448   3.434   3.927  14.340  0.5356  0.0426  0.3516
  847MPD2    H312449   3.419   3.697  14.375  1.2678 -0.1961 -0.3595
  847MPD2     N12450   3.392   3.745  14.818 -0.0074  0.4518 -0.3652
  847MPD2    H512451   3.406   3.645  14.826  0.5322  0.5081 -0.6375
  847MPD2    N112452   3.425   4.133  14.526 -0.4155 -0.7040 -0.2188
  847MPD2    H712453   3.407   4.190  14.608 -0.1763 -1.9898  0.7158
  848MPD2     C12454   1.627   2.620  16.513  0.1999 -0.1326  0.2576
  848MPD2    C112455   1.655   2.694  16.627  0.4348  0.1676  0.4378
  848MPD2    C212456   1.670   2.829  16.612  0.4799 -0.5073 -0.0468
  848MPD2    C312457   1.652   2.885  16.488  0.2448 -0.1024  0.3991
  848MPD2    C412458   1.621   2.810  16.379 -0.2333 -0.3023 -0.3595
  848MPD2    C512459   1.598   2.679  16.396  0.3978 -0.2712 -0.1512
  848MPD2     H12460   1.694   2.895  16.694  1.0178 -0.5873 -0.1365
  848MPD2    H112461   1.603   2.854  16.281 -1.7655  1.3647  0.6815
  848MPD2    H212462   1.607   2.514  16.513  1.1109 -0.2981 -2.7711
  848MPD2    H312463   1.565   2.612  16.317  1.9616  0.5027 -1.4449
  848MPD2     N12464   1.680   3.019  16.464 -0.2015  0.5003 -0.3998
  848MPD2    H512465   1.659   3.063  16.375  1.0541 -0.5109 -1.1935
  848MPD2    N112466   1.662   2.612  16.744 -0.1278  0.3322  0.1560
  848MPD2    H712467   1.621   2.519  16.736 -1.1241  0.8728 -0.9432
  849MPD2     C12468   0.510   2.300  14.096  0.6154  0.2407  0.0961
  849MPD2    C112469   0.609   2.207  14.100 -0.4488  0.0143  0.2649
  849MPD2    C212470   0.672   2.190  14.220  0.5925 -0.5987  0.4160
  849MPD2    C312471   0.642   2.269  14.332  0.0643  0.5094 -0.1736
  849MPD2    C412472   0.557   2.372  14.318 -0.1321  0.7680  0.0899
  849MPD2    C512473   0.487   2.383  14.204 -0.0543 -0.1745  0.7004
  849MPD2     H12474   0.755   2.121  14.228 -0.1604 -1.4204  1.1147
  849MPD2    H112475   0.538   2.446  14.395 -1.2207 -0.5327  1.0557
  849MPD2    H212476   0.440   2.305  14.014  3.2822 -1.0292 -2.2454
  849MPD2    H312477   0.426   2.472  14.198  0.4063  0.0448 -0.9381
  849MPD2     N12478   0.706   2.234  14.453 -0.1907 -0.0608  0.0203
  849MPD2    H512479   0.762   2.149  14.456  0.7109  0.5424  0.0227
  849MPD2    N112480   0.635   2.129  13.982  0.0322  0.2849 -0.1181
  849MPD2    H712481   0.573   2.147  13.904  2.1359  1.1545 -1.5758
  850MPD2     C12482   3.165   4.687  15.154  0.7261  0.5226  0.8092
  850MPD2    C112483   3.154   0.099  15.168 -0.8560 -0.2093  0.0623
  850MPD2    C212484   3.269   0.180  15.192 -0.3394  0.2672  0.1805
  850MPD2    C312485   3.390   0.115  15.224 -0.2912 -0.4609  0.6330
  850MPD2    C412486   3.402   4.706  15.219  0.1426  0.6441 -0.6157
  850MPD2    C512487   3.293   4.629  15.175  0.2176  0.4592  0.0029
  850MPD2     H12488   3.265   0.287  15.176 -0.1895  0.2093 -0.2484
  850MPD2    H112489   3.492   4.647  15.225 -0.0237  0.1939 -2.7022
  850MPD2    H212490   3.087   4.624  15.112  0.1897  1.9867 -0.3971
  850MPD2    H312491   3.322   4.530  15.141 -2.4359 -0.7654  1.3336
  850MPD2     N12492   3.511   0.181  15.240  0.7394 -0.5331 -0.4547
  850MPD2    H512493   3.592   0.123  15.255 -0.2046 -1.0421  2.6077
  850MPD2    N112494   3.020   0.152  15.146 -0.0104 -0.7131  0.3343
  850MPD2    H712495   2.949   0.092  15.105 -0.2321  0.6342 -1.2578
  851MPD2     C12496   3.589   0.364  15.725  0.1062  0.8096 -0.1086
  851MPD2    C112497   3.483   0.290  15.682 -0.2220  0.0706 -0.3782
  851MPD2    C212498   3.506   0.158  15.664 -0.2452  0.0466  0.2440
  851MPD2    C312499   3.630   0.107  15.681 -0.7736 -0.9629 -0.2955
  851MPD2    C412500   3.735   0.175  15.741  0.3930  0.2145  0.1506
  851MPD2    C512501   3.705   0.304  15.771  0.6401 -0.0042  0.0687
  851MPD2     H12502   3.428   0.088  15.634 -0.2796 -0.0378  0.5289
  851MPD2    H112503   3.829   0.134  15.775  1.0803  0.8743 -0.9616
  851MPD2    H212504   3.567   0.470  15.731 -0.7699  0.6260 -0.0451
  851MPD2    H312505   3.779   0.377  15.802  0.6859 -0.3098  0.6872
  851MPD2     N12506   3.640   4.697  15.633 -0.6594 -0.1840  0.0057
  851MPD2    H512507   3.553   4.653  15.604 -1.1938  0.4350  0.6527
  851MPD2    N112508   3.366   0.350  15.629 -0.1338 -0.1489 -0.2807
  851MPD2    H712509   3.372   0.450  15.613  0.2223  0.0925  1.3498
  852MPD2     C12510   3.341   2.582  10.165  0.3651 -0.4844  0.5784
  852MPD2    C112511   3.313   2.702  10.222  0.4356  0.1802 -0.0217
  852MPD2    C212512   3.406   2.802  10.218 -0.4179 -0.6195 -0.7681
  852MPD2    C312513   3.525   2.777  10.157 -0.0270  0.0919 -0.0632
  852MPD2    C412514   3.555   2.655  10.098  0.1513  0.2209 -0.3458
  852MPD2    C512515   3.463   2.559  10.096  0.0923 -0.3945 -0.2718
  852MPD2     H12516   3.381   2.892  10.273  1.2447 -0.7463  0.1853
  852MPD2    H112517   3.652   2.632  10.054  0.0956 -0.5934 -0.0495
  852MPD2    H212518   3.262   2.507  10.165  1.7114 -1.9098 -1.0850
  852MPD2    H312519   3.492   2.463  10.055 -0.2862 -0.5010 -0.2912
  852MPD2     N12520   3.616   2.884  10.166 -0.5344  0.2724 -0.3102
  852MPD2    H512521   3.582   2.968  10.211 -1.1618  0.1122 -0.4858
  852MPD2    N112522   3.193   2.737  10.278  0.1068 -0.4587  0.5275
  852MPD2    H712523   3.180   2.834  10.303 -0.9862 -0.3582 -0.4035
  853MPD2     C12524   4.692   3.046  12.389 -0.1245 -0.5135 -0.5836
  853MPD2    C112525   4.629   2.933  12.419  0.6876  0.0916  0.6975
  853MPD2    C212526   4.621   2.828  12.323 -0.7934 -0.2457  0.4791
  853MPD2    C312527   4.689   2.842  12.202  1.1679  0.7265 -0.1785
  853MPD2    C412528   0.033   2.959  12.178  0.1444 -0.3589 -0.6989
  853MPD2    C512529   0.037   3.058  12.270 -0.2126 -0.5914 -0.3720
  853MPD2     H12530   4.560   2.740  12.340  0.0107 -0.8901  0.0101
  853MPD2    H112531   0.097   2.964  12.091  1.0048 -3.1770 -0.2264
  853MPD2    H212532   4.683   3.131  12.455 -2.8300 -0.4165 -1.0715
  853MPD2    H312533   0.081   3.154  12.248 -0.5155 -0.4541 -0.3759
  853MPD2     N12534   4.685   2.745  12.104 -0.5381  0.0821  0.3197
  853MPD2    H512535   4.721   2.777  12.015  0.2901 -1.6283  0.0457
  853MPD2    N112536   4.578   2.918  12.550  0.2714 -0.4148 -0.1161
  853MPD2    H712537   4.591   2.987  12.623  1.6084 -0.5729 -0.2125
  854MPD2     C12538   2.536   3.070  12.906  1.0196 -0.1355  0.3081
  854MPD2    C112539   2.458   3.021  13.006 -1.0589 -0.2836 -0.5748
  854MPD2    C212540   2.520   2.962  13.117  0.4449 -0.4762  0.1920
  854MPD2    C312541   2.656   2.944  13.113  0.2095 -0.0404 -0.4468
  854MPD2    C412542   2.733   2.992  13.006 -0.5839 -0.0562  0.3616
  854MPD2    C512543   2.666   3.055  12.903  0.1677  0.6445  0.7445
  854MPD2     H12544   2.457   2.913  13.191 -1.9962  1.0708 -0.8578
  854MPD2    H112545   2.838   2.974  12.986 -0.2489  2.7223 -0.2855
  854MPD2    H212546   2.498   3.130  12.824 -1.3534 -2.1196 -0.0385
  854MPD2    H312547   2.715   3.089  12.813 -2.3643 -0.8212 -1.2009
  854MPD2     N12548   2.723   2.884  13.217  0.4843 -0.0070  0.6351
  854MPD2    H512549   2.824   2.884  13.216  0.4604 -0.4634 -1.4715
  854MPD2    N112550   2.318   3.032  12.996  0.1245 -0.0536 -0.7097
  854MPD2    H712551   2.286   3.080  12.912  0.4025  0.1069 -0.7217
  855MPD2     C12552   2.206   2.571  13.812 -0.7179  0.3948  0.1220
  855MPD2    C112553   2.319   2.513  13.870 -0.2721 -0.7349 -0.2947
  855MPD2    C212554   2.435   2.563  13.821  0.2106  0.7063  0.4054
  855MPD2    C312555   2.446   2.660  13.723 -0.7285 -0.0919 -0.8727
  855MPD2    C412556   2.330   2.716  13.668 -0.2937  0.1985  0.2291
  855MPD2    C512557   2.214   2.672  13.721  0.5571  0.2869  0.1773
  855MPD2     H12558   2.523   2.512  13.859  0.7713  1.1940 -0.2298
  855MPD2    H112559   2.341   2.791  13.590  0.3824  0.7116  0.8174
  855MPD2    H212560   2.105   2.541  13.837  0.7044 -3.2268  1.4693
  855MPD2    H312561   2.123   2.718  13.684 -0.8832 -3.4909 -1.0271
  855MPD2     N12562   2.567   2.713  13.681  0.2950  0.2659 -0.5640
  855MPD2    H512563   2.566   2.769  13.597  0.3128  0.1131 -0.6661
  855MPD2    N112564   2.324   2.405  13.966  0.4653 -0.9687  0.2168
  855MPD2    H712565   2.416   2.391  14.008  0.4958  3.4294  1.6250
  856MPD2     C12566   4.599   3.255  14.104 -0.0410  0.3568  0.2355
  856MPD2    C112567   4.565   3.377  14.163 -0.8428  0.0278 -0.7356
  856MPD2    C212568   4.438   3.423  14.139 -0.1575 -0.0917  0.0842
  856MPD2    C312569   4.341   3.346  14.068 -0.4498  0.0184  0.6967
  856MPD2    C412570   4.376   3.218  14.017  0.1156  0.1451  0.2827
  856MPD2    C512571   4.506   3.179  14.034  0.4619 -0.2915  0.1104
  856MPD2     H12572   4.417   3.524  14.172 -0.0141  0.8631 -2.7949
  856MPD2    H112573   4.303   3.168  13.954  1.3189 -0.5819 -0.5258
  856MPD2    H212574   4.692   3.204  14.124 -0.4140  0.0541  1.2202
  856MPD2    H312575   4.549   3.090  13.989 -1.8693 -2.0185  1.3373
  856MPD2     N12576   4.214   3.402  14.043 -0.1376  0.4176  0.4767
  856MPD2    H512577   4.161   3.349  13.974 -0.1100  1.4433 -0.3269
  856MPD2    N112578   4.662   3.472  14.202  0.0247 -0.5417 -0.2834
  856MPD2    H712579   4.636   3.567  14.228 -2.1364 -1.3437  0.5219
  857MPD2     C12580   1.537   1.176  12.729 -0.2501 -0.5432 -0.0538
  857MPD2    C112581   1.497   1.150  12.858  0.2647  0.6790  0.3539
  857MPD2    C212582   1.474   1.253  12.945  0.0634  0.2119  0.0718
  857MPD2    C312583   1.475   1.388  12.897 -0.2425 -0.5680 -0.3775
  857MPD2    C412584   1.519   1.410  12.769 -0.4347 -0.2591  0.3644
  857MPD2    C512585   1.551   1.305  12.688 -0.3234 -0.4964  0.4031
  857MPD2     H12586   1.430   1.232  13.041  0.7825 -0.9439  0.1543
  857MPD2    H112587   1.532   1.508  12.725 -0.2125 -1.3989 -2.1417
  857MPD2    H212588   1.570   1.097  12.662 -0.1515 -1.9641  1.6721
  857MPD2    H312589   1.599   1.328  12.593 -0.4975  0.3986  0.5287
  857MPD2     N12590   1.458   1.488  12.995 -0.7163 -0.0718  0.6126
  857MPD2    H512591   1.453   1.463  13.094 -0.4498 -1.8146  0.1835
  857MPD2    N112592   1.502   1.013  12.888 -0.1664  0.0437 -0.1331
  857MPD2    H712593   1.528   0.956  12.808 -0.3174 -1.1056  0.6289
  858MPD2     C12594   2.024   4.391  16.361  0.5310  0.5834  0.1185
  858MPD2    C112595   2.056   4.333  16.478  0.2267 -0.1452  0.1708
  858MPD2    C212596   2.044   4.406  16.598  0.0655 -0.4893  0.9535
  858MPD2    C312597   2.004   4.539  16.602  0.0795 -0.0566  0.6227
  858MPD2    C412598   1.981   4.596  16.479  0.0476 -0.0548 -0.5394
  858MPD2    C512599   1.994   4.527  16.360 -0.0377 -0.2997  0.0554
  858MPD2     H12600   2.069   4.365  16.696  1.0375  2.0263  1.7673
  858MPD2    H112601   1.960   4.703  16.472 -0.6436 -0.1365  0.4301
  858MPD2    H212602   2.039   4.331  16.272 -1.8847 -1.5737  1.1618
  858MPD2    H312603   1.978   4.579  16.266  0.0895  0.2268  0.3240
  858MPD2     N12604   2.002   4.614  16.723 -0.1955  0.6189 -0.5155
  858MPD2    H512605   1.972   4.711  16.715 -3.2974 -0.1191  1.9211
  858MPD2    N112606   2.101   4.196  16.487 -0.0950  0.5188 -0.1014
  858MPD2    H712607   2.143   4.157  16.402 -3.1407  2.8635 -2.6755
  859MPD2     C12608   0.494   1.774  15.635  0.6219 -0.3791  0.4109
  859MPD2    C112609   0.606   1.801  15.551 -0.1511  0.0662 -0.4653
  859MPD2    C212610   0.697   1.700  15.522  0.0058  0.0664  0.2279
  859MPD2    C312611   0.679   1.578  15.587  0.5298 -0.2779  0.2354
  859MPD2    C412612   0.582   1.549  15.677 -0.0583 -0.4095  0.4181
  859MPD2    C512613   0.486   1.647  15.686 -0.0683  0.2576  0.0842
  859MPD2     H12614   0.771   1.724  15.446  0.3054 -0.8375  0.2420
  859MPD2    H112615   0.570   1.448  15.712  1.8404 -1.2199 -1.2309
  859MPD2    H212616   0.413   1.843  15.655 -1.3363 -2.7494  0.6421
  859MPD2    H312617   0.399   1.627  15.748  0.1221 -1.6868 -0.2827
  859MPD2     N12618   0.771   1.471  15.569  0.1202 -0.5907  0.3492
  859MPD2    H512619   0.778   1.399  15.640  4.3233 -0.6163 -0.1447
  859MPD2    N112620   0.619   1.934  15.505 -0.1092 -0.7506  0.0590
  859MPD2    H712621   0.544   1.998  15.529  0.6942 -0.8711  2.9072
  860MPD2     C12622   2.314   2.188  12.182 -0.1646  0.2200 -0.0122
  860MPD2    C112623   2.255   2.313  12.185  0.4060  0.0563 -0.7636
  860MPD2    C212624   2.165   2.344  12.278 -0.1556  0.7250 -0.3505
  860MPD2    C312625   2.133   2.256  12.383 -0.3494  0.1342  0.1872
  860MPD2    C412626   2.183   2.128  12.373  0.0813 -0.1716 -0.4212
  860MPD2    C512627   2.269   2.092  12.276  0.1611 -0.0946 -0.2562
  860MPD2     H12628   2.133   2.447  12.287 -1.7518  0.3439 -1.7325
  860MPD2    H112629   2.157   2.050  12.444 -0.0792 -0.9168 -1.3032
  860MPD2    H212630   2.390   2.161  12.110 -0.0132 -0.3718  0.3729
  860MPD2    H312631   2.328   2.001  12.275 -0.2710 -0.3835  2.4060
  860MPD2     N12632   2.062   2.285  12.498 -0.3207  0.0545 -0.1832
  860MPD2    H512633   2.056   2.209  12.566 -3.8102  1.2321  0.7903
  860MPD2    N112634   2.305   2.419  12.108  0.5023  0.8288 -0.5535
  860MPD2    H712635   2.262   2.511  12.113 -1.2245 -0.0433  0.9653
  861MPD2     C12636   2.374   1.079  11.372 -0.9132 -0.1695 -0.4994
  861MPD2    C112637   2.257   1.122  11.438 -0.1811 -0.5280  0.0952
  861MPD2    C212638   2.138   1.098  11.368  0.0790 -0.3086 -0.1497
  861MPD2    C312639   2.133   1.052  11.234 -0.2268 -0.3250 -0.1079
  861MPD2    C412640   2.251   1.051  11.164  0.2195 -0.7374  0.6075
  861MPD2    C512641   2.363   1.041  11.240  0.5116 -0.3020  0.0374
  861MPD2     H12642   2.052   1.133  11.423 -0.0834  3.0487 -2.5769
  861MPD2    H112643   2.263   1.034  11.058  0.0048 -0.8941  0.6089
  861MPD2    H212644   2.476   1.088  11.410 -1.3597  2.8895  0.0128
  861MPD2    H312645   2.459   1.018  11.195  0.1119 -1.0132 -0.4401
  861MPD2     N12646   2.015   1.035  11.165  0.7478 -0.4884 -0.9259
  861MPD2    H512647   2.030   1.044  11.065 -0.7362  2.3508 -0.8855
  861MPD2    N112648   2.250   1.148  11.573  0.2439  0.2887  0.2851
  861MPD2    H712649   2.158   1.150  11.617 -0.2439  1.5928 -0.7877
  862MPD2     C12650   1.650   0.957  10.528 -0.8263 -0.0328  0.2607
  862MPD2    C112651   1.651   0.893  10.649  0.5680 -0.3588  0.2395
  862MPD2    C212652   1.613   0.763  10.658  1.0565 -0.2546 -0.3777
  862MPD2    C312653   1.585   0.687  10.545  0.4729  0.3039  0.3605
  862MPD2    C412654   1.607   0.749  10.428  0.2996  0.6018 -0.0359
  862MPD2    C512655   1.636   0.883  10.418  0.7847  0.0418  0.4618
  862MPD2     H12656   1.597   0.729  10.760  1.7740 -1.4564 -0.6766
  862MPD2    H112657   1.587   0.695  10.336 -0.1572 -4.2942  2.9275
  862MPD2    H212658   1.689   1.056  10.505 -2.8575  0.3083 -1.7174
  862MPD2    H312659   1.654   0.919  10.318  1.0684 -0.0556  0.4806
  862MPD2     N12660   1.541   0.551  10.542 -0.4791  0.4617  0.3178
  862MPD2    H512661   1.518   0.516  10.450 -0.8872  0.8664  0.2660
  862MPD2    N112662   1.677   0.958  10.772 -0.3901  0.0070  0.3516
  862MPD2    H712663   1.648   0.910  10.856  1.4941 -1.4373  0.1659
  863MPD2     C12664   0.378   4.201  17.173  0.3858 -1.1196  0.0084
  863MPD2    C112665   0.324   4.087  17.105 -0.4677 -0.3946 -0.3930
  863MPD2    C212666   0.392   3.966  17.109  0.4041  0.1051  0.0253
  863MPD2    C312667   0.514   3.957  17.182 -0.7939  0.6516 -0.2934
  863MPD2    C412668   0.567   4.073  17.240 -0.0466 -0.0261 -0.6793
  863MPD2    C512669   0.499   4.193  17.242 -1.1903 -0.0334 -1.0525
  863MPD2     H12670   0.349   3.875  17.068  1.5920 -0.2357 -0.4928
  863MPD2    H112671   0.652   4.066  17.306 -1.0164  0.3390  0.6277
  863MPD2    H212672   0.328   4.297  17.180  2.2015 -0.2406  0.9407
  863MPD2    H312673   0.535   4.276  17.303  0.5214 -0.7598 -1.0850
  863MPD2     N12674   0.590   3.844  17.204  0.3347 -0.3718  0.1805
  863MPD2    H512675   0.678   3.844  17.254 -1.4826 -1.4935  3.3537
  863MPD2    N112676   0.206   4.089  17.029 -0.0717 -0.1554 -0.4549
  863MPD2    H712677   0.207   4.012  16.963  0.9712 -1.2362  0.8150
  864MPD2     C12678   0.781   0.344  16.982  0.3765 -0.0504  0.4793
  864MPD2    C112679   0.889   0.351  17.074 -0.1298 -0.0951  0.3511
  864MPD2    C212680   0.982   0.441  17.047 -0.0922  0.0793  0.0901
  864MPD2    C312681   0.969   0.536  16.948  0.2307  0.1755 -0.0074
  864MPD2    C412682   0.860   0.540  16.868  0.0120 -0.2749 -0.7741
  864MPD2    C512683   0.767   0.444  16.886 -0.0975  0.3043  0.1152
  864MPD2     H12684   1.078   0.439  17.096 -1.1308  0.4956  2.1172
  864MPD2    H112685   0.850   0.610  16.786  1.4745 -0.3555 -1.0239
  864MPD2    H212686   0.707   0.265  16.987  0.3847 -0.1414 -0.8033
  864MPD2    H312687   0.673   0.451  16.831  0.4077 -0.8163 -0.8728
  864MPD2     N12688   1.084   0.604  16.896 -0.2399 -0.2083  0.0653
  864MPD2    H512689   1.082   0.639  16.801  1.0851  1.5108  0.6939
  864MPD2    N112690   0.895   0.261  17.179 -0.0091  0.3679 -0.0257
  864MPD2    H712691   0.838   0.177  17.179  0.2463  0.1885  2.3248
  865MPD2     C12692   1.099   0.319  16.146  0.0135 -0.2345 -0.2725
  865MPD2    C112693   1.117   0.245  16.258  0.6444  0.0009 -0.8024
  865MPD2    C212694   1.190   0.302  16.356  0.1179 -0.4771  0.8322
  865MPD2    C312695   1.229   0.430  16.359  0.0221  0.0528 -0.4346
  865MPD2    C412696   1.196   0.508  16.256  0.0064  0.2275  0.0717
  865MPD2    C512697   1.137   0.451  16.153 -0.1807 -0.3933 -0.1413
  865MPD2     H12698   1.215   0.242  16.442  0.2046 -0.7686  0.6043
  865MPD2    H112699   1.215   0.614  16.255 -1.9716  0.5814 -0.2723
  865MPD2    H212700   1.033   0.291  16.065 -0.5520 -0.7289  0.3633
  865MPD2    H312701   1.114   0.517  16.070 -2.8718  0.7216  1.4766
  865MPD2     N12702   1.284   0.495  16.468 -0.3435  0.2348 -0.0565
  865MPD2    H512703   1.289   0.596  16.458 -0.5170  0.3189  0.6542
  865MPD2    N112704   1.071   0.110  16.254 -0.2472  0.2366  0.3041
  865MPD2    H712705   1.045   0.067  16.166  0.9204 -2.1795  1.1598
  866MPD2     C12706   2.634   1.446  11.881 -0.0792 -0.3848 -0.0649
  866MPD2    C112707   2.640   1.393  11.756 -0.1703  0.2075 -1.0145
  866MPD2    C212708   2.560   1.443  11.662 -0.6593 -0.4848 -0.3732
  866MPD2    C312709   2.449   1.520  11.689 -0.5178  0.0079  0.5503
  866MPD2    C412710   2.423   1.559  11.820  0.5721  0.0492  0.2378
  866MPD2    C512711   2.521   1.520  11.912  0.3070  0.5240  0.0117
  866MPD2     H12712   2.578   1.417  11.558 -0.5795 -1.0382 -0.2190
  866MPD2    H112713   2.326   1.601  11.847  0.8822  3.0790 -3.3608
  866MPD2    H212714   2.686   1.404  11.967  0.0052 -2.1420 -0.9612
  866MPD2    H312715   2.496   1.549  12.014  1.5734  1.3322  0.0893
  866MPD2     N12716   2.349   1.563  11.597 -0.0485  0.1335 -0.1918
  866MPD2    H512717   2.265   1.597  11.642 -0.3479 -0.8354 -0.0238
  866MPD2    N112718   2.728   1.290  11.737 -0.1790  0.0759  0.3129
  866MPD2    H712719   2.774   1.245  11.816  2.2748  1.9402 -0.0462
  867MPD2     C12720   4.311   0.296  16.825  0.5286 -0.5192  0.2653
  867MPD2    C112721   4.402   0.321  16.933 -0.0397  0.2650 -0.4185
  867MPD2    C212722   4.423   0.454  16.969  0.2917  0.0792 -0.3994
  867MPD2    C312723   4.355   0.557  16.907 -0.0275  0.0433  0.2893
  867MPD2    C412724   4.267   0.529  16.804  0.1619 -0.5155 -0.2329
  867MPD2    C512725   4.246   0.402  16.773 -0.2141 -0.0497  0.0038
  867MPD2     H12726   4.499   0.476  17.043 -2.6349  2.4433  1.8924
  867MPD2    H112727   4.196   0.600  16.762  1.5861  1.2809  0.3797
  867MPD2    H212728   4.276   0.198  16.798 -0.0952 -0.2481  0.1087
  867MPD2    H312729   4.167   0.390  16.700  1.3020  1.7449 -1.9335
  867MPD2     N12730   4.357   0.688  16.952 -0.2048  0.4621 -0.4056
  867MPD2    H512731   4.315   0.757  16.891  1.8689  1.1393 -1.0636
  867MPD2    N112732   4.456   0.211  16.993  0.0693 -0.0982 -0.1463
  867MPD2    H712733   4.436   0.118  16.956  0.5265  0.6366 -2.2507
  868MPD2     C12734   1.490   4.199  13.416 -0.5869 -0.1849 -0.3300
  868MPD2    C112735   1.550   4.115  13.502 -0.6204 -0.0925 -0.4198
  868MPD2    C212736   1.537   4.140  13.640  0.7267  0.2237  0.2398
  868MPD2    C312737   1.473   4.247  13.693 -0.5035  0.0244  0.4878
  868MPD2    C412738   1.416   4.338  13.606  0.2886  0.0081  0.0098
  868MPD2    C512739   1.419   4.306  13.469 -0.0242  0.1093  0.2212
  868MPD2     H12740   1.590   4.080  13.712 -0.2160 -1.6844 -0.6617
  868MPD2    H112741   1.381   4.437  13.634  0.3106  0.4676 -1.5648
  868MPD2    H212742   1.491   4.176  13.310 -1.3475  2.4445 -0.9144
  868MPD2    H312743   1.370   4.374  13.400 -1.6281 -0.4530  0.8006
  868MPD2     N12744   1.481   4.267  13.830 -0.5160  0.5766 -0.1453
  868MPD2    H512745   1.539   4.196  13.873  0.0386  0.9618 -0.2587
  868MPD2    N112746   1.622   4.005  13.453  0.2044  1.0499  0.0742
  868MPD2    H712747   1.625   3.997  13.351 -1.5821  1.1496  0.0123
  869MPD2     C12748   2.353   1.795   1.172  0.3798 -0.2328  1.3571
  869MPD2    C112749   2.380   1.921   1.223  0.1435  0.3333 -0.6667
  869MPD2    C212750   2.351   2.037   1.145  0.4478  0.3796  0.0089
  869MPD2    C312751   2.289   2.019   1.023  0.3091  0.1687 -0.1778
  869MPD2    C412752   2.273   1.887   0.967 -0.4278  0.3182  0.3737
  869MPD2    C512753   2.307   1.785   1.039 -0.5389  0.6536  0.9436
  869MPD2     H12754   2.339   2.133   1.194  0.4924 -1.4537  3.5901
  869MPD2    H112755   2.252   1.867   0.863  2.7530 -3.1163  0.4147
  869MPD2    H212756   2.394   1.707   1.220  2.8308 -0.3350 -0.9148
  869MPD2    H312757   2.303   1.689   0.989 -2.3164  1.0742  0.2908
  869MPD2     N12758   2.231   2.128   0.952  0.3984 -0.8956  0.5146
  869MPD2    H512759   2.194   2.110   0.860  0.1091  1.8887  0.0822
  869MPD2    N112760   2.424   1.939   1.355  0.6103 -0.4654  0.2218
  869MPD2    H712761   2.426   1.856   1.414  1.0006  0.0738  0.9608
  870MPD2     C12762   1.681   0.809   2.058 -0.7104 -0.1658  0.5013
  870MPD2    C112763   1.787   0.826   1.969 -0.5001 -0.2897 -0.6445
  870MPD2    C212764   1.765   0.835   1.831  0.7487  0.3835  0.2896
  870MPD2    C312765   1.641   0.854   1.785  0.2086  0.2675  0.3281
  870MPD2    C412766   1.531   0.842   1.867 -0.3539 -0.4891 -0.0408
  870MPD2    C512767   1.552   0.814   1.999 -0.1682 -0.1550  0.1797
  870MPD2     H12768   1.847   0.845   1.759  3.0037 -1.1536  2.6366
  870MPD2    H112769   1.427   0.837   1.835  0.4501 -2.8194 -2.3643
  870MPD2    H212770   1.689   0.805   2.166  0.9026 -3.2449  0.2743
  870MPD2    H312771   1.464   0.809   2.062 -0.3510  1.9702  0.0836
  870MPD2     N12772   1.619   0.848   1.650  0.8089  0.3568  0.2234
  870MPD2    H512773   1.702   0.838   1.592  1.4573 -1.2410  1.3869
  870MPD2    N112774   1.912   0.786   2.016  0.1177 -0.0717 -0.5313
  870MPD2    H712775   1.910   0.750   2.111 -2.5861  0.7390 -0.2822
  871MPD2     C12776   3.023   0.172  16.587 -0.1903 -0.1656  0.4275
  871MPD2    C112777   3.092   0.133  16.700 -0.1422 -0.5232  0.0359
  871MPD2    C212778   3.140   0.004  16.710  0.8384 -0.4671  0.7790
  871MPD2    C312779   3.107   4.632  16.618 -0.1377 -0.0242 -0.1451
  871MPD2    C412780   3.037   4.667  16.507  0.2349  0.1599 -0.3707
  871MPD2    C512781   2.995   0.073  16.494  0.0505 -0.0826 -0.5197
  871MPD2     H12782   3.201   4.688  16.789  1.1907  0.2742  0.9060
  871MPD2    H112783   3.012   4.597  16.429 -2.4793  1.2093 -0.4414
  871MPD2    H212784   2.978   0.269  16.575 -0.3841 -0.5290 -1.6585
  871MPD2    H312785   2.929   0.095  16.411 -0.5022 -0.5547 -0.2089
  871MPD2     N12786   3.151   4.501  16.651  0.0140 -0.0653  0.2604
  871MPD2    H512787   3.198   4.482  16.738  0.0971  1.1533  0.4763
  871MPD2    N112788   3.092   0.222  16.807  0.0255 -0.2684  0.0473
  871MPD2    H712789   3.039   0.307  16.793  1.0517  0.3603 -0.0521
  872MPD2     C12790   4.420   2.819  13.677  0.0447  0.8579 -0.0721
  872MPD2    C112791   4.476   2.835  13.802  0.1904  0.5436  0.0971
  872MPD2    C212792   4.393   2.806  13.912 -0.0284  0.0643  0.2952
  872MPD2    C312793   4.255   2.773  13.903  0.3149  0.7962 -0.2911
  872MPD2    C412794   4.203   2.773  13.776 -0.9917  0.2131 -0.0134
  872MPD2    C512795   4.284   2.793  13.661 -0.7436  0.3252  0.7635
  872MPD2     H12796   4.439   2.812  14.010  0.8800  0.6945 -0.1739
  872MPD2    H112797   4.102   2.734  13.767 -0.4876 -0.9698 -0.5666
  872MPD2    H212798   4.476   2.829  13.585 -0.1515 -1.6714 -0.4451
  872MPD2    H312799   4.237   2.781  13.564 -0.5980  2.4999  0.4170
  872MPD2     N12800   4.173   2.722  14.007  0.3264 -0.1932  0.4461
  872MPD2    H512801   4.077   2.708  13.977  0.0562  0.6686  0.9289
  872MPD2    N112802   4.614   2.859  13.825  0.3558  0.0186 -0.3392
  872MPD2    H712803   4.640   2.853  13.923 -1.9674 -0.4366  0.2578
  873MPD2     C12804   1.136   2.540   0.915  0.1847  0.6102 -0.2103
  873MPD2    C112805   1.212   2.543   1.032 -0.0416  0.2556 -0.0531
  873MPD2    C212806   1.339   2.495   1.035 -0.1003  0.9373 -0.2935
  873MPD2    C312807   1.403   2.448   0.920 -0.0095 -0.0002 -0.5517
  873MPD2    C412808   1.325   2.438   0.804 -0.0986 -0.0013 -0.0545
  873MPD2    C512809   1.195   2.485   0.799 -0.2846  0.2194  0.0707
  873MPD2     H12810   1.397   2.499   1.127  0.4618 -1.4583 -0.5500
  873MPD2    H112811   1.371   2.410   0.710  0.6265 -0.6498  0.4993
  873MPD2    H212812   1.029   2.555   0.922  0.0770 -1.1315  1.8051
  873MPD2    H312813   1.147   2.469   0.703 -2.1416 -0.9785  1.1912
  873MPD2     N12814   1.540   2.407   0.914  0.1703 -0.4327  0.0898
  873MPD2    H512815   1.579   2.385   0.823 -0.4680  0.4770 -0.3940
  873MPD2    N112816   1.150   2.590   1.156 -0.3400 -0.1118  0.0690
  873MPD2    H712817   1.062   2.639   1.151 -1.2962 -1.9789 -1.4765
  874MPD2     C12818   0.995   3.316  16.193  0.2260 -0.0906  0.1200
  874MPD2    C112819   1.013   3.246  16.310  0.0611  0.1381  0.4665
  874MPD2    C212820   1.140   3.264  16.366  1.2783  0.3423 -0.5435
  874MPD2    C312821   1.228   3.359  16.322 -0.0410 -0.1192  0.0428
  874MPD2    C412822   1.202   3.438  16.216 -0.6764  0.2694  1.2826
  874MPD2    C512823   1.084   3.414  16.151  0.7055 -0.3537 -0.4713
  874MPD2     H12824   1.173   3.202  16.449  1.2814  0.4066 -0.4962
  874MPD2    H112825   1.268   3.513  16.173 -0.0565 -0.4862  0.9310
  874MPD2    H212826   0.903   3.300  16.139 -1.6915  0.2827  3.2679
  874MPD2    H312827   1.058   3.469  16.061 -1.0931 -1.2601 -0.4968
  874MPD2     N12828   1.357   3.351  16.381  0.1114 -0.0282 -0.6225
  874MPD2    H512829   1.370   3.282  16.455 -1.8620 -1.1532 -1.3287
  874MPD2    N112830   0.923   3.155  16.365  0.0337  0.0879  0.0436
  874MPD2    H712831   0.962   3.087  16.430 -1.1702  0.8537  1.5635
  875MPD2     C12832   1.973   0.945  14.814  0.3762 -0.5423  0.7158
  875MPD2    C112833   1.864   0.975  14.886 -0.7386  0.9484 -0.7732
  875MPD2    C212834   1.881   1.033  15.010 -0.2636  0.4733 -0.1625
  875MPD2    C312835   2.002   1.065  15.059 -0.3654 -0.2203  0.0829
  875MPD2    C412836   2.109   1.040  14.987 -0.3141  0.4167 -0.0092
  875MPD2    C512837   2.096   0.965  14.871  0.3219  0.4878 -0.4118
  875MPD2     H12838   1.789   1.054  15.063 -0.2196 -1.6092  0.7581
  875MPD2    H112839   2.209   1.059  15.023 -0.4167 -0.7704  0.8960
  875MPD2    H212840   1.971   0.893  14.718 -1.3380  3.5463 -1.4704
  875MPD2    H312841   2.179   0.959  14.801 -0.4542 -0.0982 -1.2817
  875MPD2     N12842   2.003   1.129  15.186  0.2504 -0.4289  0.0968
  875MPD2    H512843   1.912   1.146  15.227  1.1459  0.2840  1.7939
  875MPD2    N112844   1.734   0.972  14.837  0.9983  0.2996  0.6827
  875MPD2    H712845   1.664   1.024  14.890 -1.5310 -0.9304 -1.4162
  876MPD2     C12846   0.242   2.078  15.957 -0.5223 -0.0901 -0.4644
  876MPD2    C112847   0.372   2.096  15.974  0.5131 -0.0264  0.1249
  876MPD2    C212848   0.454   1.981  15.986 -0.0276 -0.4566 -0.5749
  876MPD2    C312849   0.404   1.858  15.980  0.7645 -0.2244  0.4622
  876MPD2    C412850   0.266   1.841  15.959  0.2057  0.1179  0.4356
  876MPD2    C512851   0.188   1.954  15.955 -0.3952 -0.3867  0.4593
  876MPD2     H12852   0.561   1.994  16.000  0.2774 -1.1708 -2.2058
  876MPD2    H112853   0.219   1.744  15.951 -0.9574  0.6157  1.1733
  876MPD2    H212854   0.166   2.155  15.951 -0.3017  0.0707 -1.1995
  876MPD2    H312855   0.082   1.951  15.933 -0.0349  1.0165 -1.4496
  876MPD2     N12856   0.484   1.750  16.005 -0.0293  0.8222  0.5705
  876MPD2    H512857   0.582   1.776  16.007  0.9799 -2.8840  0.1621
  876MPD2    N112858   0.427   2.226  15.978  0.3284 -0.2283 -0.4767
  876MPD2    H712859   0.366   2.306  15.962 -1.2108 -1.6768 -1.7467
  877MPD2     C12860   0.450   2.774  15.485 -0.4269 -1.0628  0.3665
  877MPD2    C112861   0.569   2.786  15.556  0.1490  0.2826  0.8422
  877MPD2    C212862   0.667   2.875  15.520  0.9413 -0.9217  0.5835
  877MPD2    C312863   0.644   2.952  15.399 -0.2122 -0.3529  0.6367
  877MPD2    C412864   0.525   2.943  15.329  0.5978 -0.2784  0.3757
  877MPD2    C512865   0.424   2.859  15.377  0.2493  0.6735 -0.1571
  877MPD2     H12866   0.758   2.878  15.578  1.6484  2.3777 -0.7123
  877MPD2    H112867   0.497   2.981  15.232  0.9101  0.0714  0.4232
  877MPD2    H212868   0.375   2.696  15.494 -0.6697 -0.9664 -0.8275
  877MPD2    H312869   0.337   2.845  15.315 -0.6829  1.0126  1.0697
  877MPD2     N12870   0.748   3.027  15.333  0.1407  0.0096  0.0756
  877MPD2    H512871   0.726   3.045  15.236  1.2484 -1.2551 -0.4029
  877MPD2    N112872   0.597   2.717  15.671  0.5224  0.2365 -0.1667
  877MPD2    H712873   0.694   2.727  15.697  1.1054  0.4645 -2.4546
  878MPD2     C12874   0.882   2.208  13.072 -0.3679  1.4289 -0.4152
  878MPD2    C112875   0.841   2.308  13.156 -0.0521 -0.2039  0.7159
  878MPD2    C212876   0.861   2.287  13.292  0.3256 -0.1078  0.2838
  878MPD2    C312877   0.930   2.177  13.342  0.0787  0.3698 -0.3070
  878MPD2    C412878   0.977   2.088  13.250  0.3513  0.1945  0.4308
  878MPD2    C512879   0.951   2.096  13.115  0.9157 -0.3930  1.2022
  878MPD2     H12880   0.825   2.363  13.360 -1.0288  0.3077 -0.9032
  878MPD2    H112881   1.011   1.989  13.281 -1.7915 -0.4295  0.8134
  878MPD2    H212882   0.863   2.210  12.966 -0.5827 -0.6638 -0.4143
  878MPD2    H312883   0.974   2.019  13.043 -0.9288  1.2642 -1.1821
  878MPD2     N12884   0.945   2.146  13.476 -0.0894 -0.0360  1.4223
  878MPD2    H512885   0.979   2.053  13.499  0.6425 -0.8153 -2.8312
  878MPD2    N112886   0.774   2.411  13.107  0.0468 -0.3481 -0.2360
  878MPD2    H712887   0.740   2.407  13.011 -1.4832  3.3483  0.1582
  879MPD2     C12888   1.340   3.269   0.099 -0.3947 -0.2431 -0.6098
  879MPD2    C112889   1.407   3.329  17.703  0.0477  0.3989  0.0051
  879MPD2    C212890   1.353   3.317  17.575 -0.0190 -0.6361 -0.7652
  879MPD2    C312891   1.221   3.266  17.562  1.0932  0.4591  1.0175
  879MPD2    C412892   1.155   3.226  17.673  0.1037  0.1761  0.6795
  879MPD2    C512893   1.217   3.216   0.086  0.0520 -0.1962  0.2901
  879MPD2     H12894   1.403   3.362  17.490  0.3249  0.0019 -0.2283
  879MPD2    H112895   1.057   3.181  17.673 -0.4622  1.3849 -2.0105
  879MPD2    H212896   1.376   3.247   0.200  0.1142  0.7231 -0.5866
  879MPD2    H312897   1.164   3.169   0.167  3.1027 -1.6600  1.4059
  879MPD2     N12898   1.144   3.262  17.442  0.7697 -0.3404 -0.3450
  879MPD2    H512899   1.055   3.215  17.454  0.3156  0.1701 -1.6466
  879MPD2    N112900   1.526   3.389   0.041  0.2537  0.2082  0.2200
  879MPD2    H712901   1.542   3.401   0.140  1.2536 -0.4020  0.1294
  880MPD2     C12902   2.920   0.363   0.685  0.3197 -0.0515  0.5580
  880MPD2    C112903   2.792   0.308   0.717  0.8025  0.0465  0.2554
  880MPD2    C212904   2.785   0.175   0.747 -0.8690  0.5023 -0.1278
  880MPD2    C312905   2.891   0.089   0.719  0.3542  0.2271  0.0028
  880MPD2    C412906   3.011   0.148   0.680 -0.4875  0.2603  0.3057
  880MPD2    C512907   3.021   0.281   0.669  0.1160  0.5176 -0.5187
  880MPD2     H12908   2.693   0.124   0.774 -1.0840  0.9498 -0.0208
  880MPD2    H112909   3.103   0.092   0.672  0.0127  0.9518  1.2076
  880MPD2    H212910   2.932   0.469   0.665 -0.4589 -0.1699 -0.5126
  880MPD2    H312911   3.118   0.311   0.629  0.0281  0.9411 -0.4202
  880MPD2     N12912   2.874   4.678   0.750 -0.3978 -0.0759  0.5708
  880MPD2    H512913   2.800   4.653   0.814 -3.1839  2.4524 -1.6297
  880MPD2    N112914   2.691   0.409   0.739 -0.4033 -0.6504  0.1027
  880MPD2    H712915   2.707   0.507   0.716  1.2137 -1.0471 -0.5021
  881MPD2     C12916   2.516   1.246   0.389  0.6971 -0.0193 -0.1920
  881MPD2    C112917   2.490   1.129   0.327 -0.4712 -0.3076 -0.0089
  881MPD2    C212918   2.446   1.022   0.407  0.0160  0.4871 -0.0308
  881MPD2    C312919   2.426   1.040   0.542  1.0233  0.2553  0.2528
  881MPD2    C412920   2.439   1.161   0.598 -0.7175 -0.0153 -0.8604
  881MPD2    C512921   2.479   1.266   0.519  0.5244 -0.0399  0.0071
  881MPD2     H12922   2.432   0.921   0.370 -1.8024  0.5417  0.5500
  881MPD2    H112923   2.435   1.169   0.706  1.4657 -4.5010 -0.4734
  881MPD2    H212924   2.548   1.337   0.340  0.3608 -0.3883 -1.0960
  881MPD2    H312925   2.493   1.361   0.571 -0.8858  1.2911 -2.0411
  881MPD2     N12926   2.411   0.934   0.639  0.1566  0.6344 -0.0986
  881MPD2    H512927   2.400   0.955   0.738 -1.1662 -0.1573 -0.0734
  881MPD2    N112928   2.528   1.111   0.195 -0.0598  0.0044 -0.0757
  881MPD2    H712929   2.567   1.194   0.153  0.7690  0.9235  2.5678
  882MPD2     C12930   1.033   2.866  14.728  0.4028 -0.7594 -0.7635
  882MPD2    C112931   0.923   2.925  14.783 -0.0883  0.3398  0.6798
  882MPD2    C212932   0.797   2.869  14.762  0.4146 -0.4632  0.6456
  882MPD2    C312933   0.786   2.748  14.696 -0.1572  0.0174  0.3598
  882MPD2    C412934   0.899   2.696  14.635 -0.1351  0.2421 -0.0006
  882MPD2    C512935   1.023   2.748  14.656  0.0804  0.4591  0.0973
  882MPD2     H12936   0.714   2.919  14.810 -0.2441 -0.9635  0.0173
  882MPD2    H112937   0.895   2.596  14.593  1.2000  0.0543  0.3311
  882MPD2    H212938   1.135   2.899  14.744 -0.1980  0.1818  1.1369
  882MPD2    H312939   1.107   2.696  14.613  0.3467  0.5395  0.5311
  882MPD2     N12940   0.664   2.687  14.660 -0.1354 -0.0296  0.3104
  882MPD2    H512941   0.670   2.589  14.635 -2.1752  0.4236 -2.0264
  882MPD2    N112942   0.953   3.025  14.872  0.4595 -0.0357 -0.5161
  882MPD2    H712943   1.051   3.054  14.868  0.3185  0.5119 -0.0654
  883MPD2     C12944   3.377   2.813  16.609  0.2726 -0.5893 -0.3148
  883MPD2    C112945   3.431   2.740  16.507 -0.3136  0.0616  0.0260
  883MPD2    C212946   3.561   2.718  16.495 -0.3694  0.6194 -0.2023
  883MPD2    C312947   3.642   2.757  16.598  0.9590  0.6317 -0.4457
  883MPD2    C412948   3.589   2.823  16.708 -0.1343  0.6321 -0.0740
  883MPD2    C512949   3.459   2.858  16.709 -0.6913 -0.5359 -0.7906
  883MPD2     H12950   3.595   2.668  16.405 -0.7419 -3.1444  1.7219
  883MPD2    H112951   3.646   2.858  16.794 -1.9064  0.3558  1.2246
  883MPD2    H212952   3.271   2.826  16.626  0.1017 -2.3655 -0.0079
  883MPD2    H312953   3.409   2.902  16.794  1.0102 -1.2764  0.5974
  883MPD2     N12954   3.779   2.730  16.578 -0.6940  0.6301 -0.5512
  883MPD2    H512955   3.799   2.680  16.491 -0.3952  0.4405 -0.3721
  883MPD2    N112956   3.355   2.677  16.410 -0.3567  0.3864  0.4485
  883MPD2    H712957   3.407   2.616  16.347  0.1172  1.0897  0.1647
  884MPD2     C12958   4.606   3.533  15.715 -0.4955  0.2685 -0.2179
  884MPD2    C112959   4.597   3.513  15.576 -0.1649 -0.2556 -0.0165
  884MPD2    C212960   4.477   3.535  15.503  0.5082 -0.1628 -0.0403
  884MPD2    C312961   4.370   3.598  15.573 -0.1982 -0.2075  0.0492
  884MPD2    C412962   4.384   3.618  15.712 -0.5125 -0.5777  0.1408
  884MPD2    C512963   4.495   3.577  15.781  0.1820  0.0631 -0.0758
  884MPD2     H12964   4.473   3.516  15.396 -0.8880 -3.3229  0.5639
  884MPD2    H112965   4.299   3.652  15.771  0.7541  3.2571 -0.2563
  884MPD2    H212966   4.703   3.516  15.762 -1.6523  0.6337  2.2706
  884MPD2    H312967   4.492   3.591  15.888  0.6145  0.3101 -0.0979
  884MPD2     N12968   4.256   3.632  15.499 -0.4227  0.2044  0.4578
  884MPD2    H512969   4.276   3.639  15.399 -0.3235  1.7949  0.5751
  884MPD2    N112970   4.704   3.469  15.497 -0.0086  0.1679 -0.3868
  884MPD2    H712971   4.682   3.444  15.402 -3.2303 -0.7988  0.5969
  885MPD2     C12972   2.922   3.870   0.222 -0.0164  0.2787 -0.0954
  885MPD2    C112973   2.980   3.751   0.182 -0.6223  0.3523 -0.0736
  885MPD2    C212974   3.000   3.738   0.044 -0.4763 -0.3523  0.9811
  885MPD2    C312975   2.957   3.834  17.654  0.5703  0.7452  0.3343
  885MPD2    C412976   2.914   3.953  17.703 -0.1734  0.1494 -0.9885
  885MPD2    C512977   2.901   3.977   0.132  0.2369 -0.0742 -0.6981
  885MPD2     H12978   3.051   3.649   0.011 -1.8947 -1.3842  1.5939
  885MPD2    H112979   2.906   4.036  17.634  0.4792  0.3729 -0.8010
  885MPD2    H212980   2.909   3.892   0.327 -2.4038  0.1169 -0.3628
  885MPD2    H312981   2.864   4.072   0.168 -0.0700 -0.5495  0.2392
  885MPD2     N12982   2.971   3.802  17.519 -0.5109 -0.5082 -0.6669
  885MPD2    H512983   3.012   3.711  17.500 -0.8767 -0.6463 -0.7946
  885MPD2    N112984   3.030   3.669   0.285  0.3678  0.1393  0.3112
  885MPD2    H712985   3.015   3.698   0.381 -1.1836  2.3279 -0.6007
  886MPD2     C12986   4.237   2.341  15.836 -1.1697 -0.0034  0.6739
  886MPD2    C112987   4.365   2.336  15.798  0.2132 -0.0581  0.0767
  886MPD2    C212988   4.407   2.426  15.701  0.2839  0.9290  0.6087
  886MPD2    C312989   4.324   2.515  15.638  0.7816 -0.3824 -0.6130
  886MPD2    C412990   4.195   2.513  15.672  0.0464  0.1567  0.1624
  886MPD2    C512991   4.145   2.435  15.774 -0.2752 -0.0961  0.4153
  886MPD2     H12992   4.509   2.432  15.665 -0.5401 -0.9460 -2.0921
  886MPD2    H112993   4.135   2.583  15.614 -0.5821 -0.5572 -0.0378
  886MPD2    H212994   4.205   2.275  15.915 -1.1931 -0.6336  0.1352
  886MPD2    H312995   4.040   2.438  15.801 -0.6802 -1.9183 -0.9200
  886MPD2     N12996   4.387   2.598  15.542 -0.0425  0.1764 -0.5047
  886MPD2    H512997   4.485   2.574  15.531  0.1987  0.9521 -0.0166
  886MPD2    N112998   4.458   2.244  15.856 -0.1853  0.1138  0.5531
  886MPD2    H712999   4.556   2.260  15.836 -0.3687  1.3433  0.6478
  887MPD2     C13000   0.247   2.322  16.365  0.4082  0.2505 -0.0982
  887MPD2    C113001   0.186   2.357  16.251 -0.1287  0.3862 -0.1453
  887MPD2    C213002   0.223   2.464  16.175  0.8258  0.1009 -0.2772
  887MPD2    C313003   0.322   2.546  16.231  0.2539  0.1897 -0.3998
  887MPD2    C413004   0.379   2.515  16.349 -0.0660 -0.1792  0.0744
  887MPD2    C513005   0.350   2.398  16.408 -0.5036 -0.4411  0.3085
  887MPD2     H13006   0.193   2.470  16.071 -0.6682  1.9221  0.2778
  887MPD2    H113007   0.455   2.572  16.399 -0.5848 -1.2091  2.0171
  887MPD2    H213008   0.218   2.232  16.418  0.1672 -0.3732 -1.2834
  887MPD2    H313009   0.399   2.365  16.499 -2.3108 -0.3977  1.3010
  887MPD2     N13010   0.362   2.662  16.157  0.0860  0.7460  0.0042
  887MPD2    H513011   0.311   2.686  16.073  1.7972 -1.5799 -1.6916
  887MPD2    N113012   0.092   2.277  16.189  0.6277  0.0836 -0.2428
  887MPD2    H713013   0.070   2.286  16.090  0.4894  0.3487 -0.1883
  888MPD2     C13014   2.450   2.480  15.118 -0.0324 -0.2603 -0.2061
  888MPD2    C113015   2.357   2.578  15.113 -0.1965  0.5754  0.4468
  888MPD2    C213016   2.397   2.697  15.075  0.0147  0.0467 -0.4392
  888MPD2    C313017   2.529   2.720  15.039 -0.0679 -0.0250 -0.1449
  888MPD2    C413018   2.625   2.623  15.051  0.3409  0.3947  0.3019
  888MPD2    C513019   2.581   2.502  15.097 -0.2776  0.4761  0.1310
  888MPD2     H13020   2.327   2.779  15.066 -0.3381 -0.0214  1.7932
  888MPD2    H113021   2.732   2.635  15.041  0.6795 -1.3829  1.8120
  888MPD2    H213022   2.433   2.380  15.155 -1.5810 -0.2583 -0.9377
  888MPD2    H313023   2.650   2.422  15.122  1.9632  2.0741 -0.8916
  888MPD2     N13024   2.553   2.854  14.992  0.1936 -0.2549  0.3916
  888MPD2    H513025   2.468   2.910  14.988  0.6647  0.3477 -1.1127
  888MPD2    N113026   2.219   2.548  15.133  0.0045  0.4392  0.1890
  888MPD2    H713027   2.150   2.623  15.128 -2.0221 -1.3744  1.0578
  889MPD2     C13028   1.238   2.315  13.199 -0.3450  0.9479  0.2625
  889MPD2    C113029   1.291   2.235  13.298 -0.0351  0.2183  0.2485
  889MPD2    C213030   1.257   2.270  13.431  0.0642  0.4764 -0.2525
  889MPD2    C313031   1.191   2.386  13.457 -0.1757  0.4563  0.4422
  889MPD2    C413032   1.129   2.452  13.357  0.1445  0.5341 -0.0853
  889MPD2    C513033   1.150   2.412  13.226 -0.4292 -0.4604  0.0507
  889MPD2     H13034   1.307   2.219  13.512  2.2211 -0.4331 -2.1569
  889MPD2    H113035   1.061   2.537  13.363  1.5916  1.6919  0.0595
  889MPD2    H213036   1.245   2.282  13.096 -2.8160  0.1566  0.3320
  889MPD2    H313037   1.113   2.465  13.139  0.3051  1.1137  0.7043
  889MPD2     N13038   1.189   2.433  13.596  0.4074 -0.1561  0.0378
  889MPD2    H513039   1.243   2.381  13.664  1.3690  2.9465  1.6614
  889MPD2    N113040   1.342   2.105  13.269  0.0083 -0.3286  0.1815
  889MPD2    H713041   1.358   2.043  13.348 -0.3662  1.2232  1.5046
  890MPD2     C13042   0.818   3.717  14.856 -0.6787  0.0497  0.6148
  890MPD2    C113043   0.948   3.738  14.817 -0.4706 -0.6342 -0.2096
  890MPD2    C213044   1.043   3.645  14.870  0.8628  0.1539 -0.2333
  890MPD2    C313045   1.003   3.569  14.980  0.0373  0.6790  0.1003
  890MPD2    C413046   0.870   3.553  15.010 -0.2078  0.2675  0.4926
  890MPD2    C513047   0.776   3.627  14.946  0.1427  0.1324 -0.3046
  890MPD2     H13048   1.146   3.654  14.840  0.8286 -1.0168 -0.6897
  890MPD2    H113049   0.829   3.488  15.086  1.9176 -2.5546 -0.7766
  890MPD2    H213050   0.743   3.772  14.802 -0.8539 -0.9500 -0.1431
  890MPD2    H313051   0.671   3.621  14.973  0.7414 -1.7718  1.6111
  890MPD2     N13052   1.101   3.516  15.060 -0.0299 -0.8221  0.7056
  890MPD2    H513053   1.192   3.529  15.019  0.4189  1.1332  2.3239
  890MPD2    N113054   0.972   3.843  14.726  0.6682 -0.0307 -0.1452
  890MPD2    H713055   0.898   3.907  14.700  0.7337 -2.0686 -5.3615
  891MPD2     C13056   3.482   2.082  16.762  0.3383  0.2228 -0.3718
  891MPD2    C113057   3.440   2.098  16.892 -0.1014 -0.0735  0.5036
  891MPD2    C213058   3.531   2.144  16.989 -0.0714 -0.1254 -0.8792
  891MPD2    C313059   3.671   2.134  16.962 -0.1266 -0.5760 -0.0714
  891MPD2    C413060   3.712   2.096  16.831  0.2349 -0.2162  0.0569
  891MPD2    C513061   3.616   2.083  16.738  0.3304 -0.0464 -0.3770
  891MPD2     H13062   3.505   2.158  17.093 -0.5089  0.1661 -1.0287
  891MPD2    H113063   3.815   2.104  16.798 -0.3387 -1.2517 -1.9814
  891MPD2    H213064   3.413   2.065  16.680 -1.1811  0.5694  0.8261
  891MPD2    H313065   3.648   2.065  16.636 -1.4160  2.2081 -1.3058
  891MPD2     N13066   3.758   2.171  17.062 -0.2099 -0.6269  0.1037
  891MPD2    H513067   3.716   2.193  17.151 -1.0197 -2.2057  0.1213
  891MPD2    N113068   3.304   2.064  16.929  0.0300 -0.1647  0.0488
  891MPD2    H713069   3.258   2.002  16.863  0.1779  0.7563 -0.9169
  892MPD2     C13070   4.592   3.125  14.453 -0.4407 -0.0281 -0.5491
  892MPD2    C113071   4.608   3.113  14.592  0.4371 -0.7635 -0.7107
  892MPD2    C213072   4.678   3.004  14.642  0.0972  0.0208 -0.0306
  892MPD2    C313073   0.008   2.908  14.554  0.3241 -0.9214 -0.0293
  892MPD2    C413074   4.715   2.924  14.419 -0.2785 -0.0139  0.9089
  892MPD2    C513075   4.645   3.026  14.368 -0.1300 -0.3912  0.3031
  892MPD2     H13076   4.690   2.974  14.746 -0.3059 -0.4079 -0.1052
  892MPD2    H113077   0.042   2.854  14.355 -0.2215  1.9542 -1.1688
  892MPD2    H213078   4.532   3.201  14.407  0.3741  0.4501 -0.8217
  892MPD2    H313079   4.629   3.038  14.262 -0.3653 -0.4457  0.3343
  892MPD2     N13080   0.070   2.786  14.594  0.3761  0.2079 -0.0209
  892MPD2    H513081   0.110   2.724  14.524 -0.8788 -0.6929  0.0551
  892MPD2    N113082   4.535   3.207  14.671 -0.0657 -0.6177  0.3537
  892MPD2    H713083   4.486   3.279  14.619  0.1765 -1.1271 -0.5874
  893MPD2     C13084   1.560   1.457   1.037  0.3921  0.0754 -0.7363
  893MPD2    C113085   1.519   1.371   1.135 -0.2944  0.3413 -1.6621
  893MPD2    C213086   1.389   1.326   1.126  0.1549 -0.1566  0.1473
  893MPD2    C313087   1.307   1.361   1.021  0.8515 -0.0680  0.3576
  893MPD2    C413088   1.360   1.430   0.916  0.4462  0.3559  0.3932
  893MPD2    C513089   1.483   1.483   0.926 -0.1250  0.0418 -0.2433
  893MPD2     H13090   1.353   1.260   1.204  0.3194  0.4445  0.7222
  893MPD2    H113091   1.293   1.439   0.831  2.2201 -1.5535 -1.1917
  893MPD2    H213092   1.665   1.487   1.032  0.2731  0.4384 -1.1209
  893MPD2    H313093   1.528   1.540   0.846 -2.0795  0.8631 -0.7702
  893MPD2     N13094   1.178   1.296   0.997 -0.5824  0.0126  0.4532
  893MPD2    H513095   1.124   1.315   0.914 -1.0034  0.9173  0.9391
  893MPD2    N113096   1.621   1.323   1.226  0.3823  0.1549 -0.5378
  893MPD2    H713097   1.714   1.359   1.206  0.5375  0.1027  0.1128
  894MPD2     C13098   4.705   3.457   0.736  0.1152  0.0840 -0.4496
  894MPD2    C113099   4.686   3.488   0.873 -0.2337 -0.0309 -0.4375
  894MPD2    C213100   4.671   3.622   0.912  0.1553 -0.2077  0.5006
  894MPD2    C313101   4.666   3.719   0.810 -0.6895  0.1874 -0.0112
  894MPD2    C413102   4.680   3.689   0.678 -0.5327  0.3459  0.3276
  894MPD2    C513103   4.701   3.562   0.647  0.4489  0.0918  0.2500
  894MPD2     H13104   4.665   3.639   1.019 -1.8678 -0.4128  0.4240
  894MPD2    H113105   4.692   3.760   0.597  0.3238 -1.0645 -0.7671
  894MPD2    H213106   4.717   3.357   0.696  0.7135  0.0316 -0.1319
  894MPD2    H313107   4.714   3.532   0.544 -0.5022  0.5368 -0.0016
  894MPD2     N13108   4.659   3.851   0.852 -0.0046  0.5175 -0.2116
  894MPD2    H513109   4.656   3.867   0.952  0.5246 -0.5651 -0.0161
  894MPD2    N113110   4.667   3.389   0.968 -0.6520  0.0851  0.3546
  894MPD2    H713111   4.646   3.428   1.060 -0.3859  0.8905  0.0734
  895MPD2     C13112   4.268   1.889  13.370 -0.8611 -0.9240 -0.0837
  895MPD2    C113113   4.157   1.922  13.450 -0.2619 -0.5389  0.1705
  895MPD2    C213114   4.144   1.855  13.566 -0.8126 -0.1830 -0.6174
  895MPD2    C313115   4.224   1.750  13.597 -0.2768 -0.4673  0.2780
  895MPD2    C413116   4.328   1.708  13.520 -0.0867  0.4981 -0.4291
  895MPD2    C513117   4.346   1.783  13.407 -0.5877  0.1564 -0.0032
  895MPD2     H13118   4.055   1.866  13.627 -0.1141  1.6122  0.0697
  895MPD2    H113119   4.388   1.618  13.525  1.0905  1.2883 -0.0413
  895MPD2    H213120   4.269   1.933  13.270  0.8851 -1.2010 -0.1803
  895MPD2    H313121   4.416   1.744  13.334 -1.2698 -1.0453 -0.0111
  895MPD2     N13122   4.193   1.677  13.708 -0.6536  0.1130 -0.2078
  895MPD2    H513123   4.115   1.707  13.765  0.1527  0.6569  0.6165
  895MPD2    N113124   4.049   2.008  13.410 -0.1139 -0.2235  0.2037
  895MPD2    H713125   3.972   2.016  13.475 -0.9215  2.2313 -1.0382
  896MPD2     C13126   1.170   4.600   2.290 -0.4796  0.0241 -0.1149
  896MPD2    C113127   1.196   4.549   2.162  0.1274  0.0036  0.4678
  896MPD2    C213128   1.092   4.525   2.074 -0.3034 -0.0808  0.4773
  896MPD2    C313129   0.961   4.544   2.116 -0.2981 -0.1874  0.0841
  896MPD2    C413130   0.936   4.607   2.237  0.3964 -0.5819 -0.3500
  896MPD2    C513131   1.041   4.631   2.325  0.4973  0.1829 -0.5154
  896MPD2     H13132   1.108   4.470   1.982 -0.1707  1.2101 -0.2625
  896MPD2    H113133   0.839   4.629   2.281 -0.8651 -1.4649 -2.6701
  896MPD2    H213134   1.253   4.613   2.359  0.0259 -0.4648 -0.6386
  896MPD2    H313135   1.018   4.671   2.423 -0.4560 -1.8158  0.0935
  896MPD2     N13136   0.863   4.518   2.017  0.6017 -0.0792 -0.4245
  896MPD2    H513137   0.894   4.480   1.928  1.0446  0.1828 -0.3811
  896MPD2    N113138   1.331   4.535   2.128  0.1688 -0.3048  0.0648
  896MPD2    H713139   1.404   4.542   2.197  1.3916  2.5652 -1.5088
  897MPD2     C13140   2.268   1.839  10.614  0.1296  0.5092  0.1745
  897MPD2    C113141   2.194   1.957  10.621 -0.2434  0.1442 -0.2692
  897MPD2    C213142   2.102   1.965  10.725 -0.9511 -0.6310 -0.8567
  897MPD2    C313143   2.070   1.860  10.810 -0.2894 -0.7643  1.0304
  897MPD2    C413144   2.143   1.749  10.792 -0.2685  0.4198 -0.6251
  897MPD2    C513145   2.238   1.734  10.690  0.1422 -0.0064 -0.2084
  897MPD2     H13146   2.059   2.061  10.750  0.8964  0.3779 -1.5469
  897MPD2    H113147   2.117   1.659  10.847 -1.4926  0.2752 -1.4479
  897MPD2    H213148   2.354   1.821  10.551  0.7648  0.6407  1.0015
  897MPD2    H313149   2.298   1.646  10.670 -0.8090 -0.9174  0.9608
  897MPD2     N13150   1.993   1.897  10.924 -0.3710  0.6042 -0.0516
  897MPD2    H513151   1.948   1.989  10.919  2.0121  1.6977 -1.4059
  897MPD2    N113152   2.220   2.075  10.544 -0.5573  0.9636 -0.9747
  897MPD2    H713153   2.164   2.154  10.573 -1.4647 -0.1808  0.3852
  898MPD2     C13154   0.213   2.637  17.346  1.0393  0.4518 -0.0663
  898MPD2    C113155   0.278   2.643  17.470 -1.0788  0.6379  0.0689
  898MPD2    C213156   0.211   2.715  17.574 -0.5239  0.8798  0.6990
  898MPD2    C313157   0.089   2.777  17.549 -0.4486 -0.2242  0.3407
  898MPD2    C413158   0.031   2.768  17.424  0.6587 -0.5846  0.1617
  898MPD2    C513159   0.101   2.709  17.327  0.0808  0.5448 -0.1242
  898MPD2     H13160   0.242   2.702  17.677 -2.4300  1.1776  1.3092
  898MPD2    H113161   4.661   2.813  17.401  0.7765 -1.2287 -1.5288
  898MPD2    H213162   0.257   2.569  17.274 -0.7224 -2.0527  1.2442
  898MPD2    H313163   0.063   2.717  17.226  0.1487 -0.9217 -0.2665
  898MPD2     N13164   0.020   2.836  17.658  0.1160 -0.9198 -0.0836
  898MPD2    H513165   0.047   2.809   0.048  0.3482  0.6720  0.2902
  898MPD2    N113166   0.398   2.583  17.506 -0.1880  0.0344  0.3864
  898MPD2    H713167   0.430   2.605  17.600  1.6087 -0.3532 -0.1341
  899MPD2     C13168   0.398   3.130  17.498 -0.2491  0.5144  0.4289
  899MPD2    C113169   0.470   3.234  17.554  0.7139 -0.1035 -0.5516
  899MPD2    C213170   0.494   3.237  17.693  0.5396  0.4912 -0.1824
  899MPD2    C313171   0.428   3.136   0.068 -0.5374 -0.8006  0.1550
  899MPD2    C413172   0.345   3.053   0.009  0.1673  0.1300 -0.1831
  899MPD2    C513173   0.325   3.053  17.577  0.1374 -0.0914 -0.1011
  899MPD2     H13174   0.558   3.312   0.032  0.4244  1.0898 -1.0535
  899MPD2    H113175   0.290   2.977   0.064  1.8705 -0.0101  1.3347
  899MPD2    H213176   0.382   3.115  17.392  1.5744  1.3829  0.0212
  899MPD2    H313177   0.273   2.970  17.531  0.9971 -0.7160  0.0507
  899MPD2     N13178   0.431   3.132   0.208  0.2086  0.4065  0.2116
  899MPD2    H513179   0.351   3.081   0.246  0.1180  0.4716  0.1074
  899MPD2    N113180   0.529   3.322  17.467 -0.4232  0.3158  0.5757
  899MPD2    H713181   0.503   3.309  17.370 -1.2728 -0.8299  0.9543
  900MPD2     C13182   0.660   0.372  12.715 -0.5877  0.5889  0.8837
  900MPD2    C113183   0.566   0.278  12.735 -0.0096  0.3274 -0.2235
  900MPD2    C213184   0.441   0.299  12.694 -0.2301  0.0556 -0.6635
  900MPD2    C313185   0.407   0.403  12.614 -0.6353  0.3351  0.2801
  900MPD2    C413186   0.502   0.495  12.583 -0.3328 -0.0605 -0.6965
  900MPD2    C513187   0.626   0.482  12.643  0.2255 -0.6276 -0.0372
  900MPD2     H13188   0.371   0.227  12.737 -1.4158  0.8046 -1.3381
  900MPD2    H113189   0.474   0.587  12.532 -1.6162 -0.0634  0.0151
  900MPD2    H213190   0.755   0.372  12.768 -0.5154 -1.7516  0.7784
  900MPD2    H313191   0.699   0.562  12.647  0.9507 -1.1785 -2.3777
  900MPD2     N13192   0.269   0.406  12.574 -0.8036  0.4524 -0.6236
  900MPD2    H513193   0.204   0.343  12.620 -1.4439  0.9004 -0.9135
  900MPD2    N113194   0.577   0.166  12.818  0.5430  0.1516 -0.1426
  900MPD2    H713195   0.494   0.113  12.843  0.6641  1.2157  2.5453
  901MPD2     C13196   0.115   4.260  13.284 -0.3267  0.0165 -0.7226
  901MPD2    C113197   0.231   4.200  13.268 -0.2771  0.2970  0.5879
  901MPD2    C213198   0.335   4.278  13.225 -0.0396  0.0428  0.9888
  901MPD2    C313199   0.325   4.411  13.200  0.6594  0.5408 -0.4077
  901MPD2    C413200   0.208   4.473  13.235  0.5893 -0.0080  0.7192
  901MPD2    C513201   0.103   4.394  13.276  0.8472 -0.5874  0.5462
  901MPD2     H13202   0.432   4.229  13.222 -1.0838 -1.9119 -0.8559
  901MPD2    H113203   0.181   4.578  13.228  1.9067  0.1256 -2.3422
  901MPD2    H213204   0.027   4.213  13.326 -0.7050  1.7727  0.4648
  901MPD2    H313205   0.012   4.441  13.313  0.6069 -0.6943  0.0994
  901MPD2     N13206   0.444   4.484  13.181 -0.0178 -0.0392  0.3760
  901MPD2    H513207   0.525   4.431  13.151  0.9537  1.5670  0.1708
  901MPD2    N113208   0.241   4.062  13.287  0.2009  0.3290 -0.2265
  901MPD2    H713209   0.152   4.013  13.284  0.3161  0.0215  1.2487
  902MPD2     C13210   3.907   2.563  12.864  0.4192  0.5007  0.1396
  902MPD2    C113211   3.793   2.624  12.807  0.0510  0.2052 -0.2042
  902MPD2    C213212   3.748   2.581  12.690  0.4204 -0.1149  0.0815
  902MPD2    C313213   3.817   2.483  12.618 -0.7104  0.1400 -0.0633
  902MPD2    C413214   3.928   2.426  12.666 -0.1156 -0.5425 -0.6752
  902MPD2    C513215   3.975   2.468  12.790 -0.0775 -0.5433 -0.3727
  902MPD2     H13216   3.674   2.649  12.649  0.8481  0.3996  0.1664
  902MPD2    H113217   3.981   2.346  12.616  2.0725 -0.0922  0.9145
  902MPD2    H213218   3.946   2.591  12.961 -0.2789  1.9432  0.0031
  902MPD2    H313219   4.060   2.415  12.831 -0.4542  0.7902  2.1188
  902MPD2     N13220   3.775   2.447  12.480  0.6192 -0.1888  0.2765
  902MPD2    H513221   3.831   2.374  12.438  1.1030  1.0667 -1.2768
  902MPD2    N113222   3.718   2.718  12.871  0.1969  0.4536 -0.4301
  902MPD2    H713223   3.638   2.763  12.827  0.4506  2.1547  0.8459
  903MPD2     C13224   3.125   2.247  11.850 -0.5323 -0.3201 -0.7786
  903MPD2    C113225   3.156   2.351  11.931 -0.4511  0.2516  0.5543
  903MPD2    C213226   3.059   2.448  11.958  0.6493  0.5404 -0.1679
  903MPD2    C313227   2.939   2.444  11.892  0.4346 -0.1292 -0.4058
  903MPD2    C413228   2.913   2.346  11.802 -0.1311  0.0055  0.1290
  903MPD2    C513229   3.004   2.248  11.786  0.2133 -0.5557 -0.0358
  903MPD2     H13230   3.077   2.539  12.014  0.5174  0.8993 -0.7140
  903MPD2    H113231   2.820   2.335  11.747 -2.0021  2.3016  2.7879
  903MPD2    H213232   3.190   2.164  11.826 -0.6980 -1.2706  2.0546
  903MPD2    H313233   2.978   2.167  11.718  0.8717  1.0360 -2.1923
  903MPD2     N13234   2.844   2.547  11.920  0.1054  0.6538  0.6974
  903MPD2    H513235   2.850   2.598  12.007 -0.2449  0.3531  0.8992
  903MPD2    N113236   3.285   2.357  11.984 -0.8054  0.3270  0.3618
  903MPD2    H713237   3.357   2.291  11.957  0.3579  2.0676 -0.7951
  904MPD2     C13238   3.483   1.725  14.104  0.0236 -0.9894 -0.0658
  904MPD2    C113239   3.575   1.815  14.133  1.1279  0.0593 -0.9134
  904MPD2    C213240   3.701   1.764  14.163  0.7464  0.0784  0.4550
  904MPD2    C313241   3.724   1.624  14.175 -0.0155  0.0977 -0.2826
  904MPD2    C413242   3.622   1.537  14.148 -0.2168  0.7018 -1.0295
  904MPD2    C513243   3.508   1.590  14.115 -0.1658 -0.3450  0.1476
  904MPD2     H13244   3.782   1.828  14.195  1.5695 -0.7810  0.0775
  904MPD2    H113245   3.624   1.429  14.146 -1.7628  0.6822 -2.1191
  904MPD2    H213246   3.393   1.765  14.058 -0.6932 -3.0572 -0.4859
  904MPD2    H313247   3.429   1.519  14.096  0.3338 -1.2422  1.4250
  904MPD2     N13248   3.856   1.586  14.195  0.3375 -0.0936  0.1259
  904MPD2    H513249   3.922   1.653  14.231 -2.2539  2.3794  0.2688
  904MPD2    N113250   3.558   1.953  14.139  0.7148  0.4495  0.1024
  904MPD2    H713251   3.637   2.010  14.166 -0.0016  1.1637  0.6964
  905MPD2     C13252   3.395   1.816  13.672 -0.2883  0.3778  0.0941
  905MPD2    C113253   3.501   1.889  13.731  0.1014 -0.0479 -0.0974
  905MPD2    C213254   3.605   1.816  13.779 -0.4786 -0.0531  0.4204
  905MPD2    C313255   3.616   1.675  13.759 -0.5108 -0.0135 -0.3358
  905MPD2    C413256   3.502   1.613  13.705 -0.3904  0.0217  0.0612
  905MPD2    C513257   3.393   1.681  13.661 -0.4612  0.2412 -0.3696
  905MPD2     H13258   3.684   1.863  13.836  1.2739 -1.3129 -0.9317
  905MPD2    H113259   3.486   1.506  13.703 -1.6067  0.2254 -1.1163
  905MPD2    H213260   3.308   1.868  13.632 -0.4368  1.6467  2.0843
  905MPD2    H313261   3.305   1.631  13.623 -0.4447 -0.1516  0.1085
  905MPD2     N13262   3.730   1.602  13.800  0.2841 -0.8303  0.3091
  905MPD2    H513263   3.717   1.502  13.804 -0.7722 -0.6503  1.1522
  905MPD2    N113264   3.497   2.033  13.746 -0.0244 -0.3190 -0.6578
  905MPD2    H713265   3.407   2.074  13.722 -0.2892  0.4979  1.7551
  906MPD2     C13266   0.742   2.449  11.422  0.3385 -0.2932  0.0444
  906MPD2    C113267   0.793   2.353  11.338 -0.3409 -0.2414 -0.3295
  906MPD2    C213268   0.824   2.229  11.394 -0.0798 -0.4776  0.0691
  906MPD2    C313269   0.799   2.203  11.524 -0.4466 -0.1713  0.3597
  906MPD2    C413270   0.754   2.295  11.603 -0.1955 -0.4713 -0.0744
  906MPD2    C513271   0.729   2.419  11.552 -0.3502 -0.4525 -0.3377
  906MPD2     H13272   0.876   2.156  11.332  0.7748  1.2925 -1.2753
  906MPD2    H113273   0.753   2.285  11.711  2.1553  4.3910  0.3920
  906MPD2    H213274   0.720   2.549  11.389 -2.9292 -0.6455  1.2036
  906MPD2    H313275   0.706   2.495  11.626 -1.9423 -0.9964 -0.2811
  906MPD2     N13276   0.831   2.080  11.581 -0.6521 -0.7739 -0.3463
  906MPD2    H513277   0.799   2.079  11.678  1.7909 -1.4617  0.4531
  906MPD2    N113278   0.839   2.371  11.209 -0.6168 -0.0691 -0.0456
  906MPD2    H713279   0.883   2.291  11.163 -0.8763  0.7867 -1.7820
  907MPD2     C13280   4.453   0.983  16.183  0.6727 -0.2156 -0.0368
  907MPD2    C113281   4.503   0.860  16.148 -0.4052  0.7040  0.1079
  907MPD2    C213282   4.553   0.775  16.246  0.5127 -0.8756  0.2372
  907MPD2    C313283   4.545   0.812  16.378 -0.0636  0.0788 -0.1744
  907MPD2    C413284   4.500   0.937  16.418  0.2479 -0.9581 -0.4595
  907MPD2    C513285   4.454   1.021  16.317 -0.2694 -0.5548  0.8606
  907MPD2     H13286   4.586   0.677  16.213 -2.4786 -1.6111 -0.5804
  907MPD2    H113287   4.502   0.977  16.518  2.5106 -2.2550  0.0292
  907MPD2    H213288   4.418   1.055  16.110 -0.6737 -1.3757 -0.5318
  907MPD2    H313289   4.422   1.123  16.335 -0.4145 -0.4745  0.1528
  907MPD2     N13290   4.597   0.725  16.476  0.1320 -0.2723 -0.1618
  907MPD2    H513291   4.638   0.642  16.436  2.1492  2.0331 -2.9129
  907MPD2    N113292   4.508   0.819  16.023 -0.2661  0.2390  0.1310
  907MPD2    H713293   4.550   0.727  16.015  1.4097  0.9533  0.6272
  908MPD2     C13294   2.271   2.495   9.667 -0.2716 -0.2480  0.4351
  908MPD2    C113295   2.323   2.371   9.693 -0.2377 -0.1549 -0.0480
  908MPD2    C213296   2.369   2.345   9.824 -0.0144 -0.2349 -0.2335
  908MPD2    C313297   2.359   2.443   9.926 -0.3693  0.6767  0.0045
  908MPD2    C413298   2.309   2.563   9.886  0.3572  0.2349  0.0740
  908MPD2    C513299   2.262   2.595   9.761 -0.1468 -0.6333  0.1081
  908MPD2     H13300   2.407   2.245   9.844  1.8929  0.7223  1.0103
  908MPD2    H113301   2.310   2.652   9.948 -0.5217  0.1083  0.2698
  908MPD2    H213302   2.244   2.532   9.569 -0.2712  1.2337  0.9785
  908MPD2    H313303   2.226   2.695   9.739 -0.3998 -0.9730 -1.0176
  908MPD2     N13304   2.395   2.407  10.058  0.4089 -0.3100  0.0482
  908MPD2    H513305   2.430   2.312  10.063  2.4370  0.4623  0.6088
  908MPD2    N113306   2.327   2.268   9.592 -0.3084 -0.0062 -0.3307
  908MPD2    H713307   2.354   2.175   9.623  0.2179  0.5350  0.8269
  909MPD2     C13308   3.023   4.688  12.132  0.6691 -0.0685 -0.6273
  909MPD2    C113309   2.984   0.089  12.080  0.6992  0.6176  0.6178
  909MPD2    C213310   2.855   0.135  12.118  0.5723  0.2774 -0.5836
  909MPD2    C313311   2.782   0.071  12.224  0.1792  0.0236 -0.5556
  909MPD2    C413312   2.830   4.677  12.272  0.0369 -0.0415 -0.3239
  909MPD2    C513313   2.940   4.623  12.221  0.3438 -0.2583 -0.3378
  909MPD2     H13314   2.837   0.238  12.089  0.4466  0.9469  1.8734
  909MPD2    H113315   2.781   4.618  12.348 -0.2626  2.1352  1.1738
  909MPD2    H213316   3.105   4.635  12.086  1.7480  1.2101 -0.1726
  909MPD2    H313317   2.960   4.519  12.245 -0.1835  0.3014  2.5790
  909MPD2     N13318   2.679   0.142  12.286  0.1810  0.2213 -0.2131
  909MPD2    H513319   2.643   0.227  12.243 -0.4426  1.0939  2.0496
  909MPD2    N113320   3.065   0.174  12.005 -0.4753 -0.1243 -0.1618
  909MPD2    H713321   3.028   0.266  11.981  1.3863  0.1632 -2.0176
  910MPD2     C13322   4.269   1.400  16.113 -0.1803  0.1558 -0.1689
  910MPD2    C113323   4.161   1.317  16.083 -0.4602  0.2749  0.0234
  910MPD2    C213324   4.099   1.321  15.951 -0.2175  0.4590 -0.0941
  910MPD2    C313325   4.158   1.397  15.857  0.3382 -0.5772  0.1464
  910MPD2    C413326   4.262   1.475  15.892 -0.0703 -0.0269  0.0824
  910MPD2    C513327   4.317   1.476  16.017 -0.0491 -0.2271 -0.6634
  910MPD2     H13328   4.017   1.253  15.934  0.7831 -0.3066 -1.8850
  910MPD2    H113329   4.316   1.537  15.821  0.3893  2.8587  2.9598
  910MPD2    H213330   4.316   1.401  16.210 -0.6368 -2.5313  0.0994
  910MPD2    H313331   4.399   1.544  16.037 -0.3009  0.7474 -2.8669
  910MPD2     N13332   4.107   1.427  15.727 -0.2438 -0.0142 -0.6090
  910MPD2    H513333   4.150   1.506  15.679  1.8756 -1.5050 -1.1909
  910MPD2    N113334   4.110   1.227  16.173  0.1663  0.0286  0.0550
  910MPD2    H713335   4.032   1.167  16.145  0.8411 -0.9039  0.1870
  911MPD2     C13336   2.081   2.710  16.452  0.0081  0.4201 -0.2156
  911MPD2    C113337   2.094   2.588  16.385 -0.5482 -0.1795 -1.0274
  911MPD2    C213338   2.021   2.573  16.264 -0.1810 -0.4848 -0.6746
  911MPD2    C313339   1.939   2.681  16.213  0.1529  0.2254 -0.1471
  911MPD2    C413340   1.932   2.800  16.281  0.2047 -0.3479 -0.5675
  911MPD2    C513341   2.002   2.808  16.402  0.3082 -0.9199  0.0342
  911MPD2     H13342   2.038   2.487  16.201 -0.6154 -0.5786 -0.6678
  911MPD2    H113343   1.862   2.878  16.252 -0.4205 -0.1614  1.4647
  911MPD2    H213344   2.129   2.727  16.548  0.5700 -0.9006 -0.2590
  911MPD2    H313345   1.989   2.902  16.455  1.8567 -0.1187 -1.0391
  911MPD2     N13346   1.863   2.678  16.094  0.7899 -0.4774  0.9829
  911MPD2    H513347   1.804   2.758  16.076 -0.0620 -0.9816  1.5698
  911MPD2    N113348   2.159   2.482  16.449  0.3841 -0.4029  0.4469
  911MPD2    H713349   2.222   2.509  16.524  1.9849  1.0038 -1.4268
  912MPD2     C13350   1.373   2.084  15.867 -0.7135 -0.4541 -0.2891
  912MPD2    C113351   1.440   2.177  15.938  0.1365  0.7854  0.3008
  912MPD2    C213352   1.494   2.135  16.063  0.6373  0.4431  0.8799
  912MPD2    C313353   1.476   2.002  16.111  0.0799  0.5728 -0.8546
  912MPD2    C413354   1.400   1.921  16.032  0.1016  0.6224 -0.1463
  912MPD2    C513355   1.350   1.960  15.911  0.3529  0.7670  0.8165
  912MPD2     H13356   1.563   2.198  16.119  3.4668 -1.6126 -0.3008
  912MPD2    H113357   1.383   1.823  16.075  0.0307 -0.8117 -3.4071
  912MPD2    H213358   1.341   2.112  15.767  1.7387 -1.6357 -1.3990
  912MPD2    H313359   1.286   1.896  15.850  0.1015 -0.3871  2.3004
  912MPD2     N13360   1.536   1.963  16.234  0.1890  1.0590  0.5162
  912MPD2    H513361   1.596   2.029  16.284 -1.0673  2.0233  0.7431
  912MPD2    N113362   1.469   2.302  15.876 -0.2911  0.2381 -0.2049
  912MPD2    H713363   1.441   2.317  15.779  0.9997  1.9305 -0.3240
  913MPD2     C13364   2.192   3.220  10.814  0.1310 -0.0683  0.1732
  913MPD2    C113365   2.280   3.314  10.860  0.3695 -0.4473  0.0396
  913MPD2    C213366   2.327   3.412  10.774 -0.0055 -0.1370 -0.1419
  913MPD2    C313367   2.281   3.419  10.644 -0.3716  0.0152 -0.2105
  913MPD2    C413368   2.191   3.327  10.600  0.1403 -0.1919 -0.1947
  913MPD2    C513369   2.153   3.225  10.683 -0.3203  0.3562 -0.3516
  913MPD2     H13370   2.394   3.488  10.813 -1.1438  0.9227 -0.2326
  913MPD2    H113371   2.147   3.341  10.502  0.6627 -0.4994 -0.4713
  913MPD2    H213372   2.156   3.135  10.872 -0.4680 -0.3680 -0.6306
  913MPD2    H313373   2.083   3.154  10.640 -1.8770  1.1774  0.8153
  913MPD2     N13374   2.322   3.508  10.549 -0.2800 -0.4197  1.1846
  913MPD2    H513375   2.285   3.489  10.456 -2.6723 -1.5348  2.3891
  913MPD2    N113376   2.304   3.307  11.001 -0.3780  0.0336 -0.0501
  913MPD2    H713377   2.263   3.231  11.054  1.8613 -0.2443  1.2843
  914MPD2     C13378   4.505   3.618  12.718 -0.2662 -0.0602  0.4669
  914MPD2    C113379   4.541   3.741  12.744 -0.1441  0.5644 -0.1001
  914MPD2    C213380   4.630   3.770  12.843 -0.2856  0.1082  0.2076
  914MPD2    C313381   4.679   3.668  12.925 -0.3532  0.2462 -0.2446
  914MPD2    C413382   4.641   3.541  12.896  0.6194  0.4294  0.1260
  914MPD2    C513383   4.556   3.513  12.794  0.1647 -0.2283 -0.2425
  914MPD2     H13384   4.662   3.874  12.852  2.9737 -0.7884 -0.8932
  914MPD2    H113385   4.688   3.459  12.949 -2.0484 -1.9412 -1.1802
  914MPD2    H213386   4.447   3.601  12.628 -0.8643 -0.5835  0.9449
  914MPD2    H313387   4.546   3.412  12.755  1.3109 -1.1982  1.9934
  914MPD2     N13388   0.053   3.704  13.021 -0.6804  0.4047  0.5652
  914MPD2    H513389   0.074   3.799  13.049  0.5048 -0.0022  1.0432
  914MPD2    N113390   4.479   3.835  12.660  0.1704  0.3867 -0.4942
  914MPD2    H713391   4.445   3.800  12.571 -0.7829 -1.3005  0.5362
  915MPD2     C13392   3.486   3.097  15.672  0.4921  0.0645  0.4188
  915MPD2    C113393   3.352   3.111  15.647 -0.5361  0.3687  0.1841
  915MPD2    C213394   3.278   3.195  15.733 -0.1400  0.0314 -0.2426
  915MPD2    C313395   3.346   3.250  15.841 -0.0941  0.5910  0.2815
  915MPD2    C413396   3.479   3.230  15.863 -0.0186 -0.3239 -0.4085
  915MPD2    C513397   3.549   3.150  15.776  0.2251 -0.4068  0.4850
  915MPD2     H13398   3.172   3.213  15.716 -0.3101 -1.1031 -0.3847
  915MPD2    H113399   3.523   3.260  15.957 -1.4401  3.5483 -0.9862
  915MPD2    H213400   3.538   3.040  15.596 -3.9073 -0.9918 -1.8176
  915MPD2    H313401   3.657   3.134  15.773 -0.0576 -2.0093 -1.7226
  915MPD2     N13402   3.266   3.323  15.934 -0.2842  0.1202  0.3372
  915MPD2    H513403   3.169   3.344  15.917 -0.6615 -2.3943 -0.5645
  915MPD2    N113404   3.294   3.059  15.529  0.1235  0.1150 -0.5320
  915MPD2    H713405   3.350   3.016  15.456 -0.2096 -1.3581  0.0792
  916MPD2     C13406   1.001   1.707  15.691 -0.0270  0.8379  0.1116
  916MPD2    C113407   1.015   1.597  15.771 -0.1896 -0.2158  0.5476
  916MPD2    C213408   1.111   1.505  15.752  0.5411  0.2653  0.3038
  916MPD2    C313409   1.187   1.514  15.639 -0.0762  0.6422  0.6639
  916MPD2    C413410   1.159   1.608  15.543 -0.0008 -0.4228 -0.1918
  916MPD2    C513411   1.070   1.707  15.571 -0.4113  0.1765  0.6090
  916MPD2     H13412   1.135   1.420  15.814 -0.0285 -0.3452 -0.3045
  916MPD2    H113413   1.209   1.616  15.447 -0.6699  0.6724 -0.4556
  916MPD2    H213414   0.923   1.780  15.707  1.0509  2.3473 -1.5621
  916MPD2    H313415   1.038   1.783  15.500 -0.6245 -0.3159  0.1797
  916MPD2     N13416   1.271   1.404  15.620  0.6897  0.4017  0.4971
  916MPD2    H513417   1.281   1.338  15.696  1.1162  1.7531  1.6243
  916MPD2    N113418   0.917   1.574  15.876 -0.2356  0.5003  0.0032
  916MPD2    H713419   0.849   1.649  15.879 -0.4876  0.3180 -1.0079
  917MPD2     C13420   1.142   4.035  11.664 -0.2275  1.1952 -0.6362
  917MPD2    C113421   1.203   4.102  11.771 -0.9008  0.3520 -0.7103
  917MPD2    C213422   1.304   4.191  11.740  0.9291 -0.2528  0.3175
  917MPD2    C313423   1.334   4.216  11.606  0.3454  0.6834  0.6774
  917MPD2    C413424   1.258   4.172  11.500  0.0192 -0.1376  0.0011
  917MPD2    C513425   1.164   4.071  11.530  0.1158  0.8454  0.3071
  917MPD2     H13426   1.364   4.240  11.816  1.0270  1.3567 -0.8056
  917MPD2    H113427   1.264   4.220  11.403 -0.1904  1.6607  0.8619
  917MPD2    H213428   1.073   3.956  11.690  0.4587  0.6213 -0.5543
  917MPD2    H313429   1.088   4.044  11.458  0.8385  0.2522 -0.2262
  917MPD2     N13430   1.432   4.306  11.572 -0.7524  0.1266 -0.3594
  917MPD2    H513431   1.444   4.331  11.474  0.4210 -1.3033 -0.5831
  917MPD2    N113432   1.155   4.064  11.900  0.3656  0.2220  0.6398
  917MPD2    H713433   1.059   4.032  11.898  0.2032  0.6623  1.4368
  918MPD2     C13434   1.503   4.522  12.518  0.2320 -0.4977  0.0995
  918MPD2    C113435   1.552   4.392  12.536 -0.1442 -0.5043 -0.1471
  918MPD2    C213436   1.461   4.289  12.531  0.5531 -0.2993  0.2942
  918MPD2    C313437   1.326   4.308  12.504 -0.2593  0.1121  0.0876
  918MPD2    C413438   1.277   4.436  12.489 -0.0144  0.0836  0.7222
  918MPD2    C513439   1.368   4.538  12.507  0.1937  0.0690  0.3426
  918MPD2     H13440   1.507   4.192  12.550  1.9329  0.6062  1.5354
  918MPD2    H113441   1.171   4.451  12.475  0.0166  1.0780  1.5993
  918MPD2    H213442   1.563   4.612  12.531  1.0864 -0.9849 -0.4630
  918MPD2    H313443   1.340   4.642  12.496  1.3952  0.4302  0.7186
  918MPD2     N13444   1.245   4.196  12.485 -0.1711  0.2077 -0.0938
  918MPD2    H513445   1.294   4.108  12.478 -0.7360 -0.0961 -0.2425
  918MPD2    N113446   1.689   4.370  12.548 -0.4431 -0.9455 -0.4385
  918MPD2    H713447   1.725   4.277  12.566  1.2863 -0.1745  0.0228
  919MPD2     C13448   2.119   3.088  12.030 -0.2241 -0.0697 -0.5393
  919MPD2    C113449   1.990   3.109  12.060  0.3842  1.0335 -0.3554
  919MPD2    C213450   1.933   3.224  11.996 -0.2767 -0.3957  0.4833
  919MPD2    C313451   2.003   3.294  11.900  0.3445 -0.4614 -0.8287
  919MPD2    C413452   2.139   3.268  11.874 -0.7687  0.1954  0.1238
  919MPD2    C513453   2.200   3.167  11.944  0.2510  0.4822  0.1916
  919MPD2     H13454   1.828   3.239  12.018 -0.9567 -1.3378 -2.0352
  919MPD2    H113455   2.188   3.311  11.788 -0.3518  1.4051  0.9677
  919MPD2    H213456   2.166   2.992  12.046  2.0295  1.1327 -0.0614
  919MPD2    H313457   2.304   3.148  11.919  0.5520  2.4334 -0.0904
  919MPD2     N13458   1.938   3.382  11.806  0.5513 -0.2133  0.3569
  919MPD2    H513459   1.990   3.416  11.725  2.3690 -1.8673  0.8302
  919MPD2    N113460   1.911   3.030  12.148 -0.0731 -0.7546 -0.0351
  919MPD2    H713461   1.813   3.055  12.152  0.3063  0.5244  1.2701
  920MPD2     C13462   1.955   3.564  10.832 -0.7629 -0.1028  0.1688
  920MPD2    C113463   1.819   3.554  10.857  1.0050 -0.0419 -0.7590
  920MPD2    C213464   1.773   3.545  10.988  0.5182  0.1361 -0.6910
  920MPD2    C313465   1.861   3.518  11.094 -0.4811  0.0501  0.0424
  920MPD2    C413466   1.998   3.521  11.065  0.1864  0.2482  0.1184
  920MPD2    C513467   2.043   3.539  10.935 -0.3197 -0.1792 -0.0733
  920MPD2     H13468   1.665   3.547  10.995  0.6563  0.7968  1.2032
  920MPD2    H113469   2.073   3.499  11.140 -3.0952 -2.1661  2.7293
  920MPD2    H213470   1.994   3.567  10.731 -4.2832  2.2888 -1.1265
  920MPD2    H313471   2.149   3.545  10.915 -0.2480 -0.1050  0.3219
  920MPD2     N13472   1.804   3.504  11.222 -0.1374  0.1340 -0.3016
  920MPD2    H513473   1.706   3.529  11.229 -0.0008  0.9010 -1.1293
  920MPD2    N113474   1.721   3.562  10.752 -0.1849 -0.2335 -0.1828
  920MPD2    H713475   1.626   3.547  10.785  0.8055  1.0966  3.3202
  921MPD2     C13476   2.716   2.409  17.147 -0.3426  0.0214 -0.1921
  921MPD2    C113477   2.693   2.285  17.107 -0.5305  0.1835 -0.0880
  921MPD2    C213478   2.600   2.268  17.009  0.8498 -0.3550 -0.4461
  921MPD2    C313479   2.525   2.367  16.950 -0.1986 -0.4760  0.8969
  921MPD2    C413480   2.547   2.495  16.990 -0.3920 -0.3773  0.3612
  921MPD2    C513481   2.642   2.509  17.091  0.4416  0.0664 -0.6912
  921MPD2     H13482   2.583   2.170  16.967  0.9103 -0.4595 -0.2278
  921MPD2    H113483   2.505   2.583  16.944  0.3721 -0.6100 -0.7672
  921MPD2    H213484   2.794   2.438  17.217 -0.8681  1.4694 -0.1954
  921MPD2    H313485   2.647   2.610  17.130  1.1681 -0.5581  0.8432
  921MPD2     N13486   2.440   2.343  16.847  0.0260 -0.2705  0.2036
  921MPD2    H513487   2.410   2.420  16.788 -0.5507 -0.8534 -0.2732
  921MPD2    N113488   2.774   2.177  17.155 -0.2123 -0.2361  0.3132
  921MPD2    H713489   2.861   2.198  17.203  0.3275 -0.0002 -0.7706
  922MPD2     C13490   3.661   4.354  17.004 -0.3181 -0.2812 -0.4877
  922MPD2    C113491   3.696   4.453  17.097 -0.5448  0.1546 -0.1302
  922MPD2    C213492   3.664   4.437  17.236  0.2096 -0.2317 -0.3914
  922MPD2    C313493   3.611   4.315  17.279 -0.1019 -0.2316 -0.4241
  922MPD2    C413494   3.573   4.221  17.184  0.6329 -0.3336  0.9885
  922MPD2    C513495   3.586   4.244  17.048  0.2907  0.3320 -0.4193
  922MPD2     H13496   3.691   4.524  17.295 -0.7613 -0.7699  0.8613
  922MPD2    H113497   3.513   4.137  17.217 -0.4312 -0.0464 -0.2125
  922MPD2    H213498   3.661   4.373  16.897  1.5125  0.3072 -0.3767
  922MPD2    H313499   3.544   4.179  16.971  0.2602 -0.2043  0.0468
  922MPD2     N13500   3.575   4.311  17.419 -0.6524  0.0220  0.1032
  922MPD2    H513501   3.577   4.401  17.467 -0.9172  0.5090 -0.7949
  922MPD2    N113502   3.772   4.565  17.059  0.4828  0.2495  0.7966
  922MPD2    H713503   3.807   4.636  17.123  1.1319  0.5802  0.0797
  923MPD2     C13504   0.478   1.939   9.018 -0.5047 -0.9346  0.5813
  923MPD2    C113505   0.429   2.001   9.132 -0.6049 -0.5750  0.1822
  923MPD2    C213506   0.505   1.993   9.246 -0.6755  0.1618  0.2077
  923MPD2    C313507   0.624   1.921   9.250 -0.1509 -0.6104 -0.2672
  923MPD2    C413508   0.667   1.861   9.139  0.1593 -0.0029  0.3414
  923MPD2    C513509   0.598   1.877   9.028  0.7981  0.1203 -0.3644
  923MPD2     H13510   0.453   2.030   9.334 -0.3899  2.1208 -0.4426
  923MPD2    H113511   0.757   1.802   9.146  1.0985  1.4520  0.3935
  923MPD2    H213512   0.418   1.946   8.927  0.5592  0.3265 -0.0264
  923MPD2    H313513   0.631   1.819   8.941  1.8772  1.2407 -0.6970
  923MPD2     N13514   0.704   1.913   9.366 -0.0106  0.5953  0.3987
  923MPD2    H513515   0.790   1.860   9.352 -0.0908  0.9790 -1.6059
  923MPD2    N113516   0.305   2.067   9.123 -0.6226  0.0878 -0.5328
  923MPD2    H713517   0.261   2.060   9.032  1.3743 -1.7431 -1.3632
  924MPD2     C13518   0.351   0.237  16.160 -0.4619 -0.0424 -0.0389
  924MPD2    C113519   0.324   0.194  16.283  0.2633  1.0122 -0.3383
  924MPD2    C213520   0.310   0.286  16.388 -0.0507 -0.2864  0.4116
  924MPD2    C313521   0.302   0.416  16.355 -0.3227 -0.2824  0.6897
  924MPD2    C413522   0.317   0.457  16.225 -0.1152 -0.4515 -0.0494
  924MPD2    C513523   0.340   0.368  16.125 -0.6158 -0.3648 -0.2067
  924MPD2     H13524   0.307   0.246  16.489 -1.7395 -1.1043  0.0404
  924MPD2    H113525   0.302   0.560  16.197  0.9218  0.0926  1.3727
  924MPD2    H213526   0.371   0.159  16.087  1.7262  1.3346 -0.9034
  924MPD2    H313527   0.346   0.403  16.022 -0.7298  1.3508  0.3728
  924MPD2     N13528   0.272   0.513  16.449  0.0685  0.3521 -0.3270
  924MPD2    H513529   0.260   0.606  16.411 -0.6589  0.5461  0.3592
  924MPD2    N113530   0.336   0.059  16.302  0.2346 -0.5504  0.8375
  924MPD2    H713531   0.394   0.011  16.234 -2.4539  0.3922 -2.0886
  925MPD2     C13532   4.189   2.495  14.827  0.0139  0.2779 -0.2348
  925MPD2    C113533   4.059   2.483  14.775  0.5509  0.1811 -0.3723
  925MPD2    C213534   3.960   2.482  14.867 -0.0945  0.2312  0.2740
  925MPD2    C313535   3.979   2.498  15.003  0.3145  0.3322  0.3383
  925MPD2    C413536   4.107   2.519  15.048 -0.6361  0.4780  0.2948
  925MPD2    C513537   4.215   2.515  14.961  0.0798  0.3501 -0.9148
  925MPD2     H13538   3.863   2.461  14.824 -0.9661 -2.4940  3.5665
  925MPD2    H113539   4.127   2.522  15.154 -1.1202  1.9003  0.3393
  925MPD2    H213540   4.275   2.503  14.762 -0.5871  0.8729 -0.9581
  925MPD2    H313541   4.315   2.502  15.002  0.1484 -1.4192 -1.6223
  925MPD2     N13542   3.878   2.497  15.099 -1.1076  0.0286  0.1645
  925MPD2    H513543   3.909   2.533  15.189  0.1714  1.4341 -0.8304
  925MPD2    N113544   4.031   2.477  14.637 -0.0176 -0.1502 -0.4477
  925MPD2    H713545   3.934   2.471  14.608 -0.9098  0.9067  2.2864
  926MPD2     C13546   2.234   1.050  14.190 -0.1375  0.4424 -0.4262
  926MPD2    C113547   2.127   1.123  14.155 -0.1598 -0.1009 -0.4153
  926MPD2    C213548   2.132   1.194  14.035 -0.2255  0.5407 -0.4346
  926MPD2    C313549   2.256   1.203  13.973 -0.1205  0.4859  0.2931
  926MPD2    C413550   2.359   1.122  14.011  0.1218 -0.5282  0.3762
  926MPD2    C513551   2.354   1.058  14.128  0.7283  0.4067  0.6578
  926MPD2     H13552   2.049   1.261  14.017 -0.2935  0.8638  1.0621
  926MPD2    H113553   2.453   1.142  13.961 -0.6159 -0.9827 -1.2300
  926MPD2    H213554   2.231   1.001  14.287 -0.1997 -1.1177 -1.2177
  926MPD2    H313555   2.442   1.012  14.174  0.7089 -1.2264 -0.9320
  926MPD2     N13556   2.281   1.308  13.882  0.0011 -0.2090  0.0306
  926MPD2    H513557   2.376   1.317  13.847  0.1057 -2.8342 -0.3580
  926MPD2    N113558   2.012   1.144  14.239  0.2640  0.5633  0.1373
  926MPD2    H713559   1.947   1.214  14.203 -0.2384  0.9998  1.9045
  927MPD2     C13560   2.854   3.645   1.244  0.5368  0.7932  0.5706
  927MPD2    C113561   2.770   3.674   1.143 -0.2693  0.2856 -0.1841
  927MPD2    C213562   2.791   3.612   1.022  0.2611 -0.3087  0.3980
  927MPD2    C313563   2.894   3.520   1.000  0.2157 -0.1542  0.0822
  927MPD2    C413564   2.992   3.511   1.104 -1.0718  0.3566  0.6715
  927MPD2    C513565   2.962   3.559   1.225 -0.5733  0.2416 -0.8477
  927MPD2     H13566   2.722   3.624   0.939  0.1318 -2.2054  0.2329
  927MPD2    H113567   3.072   3.442   1.078 -1.5713 -0.2916  0.8514
  927MPD2    H213568   2.832   3.690   1.340 -2.0978  1.4728 -0.3397
  927MPD2    H313569   3.025   3.554   1.313  0.2198 -1.6256 -1.5215
  927MPD2     N13570   2.902   3.460   0.873  0.0487  0.8067  0.3459
  927MPD2    H513571   2.829   3.484   0.808  0.5694 -0.6125 -0.7829
  927MPD2    N113572   2.663   3.767   1.169 -0.8802 -0.4348  0.3494
  927MPD2    H713573   2.655   3.798   1.266  0.0321 -0.2772  0.3813
  928MPD2     C13574   0.672   1.513   0.867 -0.1181 -0.7136  0.0832
  928MPD2    C113575   0.806   1.517   0.886 -0.0758  0.3187 -0.6760
  928MPD2    C213576   0.887   1.565   0.784 -0.6910 -0.7834 -0.2264
  928MPD2    C313577   0.839   1.580   0.654 -0.3720  0.4441 -0.0542
  928MPD2    C413578   0.702   1.563   0.633 -0.0296 -0.0262  0.1875
  928MPD2    C513579   0.618   1.540   0.737 -0.4340 -0.8932 -0.4229
  928MPD2     H13580   0.995   1.564   0.799 -0.8425  1.3392  0.8794
  928MPD2    H113581   0.663   1.593   0.536  1.6075  0.1267 -0.4215
  928MPD2    H213582   0.598   1.496   0.944  0.2214 -0.5004  0.4574
  928MPD2    H313583   0.510   1.545   0.724 -0.7728 -0.9468  2.3699
  928MPD2     N13584   0.917   1.625   0.550  0.3803  0.2814  0.0434
  928MPD2    H513585   0.867   1.625   0.461 -0.6404 -0.4783  0.6116
  928MPD2    N113586   0.861   1.501   1.016  0.7050 -0.2867 -0.2696
  928MPD2    H713587   0.794   1.471   1.086 -1.5592  0.4512 -2.0969
  929MPD2     C13588   0.590   2.144  10.621  0.2159  0.1906 -0.1483
  929MPD2    C113589   0.519   2.030  10.601 -0.0065  0.2405  0.2647
  929MPD2    C213590   0.466   2.005  10.478 -0.4763 -0.5338  0.0405
  929MPD2    C313591   0.493   2.093  10.375  0.1538  0.2704  0.4861
  929MPD2    C413592   0.568   2.209  10.394  0.2646  0.0652 -0.0678
  929MPD2    C513593   0.618   2.231  10.514 -0.0089 -0.3325 -0.7728
  929MPD2     H13594   0.394   1.924  10.476 -2.5822  1.3695 -0.6581
  929MPD2    H113595   0.591   2.274  10.311 -1.1054 -1.0105 -1.2788
  929MPD2    H213596   0.635   2.169  10.716  0.5394  1.9304 -0.7692
  929MPD2    H313597   0.681   2.317  10.535 -1.5292  0.0217  2.3433
  929MPD2     N13598   0.433   2.080  10.244 -0.7664  0.0419 -0.7238
  929MPD2    H513599   0.460   2.146  10.172  1.3983  0.4717  0.5152
  929MPD2    N113600   0.501   1.953  10.717  0.1180  0.3719 -0.4061
  929MPD2    H713601   0.510   2.015  10.796 -1.8526  0.9062 -0.5880
  930MPD2     C13602   2.479   3.652  14.324  0.1748  0.1441  0.4320
  930MPD2    C113603   2.363   3.717  14.315 -0.1249  0.1658 -0.1730
  930MPD2    C213604   2.302   3.733  14.191  0.1605  0.0846  0.0317
  930MPD2    C313605   2.365   3.693  14.074  0.6763 -0.0408  0.6610
  930MPD2    C413606   2.489   3.631  14.084  0.2121  0.4439  0.0543
  930MPD2    C513607   2.542   3.605  14.208  0.1191 -0.5306  0.9501
  930MPD2     H13608   2.209   3.789  14.193 -0.2319 -0.5539 -0.1622
  930MPD2    H113609   2.548   3.593  14.001  2.3634 -1.0265  2.2897
  930MPD2    H213610   2.533   3.631  14.416  0.0524 -2.6105 -0.1161
  930MPD2    H313611   2.640   3.560  14.219  0.1911 -1.0597 -1.8267
  930MPD2     N13612   2.323   3.727  13.939  0.4084 -0.6981  0.2478
  930MPD2    H513613   2.373   3.685  13.862  0.1171  0.7670 -0.7352
  930MPD2    N113614   2.307   3.786  14.428  0.1493  0.5732  0.5957
  930MPD2    H713615   2.334   3.749  14.519 -2.6763  0.3740  1.3370
  931MPD2     C13616   2.054   3.913   1.735 -0.8079  0.8174  0.4214
  931MPD2    C113617   2.125   3.843   1.636  0.5908  0.4800  0.1131
  931MPD2    C213618   2.112   3.710   1.641 -0.4134 -0.2530  0.1117
  931MPD2    C313619   2.006   3.650   1.703  1.2396  0.4666  0.0874
  931MPD2    C413620   1.938   3.723   1.798  0.0495 -0.1222 -0.7317
  931MPD2    C513621   1.957   3.859   1.816  0.0745 -0.3945 -0.4316
  931MPD2     H13622   2.168   3.653   1.568  1.3711  0.7250  0.7153
  931MPD2    H113623   1.865   3.675   1.862 -0.1751  0.0915 -0.8270
  931MPD2    H213624   2.063   4.021   1.739  1.8758  0.5982  0.1694
  931MPD2    H313625   1.897   3.917   1.885 -0.0657  0.1235 -0.9842
  931MPD2     N13626   1.980   3.516   1.680  0.5270  0.2309  0.5632
  931MPD2    H513627   1.896   3.483   1.727  0.1942  0.5683  0.2031
  931MPD2    N113628   2.208   3.905   1.544  0.1831 -0.8352  0.5741
  931MPD2    H713629   2.208   4.006   1.543 -1.6872 -0.8311  0.7282
  932MPD2     C13630   3.396   3.101  10.999  0.5466  0.4012  0.4536
  932MPD2    C113631   3.539   3.087  10.998  0.0253  0.0214  0.0727
  932MPD2    C213632   3.597   2.961  10.977 -0.0842 -0.2324  0.4721
  932MPD2    C313633   3.516   2.849  10.982  0.2606  0.1904  0.4550
  932MPD2    C413634   3.382   2.863  11.005 -0.2391  0.2207  0.1388
  932MPD2    C513635   3.321   2.985  11.013  0.6084 -0.2911 -0.0375
  932MPD2     H13636   3.703   2.957  10.954  0.0469 -1.5228  1.2425
  932MPD2    H113637   3.322   2.773  11.011 -0.4203  0.4356  1.4451
  932MPD2    H213638   3.341   3.195  11.000  0.6551  0.4782 -1.0575
  932MPD2    H313639   3.214   2.983  11.027  0.3247  3.6597 -1.8290
  932MPD2     N13640   3.557   2.718  10.973 -0.1802 -0.4451 -0.1059
  932MPD2    H513641   3.493   2.642  10.951  1.6489 -1.4792 -1.8404
  932MPD2    N113642   3.626   3.194  11.016  0.2167  0.7122 -0.1283
  932MPD2    H713643   3.726   3.177  11.007  0.1912  0.4949 -0.0134
  933MPD2     C13644   0.771   1.779   1.825 -0.0229  0.6430  0.6195
  933MPD2    C113645   0.734   1.765   1.692 -0.1159  0.1479  0.2531
  933MPD2    C213646   0.620   1.839   1.651 -0.2251 -0.4930  0.1993
  933MPD2    C313647   0.564   1.936   1.731 -0.3452 -0.7500  0.8458
  933MPD2    C413648   0.613   1.953   1.854  0.4873 -0.3621 -0.1556
  933MPD2    C513649   0.707   1.874   1.899  0.6510  0.5088 -0.3285
  933MPD2     H13650   0.581   1.831   1.550 -1.0798  2.4940  0.3092
  933MPD2    H113651   0.578   2.032   1.920  2.2621 -0.6440  1.1176
  933MPD2    H213652   0.856   1.725   1.864 -0.0098  0.7115  0.6853
  933MPD2    H313653   0.750   1.893   1.996  1.4451  0.4569 -0.6737
  933MPD2     N13654   0.471   2.025   1.676  0.0838  0.3754  0.0338
  933MPD2    H513655   0.437   2.008   1.582  1.7708  0.4813 -0.5969
  933MPD2    N113656   0.818   1.689   1.612 -0.4703  0.0604 -0.1939
  933MPD2    H713657   0.906   1.665   1.656 -2.8429 -1.8782  3.5646
  934MPD2     C13658   0.523   4.411   2.294  0.5845 -0.5770  0.2982
  934MPD2    C113659   0.611   4.304   2.279  0.2463 -0.2396 -0.7901
  934MPD2    C213660   0.579   4.204   2.188  1.0093  0.4038  0.0206
  934MPD2    C313661   0.461   4.204   2.121  0.1906 -0.5035 -0.4555
  934MPD2    C413662   0.377   4.313   2.128 -0.4272 -0.1931 -0.2542
  934MPD2    C513663   0.412   4.410   2.212  0.1028  0.1802 -0.0642
  934MPD2     H13664   0.646   4.122   2.164 -0.9188 -1.4114  0.7770
  934MPD2    H113665   0.283   4.323   2.075 -0.7397  1.0483  0.5411
  934MPD2    H213666   0.538   4.496   2.360 -2.9224 -0.5358  1.0150
  934MPD2    H313667   0.338   4.489   2.219 -0.6913 -0.7490  2.1184
  934MPD2     N13668   0.411   4.092   2.045 -0.4036  0.0240 -0.3611
  934MPD2    H513669   0.321   4.110   2.002 -1.4392 -1.2010  1.3117
  934MPD2    N113670   0.735   4.301   2.353 -0.1849  0.5320  0.1191
  934MPD2    H713671   0.801   4.227   2.331 -2.6626 -1.8384  0.6302
  935MPD2     C13672   0.816   3.181   1.886  0.1449 -0.2847  0.4787
  935MPD2    C113673   0.790   3.247   1.770  0.1912  0.9954  0.0074
  935MPD2    C213674   0.701   3.351   1.771  0.0777 -0.1272 -0.4141
  935MPD2    C313675   0.634   3.388   1.888 -0.2197 -0.0012  1.2447
  935MPD2    C413676   0.670   3.316   2.010  0.2127  1.3973 -0.3923
  935MPD2    C513677   0.764   3.217   2.003 -0.4928  0.3230  0.2960
  935MPD2     H13678   0.676   3.398   1.676  1.2997 -0.7077 -1.0174
  935MPD2    H113679   0.608   3.338   2.096 -1.4641  0.2151 -1.2847
  935MPD2    H213680   0.882   3.094   1.889 -0.2993 -0.6360  0.0245
  935MPD2    H313681   0.788   3.169   2.098 -0.2116 -0.7597 -0.3188
  935MPD2     N13682   0.537   3.491   1.889 -0.6055  0.5332  0.1268
  935MPD2    H513683   0.519   3.526   1.982 -0.2320 -0.0799  0.4255
  935MPD2    N113684   0.846   3.207   1.647  0.2011 -0.4667 -0.8043
  935MPD2    H713685   0.820   3.251   1.559  1.0670  1.6995  0.0168
  936MPD2     C13686   4.415   1.254  13.117  1.2342  0.2217  0.0130
  936MPD2    C113687   4.299   1.325  13.096  0.9466 -0.0957 -0.3607
  936MPD2    C213688   4.268   1.375  12.974 -0.3713  0.0402  0.1623
  936MPD2    C313689   4.358   1.370  12.867 -0.6484  0.3938  0.9773
  936MPD2    C413690   4.474   1.298  12.883  0.3354 -0.6504 -0.1722
  936MPD2    C513691   4.499   1.242  13.005  0.5037 -0.2439  0.6532
  936MPD2     H13692   4.173   1.423  12.955 -0.6411 -1.8265 -3.3162
  936MPD2    H113693   4.539   1.282  12.798 -0.7681  0.5480 -1.2426
  936MPD2    H213694   4.451   1.215  13.211 -0.9921 -2.6310 -0.3149
  936MPD2    H313695   4.586   1.179  13.019  0.3348 -1.2227 -2.6515
  936MPD2     N13696   4.335   1.433  12.746 -0.1887  0.2617 -0.3169
  936MPD2    H513697   4.417   1.438  12.686  0.0562  1.7340  0.1513
  936MPD2    N113698   4.213   1.359  13.202 -0.1723  0.3524  0.3112
  936MPD2    H713699   4.130   1.414  13.184 -0.1200 -0.3800 -2.1039
  937MPD2     C13700   1.827   2.234  12.248  0.4745  0.8761  0.0820
  937MPD2    C113701   1.832   2.339  12.163 -0.7818  0.5775  0.2361
  937MPD2    C213702   1.893   2.331  12.041 -0.1969  0.4885 -0.5900
  937MPD2    C313703   1.961   2.217  12.001  0.0292  0.1285  0.0716
  937MPD2    C413704   1.956   2.105  12.088  0.3091 -0.3510 -0.3330
  937MPD2    C513705   1.892   2.121  12.206 -0.2048 -0.1868 -0.2169
  937MPD2     H13706   1.898   2.420  11.980 -1.2714  1.9222  1.4343
  937MPD2    H113707   2.007   2.011  12.072  1.2379 -0.5033  3.6745
  937MPD2    H213708   1.778   2.245  12.345  0.7999 -2.8911  0.6857
  937MPD2    H313709   1.888   2.039  12.277 -2.6793  0.6474  0.5926
  937MPD2     N13710   2.024   2.211  11.875 -0.3682 -0.2590  0.5323
  937MPD2    H513711   2.069   2.127  11.841  0.0709  0.4931 -0.7562
  937MPD2    N113712   1.790   2.468  12.205  0.3094  0.1150  0.1904
  937MPD2    H713713   1.810   2.545  12.141 -1.8980  0.5204 -0.0009
  938MPD2     C13714   0.343   3.155   1.043  0.0098 -0.1680 -1.2222
  938MPD2    C113715   0.277   3.241   1.123  1.0011  0.2744  0.0146
  938MPD2    C213716   0.224   3.183   1.242 -0.9859 -0.4746  0.3704
  938MPD2    C313717   0.231   3.050   1.276 -0.0193  0.4592  0.5075
  938MPD2    C413718   0.290   2.966   1.184 -0.6830  0.5105 -0.2372
  938MPD2    C513719   0.350   3.027   1.071  0.1646 -0.7641  0.3889
  938MPD2     H13720   0.158   3.243   1.304 -1.1559 -0.5507  0.2632
  938MPD2    H113721   0.292   2.858   1.188  0.3665  0.5102 -0.7506
  938MPD2    H213722   0.390   3.186   0.950  0.9142  1.8894 -0.0744
  938MPD2    H313723   0.396   2.961   0.998  0.9053  0.7278 -0.4952
  938MPD2     N13724   0.180   2.992   1.397 -0.6939 -0.5887 -0.1074
  938MPD2    H513725   0.186   2.891   1.404 -0.8433 -0.6615 -1.0376
  938MPD2    N113726   0.250   3.379   1.093  0.2518  0.6382  0.5943
  938MPD2    H713727   0.212   3.432   1.169  1.4913  2.8581 -0.3262
  939MPD2     C13728   1.648   4.597   0.966  0.0118  0.1180 -0.1072
  939MPD2    C113729   1.601   4.668   0.860 -0.5524 -0.3198  0.4234
  939MPD2    C213730   1.686   4.690   0.752  0.9520  0.2547  0.4319
  939MPD2    C313731   1.808   4.631   0.743 -0.0224 -0.1591  0.3178
  939MPD2    C413732   1.852   4.563   0.852 -0.5181 -0.1312  0.3891
  939MPD2    C513733   1.770   4.545   0.960 -0.1451  0.4234  0.2390
  939MPD2     H13734   1.652   0.035   0.678 -0.9298 -0.8737  0.2074
  939MPD2    H113735   1.949   4.513   0.848  0.3074  1.4471  0.8437
  939MPD2    H213736   1.583   4.573   1.050 -0.4582 -1.7687 -1.0211
  939MPD2    H313737   1.808   4.486   1.043 -2.2062  0.6036  1.3025
  939MPD2     N13738   1.888   4.665   0.633  0.4581 -0.5933  0.0310
  939MPD2    H513739   1.847   4.725   0.562 -0.6751 -0.0252  1.1693
  939MPD2    N113740   1.468   4.718   0.868  0.2652 -0.0935  1.1453
  939MPD2    H713741   1.407   4.682   0.940 -2.3208  0.2137 -0.9127
  940MPD2     C13742   4.652   0.964  13.330  0.0616 -0.2107  0.0605
  940MPD2    C113743   0.031   1.034  13.387 -0.3170 -0.6664  0.0751
  940MPD2    C213744   0.112   1.111  13.296 -0.3229 -0.4496 -0.5738
  940MPD2    C313745   0.098   1.100  13.160 -0.0252 -0.1424  0.1422
  940MPD2    C413746   0.006   1.009  13.117  0.6665  0.0202  0.2571
  940MPD2    C513747   4.643   0.949  13.199  0.5987 -0.2862  0.0182
  940MPD2     H13748   0.172   1.188  13.344 -1.8490  0.7496 -0.5858
  940MPD2    H113749   4.710   1.002  13.011  0.1054  1.1766  0.2918
  940MPD2    H213750   4.567   0.913  13.375  2.2391 -3.4873  0.4207
  940MPD2    H313751   4.557   0.899  13.155  1.5346 -0.6655 -1.3854
  940MPD2     N13752   0.178   1.168  13.065  0.2181 -0.3937  0.5487
  940MPD2    H513753   0.175   1.143  12.967  0.1484  2.7412 -0.2763
  940MPD2    N113754   0.056   1.032  13.523 -0.6327 -0.5587  0.2659
  940MPD2    H713755   0.113   1.100  13.572  1.2618 -1.6906 -0.3277
  941MPD2     C13756   0.478   0.178   9.976 -0.8027 -0.0517  0.1424
  941MPD2    C113757   0.553   0.158  10.088  0.3509 -0.3567 -0.2949
  941MPD2    C213758   0.487   0.124  10.206  0.7076  0.0624 -0.3050
  941MPD2    C313759   0.348   0.113  10.215 -1.0256  0.3325  0.4688
  941MPD2    C413760   0.279   0.139  10.103  0.3744  0.2096  0.1069
  941MPD2    C513761   0.338   0.178   9.983  0.2874 -0.6253 -0.0407
  941MPD2     H13762   0.541   0.093  10.295 -0.7946  0.6824  0.8325
  941MPD2    H113763   0.174   0.113  10.104  0.5715 -0.5999  0.4961
  941MPD2    H213764   0.519   0.200   9.878 -0.2753  1.4606  0.7063
  941MPD2    H313765   0.280   0.202   9.895  1.0912 -1.6863 -0.8595
  941MPD2     N13766   0.273   0.092  10.334 -0.0304 -0.2819  0.2818
  941MPD2    H513767   0.173   0.099  10.319 -0.0585  0.4400  0.7904
  941MPD2    N113768   0.690   0.164  10.079 -0.1996 -0.5507 -0.7305
  941MPD2    H713769   0.735   0.125  10.161 -2.3223  2.4247  1.8274
  942MPD2     C13770   4.209   1.898   9.543  0.3902  0.0926  0.8683
  942MPD2    C113771   4.276   1.839   9.648 -0.4626  0.2746 -0.2818
  942MPD2    C213772   4.413   1.814   9.622  0.0449 -0.3225  0.3507
  942MPD2    C313773   4.470   1.858   9.498 -0.0509  0.3144 -0.3164
  942MPD2    C413774   4.394   1.917   9.400  0.1231  0.5507  0.0671
  942MPD2    C513775   4.264   1.934   9.420  0.3372 -0.4721  0.7137
  942MPD2     H13776   4.476   1.790   9.707 -1.5580 -1.8992  1.0926
  942MPD2    H113777   4.427   1.950   9.302 -0.8782  0.0273 -0.4378
  942MPD2    H213778   4.101   1.912   9.549  0.8746  3.9032  0.6941
  942MPD2    H313779   4.211   1.996   9.348  0.7764 -1.1843 -0.2272
  942MPD2     N13780   4.610   1.842   9.492  0.3314  0.4393  0.5819
  942MPD2    H513781   4.662   1.828   9.578  0.2460  0.5076  0.6438
  942MPD2    N113782   4.219   1.815   9.772  0.0051 -0.4081 -0.3371
  942MPD2    H713783   4.284   1.775   9.839 -1.3637 -2.0258  0.0244
  943MPD2     C13784   3.215   0.503  10.277  0.0191  0.1385  0.3166
  943MPD2    C113785   3.131   0.412  10.341  0.4606 -0.0119 -0.5094
  943MPD2    C213786   3.089   0.430  10.471 -0.4075 -0.3493 -0.8664
  943MPD2    C313787   3.149   0.537  10.539 -0.1772  0.5192  0.3831
  943MPD2    C413788   3.220   0.632  10.470 -1.2049  0.9750 -0.1377
  943MPD2    C513789   3.262   0.614  10.339 -0.4738 -0.5645  0.0589
  943MPD2     H13790   3.051   0.342  10.522  1.5867 -0.9573 -0.4262
  943MPD2    H113791   3.251   0.723  10.520 -1.8285  0.6630  0.8180
  943MPD2    H213792   3.258   0.479  10.180  2.4971 -0.2425  1.4984
  943MPD2    H313793   3.320   0.683  10.278  1.0336 -0.1149  2.0192
  943MPD2     N13794   3.135   0.551  10.682  0.5186 -0.1989 -0.8350
  943MPD2    H513795   3.175   0.635  10.722  0.1730 -0.7420  0.6301
  943MPD2    N113796   3.106   0.290  10.270  0.3787  0.0088 -0.4315
  943MPD2    H713797   3.161   0.270  10.187  1.6566 -1.2771  0.7139
  944MPD2     C13798   2.747   4.002  11.278  0.2282 -0.1587 -0.2316
  944MPD2    C113799   2.782   4.120  11.228 -0.3577 -0.5904  0.2998
  944MPD2    C213800   2.796   4.225  11.313 -0.5937  0.0943  0.5523
  944MPD2    C313801   2.765   4.208  11.447 -1.1779  0.3462 -0.2756
  944MPD2    C413802   2.721   4.090  11.501  0.3195 -0.5261 -0.0625
  944MPD2    C513803   2.708   3.988  11.411  0.0909  0.2219 -0.9755
  944MPD2     H13804   2.822   4.324  11.278  0.4550 -0.2274  0.4467
  944MPD2    H113805   2.699   4.066  11.605  0.0897  2.9681  0.7066
  944MPD2    H213806   2.741   3.921  11.207 -0.6954 -0.1127 -0.2051
  944MPD2    H313807   2.661   3.897  11.445  0.8006  0.0183 -0.5494
  944MPD2     N13808   2.776   4.326  11.526 -0.3204 -0.3898 -0.1884
  944MPD2    H513809   2.824   4.404  11.483 -0.8904 -0.3133 -0.6826
  944MPD2    N113810   2.820   4.123  11.095 -0.7831  0.1059 -0.4823
  944MPD2    H713811   2.811   4.042  11.035 -0.4120  1.1115 -1.8819
    1TCq1    O113812   0.361   0.685  13.331 -0.5601  0.2873  0.2612
    1TCq1    C113813   0.432   0.616  13.418  0.0278  0.0699  0.4944
    1TCq1    O213814   0.556   0.620  13.421 -0.2272  0.4809 -0.2671
    1TCq1    C213815   0.344   0.576  13.535  0.0999 -0.2222 -0.3046
    1TCq1    C313816   0.220   0.533  13.506 -0.0881  0.6266 -0.0729
    1TCq1    C413817   0.134   0.497  13.604 -0.2116  0.7500 -0.5504
    1TCq1    C513818   0.181   0.490  13.737 -0.0128  0.3094  0.3353
    1TCq1    C613819   0.312   0.525  13.756  0.0925  0.0525 -0.7923
    1TCq1    C713820   0.390   0.579  13.658 -0.3452  0.0257  0.0924
    1TCq1    C813821   0.374   0.507  13.885  0.5201 -0.4150 -0.7355
    1TCq1    O413822   0.463   0.580  13.926 -0.1452 -0.5051  0.0253
    1TCq1    C913823   4.722   0.471  13.578 -0.3029 -0.2762  0.3163
    1TCq1    O513824   4.661   0.454  13.684 -0.2468  0.3594 -0.0806
    1TCq1    O613825   4.671   0.529  13.476  0.1329  0.6358  0.1042
    1TCq1    H113826   0.264   0.676  13.343 -0.6317  2.9882  1.7421
    1TCq1    H213827   0.177   0.527  13.406 -1.0058 -3.9669  0.5933
    1TCq1    H313828   0.127   0.447  13.821  0.7040 -0.9457  0.1485
    1TCq1    H413829   0.494   0.608  13.674  0.4738 -1.1282 -3.1884
    2MPD2     C13830   0.335   0.298  14.356  0.2398  0.0682  0.3193
    2MPD2    C113831   0.400   0.407  14.315 -1.1524  0.5791 -0.6277
    2MPD2    C213832   0.399   0.448  14.183  0.2788  0.8439  0.7526
    2MPD2    C313833   0.332   0.368  14.085 -0.3657  0.2592  0.4389
    2MPD2    C413834   0.270   0.249  14.128 -0.6928 -0.5949 -0.2104
    2MPD2    C513835   0.275   0.218  14.262 -0.7927  0.1679  0.1083
    2MPD2     H13836   0.417   0.551  14.152 -3.6088  1.2167 -0.3559
    2MPD2    H113837   0.201   0.192  14.067 -0.7420  1.0428 -1.6836
    2MPD2    H213838   0.324   0.278  14.462 -0.7194 -0.6298  0.0978
    2MPD2    H313839   0.232   0.130  14.308 -0.0846  0.1146  0.6562
    2MPD2     N13840   0.310   0.403  13.951 -0.6023  0.5217  0.1812
    2MPD2    H513841   0.230   0.360  13.905 -1.1747  1.6189  0.1637
    2MPD2    N113842   0.451   0.487  14.419  0.4254 -0.0979 -0.1799
    2MPD2    H713843   0.454   0.434  14.505  0.6050 -0.1812 -0.2351
    3TMC2    C113844   0.601   0.634  14.514  0.0686  0.4714  1.0085
    3TMC2    C213845   0.631   0.537  14.607 -0.1082 -0.0453  0.5554
    3TMC2    C313846   0.704   0.570  14.717  0.1891  0.0959  0.1523
    3TMC2    C413847   0.642   0.762  14.534  0.3937 -1.0922  0.1047
    3TMC2    C513848   0.719   0.797  14.641 -0.4249 -0.3075  0.6972
    3TMC2    C613849   0.749   0.696  14.733  0.2357  0.0951 -0.4391
    3TMC2     C13850   0.512   0.606  14.403  0.1875 -0.5975  0.3099
    3TMC2     O13851   0.504   0.682  14.313 -0.9322  0.0143 -0.4535
    3TMC2     H13852   0.596   0.435  14.602 -2.2014  0.7376 -0.3968
    3TMC2    H113853   0.596   0.842  14.477  1.3264 -0.8716 -0.3357
    3TMC2    H213854   0.814   0.704  14.819 -0.2109 -3.3463  0.2444
    3TMC2    C713855   0.796   0.928  14.656  0.4597 -0.6078 -0.1170
    3TMC2    C813856   0.762   0.461  14.794  0.5158 -0.1694 -0.0397
    3TMC2    O113857   0.870   0.936  14.752  0.3269  0.1246  0.3140
    3TMC2    O213858   0.772   0.352  14.735  0.2764  0.0208  0.6097
    3TMC2    O513859   0.697   0.475  14.914  0.0030  0.6749  0.3718
    3TMC2    H513860   0.660   0.565  14.928  0.9214  0.8658  1.5706
    4MPD2     C13861   0.178   1.814  13.644  0.1315  0.1233 -0.2815
    4MPD2    C113862   0.292   1.788  13.565 -0.0728  0.5348 -0.3599
    4MPD2    C213863   0.409   1.765  13.619 -0.2010  0.5510  0.1401
    4MPD2    C313864   0.428   1.759  13.758  0.4919  0.9353  0.1180
    4MPD2    C413865   0.320   1.789  13.841  0.7810  0.1776 -0.4676
    4MPD2    C513866   0.200   1.822  13.782  0.3004 -0.4713  0.2093
    4MPD2     H13867   0.490   1.749  13.550  0.1546  2.5204  0.0841
    4MPD2    H113868   0.337   1.806  13.947 -0.8617  0.7822 -0.3093
    4MPD2    H213869   0.080   1.842  13.605  0.5528 -0.5110 -1.8024
    4MPD2    H313870   0.116   1.846  13.846 -0.5737  1.2864 -1.5831
    4MPD2     N13871   0.545   1.706  13.808  0.6067 -0.0493  0.3599
    4MPD2    H513872   0.611   1.677  13.737 -2.0497  1.6074 -2.8001
    4MPD2    N113873   0.271   1.775  13.429 -0.0271  0.3153 -0.2252
    4MPD2    H713874   0.172   1.785  13.408 -0.1412 -0.9527 -0.2721
    5TCq2    C113875   0.569   1.663  13.935 -0.4260  0.4093  0.0497
    5TCq2    O213876   0.503   1.676  14.039  0.1784  0.3705 -0.7884
    5TCq2    C213877   0.704   1.604  13.949 -0.4206 -0.4254  0.3945
    5TCq2    C313878   0.799   1.632  13.850 -0.1170  0.0954 -0.6658
    5TCq2    C413879   0.930   1.597  13.869 -0.7646 -0.4629 -0.3254
    5TCq2    C513880   0.970   1.550  13.985  0.4909 -1.0208 -0.1097
    5TCq2    C613881   0.875   1.527  14.081 -0.0443  0.5627 -0.0399
    5TCq2    C713882   0.743   1.554  14.071 -0.0364  0.5769 -0.7118
    5TCq2    C813883   0.918   1.457  14.197 -0.4535  0.7901 -0.2560
    5TCq2    O413884   1.041   1.439  14.196 -0.6372  0.0294  0.1112
    5TCq2    C913885   1.031   1.644  13.778 -0.7533  0.7442  0.5272
    5TCq2    O513886   0.997   1.656  13.657 -0.0225 -0.3714  0.7529
    5TCq2    O613887   1.152   1.666  13.819 -0.0757 -0.0310 -0.0586
    5TCq2    H213888   0.782   1.675  13.752  1.4661 -0.0939 -1.0275
    5TCq2    H313889   1.076   1.543  14.008  0.3087  1.3632  1.4691
    5TCq2    H413890   0.668   1.532  14.146  2.8095  0.3329  2.0363
    6MPD1     C13891   4.125   2.784  12.090  0.9333 -0.3930 -0.5246
    6MPD1    C113892   4.079   2.659  12.106  0.5584  0.2942  0.0393
    6MPD1    C213893   4.142   2.581  12.203  0.3602 -0.1694  0.9354
    6MPD1    C313894   4.244   2.626  12.285 -0.5564 -0.1333 -0.4862
    6MPD1    C413895   4.287   2.755  12.266  0.0092  0.1347 -0.3317
    6MPD1    C513896   4.229   2.830  12.162 -0.1301  0.2264 -0.0095
    6MPD1     H13897   4.090   2.488  12.224 -0.6689 -0.0730 -1.1817
    6MPD1    H113898   4.370   2.802  12.318 -0.5241  0.4865  0.2048
    6MPD1    H213899   4.085   2.852  12.015  0.0229  1.0282  1.2586
    6MPD1    H313900   4.262   2.934  12.156 -0.9122  0.5699  1.7606
    6MPD1     N13901   4.295   2.557  12.391  0.2045  0.2733  0.6451
    6MPD1    H513902   4.374   2.600  12.439 -0.4495  2.3170 -0.1219
    6MPD1    N113903   3.960   2.621  12.052  0.2886  0.6931 -0.2265
    6MPD1    H613904   3.949   2.669  11.963  0.3566 -0.7393 -1.0160
    6MPD1    H713905   3.951   2.520  12.045 -0.2485  0.8283 -1.6561
    7MPD2     C13906   4.278   1.851  12.937 -1.0481 -0.8772 -0.1125
    7MPD2    C113907   4.398   1.922  12.924 -0.0423 -1.1554 -0.0176
    7MPD2    C213908   4.511   1.884  12.989  0.4855 -0.2692  0.0487
    7MPD2    C313909   4.518   1.761  13.049  0.3305 -0.3955 -0.9471
    7MPD2    C413910   4.405   1.685  13.061  0.2245  0.3308  0.1778
    7MPD2    C513911   4.285   1.737  13.012 -0.5394 -0.6971 -0.1298
    7MPD2     H13912   4.602   1.942  12.985 -0.0045  0.5556  0.9084
    7MPD2    H113913   4.403   1.590  13.113  0.8427  0.7197  0.9083
    7MPD2    H213914   4.187   1.892  12.895 -0.3558 -0.4356 -1.1778
    7MPD2    H313915   4.198   1.675  13.031 -0.8673 -0.3067 -0.3783
    7MPD2     N13916   4.635   1.694  13.080 -0.0855 -0.3030 -0.3790
    7MPD2    H513917   4.633   1.617  13.146  0.4945  1.6179  1.8753
    7MPD2    N113918   4.409   2.049  12.862 -0.0828  0.3949 -0.3157
    7MPD2    H713919   4.496   2.096  12.885  0.8647 -1.8818  0.7679
    8TMC3    C113920   0.138   1.636  13.048  0.3302  0.5532 -0.1714
    8TMC3    C213921   0.184   1.656  13.180  0.7474 -0.0215  0.4501
    8TMC3    C313922   0.313   1.708  13.198  0.3113  0.5202 -0.5109
    8TMC3    C413923   0.221   1.654  12.938 -0.6727 -0.4282  0.3810
    8TMC3    C513924   0.338   1.719  12.966  0.0111  0.5339 -0.3528
    8TMC3    C613925   0.392   1.739  13.089 -0.0562 -0.1615 -0.1709
    8TMC3     C13926   0.026   1.729  13.019 -0.4233  0.5272  0.2113
    8TMC3     O13927   0.035   1.800  12.918  0.1290  0.2779 -0.4906
    8TMC3     H13928   0.118   1.663  13.266 -1.0020  1.4537 -1.0067
    8TMC3    H113929   0.202   1.639  12.832  0.4179  3.4257 -0.3780
    8TMC3    H213930   0.489   1.780  13.117  0.1744 -1.1630  0.5304
    8TMC3    C713931   0.387   1.817  12.876 -0.4196 -0.0479 -0.6751
    8TMC3    C813932   0.364   1.744  13.329 -0.2435 -0.0548  0.0296
    8TMC3    O113933   0.504   1.845  12.862  0.5105 -0.2667 -0.1885
    8TMC3    O213934   0.487   1.763  13.331  0.8892  0.0333  0.1745
    9TMC3    C113935   4.324   2.381  12.556 -0.6780 -0.0537 -0.2527
    9TMC3    C213936   4.462   2.414  12.549  0.2689  0.5473  0.2515
    9TMC3    C313937   4.539   2.349  12.638 -0.9828  0.2537 -0.5730
    9TMC3    C413938   4.273   2.298  12.645  0.5318  0.1681  0.8386
    9TMC3    C513939   4.353   2.240  12.734 -0.9791 -0.6621  0.2145
    9TMC3    C613940   4.483   2.262  12.734 -0.4271  0.3006 -0.8362
    9TMC3     C13941   4.240   2.446  12.452  0.2410 -0.1696 -0.4934
    9TMC3     O13942   4.136   2.386  12.430  0.2344 -0.1203 -0.1290
    9TMC3     H13943   4.513   2.484  12.484  2.9809 -0.8671  0.8590
    9TMC3    H113944   4.166   2.283  12.632  0.3498  1.2908  1.0029
    9TMC3    H213945   4.548   2.237  12.817 -0.2901  1.2156 -0.6618
    9TMC3    C713946   4.314   2.114  12.791  0.8795 -0.1747 -0.3319
    9TMC3    C813947   4.679   2.342  12.608 -0.1070 -0.2958 -0.9001
    9TMC3    O113948   4.209   2.074  12.750  0.8656  0.1616 -0.0172
    9TMC3    O213949   0.008   2.446  12.571  0.5947  0.3761 -0.3278
   10MPD2     C13950   0.385   2.061  12.695 -0.1873 -0.4160  0.2498
   10MPD2    C113951   0.274   1.999  12.744 -0.2508 -0.2387 -0.2335
   10MPD2    C213952   0.148   2.054  12.724  0.0933 -0.3220  0.9192
   10MPD2    C313953   0.135   2.177  12.662  0.1216 -0.7088 -0.2883
   10MPD2    C413954   0.247   2.243  12.621 -0.1436 -0.2206 -0.3324
   10MPD2    C513955   0.364   2.184  12.644  0.0714 -0.2593 -0.2142
   10MPD2     H13956   0.056   2.015  12.766  0.8068 -2.1311  0.8111
   10MPD2    H113957   0.252   2.335  12.563 -3.1727 -0.8236 -1.5491
   10MPD2    H213958   0.486   2.026  12.711  0.1875 -0.2294 -1.6992
   10MPD2    H313959   0.457   2.236  12.624  0.1176  0.1671  1.1079
   10MPD2     N13960   0.001   2.220  12.645 -0.2117 -0.0754 -0.5251
   10MPD2    H513961   4.659   2.150  12.670 -2.5864  2.7804  1.0377
   10MPD2    N113962   0.280   1.878  12.818  0.0042  0.2366 -0.2911
   10MPD2    H713963   0.189   1.844  12.849  0.8114 -0.4481  1.3105
   11MPD2     C13964   0.963   1.179  14.592 -0.4446  0.0657  0.1982
   11MPD2    C113965   0.850   1.136  14.518  0.3673 -0.2062 -0.2459
   11MPD2    C213966   0.800   1.221  14.417 -0.1901 -0.0569  1.0121
   11MPD2    C313967   0.866   1.332  14.385 -0.3566  0.4495 -0.7293
   11MPD2    C413968   0.977   1.372  14.459 -0.6808 -0.2920  0.5317
   11MPD2    C513969   1.021   1.301  14.566 -0.3137  0.0562 -0.6901
   11MPD2     H13970   0.710   1.185  14.369 -0.6698 -0.8090  2.4836
   11MPD2    H113971   1.023   1.469  14.447  2.2410 -1.6378  0.7032
   11MPD2    H213972   1.003   1.130  14.679  0.5939  1.0587  0.2821
   11MPD2    H313973   1.101   1.343  14.624  1.9057 -1.6493 -2.4919
   11MPD2     N13974   0.824   1.405  14.277 -0.1968 -0.0212 -0.0168
   11MPD2    H513975   0.732   1.403  14.234 -1.3760  2.6392  2.3209
   11MPD2    N113976   0.773   1.021  14.549  0.1682 -0.0136 -0.4107
   11MPD2    H713977   0.696   0.997  14.488  0.0997  1.0775 -0.7490
    1MPD1     C13978   2.882   2.717  17.258 -0.1126 -0.5641  0.1302
    1MPD1    C113979   2.992   2.634  17.284 -0.0081 -0.4579 -0.1162
    1MPD1    C213980   3.077   2.597  17.181 -0.5642  0.3327 -1.0906
    1MPD1    C313981   3.044   2.624  17.053 -0.9329 -0.3201  0.0043
    1MPD1    C413982   2.930   2.698  17.027  0.0342  0.2149  0.6147
    1MPD1    C513983   2.862   2.751  17.128  0.1412  0.3759 -0.5493
    1MPD1     H13984   3.165   2.537  17.197  0.0605  2.0430  1.7180
    1MPD1    H113985   2.906   2.730  16.926 -1.9237 -3.2008  0.0029
    1MPD1    H213986   2.824   2.763  17.336 -0.8707 -1.9947  0.4045
    1MPD1    H313987   2.781   2.817  17.100  0.5112  1.8440  1.8223
    1MPD1     N13988   3.131   2.593  16.946 -0.0094  0.4828 -0.5327
    1MPD1    H513989   3.105   2.625  16.853 -1.4597 -0.0590 -0.3081
    1MPD1    N113990   3.006   2.577  17.415  0.4130 -0.7464  0.0939
    1MPD1    H613991   3.105   2.587  17.438  0.6460  4.0409 -2.9974
    1MPD1    H713992   2.968   2.637  17.488  2.8975  0.2099  0.6023
    2MPD1     C13993   4.085   2.314  16.489 -0.0900 -0.3606 -0.3908
    2MPD1    C113994   4.003   2.364  16.393  0.0874  0.7227 -0.0478
    2MPD1    C213995   3.870   2.387  16.426 -0.5698 -0.1260  0.2515
    2MPD1    C313996   3.823   2.370  16.553  0.0339  0.2572 -0.7916
    2MPD1    C413997   3.913   2.329  16.651  0.4590  0.0263 -0.4093
    2MPD1    C513998   4.044   2.304  16.618  0.1278  0.1424  0.7107
    2MPD1     H13999   3.799   2.430  16.357 -0.3799  2.3266  1.5993
    2MPD1    H114000   3.878   2.306  16.751  0.6791  3.3209  0.4474
    2MPD1    H214001   4.188   2.294  16.460 -0.6414 -3.1523 -0.4103
    2MPD1    H314002   4.114   2.274  16.695 -1.2967  0.1053  2.0031
    2MPD1     N14003   3.693   2.410  16.589  0.4066 -0.1084 -0.5174
    2MPD1    H514004   3.629   2.430  16.513  0.5899  0.0829 -0.6199
    2MPD1    N114005   4.061   2.422  16.282 -0.2194 -0.9821  0.7939
    2MPD1    H614006   3.998   2.412  16.203  0.3849  4.7183 -0.4141
    2MPD1    H714007   4.150   2.388  16.245 -0.1457  1.4609 -1.3370
    3TMC3    C114008   3.498   2.428  16.725 -0.1234  0.2904 -0.5744
    3TMC3    C214009   3.416   2.370  16.626 -0.0346  0.2224  0.1454
    3TMC3    C314010   3.281   2.369  16.644  0.1572  0.6560  0.3240
    3TMC3    C414011   3.438   2.487  16.829  0.6521  0.2786  0.0186
    3TMC3    C514012   3.304   2.499  16.833  0.1049  1.0540  0.8316
    3TMC3    C614013   3.218   2.434  16.747  0.2932 -0.0352  0.6148
    3TMC3     C14014   3.644   2.422  16.721  0.6358  0.3745  0.1396
    3TMC3     O14015   3.700   2.425  16.829  0.3407  1.1237 -0.0476
    3TMC3     H14016   3.466   2.312  16.549 -2.9762 -2.6079  0.3760
    3TMC3    H114017   3.497   2.533  16.907  1.4139 -0.6178 -0.0320
    3TMC3    H214018   3.110   2.441  16.747  0.1329 -2.6306  0.2063
    3TMC3    C714019   3.255   2.535  16.957 -0.6288  0.5173  0.5512
    3TMC3    C814020   3.188   2.293  16.560  0.4754  0.3787 -0.4103
    3TMC3    O114021   3.334   2.521  17.050  0.4319 -0.0881  0.4269
    3TMC3    O214022   3.086   2.245  16.612 -0.5925 -0.3069  0.3715
    4MPD1     C14023   3.059   2.078  16.116 -0.0623 -0.6695 -0.6108
    4MPD1    C114024   3.150   2.171  16.097 -0.2586  0.6360  0.8398
    4MPD1    C214025   3.204   2.245  16.201 -0.1391 -0.0259 -0.8788
    4MPD1    C314026   3.165   2.208  16.333 -0.1136  0.1176  0.1083
    4MPD1    C414027   3.076   2.104  16.354  0.0248  0.9762  0.5566
    4MPD1    C514028   3.024   2.044  16.242 -0.5771 -0.2772 -0.4659
    4MPD1     H14029   3.281   2.317  16.178 -0.0646  0.2385  0.2009
    4MPD1    H114030   3.042   2.068  16.451  0.3607 -3.5093 -0.9789
    4MPD1    H214031   3.011   2.020  16.038  0.2543 -3.1416  1.0133
    4MPD1    H314032   2.961   1.957  16.254 -0.8422  0.1314  1.2033
    4MPD1     N14033   3.238   2.278  16.437 -0.0922 -0.6544 -0.1271
    4MPD1    H514034   3.322   2.330  16.415 -0.8771  0.1038 -1.3949
    4MPD1    N114035   3.169   2.227  15.969  0.2517  0.7089 -0.2734
    4MPD1    H614036   3.262   2.270  15.966  0.5541  0.0966  0.5187
    4MPD1    H714037   3.167   2.151  15.902 -1.2117  1.2605 -0.8502
    1TCq1    O114038   3.330   2.778  11.369 -0.3906  0.0883 -0.6933
    1TCq1    C114039   3.439   2.698  11.350  0.0599  0.6068 -0.0007
    1TCq1    O214040   3.442   2.577  11.332  0.6456  0.6642 -0.1312
    1TCq1    C214041   3.560   2.780  11.366  0.3301 -0.7755  0.6981
    1TCq1    C314042   3.544   2.911  11.335  0.3178 -0.4768 -0.0028
    1TCq1    C414043   3.656   2.989  11.335 -0.1001 -1.0131 -0.7200
    1TCq1    C514044   3.774   2.936  11.389  0.0289  0.3840  0.8103
    1TCq1    C614045   3.784   2.802  11.427 -0.5997 -0.4471 -0.4461
    1TCq1    C714046   3.681   2.719  11.397  0.1790  0.5261  0.6530
    1TCq1    C814047   3.916   2.730  11.433  0.2490  0.1887  0.2903
    1TCq1    O414048   3.926   2.640  11.514  0.3697 -0.0581 -0.0029
    1TCq1    C914049   3.645   3.128  11.341 -0.0613  0.6335 -0.1117
    1TCq1    O514050   3.536   3.177  11.386 -0.3935 -0.6053  0.1472
    1TCq1    O614051   3.760   3.180  11.349  0.0958 -0.1687 -0.4900
    1TCq1    H114052   3.361   2.850  11.429  4.3181 -2.0652 -0.5462
    1TCq1    H214053   3.443   2.948  11.321  1.6633  2.7555 -1.0805
    1TCq1    H314054   3.854   3.000  11.425  0.7604 -1.8953  3.2497
    1TCq1    H414055   3.681   2.615  11.426 -0.5327  0.3952  0.2120
    2MPD1     C14056   4.378   2.618  11.259  0.2524 -0.2717 -0.2684
    2MPD1    C114057   4.319   2.724  11.181  0.5454  0.1641  0.0885
    2MPD1    C214058   4.202   2.781  11.210  0.0382 -0.0379 -0.1623
    2MPD1    C314059   4.130   2.726  11.313  0.3110 -0.6516  0.0616
    2MPD1    C414060   4.183   2.616  11.386 -0.4805 -0.2232  0.1851
    2MPD1    C514061   4.306   2.579  11.366 -0.4344 -0.2034  0.5357
    2MPD1     H14062   4.153   2.857  11.150  1.8374  1.8599  0.7990
    2MPD1    H114063   4.142   2.570  11.475  1.5232  2.1114  2.2884
    2MPD1    H214064   4.477   2.580  11.235 -0.2954  0.0031 -2.9574
    2MPD1    H314065   4.348   2.502  11.430  1.3837  0.0776 -0.3267
    2MPD1     N14066   4.006   2.786  11.345  0.2909 -0.7756  0.3559
    2MPD1    H514067   3.972   2.866  11.291 -1.4334 -1.7669 -0.0334
    2MPD1    N114068   4.401   2.784  11.078  0.0698 -0.2198  0.1462
    2MPD1    H614069   4.454   2.710  11.033 -0.0311  0.4166 -1.0396
    2MPD1    H714070   4.350   2.842  11.011 -0.9094  1.0436  1.9787
    1TCq1    O114071   4.172   2.479  16.959  0.1101 -0.1338  0.0220
    1TCq1    C114072   4.230   2.493  17.075  0.4893  0.5868 -0.6205
    1TCq1    O214073   4.174   2.546  17.173 -0.0158 -0.1592  0.1440
    1TCq1    C214074   4.334   2.393  17.080  0.3130 -0.2471 -0.6841
    1TCq1    C314075   4.337   2.280  16.998 -0.4661  1.5062  0.0253
    1TCq1    C414076   4.458   2.214  16.994 -0.7538 -0.4495  0.3897
    1TCq1    C514077   4.557   2.233  17.084 -0.2528 -0.0534 -0.7460
    1TCq1    C614078   4.549   2.333  17.172 -0.9752  0.1815 -0.8579
    1TCq1    C714079   4.439   2.418  17.163 -0.3368 -0.2187  0.0315
    1TCq1    C814080   4.639   2.340  17.284  0.4108 -0.6221 -0.1483
    1TCq1    O414081   0.030   2.307  17.258  0.1496  0.0064  0.0086
    1TCq1    C914082   4.467   2.084  16.937 -0.2208 -0.2913  0.6447
    1TCq1    O514083   4.354   2.025  16.922 -0.3777 -0.3818  0.2248
    1TCq1    O614084   4.579   2.027  16.906 -0.1220 -0.3523 -0.1797
    1TCq1    H114085   4.232   2.465  16.882 -0.9600 -0.8809 -0.6742
    1TCq1    H214086   4.263   2.265  16.920  0.9306 -0.4726 -0.9062
    1TCq1    H314087   4.637   2.160  17.083  0.6333  0.9117 -0.5331
    1TCq1    H414088   4.436   2.513  17.214 -2.8025 -0.3318  0.0847
    2MPD1     C14089   0.015   2.413   0.075  0.7107  0.1134 -1.0335
    2MPD1    C114090   4.597   2.428   0.059 -0.3957 -0.1310  0.7677
    2MPD1    C214091   4.545   2.414  17.633  0.6829 -0.7391 -0.1010
    2MPD1    C314092   4.630   2.409  17.523  0.1285  0.4859  0.9726
    2MPD1    C414093   0.043   2.420  17.533 -0.2697  0.6615 -0.6343
    2MPD1    C514094   0.094   2.413  17.663 -0.0046  0.0271 -0.1853
    2MPD1     H14095   4.438   2.413  17.621  0.7352  2.6723 -0.9078
    2MPD1    H114096   0.110   2.411  17.449 -1.1470  0.8535 -1.3494
    2MPD1    H214097   0.060   2.405   0.173 -0.4187  0.7510 -0.4503
    2MPD1    H314098   0.200   2.407  17.686  0.1542 -3.5743 -1.8826
    2MPD1     N14099   4.572   2.388  17.395 -0.0859  0.9863 -0.3902
    2MPD1    H514100   4.472   2.371  17.388  0.4652 -1.8116 -1.2805
    2MPD1    N114101   4.508   2.425   0.166 -0.1196 -0.1533  0.9726
    2MPD1    H614102   4.420   2.464   0.131  0.9471  0.7398 -0.7314
    2MPD1    H714103   4.540   2.476   0.248  1.1568  2.5175 -1.1580
    1MPD1     C14104   0.319   1.591  12.370 -0.2317 -0.7436 -0.2645
    1MPD1    C114105   0.293   1.696  12.459 -0.0353  0.5739 -0.3038
    1MPD1    C214106   0.399   1.746  12.532  0.9724  0.2681 -1.2086
    1MPD1    C314107   0.524   1.687  12.531  0.0420 -0.0326 -0.1132
    1MPD1    C414108   0.546   1.578  12.449  0.4837 -0.4462  0.4519
    1MPD1    C514109   0.439   1.526  12.371  0.2955 -0.5377 -0.2340
    1MPD1     H14110   0.390   1.822  12.608  0.9572 -1.1610  0.2080
    1MPD1    H114111   0.643   1.540  12.421  0.6167 -1.5451  2.4281
    1MPD1    H214112   0.239   1.547  12.312 -1.2631  1.1359 -0.2486
    1MPD1    H314113   0.456   1.455  12.291  0.1507  0.5655 -1.2542
    1MPD1     N14114   0.624   1.738  12.619  0.0841 -0.7163 -0.4752
    1MPD1    H514115   0.591   1.799  12.692  0.5218 -2.8572  1.5265
    1MPD1    N114116   0.181   1.774  12.440  0.0059  0.3843 -0.0493
    1MPD1    H614117   0.103   1.716  12.412 -0.2158  0.4985  0.3285
    1MPD1    H714118   0.143   1.813  12.526 -0.3539 -0.4132  0.1544
    2MPD1     C14119   0.648   2.929  11.436  0.2446  0.1639 -0.0397
    2MPD1    C114120   0.674   3.054  11.389  0.2513 -0.5499  0.2572
    2MPD1    C214121   0.812   3.092  11.386  1.0926 -0.8732  0.1513
    2MPD1    C314122   0.911   2.994  11.402  0.0353 -0.4596  0.3725
    2MPD1    C414123   0.883   2.865  11.436  0.0999 -1.0815 -0.6492
    2MPD1    C514124   0.750   2.840  11.468  0.0922  0.1664  0.6773
    2MPD1     H14125   0.833   3.194  11.357 -1.6766 -0.4198 -0.2608
    2MPD1    H114126   0.952   2.781  11.446  0.2183 -0.7463  1.1712
    2MPD1    H214127   0.546   2.897  11.454 -0.3974  1.6203 -1.0064
    2MPD1    H314128   0.730   2.741  11.507  0.6539 -0.2721 -0.1734
    2MPD1     N14129   1.047   3.016  11.384 -0.9051  0.5130  0.6436
    2MPD1    H514130   1.100   2.930  11.393  0.6710  1.3834 -0.3486
    2MPD1    N114131   0.573   3.158  11.390  0.0858  0.5801  0.4682
    2MPD1    H614132   0.595   3.246  11.344 -1.1379  0.8869  0.4933
    2MPD1    H714133   0.488   3.120  11.350  0.9550 -1.6561  0.7146
    3MPD1     C14134   1.749   3.179  10.714 -0.2591  0.3924  0.4542
    3MPD1    C114135   1.615   3.147  10.701  0.8556 -0.2232  1.1386
    3MPD1    C214136   1.542   3.134  10.820 -0.0309 -0.0403 -0.2023
    3MPD1    C314137   1.593   3.167  10.947 -0.2670 -0.2003  0.1114
    3MPD1    C414138   1.718   3.217  10.947 -0.2820 -0.3273  0.1226
    3MPD1    C514139   1.799   3.209  10.836 -0.7098 -0.0345  0.3693
    3MPD1     H14140   1.446   3.084  10.811  0.0911 -0.5418  1.3448
    3MPD1    H114141   1.769   3.250  11.037 -0.1288  1.8472 -0.7621
    3MPD1    H214142   1.815   3.172  10.628 -1.0106 -0.8583 -0.0231
    3MPD1    H314143   1.899   3.251  10.844 -0.6441  0.1036 -1.0488
    3MPD1     N14144   1.522   3.158  11.069  0.0577  0.0617  0.4733
    3MPD1    H514145   1.427   3.122  11.067 -0.7641  2.1278  2.3768
    3MPD1    N114146   1.570   3.101  10.583 -0.1206 -0.8945  0.2495
    3MPD1    H614147   1.624   3.145  10.509  1.4022 -1.0676  1.2612
    3MPD1    H714148   1.469   3.107  10.569  0.2954  0.4825 -2.1019
    4MPD2     C14149   0.835   2.411  12.538 -0.9910 -0.3775 -0.0140
    4MPD2    C114150   0.924   2.310  12.523  0.3112  0.1064 -0.0674
    4MPD2    C214151   1.033   2.319  12.438  0.2219  0.3674  1.1684
    4MPD2    C314152   1.035   2.420  12.346  0.1234  0.2708  0.2382
    4MPD2    C414153   0.932   2.520  12.349  0.3258 -0.5567  0.3667
    4MPD2    C514154   0.833   2.514  12.448 -0.0103 -0.2172  0.2717
    4MPD2     H14155   1.103   2.236  12.438 -2.3481 -1.7787  1.6058
    4MPD2    H114156   0.939   2.605  12.283 -1.1532 -0.8336 -0.1411
    4MPD2    H214157   0.767   2.411  12.622 -0.2818  1.0014  0.5561
    4MPD2    H314158   0.762   2.595  12.456  0.7383  0.3438  1.2035
    4MPD2     N14159   1.149   2.447  12.261 -0.0737 -0.5894  0.1307
    4MPD2    H514160   1.139   2.521  12.192 -1.2667 -1.2240 -0.3727
    4MPD2    N114161   0.925   2.202  12.605  0.3136 -0.0445  0.1383
    4MPD2    H714162   1.006   2.143  12.592 -0.2736 -1.1092  1.3703
    5TMC3    C114163   0.856   2.040  12.746  0.0264 -0.5122 -0.8260
    5TMC3    C214164   0.774   1.938  12.717  0.7808 -0.1262 -0.3378
    5TMC3    C314165   0.831   1.814  12.695 -0.6544  0.0210  0.1521
    5TMC3    C414166   0.990   2.029  12.766 -0.2095 -0.2697 -0.6173
    5TMC3    C514167   1.051   1.909  12.744  0.3638  0.3054  0.1562
    5TMC3    C614168   0.968   1.806  12.713  0.1729  0.1441  0.1926
    5TMC3     C14169   0.816   2.161  12.680 -0.5685 -0.6806 -0.7474
    5TMC3     O14170   0.700   2.197  12.691 -0.1960 -0.2737  0.0618
    5TMC3     H14171   0.671   1.959  12.689  0.6628 -0.6501 -0.2900
    5TMC3    H114172   1.047   2.120  12.780 -1.5704  0.3194  1.0176
    5TMC3    H214173   1.011   1.707  12.704 -1.3812 -0.6387  1.2151
    5TMC3    C714174   1.148   1.937  12.637 -0.9976 -0.8252 -0.6383
    5TMC3    C814175   0.762   1.710  12.617  0.0582  0.5675 -0.7108
    5TMC3    O114176   1.154   2.050  12.593  0.1990  0.0141  0.2021
    5TMC3    O214177   0.833   1.631  12.553 -0.4750  0.2028 -0.1425
    6TMC3    C114178   1.248   3.111  11.357  0.7152  0.6794 -0.1821
    6TMC3    C214179   1.340   3.172  11.276 -0.6813 -0.2610 -0.0012
    6TMC3    C314180   1.471   3.160  11.304  0.4119  0.0240 -0.1468
    6TMC3    C414181   1.291   3.052  11.475 -0.2167 -0.2108 -0.0019
    6TMC3    C514182   1.424   3.032  11.498 -0.0452 -0.6413  1.4215
    6TMC3    C614183   1.515   3.090  11.414  0.1794  0.4224  0.3094
    6TMC3     C14184   1.105   3.130  11.332  0.3551 -0.3842 -0.4057
    6TMC3     O14185   1.058   3.238  11.296 -0.0729 -0.2841  0.2228
    6TMC3     H14186   1.308   3.220  11.184  1.9255  0.8830 -0.3194
    6TMC3    H114187   1.222   3.023  11.553  1.9594 -1.1079  1.6071
    6TMC3    H214188   1.620   3.102  11.440 -0.6828  0.5666  3.7236
    6TMC3    C714189   1.451   2.915  11.578 -0.2499 -0.3979 -0.2203
    6TMC3    C814190   1.570   3.184  11.199  0.3248 -0.3785 -0.1018
    6TMC3    O114191   1.372   2.887  11.667 -0.0267  0.2977 -0.6310
    6TMC3    O214192   1.683   3.216  11.229  0.4099 -0.3952  0.1314
    7MPD2     C14193   1.484   1.840  12.245 -0.3972  0.2501  0.2249
    7MPD2    C114194   1.417   1.950  12.282  0.6039 -0.0774  0.8288
    7MPD2    C214195   1.322   1.947  12.385 -0.3262  0.2668  0.2072
    7MPD2    C314196   1.305   1.838  12.473  0.9525  0.4790  0.2484
    7MPD2    C414197   1.382   1.727  12.443  0.2896 -0.0766  0.3553
    7MPD2    C514198   1.456   1.729  12.324 -0.3255  0.3987  0.7366
    7MPD2     H14199   1.264   2.037  12.403  1.2227  1.3313 -0.1418
    7MPD2    H114200   1.359   1.634  12.494  2.3285 -0.6266  0.2858
    7MPD2    H214201   1.554   1.833  12.162 -1.5511  1.8477 -0.8998
    7MPD2    H314202   1.505   1.634  12.302 -0.8083  0.2266  0.3873
    7MPD2     N14203   1.226   1.835  12.590 -0.3744  0.2163  0.6386
    7MPD2    H514204   1.218   1.747  12.641  1.5251  0.6962  1.7894
    7MPD2    N114205   1.444   2.074  12.221 -0.4132  0.0757  0.3366
    7MPD2    H714206   1.394   2.156  12.255 -0.4141  0.0794  0.3263
    8TMC3    C114207   1.503   2.237  12.072  0.4119  0.0417  0.4483
    8TMC3    C214208   1.462   2.256  11.949 -0.4932  0.7969 -1.2084
    8TMC3    C314209   1.356   2.346  11.939 -0.7393  0.4263  0.4601
    8TMC3    C414210   1.480   2.327  12.177  0.6686  0.0986  0.6781
    8TMC3    C514211   1.366   2.407  12.167  0.2972 -0.8141  0.3246
    8TMC3    C614212   1.306   2.414  12.045 -0.6854  0.4618 -0.1627
    8TMC3     C14213   1.517   2.102  12.112  0.3563 -0.0893  0.4358
    8TMC3     O14214   1.573   2.020  12.037 -0.0938 -0.1191  0.2810
    8TMC3     H14215   1.486   2.189  11.867 -0.0004 -0.5687  0.0499
    8TMC3    H114216   1.518   2.309  12.277  0.5658 -3.3974  0.0828
    8TMC3    H214217   1.231   2.490  12.030  0.5019  1.7154  0.2914
    8TMC3    C714218   1.274   2.388  12.272 -0.2216  0.3081  0.4915
    8TMC3    C814219   1.376   2.437  11.829 -0.3151 -0.1276  0.3927
    8TMC3    O114220   1.309   2.302  12.353  0.3904  0.0516 -0.1913
    8TMC3    O214221   1.293   2.525  11.812  0.0605 -1.1193 -0.3337
    9MPD2     C14222   1.718   2.501  11.694  0.7724  0.0482  0.9878
    9MPD2    C114223   1.585   2.521  11.720  0.1053 -1.0982 -0.0735
    9MPD2    C214224   1.530   2.640  11.674  0.8828  0.1870  0.6944
    9MPD2    C314225   1.609   2.729  11.601  0.5801 -0.3113 -0.1628
    9MPD2    C414226   1.746   2.708  11.595  0.0570 -0.1127  0.2063
    9MPD2    C514227   1.799   2.588  11.631  0.5970 -0.3723 -0.8345
    9MPD2     H14228   1.425   2.660  11.687  0.9686  0.7486  0.5182
    9MPD2    H114229   1.809   2.772  11.534  0.6199 -1.0104 -0.1537
    9MPD2    H214230   1.760   2.406  11.727 -0.7316 -1.1361 -0.5213
    9MPD2    H314231   1.907   2.587  11.623  0.7299 -2.5738  1.4626
    9MPD2     N14232   1.565   2.848  11.537  0.2050 -0.3876  0.0426
    9MPD2    H514233   1.636   2.900  11.488 -0.9685  1.8033  0.6720
    9MPD2    N114234   1.512   2.425  11.794 -0.8872  0.2329 -0.7852
    9MPD2    H714235   1.562   2.338  11.811 -2.4613 -0.5357 -0.0717
    1MPD1     C14236   1.999   0.962  16.370 -0.1679 -0.2563  0.5824
    1MPD1    C114237   1.936   0.899  16.468 -0.1812 -0.5644 -0.3392
    1MPD1    C214238   1.851   0.978  16.546 -0.8426 -0.3164  0.2204
    1MPD1    C314239   1.857   1.119  16.539  0.1010  0.2292  0.3616
    1MPD1    C414240   1.939   1.177  16.448 -0.7143 -0.0188  1.0065
    1MPD1    C514241   2.008   1.100  16.365  0.5326  0.3639  0.3785
    1MPD1     H14242   1.779   0.932  16.613 -2.4078  1.0103 -0.5303
    1MPD1    H114243   1.959   1.283  16.444  4.6504 -1.1062 -1.1453
    1MPD1    H214244   2.060   0.905  16.300  0.1119 -1.1525  1.5581
    1MPD1    H314245   2.088   1.147  16.310  1.6107 -1.0481  0.7498
    1MPD1     N14246   1.771   1.209  16.614  0.0192 -0.3352  0.1298
    1MPD1    H514247   1.796   1.307  16.609 -0.2258 -0.3622 -1.9788
    1MPD1    N114248   1.924   0.756  16.480  0.2055  0.4849  0.0581
    1MPD1    H614249   1.906   0.718  16.573  4.4881 -1.4619  0.0957
    1MPD1    H714250   2.012   0.715  16.449  0.6287  1.9574 -0.7190
    2MPD1     C14251   0.895   1.667  16.505  0.0914  0.3897  0.0659
    2MPD1    C114252   1.004   1.751  16.499  0.8197  0.4243  0.6195
    2MPD1    C214253   1.116   1.711  16.573 -0.4483  0.7323 -0.2000
    2MPD1    C314254   1.110   1.592  16.643  0.4909  0.2513 -0.3067
    2MPD1    C414255   0.998   1.510  16.635  0.4703 -0.7679  0.7153
    2MPD1    C514256   0.891   1.551  16.566 -0.8804  0.4230  0.3636
    2MPD1     H14257   1.204   1.774  16.579 -0.5231  0.7592  0.7359
    2MPD1    H114258   0.992   1.415  16.688  2.9695  0.5264  3.3347
    2MPD1    H214259   0.799   1.702  16.470  1.2016  2.2621 -1.1123
    2MPD1    H314260   0.806   1.484  16.560 -0.9656  0.5210  0.4616
    2MPD1     N14261   1.228   1.552  16.699  0.0375 -0.3251 -0.1376
    2MPD1    H514262   1.302   1.621  16.702 -0.1681 -0.2952  4.5252
    2MPD1    N114263   0.996   1.878  16.447 -0.5254  0.0122  0.5624
    2MPD1    H614264   1.077   1.920  16.403 -0.3283  0.0577  0.9656
    2MPD1    H714265   0.920   1.894  16.381 -1.2830 -0.5423  1.2966
    3TCq2    C114266   1.262   1.426  16.742  0.1435 -0.1731  0.4567
    3TCq2    O214267   1.203   1.318  16.742  0.2126  0.5329 -0.1836
    3TCq2    C214268   1.405   1.417  16.789  0.3439 -0.3459 -1.1335
    3TCq2    C314269   1.479   1.524  16.811  0.1552  0.2374 -0.7322
    3TCq2    C414270   1.615   1.513  16.811 -0.3634 -0.1939 -0.1942
    3TCq2    C514271   1.680   1.399  16.785 -0.4275  0.6035 -0.0117
    3TCq2    C614272   1.602   1.292  16.749 -0.1105 -0.2947  0.2965
    3TCq2    C714273   1.468   1.300  16.749 -0.8291 -0.0437 -0.6678
    3TCq2    C814274   1.666   1.178  16.692 -0.4331  0.3634 -0.1700
    3TCq2    O414275   1.612   1.068  16.684 -0.3222 -0.3280 -0.4010
    3TCq2    C914276   1.704   1.623  16.812  0.1112 -1.1442 -0.3507
    3TCq2    O514277   1.832   1.610  16.812  0.1288  0.2233  0.1920
    3TCq2    O614278   1.641   1.729  16.822 -0.1274 -0.2166 -0.2133
    3TCq2    H214279   1.430   1.618  16.833  0.9020  0.9105 -1.9432
    3TCq2    H314280   1.787   1.391  16.767  0.0557  0.4617  2.8885
    3TCq2    H414281   1.409   1.215  16.716  1.2299 -0.5333 -3.1405
    1TCq1    O114282   3.376   4.297  13.157 -0.2648 -0.7887  0.0227
    1TCq1    C114283   3.427   4.347  13.046  0.3291  0.1474 -0.2207
    1TCq1    O214284   3.531   4.314  12.989 -0.2717  0.1980  0.5954
    1TCq1    C214285   3.338   4.456  13.014  0.3232 -0.9075  0.3521
    1TCq1    C314286   3.200   4.435  12.997 -0.4651  0.3759  0.5067
    1TCq1    C414287   3.127   4.526  12.933 -0.6357 -0.3368 -0.7173
    1TCq1    C514288   3.177   4.652  12.895  0.1693  0.5423  0.9325
    1TCq1    C614289   3.309   4.679  12.916 -0.0294  0.0986 -0.7225
    1TCq1    C714290   3.389   4.583  12.970  0.3391  0.5013  0.0277
    1TCq1    C814291   3.359   0.090  12.893  0.4112  0.3114  0.2952
    1TCq1    O414292   3.288   0.166  12.834  0.3409  0.2223 -0.4362
    1TCq1    C914293   2.985   4.498  12.910  0.3391  0.0334  0.4434
    1TCq1    O514294   2.933   4.538  12.802 -0.3907 -0.1952 -0.1520
    1TCq1    O614295   2.942   4.403  12.974 -0.4357 -0.1434  0.0911
    1TCq1    H114296   3.303   4.343  13.204 -0.0659 -1.5333  1.0550
    1TCq1    H214297   3.158   4.337  13.015  0.6114 -0.4941 -1.7393
    1TCq1    H314298   3.111   4.723  12.846  0.4765 -0.4179 -0.8652
    1TCq1    H414299   3.496   4.588  12.955  0.3299  2.6610  0.7641
    2MPD2     C14300   3.505   0.352  12.848  0.6540  0.1142  0.0321
    2MPD2    C114301   3.551   0.247  12.933 -0.1937  0.2682  0.1739
    2MPD2    C214302   3.666   0.263  13.006  0.1695 -0.0253  0.1837
    2MPD2    C314303   3.726   0.387  13.009 -0.0940 -0.3729  0.6477
    2MPD2    C414304   3.676   0.490  12.931 -0.1954 -0.8301  0.6626
    2MPD2    C514305   3.569   0.470  12.851  0.2591  0.7737 -0.9458
    2MPD2     H14306   3.714   0.180  13.056 -0.4335  0.5531  1.7586
    2MPD2    H114307   3.732   0.580  12.914 -3.5821  0.7165 -2.4056
    2MPD2    H214308   3.421   0.351  12.779 -0.9455 -1.4533  1.9915
    2MPD2    H314309   3.534   0.552  12.788 -0.3879  1.4861  0.3376
    2MPD2     N14310   3.851   0.395  13.075  0.2122  0.2521  0.4719
    2MPD2    H514311   3.883   0.310  13.120  1.3155  0.4351  0.0145
    2MPD2    N114312   3.486   0.115  12.946 -0.1730 -0.1408 -0.2190
    2MPD2    H714313   3.538   0.042  12.992 -0.7258 -1.6363 -1.9684
    3TCq1    O114314   4.280   0.175  13.399  0.2381  0.5761 -0.6872
    3TCq1    C114315   4.163   0.242  13.426  0.3830  0.5683 -0.7589
    3TCq1    O214316   4.121   0.258  13.540  0.0994 -0.5362 -0.0223
    3TCq1    C214317   4.168   0.363  13.336 -0.0453  0.0027 -0.6850
    3TCq1    C314318   4.271   0.446  13.321  0.6071 -1.2231  0.6135
    3TCq1    C414319   4.264   0.548  13.235 -0.1795  0.7950  0.0518
    3TCq1    C514320   4.149   0.564  13.161 -0.3049 -1.1747 -0.1733
    3TCq1    C614321   4.048   0.478  13.170  0.5693 -0.5940  0.1072
    3TCq1    C714322   4.052   0.381  13.263 -0.5195  0.6178  0.8854
    3TCq1    C814323   3.938   0.501  13.080  0.2891  0.4344 -0.0440
    3TCq1    O414324   3.920   0.619  13.039 -0.0275  0.1545 -0.3281
    3TCq1    C914325   4.371   0.643  13.217  0.2216  0.0143 -0.3091
    3TCq1    O514326   4.458   0.638  13.305  0.2942  0.1456  0.1128
    3TCq1    O614327   4.363   0.716  13.117 -0.1694 -0.0107  0.3806
    3TCq1    H114328   4.301   0.178  13.303 -0.6503 -2.9251 -0.9950
    3TCq1    H214329   4.359   0.419  13.378  1.8155  0.4957 -0.4088
    3TCq1    H314330   4.151   0.637  13.080  0.6970 -0.0411  0.8676
    3TCq1    H414331   3.966   0.319  13.285 -0.3574 -0.1683 -0.7080
    1MPD2     C14332   3.630   1.271  14.452 -0.2517  0.6750  0.7606
    1MPD2    C114333   3.558   1.289  14.572  0.2845  0.2983 -0.8570
    1MPD2    C214334   3.563   1.188  14.666  0.1474  0.7498 -0.4498
    1MPD2    C314335   3.654   1.085  14.660 -0.2290  0.5751  0.0659
    1MPD2    C414336   3.733   1.071  14.546 -0.3640 -0.6963 -0.2233
    1MPD2    C514337   3.706   1.158  14.440  0.0479  0.2689  0.5930
    1MPD2     H14338   3.503   1.186  14.756  1.4925  1.7924  0.4783
    1MPD2    H114339   3.808   0.994  14.533  0.0068 -0.1607 -1.2798
    1MPD2    H214340   3.651   1.343  14.373 -0.2850  0.7733  0.8405
    1MPD2    H314341   3.766   1.140  14.352 -1.8660  3.9387 -1.4465
    1MPD2     N14342   3.668   1.006  14.772 -0.0540  0.7932 -0.2425
    1MPD2    H514343   3.604   1.035  14.846  1.7456 -0.5728  1.8157
    1MPD2    N114344   3.480   1.404  14.594  0.5003  0.5139  0.6252
    1MPD2    H714345   3.462   1.462  14.513 -0.8120  1.1056  1.3438
    2TMC3    C114346   3.413   1.566  14.747  0.3973  0.1800  0.0082
    2TMC3    C214347   3.381   1.586  14.878  0.5840 -0.0066 -0.4411
    2TMC3    C314348   3.462   1.662  14.966 -0.0360  0.2142 -0.0232
    2TMC3    C414349   3.518   1.640  14.698 -0.3123  0.4109 -0.6090
    2TMC3    C514350   3.604   1.705  14.781 -0.3772  0.1324  0.4675
    2TMC3    C614351   3.573   1.717  14.917  0.1744 -0.1738  0.1036
    2TMC3     C14352   3.421   1.428  14.721  0.3862  0.4000  0.5596
    2TMC3     O14353   3.402   1.371  14.829  0.2446  0.1112 -0.0979
    2TMC3     H14354   3.291   1.540  14.918  1.0360 -1.2424 -0.8273
    2TMC3    H114355   3.538   1.626  14.592 -1.7148 -0.9058 -0.6999
    2TMC3    H214356   3.643   1.776  14.975 -1.2388 -0.2576  1.8609
    2TMC3    C714357   3.701   1.795  14.723  0.0228 -0.1329 -0.0278
    2TMC3    C814358   3.477   1.612  15.105 -0.8643 -0.0727 -0.2465
    2TMC3    O114359   3.698   1.808  14.601 -0.7832 -0.3034 -0.3257
    2TMC3    O214360   3.544   1.683  15.174 -0.2955 -0.0671  0.1970
    3TCq1    O114361   4.701   2.294  15.232  0.6452  0.6608 -0.1843
    3TCq1    C114362   4.705   2.310  15.097  0.5081 -1.1333 -0.5740
    3TCq1    O214363   4.659   2.406  15.036  0.2904  0.2795 -0.2169
    3TCq1    C214364   4.629   2.184  15.067  0.6637  0.2620  0.4826
    3TCq1    C314365   4.630   2.071  15.147 -0.2643  0.0916  1.1885
    3TCq1    C414366   4.531   1.979  15.131  0.1117 -0.1226  0.1342
    3TCq1    C514367   4.440   1.985  15.026 -0.4286  0.0023  0.4706
    3TCq1    C614368   4.444   2.091  14.943  0.1872 -0.4162  0.1021
    3TCq1    C714369   4.538   2.191  14.960  0.2333  0.7527 -0.3915
    3TCq1    C814370   4.340   2.104  14.842 -1.0154 -0.4796  0.0270
    3TCq1    O414371   4.356   2.188  14.753 -0.0764 -0.1640  0.0870
    3TCq1    C914372   4.522   1.860  15.212 -0.5565 -1.1665 -0.0129
    3TCq1    O514373   4.428   1.774  15.189  0.4834 -0.1071  0.5592
    3TCq1    O614374   4.619   1.836  15.287 -0.1258  0.0335 -0.4180
    3TCq1    H114375   0.042   2.229  15.260  0.7934  1.9246  2.4718
    3TCq1    H214376   4.699   2.057  15.229  0.3524 -0.7883  0.5181
    3TCq1    H314377   4.368   1.905  15.017 -1.2703  0.4879  2.6686
    3TCq1    H414378   4.543   2.273  14.889 -1.2974  0.5257 -0.7614
    4MPD2     C14379   4.084   2.130  14.702  0.2710 -0.5857 -0.0917
    4MPD2    C114380   4.106   2.046  14.802  0.0072 -0.0441  0.2361
    4MPD2    C214381   4.004   1.960  14.847  0.0896  0.3313  0.5654
    4MPD2    C314382   3.887   1.948  14.779  0.3485 -0.0781  0.2043
    4MPD2    C414383   3.868   2.036  14.671 -0.1600  0.8130 -0.1967
    4MPD2    C514384   3.961   2.123  14.639  0.1731 -0.4852 -0.2642
    4MPD2     H14385   4.029   1.900  14.934 -2.3662  0.8693  1.6512
    4MPD2    H114386   3.788   2.029  14.598 -0.6737 -3.4849  0.7704
    4MPD2    H214387   4.161   2.195  14.663 -0.6197  2.4959  3.2607
    4MPD2    H314388   3.933   2.188  14.557  1.4147 -0.0187 -0.3243
    4MPD2     N14389   3.791   1.846  14.812 -0.1840 -0.5408  0.3370
    4MPD2    H514390   3.816   1.805  14.902  0.4597 -0.7725  0.0523
    4MPD2    N114391   4.228   2.031  14.873 -0.3187 -0.0029 -0.1265
    4MPD2    H714392   4.232   1.982  14.962 -1.9736 -1.2726 -0.7611
    5TMC2    C114393   3.563   0.831  15.079  0.0292 -0.2656  0.6438
    5TMC2    C214394   3.645   0.801  15.178 -0.4695 -0.3741  0.7790
    5TMC2    C314395   3.780   0.805  15.145 -0.3580  0.0777 -0.5795
    5TMC2    C414396   3.604   0.835  14.951 -0.2014 -0.5287 -0.0873
    5TMC2    C514397   3.737   0.836  14.917  0.2517  0.2047  0.3034
    5TMC2    C614398   3.832   0.831  15.019 -0.3817 -0.4245  0.4057
    5TMC2     C14399   3.507   0.964  15.105  0.1032 -0.8595  0.5065
    5TMC2     O14400   3.465   1.019  15.004  0.0259  0.1768  0.6002
    5TMC2     H14401   3.625   0.793  15.284 -0.9059 -1.6434  0.5972
    5TMC2    H114402   3.543   0.829  14.862  1.6564  1.1797 -1.4774
    5TMC2    H214403   3.939   0.841  15.006 -0.5904 -1.5812 -2.1781
    5TMC2    C714404   3.764   0.910  14.793  0.2255  0.1643 -0.2277
    5TMC2    C814405   3.878   0.828  15.253  0.4039  1.3189  0.6708
    5TMC2    O114406   3.861   0.879  14.730  0.3185  0.5206  0.0899
    5TMC2    O214407   3.840   0.874  15.358  0.2891  0.2761 -0.3352
    5TMC2    O514408   3.975   0.737  15.241 -0.3214 -0.1354 -0.4001
    5TMC2    H514409   3.975   0.684  15.159 -1.1397  0.9492 -1.0920
    6MPD2     C14410   3.513   1.416  15.328 -0.8862 -0.2702 -0.5874
    6MPD2    C114411   3.484   1.380  15.200  0.1544 -0.1812 -0.4777
    6MPD2    C214412   3.492   1.246  15.160 -0.4574 -0.1067 -0.3805
    6MPD2    C314413   3.521   1.151  15.256 -0.7808 -0.7333 -0.0452
    6MPD2    C414414   3.540   1.188  15.391 -0.1939 -0.7381  0.7462
    6MPD2    C514415   3.541   1.319  15.418 -0.1664  0.4111 -0.1117
    6MPD2     H14416   3.476   1.232  15.054  0.4352  1.9952 -0.7924
    6MPD2    H114417   3.561   1.120  15.473 -0.9719 -1.7201  0.1358
    6MPD2    H214418   3.522   1.521  15.354 -0.6144  0.1179 -2.2539
    6MPD2    H314419   3.571   1.356  15.515 -0.4899  1.1696 -0.3003
    6MPD2     N14420   3.524   1.010  15.225 -0.6306  0.4096  0.5774
    6MPD2    H514421   3.547   0.944  15.298  1.8861  1.4593  0.7538
    6MPD2    N114422   3.460   1.476  15.102 -0.0716 -0.4560 -0.0699
    6MPD2    H714423   3.434   1.434  15.014  2.6405  1.6345 -1.8828
  945NH3     N114424   1.980   4.686  12.150  0.1276 -0.2892 -0.0372
  945NH3     H214425   1.947   0.050  12.118  0.1937  0.4927  2.1038
  945NH3     H314426   1.910   4.658  12.218  0.3009 -0.7581 -0.0464
  945NH3     H414427   2.062   4.711  12.204  0.1961  0.9252 -0.7218
  946SOD     NA14428   2.495   1.013  14.940 -0.5446 -0.3193  0.1994
  947SOD     NA14429   3.894   0.620  14.179  0.7345  0.2456 -0.0466
  948SOD     NA14430   1.107   1.779   0.872  0.0062 -0.0770 -0.1320
  949SOD     NA14431   2.768   4.667  12.796 -0.0192  0.0194 -0.1750
  950SOD     NA14432   2.120   3.759   2.598  0.2509  0.3596 -0.4040
  951SOD     NA14433   0.542   3.802   0.622  0.5146 -0.0663 -0.2261
  952SOD     NA14434   1.985   2.661   1.296  0.0920 -0.4184  0.9871
  953SOD     NA14435   1.459   0.581   0.682  0.3560 -0.1982  0.1344
  954SOD     NA14436   4.514   0.692  13.501  0.5830  0.4530  0.2924
  955SOD     NA14437   0.851   3.830  13.635  0.3443 -0.2724 -0.0080
  956SOD     NA14438   3.173   1.973  10.325 -0.0706  0.0424  0.1100
  957SOD     NA14439   3.005   3.279   2.047  0.1088 -0.0039  0.1558
  958SOD     NA14440   0.086   3.303   0.052 -0.1499 -0.4305  0.2257
  959SOD     NA14441   2.708   1.838  15.469  0.0504 -0.7061  0.6574
  960SOD     NA14442   1.754   1.392  13.482  0.0356  0.2659  0.1156
  961SOD     NA14443   2.148   3.561   0.962  0.0766  0.7022  0.5191
  962SOD     NA14444   1.513   3.768   7.729 -0.6400 -0.6279  0.3596
  963SOD     NA14445   3.690   4.719  10.697 -0.3384 -0.2062  0.4261
  964SOD     NA14446   2.002   4.532  11.991 -0.0170  0.2720  0.3360
  965SOD     NA14447   0.967   4.519   1.252 -0.1159 -0.3547  0.2305
  966SOD     NA14448   3.088   0.018  15.681  0.1125  0.0443 -0.2352
  967SOD     NA14449   4.484   1.849  16.812  0.3686  0.4120  0.0552
  968SOD     NA14450   0.064   1.951  16.923 -0.3580  0.3221  0.4541
  969SOD     NA14451   1.206   2.769   2.439 -0.3284  0.7028 -0.3694
  970SOD     NA14452   1.945   0.453  11.766  0.1383  0.3397 -0.1331
  971SOD     NA14453   1.476   3.879  13.991  0.2730  0.1241  0.0452
  972SOD     NA14454   3.796   4.427   3.012  0.0638 -0.5591 -0.2695
  973SOD     NA14455   2.712   4.522  11.111  0.0523 -0.1219 -0.3311
  974SOD     NA14456   4.221   0.788  11.616 -0.1743  0.6463  0.2840
  975SOD     NA14457   3.256   4.412  10.400  0.1582 -0.2055 -0.3891
  976SOD     NA14458   1.247   0.942   8.912  0.6654 -0.1528 -0.1518
  977SOD     NA14459   0.564   0.676   1.045 -0.2109  0.1477 -0.5469
  978SOD     NA14460   3.548   1.881   2.574 -0.5174 -0.2875  0.5808
  979SOD     NA14461   1.554   3.559  14.868  0.2433 -0.5275  0.5928
  980SOD     NA14462   0.453   3.044  14.523  0.1260  0.2532 -0.1164
  981SOD     NA14463   3.411   4.348  11.910 -0.0703 -0.2717 -0.3330
  982SOD     NA14464   1.737   1.583  15.311  0.1707  0.2061 -0.1995
  983SOD     NA14465   3.929   2.370   5.284  0.1324  0.3855 -0.1294
  984SOD     NA14466   3.318   0.677  11.458 -0.5417  0.1373 -0.1284
  985SOD     NA14467   4.712   0.692  11.458 -0.7789 -0.3371 -0.3100
  986SOD     NA14468   3.198   0.936  11.294 -0.5195  0.0301  0.0584
  987SOD     NA14469   2.589   0.052   1.374  0.3102 -0.0984  0.1001
  988SOD     NA14470   3.011   0.625  11.484  0.3528 -0.4912 -0.0929
  989SOD     NA14471   0.665   3.498  16.734 -0.5320  0.0974  0.1325
  990SOD     NA14472   2.434   4.377   9.458 -0.0822  0.1699  0.6716
  991SOD     NA14473   0.900   0.942  14.985 -0.3969 -0.0359 -0.0400
  992SOD     NA14474   0.310   1.384  14.190  0.4125 -0.4271 -0.1284
  993SOD     NA14475   0.623   0.734  11.059  0.1327  0.7239 -0.3737
  994SOD     NA14476   3.408   3.863  11.572  0.5709 -0.3600  0.4062
  995SOD     NA14477   4.648   0.524  13.257 -0.1332  0.1132  0.1814
  996SOD     NA14478   4.006   1.341   8.996  0.0563 -0.4297 -0.0586
  997SOD     NA14479   1.290   0.166  15.180  0.5501 -0.3439  0.1399
  998SOD     NA14480   0.468   0.526  11.693  0.4600 -0.3702 -0.2359
  999SOD     NA14481   3.216   3.174   7.770  0.3312 -0.3148 -0.0192
 1000SOD     NA14482   2.331   1.244   2.490  0.3813 -0.2405  0.0979
 1001SOD     NA14483   0.314   3.733  11.436  0.7819  0.4200 -0.8372
 1002SOD     NA14484   0.894   1.429  12.639 -0.0897  0.7177  0.1145
 1003SOD     NA14485   4.404   0.171  11.999 -0.0080 -0.1864 -0.1420
 1004SOD     NA14486   1.086   0.451  10.525  0.1434  0.1425 -0.0784
 1005SOD     NA14487   2.746   4.330  12.853  0.0697 -0.0323  0.6414
 1006SOD     NA14488   3.468   3.508   1.280  0.0548 -0.5012 -0.3368
 1007SOD     NA14489   3.039   0.308   9.461  0.2664  0.0118 -0.1751
 1008SOD     NA14490   1.971   2.171  16.193  0.2888 -0.3794  0.6655
 1009SOD     NA14491   4.690   1.545  15.811  0.0684 -0.0972  0.2248
 1010SOD     NA14492   2.023   0.244  17.657 -0.4276  0.2020  0.3941
 1011SOD     NA14493   3.360   2.365  11.344  0.2305 -0.6378 -0.3556
 1012SOL     OW14494   1.880   0.962   5.774  0.1276  0.0078  0.2412
 1012SOL    HW114495   1.848   1.013   5.700 -0.4974 -1.7499 -0.6937
 1012SOL    HW214496   1.896   0.879   5.730  1.2053  0.0268  0.6000
 1013SOL     OW14497   0.559   4.455   7.668 -0.0350 -0.1687  0.1446
 1013SOL    HW114498   0.501   4.530   7.679 -0.7749 -0.6490 -0.4606
 1013SOL    HW214499   0.537   4.421   7.755  0.9490  1.7090  1.1325
 1014SOL     OW14500   1.774   4.212   8.296 -0.4592 -0.3338  0.2008
 1014SOL    HW114501   1.817   4.128   8.280  0.6899 -0.0473  1.8379
 1014SOL    HW214502   1.838   4.258   8.349  0.3635  0.8837 -1.8362
 1015SOL     OW14503   1.802   1.982   3.281 -0.7725 -0.2857  0.8159
 1015SOL    HW114504   1.886   2.028   3.282 -1.8600  1.6702  1.3372
 1015SOL    HW214505   1.781   1.994   3.188 -1.3990 -0.8536  0.8877
 1016SOL     OW14506   4.079   0.860   4.620 -0.3082  0.7458  0.4735
 1016SOL    HW114507   4.061   0.787   4.679 -0.8446 -0.2638 -0.9356
 1016SOL    HW214508   4.107   0.806   4.546 -0.5111  0.4472  0.6178
 1017SOL     OW14509   4.478   1.328   8.988  0.0699  0.1084 -0.5195
 1017SOL    HW114510   4.458   1.262   8.922 -0.5277 -0.6248  0.3951
 1017SOL    HW214511   4.475   1.273   9.066  1.1162  0.5168 -0.1820
 1018SOL     OW14512   3.801   1.318   5.212  0.2472 -0.3874 -0.1987
 1018SOL    HW114513   3.815   1.378   5.138 -0.3128  0.7138  0.5842
 1018SOL    HW214514   3.779   1.377   5.283 -0.3863 -0.6960 -0.1461
 1019SOL     OW14515   0.753   1.366   5.501  0.3048 -0.2402 -0.3320
 1019SOL    HW114516   0.755   1.408   5.415  0.3608 -2.5555 -1.4600
 1019SOL    HW214517   0.680   1.307   5.480  0.7268 -1.0580  0.5049
 1020SOL     OW14518   3.668   2.100   5.463  0.0558  0.3049  0.4186
 1020SOL    HW114519   3.613   2.149   5.524  1.3863  0.6321  1.3559
 1020SOL    HW214520   3.674   2.013   5.503 -3.0309 -0.3636 -0.5663
 1021SOL     OW14521   2.620   0.023  14.115 -0.3410  0.4058 -0.3118
 1021SOL    HW114522   2.697   4.700  14.086 -0.3828  0.0113  0.2321
 1021SOL    HW214523   2.548   4.687  14.127 -1.3324  1.3549 -1.4531
 1022SOL     OW14524   4.127   0.903   9.213 -0.1080 -0.5301  0.3887
 1022SOL    HW114525   4.101   0.828   9.266  1.7396  0.0463  2.0888
 1022SOL    HW214526   4.221   0.911   9.227 -0.2879  0.8944  0.7287
 1023SOL     OW14527   4.704   1.256   0.571 -0.2043 -0.1555 -0.0207
 1023SOL    HW114528   4.651   1.183   0.603 -0.5231  0.1012  0.0422
 1023SOL    HW214529   4.665   1.284   0.488  0.4907 -0.7122 -0.5322
 1024SOL     OW14530   2.800   0.519   2.404  0.3827 -0.1669  0.3785
 1024SOL    HW114531   2.885   0.528   2.447  0.4819  2.9340 -0.4810
 1024SOL    HW214532   2.809   0.424   2.391  0.3858  0.1596 -2.0184
 1025SOL     OW14533   1.611   2.528   6.160  0.2591  0.3113  0.4776
 1025SOL    HW114534   1.640   2.582   6.234  0.0235 -0.2669  0.9892
 1025SOL    HW214535   1.575   2.449   6.199  0.7044 -0.0827  0.0854
 1026SOL     OW14536   2.129   1.869   4.860 -0.0536  0.2374 -0.3171
 1026SOL    HW114537   2.077   1.816   4.800  0.4155  2.2479 -2.5298
 1026SOL    HW214538   2.146   1.949   4.811  0.6608  0.9290  1.0523
 1027SOL     OW14539   4.577   4.272   6.142  0.5585 -0.0423  0.3506
 1027SOL    HW114540   4.486   4.263   6.114  0.3701 -0.9904  1.2668
 1027SOL    HW214541   4.611   4.330   6.074  0.9563  0.6247  1.1202
 1028SOL     OW14542   0.092   0.218   7.223  0.1051 -0.1911 -0.5193
 1028SOL    HW114543   0.138   0.239   7.305 -0.6150 -0.8474  0.0605
 1028SOL    HW214544   0.147   0.244   7.150  2.2897  0.5700  1.3873
 1029SOL     OW14545   0.100   0.744   7.888  0.1982 -0.0433 -0.1204
 1029SOL    HW114546   0.104   0.729   7.983  0.1359  0.3583 -0.0554
 1029SOL    HW214547   0.067   0.834   7.881  0.0350 -0.2161 -1.5564
 1030SOL     OW14548   0.244   2.635   0.629 -0.1038  0.0799  0.2736
 1030SOL    HW114549   0.274   2.629   0.720 -1.8071  0.3185  0.8590
 1030SOL    HW214550   0.171   2.696   0.636  0.0096  0.4737 -1.9900
 1031SOL     OW14551   0.808   2.686   9.360  0.2075 -0.6011 -0.1596
 1031SOL    HW114552   0.890   2.650   9.395  1.1654  0.8041 -0.9635
 1031SOL    HW214553   0.817   2.781   9.362 -0.4535 -0.5320 -0.3900
 1032SOL     OW14554   0.802   3.240   5.635  0.4869 -0.7785  0.1101
 1032SOL    HW114555   0.787   3.259   5.728 -0.6289 -0.1476 -0.2045
 1032SOL    HW214556   0.893   3.210   5.633  0.6298 -0.3200 -0.1263
 1033SOL     OW14557   1.924   1.251   8.511 -0.2034 -0.3940 -0.1412
 1033SOL    HW114558   1.877   1.288   8.436  2.3921  2.5513 -0.2942
 1033SOL    HW214559   1.933   1.169   8.463 -0.0625 -0.2187 -0.4139
 1034SOL     OW14560   0.172   3.292   5.447 -0.4556  0.3631 -0.2545
 1034SOL    HW114561   0.238   3.361   5.461  0.6979 -0.6840 -0.5396
 1034SOL    HW214562   0.235   3.225   5.421 -1.4930 -0.4931 -0.5706
 1035SOL     OW14563   2.230   2.974   8.883 -0.1052 -0.0693 -0.3241
 1035SOL    HW114564   2.141   2.962   8.851  0.2624  0.7429 -1.6323
 1035SOL    HW214565   2.209   2.979   8.977  1.1890 -0.0738 -0.0365
 1036SOL     OW14566   1.943   1.461   0.304  0.3921 -0.2049 -0.3204
 1036SOL    HW114567   1.960   1.480   0.212 -1.3445  0.0098 -0.6010
 1036SOL    HW214568   2.035   1.455   0.330  0.7709  0.6175 -1.5051
 1037SOL     OW14569   2.806   0.813  13.456  0.0146 -0.1707 -0.1223
 1037SOL    HW114570   2.866   0.864  13.511  1.3556  0.1287 -1.8669
 1037SOL    HW214571   2.737   0.791  13.518  1.3968  0.4215  1.6396
 1038SOL     OW14572   2.450   0.453   8.322 -0.1417  0.8558 -0.5323
 1038SOL    HW114573   2.455   0.549   8.319  2.6586  0.7352  0.2224
 1038SOL    HW214574   2.419   0.450   8.412  1.2576  1.4710 -0.0293
 1039SOL     OW14575   2.160   1.111   5.430  0.1453  0.8903 -0.0815
 1039SOL    HW114576   2.230   1.068   5.382 -0.2734 -1.1772  1.1638
 1039SOL    HW214577   2.172   1.194   5.385  0.9846  1.7222  1.6799
 1040SOL     OW14578   4.225   3.736   4.212 -0.5301 -0.1352  0.0502
 1040SOL    HW114579   4.289   3.774   4.272 -1.2814 -2.7002  2.5223
 1040SOL    HW214580   4.239   3.791   4.135  1.2379  0.0499  0.5073
 1041SOL     OW14581   3.452   2.419   0.477  0.2609 -0.4488 -0.7185
 1041SOL    HW114582   3.476   2.367   0.554 -0.1409  1.8172  0.9464
 1041SOL    HW214583   3.377   2.377   0.436 -1.4495  1.8572 -0.0067
 1042SOL     OW14584   2.227   0.795   8.682  0.1104  0.3076 -0.2945
 1042SOL    HW114585   2.218   0.709   8.641  0.0456 -0.2127  0.8155
 1042SOL    HW214586   2.160   0.843   8.633 -1.0543 -0.1059  0.9059
 1043SOL     OW14587   0.374   1.632  10.416 -0.6730  0.1969  0.3264
 1043SOL    HW114588   0.314   1.683  10.361 -1.1203 -0.1161  0.5293
 1043SOL    HW214589   0.384   1.688  10.493 -1.4890  1.7772 -0.6942
 1044SOL     OW14590   0.417   1.779   7.161  0.7370 -0.4464  0.1847
 1044SOL    HW114591   0.478   1.807   7.092  1.0363  0.7550  0.9332
 1044SOL    HW214592   0.361   1.856   7.170 -0.1022 -1.0654  0.2195
 1045SOL     OW14593   2.740   3.960   1.940 -0.0331 -0.0063 -0.2017
 1045SOL    HW114594   2.819   3.909   1.923  0.1844 -0.1354  1.1661
 1045SOL    HW214595   2.703   3.902   2.007 -1.9807  1.2760 -0.1596
 1046SOL     OW14596   2.583   0.408   6.062  0.2078 -0.0403  0.0482
 1046SOL    HW114597   2.652   0.355   6.102  0.0472 -0.4754 -0.2528
 1046SOL    HW214598   2.643   0.465   6.014  1.0437 -1.6727 -0.8503
 1047SOL     OW14599   3.606   2.830   9.301 -0.0944  0.3270 -0.2821
 1047SOL    HW114600   3.513   2.838   9.321 -0.6117 -0.6480 -2.3070
 1047SOL    HW214601   3.648   2.905   9.343 -0.5172  0.2631  0.2451
 1048SOL     OW14602   3.704   0.934   6.088 -0.0973  0.6055 -0.2516
 1048SOL    HW114603   3.773   0.877   6.053  1.1009  0.5077  2.2553
 1048SOL    HW214604   3.696   0.880   6.167 -1.3009 -0.6487 -1.2374
 1049SOL     OW14605   1.940   3.661   6.746  0.0760  0.0178  0.1132
 1049SOL    HW114606   1.990   3.710   6.812  0.7071 -0.7461  0.1918
 1049SOL    HW214607   1.951   3.575   6.785  1.7465 -0.1515 -0.7190
 1050SOL     OW14608   0.643   2.853   5.354 -0.2222 -0.5703  0.1763
 1050SOL    HW114609   0.664   2.945   5.336 -2.3605 -0.1266 -0.1120
 1050SOL    HW214610   0.547   2.857   5.349 -0.2410 -0.5602  0.5396
 1051SOL     OW14611   4.037   2.923   0.825  0.4145 -0.3061  0.0944
 1051SOL    HW114612   4.113   2.945   0.771  0.6879 -1.0101  0.1961
 1051SOL    HW214613   3.987   3.004   0.815  0.3229 -0.2355  1.0979
 1052SOL     OW14614   1.993   1.422   8.052  0.1672 -0.2542 -0.1183
 1052SOL    HW114615   2.073   1.400   8.006  0.1207  2.8301 -1.6678
 1052SOL    HW214616   1.939   1.444   7.975 -0.2717 -1.9514 -0.2957
 1053SOL     OW14617   2.655   1.636  10.523 -0.9611  0.1432  0.5289
 1053SOL    HW114618   2.659   1.731  10.531  3.6206 -0.0260  0.2084
 1053SOL    HW214619   2.587   1.628  10.456  0.8483 -0.9542 -1.1638
 1054SOL     OW14620   0.399   1.764   2.727  0.2266  0.0420  0.1563
 1054SOL    HW114621   0.346   1.750   2.805  2.7837 -0.4287  1.8271
 1054SOL    HW214622   0.325   1.778   2.669  0.3539  1.5431  0.3593
 1055SOL     OW14623   1.765   3.132  17.373 -0.2152  0.2294  0.0485
 1055SOL    HW114624   1.674   3.162  17.381 -0.4509 -0.2580 -0.8157
 1055SOL    HW214625   1.782   3.168  17.286 -0.3098  1.0318  0.3574
 1056SOL     OW14626   3.872   2.225   6.977  0.2814 -0.5771 -0.4927
 1056SOL    HW114627   3.921   2.284   7.034  0.2978 -1.3398  0.2955
 1056SOL    HW214628   3.791   2.210   7.026  0.9808 -0.5042  0.6795
 1057SOL     OW14629   1.579   3.327   9.875 -0.0952 -0.3759  0.6354
 1057SOL    HW114630   1.540   3.274   9.945 -0.6814  1.8652  2.0284
 1057SOL    HW214631   1.508   3.356   9.818 -2.1041 -0.9606  2.8056
 1058SOL     OW14632   1.724   4.215   2.874  0.0156  0.1433 -0.3275
 1058SOL    HW114633   1.775   4.295   2.885 -0.7594  0.2545  2.5454
 1058SOL    HW214634   1.643   4.264   2.858  1.2196  2.5279  0.9354
 1059SOL     OW14635   0.046   1.229   8.359  0.1146  0.5585 -0.8184
 1059SOL    HW114636   4.709   1.277   8.414 -0.9751  1.3645 -2.7580
 1059SOL    HW214637   0.083   1.305   8.313 -0.8895  0.7518 -1.2944
 1060SOL     OW14638   3.699   4.403   4.425  0.0234 -0.7011  0.1407
 1060SOL    HW114639   3.645   4.345   4.371  0.1226  0.0987 -0.8129
 1060SOL    HW214640   3.787   4.383   4.393  0.7945  3.0485 -0.0518
 1061SOL     OW14641   2.835   2.861   0.226  0.1160 -0.0765  0.0736
 1061SOL    HW114642   2.872   2.806   0.295 -1.4880 -0.6208  0.4932
 1061SOL    HW214643   2.781   2.802   0.173 -2.0480  2.2430 -0.2902
 1062SOL     OW14644   3.606   0.517   9.052  0.3708 -0.2322  0.1132
 1062SOL    HW114645   3.569   0.455   9.114 -1.3489 -1.7147 -2.3679
 1062SOL    HW214646   3.607   0.599   9.102 -0.6316  0.7986 -1.5558
 1063SOL     OW14647   0.484   4.026   3.636  0.2075 -1.0361  0.7604
 1063SOL    HW114648   0.515   4.099   3.581 -0.3899 -1.4317 -0.1003
 1063SOL    HW214649   0.562   3.971   3.640  0.0564 -1.3007  0.0055
 1064SOL     OW14650   0.206   1.395   2.374 -0.3360 -0.1543 -0.3356
 1064SOL    HW114651   0.290   1.350   2.367 -0.9932 -1.8602  2.6720
 1064SOL    HW214652   0.211   1.430   2.285 -0.2537 -0.8767 -0.6098
 1065SOL     OW14653   0.272   3.104   3.133  0.2062 -0.0387  0.3769
 1065SOL    HW114654   0.212   3.177   3.148  0.3081  0.0204  0.4986
 1065SOL    HW214655   0.307   3.127   3.047  0.9439 -1.1225  0.3892
 1066SOL     OW14656   0.673   2.599   7.410  0.0987  0.1962  0.8085
 1066SOL    HW114657   0.582   2.622   7.428  0.0088  1.6646 -1.5731
 1066SOL    HW214658   0.667   2.512   7.450  0.6346 -0.0653  0.3126
 1067SOL     OW14659   2.209   1.134   7.893  0.0754 -0.3121 -0.0984
 1067SOL    HW114660   2.244   1.221   7.878  1.4573 -0.7090  0.7749
 1067SOL    HW214661   2.257   1.084   7.828  0.2358 -2.2459  1.4914
 1068SOL     OW14662   0.404   2.803   8.425 -0.3385  0.1644  0.6743
 1068SOL    HW114663   0.323   2.768   8.388 -2.0037  2.1206  2.4854
 1068SOL    HW214664   0.467   2.732   8.411  0.5238  1.1963 -0.6992
 1069SOL     OW14665   3.599   4.451   4.180 -0.4004  0.2253  0.0745
 1069SOL    HW114666   3.650   4.491   4.251  1.1165 -0.4922 -0.6128
 1069SOL    HW214667   3.521   4.505   4.192  0.6196  1.6153  0.4173
 1070SOL     OW14668   0.434   4.027   0.084  0.0792  0.0186 -0.0376
 1070SOL    HW114669   0.358   4.083   0.068 -0.3113  0.0551  1.9121
 1070SOL    HW214670   0.409   3.959   0.021  1.6036 -0.0261 -0.5774
 1071SOL     OW14671   2.303   3.261  12.744 -0.1090 -0.1627 -0.1742
 1071SOL    HW114672   2.331   3.312  12.668  0.7135 -1.3223 -0.6418
 1071SOL    HW214673   2.214   3.246  12.713  0.2826  1.3198 -2.0039
 1072SOL     OW14674   2.696   3.273   4.434  0.7281  0.0216 -0.2761
 1072SOL    HW114675   2.664   3.351   4.389 -1.2290 -0.4573  0.3214
 1072SOL    HW214676   2.738   3.215   4.371 -1.9507  0.3205 -2.3388
 1073SOL     OW14677   2.824   2.208   9.497  0.1153 -0.5108  0.5059
 1073SOL    HW114678   2.740   2.196   9.542  0.5576 -0.6066  1.2912
 1073SOL    HW214679   2.884   2.175   9.563  2.0027 -0.9094 -1.4211
 1074SOL     OW14680   2.983   1.347   2.200 -0.6650 -0.1462  0.5052
 1074SOL    HW114681   3.015   1.416   2.259 -1.7300 -0.7267  1.7785
 1074SOL    HW214682   3.033   1.362   2.120  0.3538  2.0532  1.5631
 1075SOL     OW14683   3.922   2.093   2.300  0.3683 -0.0746 -0.1577
 1075SOL    HW114684   3.998   2.085   2.357 -0.2633 -2.1093  0.4254
 1075SOL    HW214685   3.924   2.013   2.248 -0.4460 -0.4121  0.3178
 1076SOL     OW14686   3.360   4.491   6.764 -0.2969  0.3666 -0.2555
 1076SOL    HW114687   3.455   4.500   6.772 -0.3197  0.4772 -0.0930
 1076SOL    HW214688   3.356   4.411   6.712 -1.8726  0.0648  0.3094
 1077SOL     OW14689   3.233   4.157  13.503  0.3715 -1.0277  0.2049
 1077SOL    HW114690   3.148   4.129  13.467 -0.4429  0.1206  1.2337
 1077SOL    HW214691   3.205   4.178  13.592  0.5658  0.9807 -0.2143
 1078SOL     OW14692   2.830   2.207   1.303  0.1946  0.4141 -0.5149
 1078SOL    HW114693   2.851   2.125   1.349 -0.7571  0.5072  0.0902
 1078SOL    HW214694   2.737   2.217   1.325  0.0056 -0.7464 -0.7739
 1079SOL     OW14695   4.599   0.160   6.315 -0.1202  0.0836  0.3355
 1079SOL    HW114696   4.549   0.153   6.234  0.9705 -1.0597 -0.2330
 1079SOL    HW214697   4.678   0.107   6.304 -0.4044 -0.0877 -0.8613
 1080SOL     OW14698   1.283   0.597   1.441 -1.0179 -0.0945 -0.1374
 1080SOL    HW114699   1.274   0.512   1.484  0.8890 -1.2843 -2.0582
 1080SOL    HW214700   1.240   0.653   1.506  2.1002  2.6287 -0.3935
 1081SOL     OW14701   0.024   1.640   4.251 -0.6004 -0.1944 -0.1114
 1081SOL    HW114702   0.072   1.568   4.292 -0.2218  1.1006  1.7242
 1081SOL    HW214703   4.668   1.594   4.231  0.0218 -1.6678  0.7521
 1082SOL     OW14704   3.367   2.180   5.515 -0.6870  0.0748 -0.4391
 1082SOL    HW114705   3.398   2.156   5.602 -1.9800 -0.0282 -0.0146
 1082SOL    HW214706   3.327   2.098   5.487 -0.5529  0.0356 -0.5166
 1083SOL     OW14707   2.696   4.426   6.849  0.0672  0.4200 -0.0393
 1083SOL    HW114708   2.672   4.429   6.757  1.5130 -1.5715 -0.4922
 1083SOL    HW214709   2.640   4.351   6.868  0.1563  0.8362  1.9345
 1084SOL     OW14710   3.788   2.016   3.693 -0.0866  0.3191  0.0195
 1084SOL    HW114711   3.863   2.070   3.668  1.3220 -3.3089 -3.4240
 1084SOL    HW214712   3.717   2.070   3.659 -0.0395  0.5340  0.2571
 1085SOL     OW14713   2.466   1.250   7.285 -0.4191  0.3003  0.0612
 1085SOL    HW114714   2.406   1.325   7.286 -0.1267  0.5312  0.4829
 1085SOL    HW214715   2.429   1.193   7.218 -1.5753  0.1229  0.8601
 1086SOL     OW14716   0.850   0.026  13.740  0.0445  0.0036 -0.0390
 1086SOL    HW114717   0.936   0.065  13.728  0.4032 -1.2996 -1.7537
 1086SOL    HW214718   0.792   0.089  13.697 -0.8365  1.0590  2.7144
 1087SOL     OW14719   1.507   3.232  17.254 -0.0637 -0.3312  0.1199
 1087SOL    HW114720   1.555   3.188  17.183  0.9830 -1.5351  1.5709
 1087SOL    HW214721   1.537   3.322  17.253  0.6419 -0.5497  1.6938
 1088SOL     OW14722   0.657   0.658   0.573  0.1288 -0.1197  0.5542
 1088SOL    HW114723   0.707   0.740   0.564 -1.9787  1.0248 -0.8364
 1088SOL    HW214724   0.722   0.599   0.534 -1.2395 -0.6570 -0.8860
 1089SOL     OW14725   2.394   0.956   2.846  0.2847 -0.3153 -0.5006
 1089SOL    HW114726   2.346   0.944   2.928  0.9943  0.5231  0.0391
 1089SOL    HW214727   2.482   0.968   2.881  0.0245 -0.6887  0.2782
 1090SOL     OW14728   0.948   4.463   0.044 -0.1402  0.1784  0.4310
 1090SOL    HW114729   0.884   4.407   0.088  0.5567 -0.6238  0.4252
 1090SOL    HW214730   0.926   4.543   0.092  2.4962  0.6257  0.9294
 1091SOL     OW14731   4.548   1.126   6.942 -0.3623 -0.2510 -0.2126
 1091SOL    HW114732   4.567   1.218   6.928 -0.2261 -0.0327  1.3734
 1091SOL    HW214733   4.452   1.125   6.937 -0.4839  1.5872  2.1300
 1092SOL     OW14734   2.307   1.994  11.272  0.5116  0.3086  0.5450
 1092SOL    HW114735   2.313   2.070  11.213 -0.3081 -0.7993 -0.9930
 1092SOL    HW214736   2.370   1.939  11.225 -1.9112  0.6192 -3.0764
 1093SOL     OW14737   4.032   3.810   8.235  0.0746 -0.7515 -0.2560
 1093SOL    HW114738   3.949   3.848   8.261 -0.1115  0.0137 -1.9976
 1093SOL    HW214739   4.092   3.862   8.289 -1.2755 -1.5567  1.9863
 1094SOL     OW14740   0.143   0.303  15.395 -0.3059  0.3644  0.1484
 1094SOL    HW114741   0.113   0.278  15.307  1.1632 -0.7941 -0.0066
 1094SOL    HW214742   0.223   0.353  15.378 -0.2063  0.6596  1.4810
 1095SOL     OW14743   0.796   2.200   3.479 -0.5147 -0.1091 -0.1065
 1095SOL    HW114744   0.803   2.150   3.397 -2.2969  1.7445 -1.3737
 1095SOL    HW214745   0.877   2.176   3.525 -0.7284 -0.8747 -0.1246
 1096SOL     OW14746   2.487   1.781   5.250  0.7193 -0.3123 -0.5099
 1096SOL    HW114747   2.526   1.840   5.314 -1.5630  0.1760  0.4400
 1096SOL    HW214748   2.398   1.818   5.252  0.6996 -0.2942 -1.5177
 1097SOL     OW14749   4.595   0.973   4.231  0.2662 -0.1528  0.4302
 1097SOL    HW114750   4.543   0.906   4.188  0.5860  0.0871 -0.3232
 1097SOL    HW214751   4.536   1.049   4.231 -0.3224 -0.6061 -0.8983
 1098SOL     OW14752   4.346   4.675   5.685 -0.2684  0.0849 -0.1520
 1098SOL    HW114753   4.426   4.650   5.639 -2.0645 -0.4104 -2.9878
 1098SOL    HW214754   4.327   4.595   5.733  3.5899  0.6050  2.2907
 1099SOL     OW14755   3.545   0.323   5.367  0.1221  0.1271 -0.1312
 1099SOL    HW114756   3.583   0.400   5.409 -0.7712  0.6651 -0.2871
 1099SOL    HW214757   3.611   0.292   5.305 -0.6216  0.3764 -1.0545
 1100SOL     OW14758   1.042   3.426   2.051 -1.0974 -0.1310 -0.1425
 1100SOL    HW114759   0.998   3.382   2.123 -1.0635 -0.5695 -0.3955
 1100SOL    HW214760   1.054   3.346   2.001  0.6233 -0.5384  0.9065
 1101SOL     OW14761   2.065   4.036   9.094 -0.6893  0.0716  0.3316
 1101SOL    HW114762   2.051   4.115   9.147 -1.5346  1.0070 -1.2832
 1101SOL    HW214763   1.987   3.993   9.127 -2.7814  3.6463  0.0542
 1102SOL     OW14764   1.343   1.419   4.302 -0.1508 -0.0049 -0.4384
 1102SOL    HW114765   1.364   1.369   4.381 -1.1754 -1.2781 -0.9662
 1102SOL    HW214766   1.408   1.389   4.238 -0.3533 -2.2992  0.4077
 1103SOL     OW14767   3.739   2.436   2.637  0.2122  0.4073 -0.2461
 1103SOL    HW114768   3.738   2.388   2.554 -2.2147  0.3243 -0.1694
 1103SOL    HW214769   3.789   2.365   2.678  0.7272  1.1461  0.3942
 1104SOL     OW14770   3.514   1.880   7.185  0.4727 -0.1060  0.2218
 1104SOL    HW114771   3.440   1.820   7.178  0.5347 -0.2442  0.7864
 1104SOL    HW214772   3.505   1.922   7.099 -0.3603 -0.7023  0.0240
 1105SOL     OW14773   2.642   2.937   4.849 -0.1692 -0.3191 -0.7269
 1105SOL    HW114774   2.715   2.964   4.904  1.1528 -1.5399 -1.8757
 1105SOL    HW214775   2.680   2.951   4.762  1.5789 -2.5766 -0.3337
 1106SOL     OW14776   1.794   2.692   9.440 -0.1696 -0.5262  0.5112
 1106SOL    HW114777   1.796   2.600   9.466  0.5904 -0.3724  0.9845
 1106SOL    HW214778   1.701   2.710   9.427  0.2491 -0.4443 -2.4445
 1107SOL     OW14779   0.227   3.266   6.838  0.4644  0.9509 -0.0851
 1107SOL    HW114780   0.246   3.215   6.759 -1.3235  1.0276 -0.5616
 1107SOL    HW214781   0.166   3.326   6.795  0.2945  0.8898  0.0742
 1108SOL     OW14782   0.972   1.421   8.803 -0.0879  0.5697  0.4597
 1108SOL    HW114783   0.930   1.423   8.717 -0.6027 -0.2808  0.6941
 1108SOL    HW214784   1.048   1.369   8.774 -0.7023  0.2713 -0.6336
 1109SOL     OW14785   1.992   4.204   4.106 -0.5795 -0.3782  0.4494
 1109SOL    HW114786   1.938   4.192   4.028 -1.2801 -1.9035  1.1790
 1109SOL    HW214787   2.049   4.272   4.071 -0.7851 -1.0653 -1.1919
 1110SOL     OW14788   3.017   1.347  10.768  0.0491 -0.2570 -0.2444
 1110SOL    HW114789   3.052   1.432  10.743  2.9383 -1.2147  0.5792
 1110SOL    HW214790   3.089   1.284  10.760  0.0610 -0.2241 -0.3838
 1111SOL     OW14791   2.846   3.923   2.641  0.0428  0.1604  0.3253
 1111SOL    HW114792   2.812   4.003   2.601  1.4704  0.2652 -0.6664
 1111SOL    HW214793   2.858   3.858   2.572  0.1638 -0.5196  0.9806
 1112SOL     OW14794   4.590   0.751   9.107  0.6830 -0.8432  0.0585
 1112SOL    HW114795   4.504   0.711   9.122 -0.3952  1.8032  0.8600
 1112SOL    HW214796   4.639   0.714   9.181  2.2708  1.3820  0.1278
 1113SOL     OW14797   0.123   1.915   1.753 -0.0123  0.7052  0.2462
 1113SOL    HW114798   0.191   1.866   1.705 -0.0165  0.9540 -0.0146
 1113SOL    HW214799   0.109   1.871   1.837 -0.8149  0.2027 -0.1517
 1114SOL     OW14800   3.605   3.682   3.031  0.2124  0.4421  0.4723
 1114SOL    HW114801   3.627   3.671   2.938 -0.5682 -0.5086  0.3964
 1114SOL    HW214802   3.509   3.678   3.024  0.2562 -2.0510  1.1129
 1115SOL     OW14803   2.574   2.554   5.473  0.0696  0.0527 -0.3633
 1115SOL    HW114804   2.609   2.484   5.528 -1.0104  0.7103  1.1620
 1115SOL    HW214805   2.614   2.522   5.392  1.0849  0.0669  0.1298
 1116SOL     OW14806   1.914   4.122  12.314 -0.0702  0.4958 -0.1769
 1116SOL    HW114807   2.003   4.137  12.281  0.0295 -0.5785 -0.4148
 1116SOL    HW214808   1.918   4.031  12.344  0.3220  0.8688  0.8799
 1117SOL     OW14809   3.848   3.417   1.987 -0.0876 -0.0967  0.3627
 1117SOL    HW114810   3.810   3.426   2.074 -0.4216 -1.2062  0.3270
 1117SOL    HW214811   3.878   3.507   1.972 -0.5227  0.1431  0.9489
 1118SOL     OW14812   1.976   3.856   5.189 -0.6259  0.2047  0.4826
 1118SOL    HW114813   2.027   3.805   5.125  1.5473  1.0366  1.5559
 1118SOL    HW214814   1.896   3.802   5.187  0.0495 -0.8187  0.8988
 1119SOL     OW14815   1.479   0.269   7.726  0.2653  0.1439 -0.1125
 1119SOL    HW114816   1.422   0.344   7.716 -0.6569 -0.6665 -0.9354
 1119SOL    HW214817   1.535   0.279   7.649  0.3704  2.0170  0.2104
 1120SOL     OW14818   1.596   3.527  13.257 -0.1087  0.2397 -0.3568
 1120SOL    HW114819   1.663   3.549  13.192  0.8694  2.1532  1.2906
 1120SOL    HW214820   1.623   3.441  13.288  0.8675  0.3696 -0.8580
 1121SOL     OW14821   3.286   3.955  11.745 -0.0464 -0.3423  0.6216
 1121SOL    HW114822   3.205   4.002  11.724  0.4898  1.3237  2.2173
 1121SOL    HW214823   3.257   3.915  11.827 -2.2873 -1.1193 -0.5450
 1122SOL     OW14824   1.846   4.461   8.631  0.0550 -0.8340 -0.2408
 1122SOL    HW114825   1.831   4.368   8.612  2.6557 -1.1860 -0.4583
 1122SOL    HW214826   1.787   4.511   8.575  0.7639  0.6644  0.3744
 1123SOL     OW14827   3.755   4.491   2.584 -0.4084  0.4583 -0.8139
 1123SOL    HW114828   3.798   4.448   2.510 -0.8190  0.3924 -1.0137
 1123SOL    HW214829   3.770   4.576   2.543 -0.3085  0.5576 -0.5680
 1124SOL     OW14830   3.517   0.666   3.818  0.0591  0.4528 -0.1304
 1124SOL    HW114831   3.506   0.751   3.775 -2.2175 -0.8802 -2.1762
 1124SOL    HW214832   3.535   0.698   3.907 -1.3399 -0.3730  0.4547
 1125SOL     OW14833   0.553   2.210   9.745  0.4435  0.5764  0.4312
 1125SOL    HW114834   0.578   2.192   9.654  0.0894  0.8469  0.2786
 1125SOL    HW214835   0.458   2.220   9.733 -0.3273 -3.0497  3.6989
 1126SOL     OW14836   2.686   0.953  14.269 -0.7295  0.0762 -0.4614
 1126SOL    HW114837   2.666   1.045  14.257 -0.2135  0.0236 -1.6688
 1126SOL    HW214838   2.743   0.924  14.198 -0.7868 -1.7097  0.2089
 1127SOL     OW14839   1.737   0.206   6.734 -0.1735  0.5370  0.0938
 1127SOL    HW114840   1.755   0.112   6.723  0.6683  0.3677  2.8620
 1127SOL    HW214841   1.825   0.238   6.713 -0.1557 -0.4088 -1.2895
 1128SOL     OW14842   4.106   3.424   9.060 -0.3632 -0.1821  0.0073
 1128SOL    HW114843   4.113   3.349   9.001 -0.8637  0.7061 -1.1845
 1128SOL    HW214844   4.177   3.399   9.119  0.1093 -1.1755 -0.9752
 1129SOL     OW14845   2.451   0.798   5.428  0.8282 -0.1662 -0.0929
 1129SOL    HW114846   2.378   0.759   5.476  1.4790  0.0287  1.0509
 1129SOL    HW214847   2.518   0.801   5.496 -0.7599  1.8835  1.3776
 1130SOL     OW14848   3.533   0.436   4.166  0.0806 -0.2052 -0.1651
 1130SOL    HW114849   3.542   0.519   4.118  0.6296  0.5720  1.2968
 1130SOL    HW214850   3.442   0.434   4.197  0.4314 -0.8605  0.8160
 1131SOL     OW14851   0.832   1.898   3.913  0.2722  0.1716  0.3341
 1131SOL    HW114852   0.916   1.936   3.937  0.3362  0.3753 -0.2110
 1131SOL    HW214853   0.859   1.820   3.865  0.0181  0.3999 -0.1862
 1132SOL     OW14854   2.995   0.613   4.935 -0.0332  0.0226 -0.4502
 1132SOL    HW114855   2.922   0.672   4.917  0.0514  0.2428 -0.0804
 1132SOL    HW214856   3.012   0.630   5.028  2.4364  0.6078 -1.0094
 1133SOL     OW14857   2.198   4.386  12.006 -0.3020  0.0159 -0.4938
 1133SOL    HW114858   2.248   4.426  11.935 -1.4520  1.4342 -0.4917
 1133SOL    HW214859   2.270   4.336  12.045  1.0526  0.4130 -2.5287
 1134SOL     OW14860   2.510   3.993   5.335  1.0852  0.0975  0.8299
 1134SOL    HW114861   2.432   4.044   5.315  0.9309  0.5830  2.6644
 1134SOL    HW214862   2.491   3.971   5.426 -0.5044  2.1436  0.9870
 1135SOL     OW14863   0.962   1.176   5.843  0.0583  0.2647 -0.2143
 1135SOL    HW114864   1.007   1.100   5.880  2.3204  1.1070 -1.2192
 1135SOL    HW214865   1.037   1.233   5.830  0.7386 -1.0631 -2.1021
 1136SOL     OW14866   1.938   1.817  16.906 -0.0014  0.6668 -0.6520
 1136SOL    HW114867   1.865   1.826  16.967 -0.4282 -0.0107 -1.0606
 1136SOL    HW214868   1.902   1.744  16.856 -0.0232 -0.2522  0.7039
 1137SOL     OW14869   3.833   0.718   3.433  0.3681  0.0128  0.8043
 1137SOL    HW114870   3.773   0.752   3.367  0.8937 -0.5263  0.0504
 1137SOL    HW214871   3.784   0.637   3.450  0.1784 -0.0183  0.1125
 1138SOL     OW14872   1.374   4.372  16.739  0.9935  0.1885 -0.0586
 1138SOL    HW114873   1.381   4.413  16.825 -1.6443  2.5127 -0.9430
 1138SOL    HW214874   1.291   4.326  16.750 -1.2655  4.0558 -0.9606
 1139SOL     OW14875   2.790   2.393   3.495  0.1355 -0.0043 -0.4920
 1139SOL    HW114876   2.700   2.424   3.500  0.9124  2.0646  0.4767
 1139SOL    HW214877   2.776   2.317   3.438 -2.2454 -0.1238  0.2351
 1140SOL     OW14878   4.098   3.399   0.694 -0.7879  0.1953  0.2737
 1140SOL    HW114879   4.148   3.370   0.770 -0.6971 -0.8001 -0.1764
 1140SOL    HW214880   4.154   3.382   0.618 -0.2448  2.6055  0.1282
 1141SOL     OW14881   4.435   4.589  10.457  0.1245  0.1134  0.0748
 1141SOL    HW114882   4.462   4.498  10.455  0.2886  0.1491  0.6638
 1141SOL    HW214883   4.367   4.598  10.390  0.1827 -0.9329 -0.1189
 1142SOL     OW14884   0.788   2.461   6.013  0.5429  0.0776 -0.3710
 1142SOL    HW114885   0.833   2.476   5.930  1.3580 -1.1901 -0.1636
 1142SOL    HW214886   0.697   2.449   5.983 -0.0588 -1.4038  2.0315
 1143SOL     OW14887   4.110   4.210  10.408 -0.2587  0.6362 -0.2559
 1143SOL    HW114888   4.023   4.250  10.408 -1.4965 -2.0910 -0.8136
 1143SOL    HW214889   4.147   4.249  10.487 -1.2828 -1.7981  1.4314
 1144SOL     OW14890   1.984   3.465   7.375 -0.0850  0.5423 -0.1774
 1144SOL    HW114891   1.960   3.461   7.282  1.0730 -3.7092 -0.3345
 1144SOL    HW214892   1.898   3.466   7.415  0.2327  1.8430  0.4607
 1145SOL     OW14893   2.982   0.895   6.979  0.6237  0.5150 -0.4834
 1145SOL    HW114894   2.985   0.801   6.996 -2.7680  0.4790 -0.1582
 1145SOL    HW214895   2.895   0.895   6.940 -0.2296 -0.8044  1.4322
 1146SOL     OW14896   3.909   2.547  10.129  0.1696 -0.0778 -0.4050
 1146SOL    HW114897   3.912   2.633  10.086  1.0124 -0.1231 -0.4254
 1146SOL    HW214898   3.999   2.540  10.160 -0.3045 -1.2406  0.6838
 1147SOL     OW14899   3.649   4.171   4.627  0.2196 -0.7012 -0.0688
 1147SOL    HW114900   3.590   4.151   4.554  0.1211  0.4368 -0.2885
 1147SOL    HW214901   3.730   4.189   4.580 -0.5657  0.5959 -0.9231
 1148SOL     OW14902   0.204   2.675  15.915 -0.3261 -0.2687  0.0698
 1148SOL    HW114903   0.127   2.717  15.876  0.7513  1.1441 -0.5576
 1148SOL    HW214904   0.220   2.605  15.851 -0.3448 -0.1973 -0.0125
 1149SOL     OW14905   4.635   3.329   2.255 -0.1592 -0.1320 -0.1492
 1149SOL    HW114906   4.596   3.250   2.292 -1.7882  0.3714 -0.8059
 1149SOL    HW214907   4.604   3.393   2.319  4.4410 -0.4733  2.4755
 1150SOL     OW14908   4.620   3.954   6.050  0.1136  0.1666 -0.2236
 1150SOL    HW114909   4.536   3.910   6.033  2.1121 -4.5980  2.2354
 1150SOL    HW214910   4.594   4.030   6.101 -0.4821  0.4208 -0.9066
 1151SOL     OW14911   0.189   4.489   3.200 -0.0364 -0.0707 -0.8944
 1151SOL    HW114912   0.211   4.558   3.263 -0.8808 -0.5359 -0.0960
 1151SOL    HW214913   0.261   4.491   3.138 -0.2135  2.1833 -1.0534
 1152SOL     OW14914   1.229   0.024   9.262  0.2125 -0.4084 -0.7787
 1152SOL    HW114915   1.216   0.096   9.324  1.2813 -0.5287 -0.4137
 1152SOL    HW214916   1.194   0.070   9.186 -0.7133  0.8295  0.3929
 1153SOL     OW14917   0.038   4.256  16.053 -0.0799 -0.1700 -0.6953
 1153SOL    HW114918   0.122   4.245  16.009  0.7693 -0.1572  0.9224
 1153SOL    HW214919   0.068   4.299  16.133 -1.6580  2.6722 -1.6105
 1154SOL     OW14920   2.932   0.757   4.503  0.3510 -0.0312  0.3041
 1154SOL    HW114921   2.953   0.671   4.541  2.6159  0.2063 -0.4226
 1154SOL    HW214922   2.947   0.749   4.409  0.3894  2.5343  0.1008
 1155SOL     OW14923   4.023   1.624   8.057  0.4631 -0.0014 -0.2442
 1155SOL    HW114924   4.003   1.690   7.991  0.2106 -1.0480 -1.2083
 1155SOL    HW214925   3.958   1.559   8.030 -1.2294  0.9752  1.5169
 1156SOL     OW14926   4.559   2.739   4.290  0.1156 -0.1013 -0.0130
 1156SOL    HW114927   4.492   2.778   4.347  2.1986  0.7636  1.8261
 1156SOL    HW214928   4.631   2.801   4.279 -1.5870  1.9164  0.1007
 1157SOL     OW14929   2.440   4.092  16.983  0.0108 -0.2259  0.1440
 1157SOL    HW114930   2.407   4.147  16.912 -0.1582  0.4438  0.7370
 1157SOL    HW214931   2.452   4.011  16.935  2.7170  0.6139 -0.5626
 1158SOL     OW14932   3.170   1.216   5.361  0.1381 -0.0235  0.3757
 1158SOL    HW114933   3.169   1.225   5.456  1.4556  1.8978  0.2113
 1158SOL    HW214934   3.231   1.143   5.355 -0.7369 -0.4506 -3.3048
 1159SOL     OW14935   4.186   2.719   6.726 -0.7129  0.2642 -0.1709
 1159SOL    HW114936   4.191   2.691   6.634 -0.0064  2.3376 -0.7526
 1159SOL    HW214937   4.226   2.639   6.762  0.3520  1.3054  0.9601
 1160SOL     OW14938   1.765   2.174  16.308 -0.4991  0.2664  0.3545
 1160SOL    HW114939   1.694   2.239  16.313 -0.6868  0.1535 -0.8285
 1160SOL    HW214940   1.768   2.172  16.404  1.0795  0.6285  0.3109
 1161SOL     OW14941   2.450   4.160  13.014 -0.8076  0.1370  0.2157
 1161SOL    HW114942   2.458   4.151  12.919  0.4551 -2.2913  0.5614
 1161SOL    HW214943   2.525   4.216  13.035  0.3468 -0.9932 -0.8849
 1162SOL     OW14944   2.671   0.631   3.789 -0.4596 -0.1395 -0.4451
 1162SOL    HW114945   2.643   0.679   3.868  0.3685 -0.4857  0.0569
 1162SOL    HW214946   2.616   0.674   3.723 -0.3946  2.5255  1.2280
 1163SOL     OW14947   3.877   0.055   2.831 -0.1578  0.1105 -0.3653
 1163SOL    HW114948   3.842   0.027   2.916  1.0452  1.0672  0.4483
 1163SOL    HW214949   3.920   4.698   2.813 -0.6390 -0.4564  1.0243
 1164SOL     OW14950   3.035   3.309   6.328  0.5090 -0.0092 -0.1697
 1164SOL    HW114951   3.049   3.267   6.413 -3.3679 -0.0446  0.4401
 1164SOL    HW214952   2.968   3.372   6.355  1.0505  0.4380  0.1410
 1165SOL     OW14953   4.309   3.846   5.904 -0.0849  0.0041  0.3406
 1165SOL    HW114954   4.236   3.904   5.885  1.9972  2.3191 -0.5183
 1165SOL    HW214955   4.294   3.826   5.997 -0.3265  2.6133  0.8682
 1166SOL     OW14956   0.666   1.237   7.095 -0.0269  0.1660  0.4272
 1166SOL    HW114957   0.646   1.155   7.140  2.7680 -0.2425  0.9244
 1166SOL    HW214958   0.652   1.219   7.002 -1.7324 -2.5451  1.2218
 1167SOL     OW14959   3.371   2.801   4.418  0.2672  0.4363  0.2258
 1167SOL    HW114960   3.299   2.808   4.481 -1.1725 -0.5016 -1.3251
 1167SOL    HW214961   3.335   2.846   4.343 -1.0737 -2.0293 -0.6246
 1168SOL     OW14962   2.709   4.064   8.119 -0.9677  0.0636 -0.4247
 1168SOL    HW114963   2.689   3.971   8.130 -3.2948  0.9782  3.1815
 1168SOL    HW214964   2.628   4.099   8.157 -0.3686 -0.0370  0.9208
 1169SOL     OW14965   3.208   1.385   8.909 -0.5614 -0.2308 -0.3146
 1169SOL    HW114966   3.228   1.448   8.978  0.2198 -0.8197 -0.0062
 1169SOL    HW214967   3.270   1.427   8.849  0.0364  0.3551  0.7307
 1170SOL     OW14968   2.472   0.719   7.295  0.3278  0.1423 -0.1201
 1170SOL    HW114969   2.507   0.645   7.245 -2.6583 -0.6131 -1.1006
 1170SOL    HW214970   2.543   0.724   7.359  0.4631 -3.8804  0.0855
 1171SOL     OW14971   4.353   1.934   2.299  0.1454 -0.0136 -0.3172
 1171SOL    HW114972   4.307   1.948   2.217  0.4461 -1.4986 -0.7334
 1171SOL    HW214973   4.302   1.986   2.362 -0.8769  0.9559 -1.9705
 1172SOL     OW14974   1.836   2.880   8.393 -0.4911  0.2064 -0.0539
 1172SOL    HW114975   1.778   2.831   8.335  0.4261 -1.0938  0.1447
 1172SOL    HW214976   1.923   2.876   8.354 -0.0841  3.2243  0.5369
 1173SOL     OW14977   3.666   1.677   3.713  0.2555  0.1719 -0.1844
 1173SOL    HW114978   3.609   1.612   3.672 -0.0464  0.2659  0.0856
 1173SOL    HW214979   3.717   1.625   3.775 -1.3355 -0.8245  0.2879
 1174SOL     OW14980   3.786   4.448   3.610  0.2398  0.2043  0.3673
 1174SOL    HW114981   3.748   4.519   3.558 -2.1705 -2.2690 -1.1837
 1174SOL    HW214982   3.796   4.485   3.698 -0.4214  0.3688  0.3792
 1175SOL     OW14983   3.385   4.172   9.401 -0.0172 -0.1911  0.0448
 1175SOL    HW114984   3.391   4.267   9.411 -0.2878 -0.0009 -1.6530
 1175SOL    HW214985   3.295   4.153   9.429  0.3312 -2.6610 -0.5612
 1176SOL     OW14986   4.479   2.225   8.230 -0.5216  0.4429 -0.6504
 1176SOL    HW114987   4.441   2.311   8.211 -0.1383  1.3994  2.9329
 1176SOL    HW214988   4.449   2.199   8.317  1.5139 -1.0664 -0.3911
 1177SOL     OW14989   1.354   2.368   7.605  0.0513 -0.1068  0.2425
 1177SOL    HW114990   1.322   2.277   7.602  0.5481 -0.2543 -0.5288
 1177SOL    HW214991   1.350   2.409   7.519  2.1298  1.6627  1.0097
 1178SOL     OW14992   0.948   2.802   1.037  0.5486 -0.0046 -0.2251
 1178SOL    HW114993   1.040   2.817   1.016  0.3861 -0.4334 -1.2572
 1178SOL    HW214994   0.910   2.890   1.030 -1.8735 -1.1311 -1.2168
 1179SOL     OW14995   2.555   3.079  13.670 -0.6142 -0.1173 -0.3673
 1179SOL    HW114996   2.642   3.107  13.699 -0.8765 -0.8977  1.1952
 1179SOL    HW214997   2.531   3.025  13.745 -0.4163 -0.2704 -0.4111
 1180SOL     OW14998   3.373   4.305   9.931  0.1888 -0.4992  0.0830
 1180SOL    HW114999   3.407   4.221   9.901  1.9414  0.5977 -0.9377
 1180SOL    HW215000   3.326   4.331   9.852  0.7461 -0.5138 -0.2466
 1181SOL     OW15001   1.235   2.766   7.477 -0.3380 -0.2977 -0.1156
 1181SOL    HW115002   1.206   2.842   7.527  1.2630  0.7054 -0.7197
 1181SOL    HW215003   1.157   2.755   7.422 -0.5409 -1.8897  0.5008
 1182SOL     OW15004   1.397   0.168   2.301  0.3292  0.0839  0.4512
 1182SOL    HW115005   1.422   0.134   2.386  0.2255  2.0578  1.2849
 1182SOL    HW215006   1.468   0.139   2.244  0.9637  0.7216  0.9285
 1183SOL     OW15007   0.276   3.863   4.349 -0.0824 -0.0094  0.2495
 1183SOL    HW115008   0.256   3.899   4.435  0.7999 -1.3463  1.0111
 1183SOL    HW215009   0.192   3.868   4.305  0.6628  1.2085 -1.0525
 1184SOL     OW15010   0.087   3.029   3.363 -0.5422 -0.1833  0.5157
 1184SOL    HW115011   0.152   3.093   3.390  1.5208 -1.4113 -1.5067
 1184SOL    HW215012   0.116   2.958   3.420  1.3161 -0.4990 -0.7936
 1185SOL     OW15013   2.314   4.652   5.741  0.1594  0.1563 -1.2429
 1185SOL    HW115014   2.353   4.718   5.683 -0.2526  2.6296  1.3066
 1185SOL    HW215015   2.340   4.691   5.824  0.6947 -0.4365 -1.1311
 1186SOL     OW15016   4.226   0.518   8.520 -0.0179 -0.0209 -0.3334
 1186SOL    HW115017   4.266   0.436   8.489 -0.8660 -0.8700  0.7935
 1186SOL    HW215018   4.133   0.496   8.514  0.3784 -1.2430 -2.2177
 1187SOL     OW15019   0.523   1.101   6.377 -0.3721 -0.3533  0.4601
 1187SOL    HW115020   0.511   1.024   6.322 -2.5963  0.3442 -0.0214
 1187SOL    HW215021   0.616   1.088   6.398  0.4778  2.7114 -1.4022
 1188SOL     OW15022   3.035   0.472   8.341 -0.1409  0.3030  0.1706
 1188SOL    HW115023   2.999   0.560   8.333 -0.4743  0.3724  2.3051
 1188SOL    HW215024   3.122   0.501   8.369 -1.2908  3.2325  0.7382
 1189SOL     OW15025   3.869   4.651   7.531 -0.2090 -0.8410 -0.0768
 1189SOL    HW115026   3.817   0.000   7.560 -0.4043 -1.0946  0.2229
 1189SOL    HW215027   3.944   4.700   7.496  0.3193 -0.1586  1.9561
 1190SOL     OW15028   1.681   1.047   6.241 -0.4941 -0.3062  0.1367
 1190SOL    HW115029   1.642   0.970   6.201 -2.3967 -0.1160  1.6244
 1190SOL    HW215030   1.722   1.087   6.164 -0.2308 -1.9701 -0.5722
 1191SOL     OW15031   3.471   2.272   9.889 -0.2480 -0.9590  0.1234
 1191SOL    HW115032   3.426   2.314   9.816 -1.6789  2.4346  2.9669
 1191SOL    HW215033   3.557   2.305   9.863 -0.7515 -0.9468 -1.4980
 1192SOL     OW15034   2.176   0.887   2.356 -0.1684  0.8536  0.2095
 1192SOL    HW115035   2.096   0.836   2.344  0.9842 -1.2517  1.3976
 1192SOL    HW215036   2.161   0.908   2.448 -2.2735 -0.4336  0.1611
 1193SOL     OW15037   1.360   1.846   3.341  0.1350  0.9128  0.1580
 1193SOL    HW115038   1.422   1.855   3.269 -0.5248  2.8657 -0.1407
 1193SOL    HW215039   1.310   1.771   3.310 -1.0808  0.9643  1.9609
 1194SOL     OW15040   1.065   3.525   3.250  0.2818  0.0220 -0.2089
 1194SOL    HW115041   1.092   3.612   3.219  0.1930  0.0065 -0.3305
 1194SOL    HW215042   0.971   3.528   3.231  0.1442 -0.3820  0.4257
 1195SOL     OW15043   3.281   3.157   6.271  0.1353  0.4079  0.0529
 1195SOL    HW115044   3.339   3.233   6.264 -2.1286  2.3335  1.9965
 1195SOL    HW215045   3.197   3.198   6.293 -0.1137  0.5072 -1.1039
 1196SOL     OW15046   2.686   1.173   9.664 -0.6251  0.1577 -0.8010
 1196SOL    HW115047   2.709   1.179   9.756 -0.6943 -1.8674 -0.6546
 1196SOL    HW215048   2.697   1.264   9.637  1.1726  0.1251 -0.1854
 1197SOL     OW15049   1.835   2.369   8.439 -0.6706  0.5597 -0.2095
 1197SOL    HW115050   1.801   2.299   8.494 -1.7082  0.8418 -0.4996
 1197SOL    HW215051   1.754   2.409   8.408 -2.8666 -2.0177  2.1369
 1198SOL     OW15052   4.434   3.837  10.509  0.5537 -0.6969 -0.1473
 1198SOL    HW115053   4.440   3.766  10.444  0.5377 -2.1037  1.3933
 1198SOL    HW215054   4.384   3.777  10.564 -3.6429  2.1190 -0.9236
 1199SOL     OW15055   0.948   0.505   7.451  0.4595  0.4304  0.1581
 1199SOL    HW115056   0.938   0.422   7.403 -1.1704  0.1852  0.9361
 1199SOL    HW215057   1.044   0.512   7.443  0.4403 -0.9539 -1.3077
 1200SOL     OW15058   4.129   2.044   2.466  0.1959 -0.3986  0.6897
 1200SOL    HW115059   4.172   2.078   2.544  0.3103  1.2570 -0.0826
 1200SOL    HW215060   4.102   1.956   2.491  0.9365 -1.2722 -1.5609
 1201SOL     OW15061   3.727   0.195   9.047  0.0664  0.1717  0.1400
 1201SOL    HW115062   3.727   0.111   9.002  2.2289  0.5492 -0.5631
 1201SOL    HW215063   3.644   0.234   9.018  0.2178  0.2888 -0.1375
 1202SOL     OW15064   3.925   0.835  14.268 -0.6287  0.2030  0.1224
 1202SOL    HW115065   3.984   0.910  14.266  0.1605 -0.4295 -0.5624
 1202SOL    HW215066   3.962   0.783  14.338  1.3037 -0.2278 -1.2167
 1203SOL     OW15067   0.630   3.940   0.851 -0.3428  0.1237 -0.1451
 1203SOL    HW115068   0.673   3.898   0.926 -1.1524  0.2808  0.4102
 1203SOL    HW215069   0.678   4.022   0.844 -0.5546  0.2789  0.1940
 1204SOL     OW15070   4.089   1.165   8.693  0.3720 -0.0024 -0.1747
 1204SOL    HW115071   4.022   1.211   8.743  0.5187 -0.7503  0.7041
 1204SOL    HW215072   4.078   1.075   8.723  0.1862  0.8587  2.3775
 1205SOL     OW15073   0.242   3.440   6.502 -0.4627 -0.0931  0.4262
 1205SOL    HW115074   0.176   3.439   6.571 -0.4059 -0.9770  0.4745
 1205SOL    HW215075   0.253   3.534   6.496 -0.6260 -0.0786  0.3387
 1206SOL     OW15076   2.833   0.878  14.664 -0.0363  0.3176 -0.3930
 1206SOL    HW115077   2.760   0.935  14.642  0.0070  0.4518 -0.1976
 1206SOL    HW215078   2.798   0.840  14.744 -0.1941 -1.4149 -1.3052
 1207SOL     OW15079   4.446   4.087   8.717  0.5059  0.7480  0.0307
 1207SOL    HW115080   4.507   4.157   8.739  1.2905 -0.5694  2.0742
 1207SOL    HW215081   4.387   4.128   8.654 -0.2902  0.1320  0.3720
 1208SOL     OW15082   0.839   4.550   7.565 -0.7826 -0.3296 -0.2994
 1208SOL    HW115083   0.748   4.552   7.595 -0.2434  0.7476  1.3309
 1208SOL    HW215084   0.851   4.459   7.540 -0.6913 -0.7607  1.2614
 1209SOL     OW15085   3.867   4.080   4.450 -0.3715 -0.3317  0.6887
 1209SOL    HW115086   3.779   4.068   4.416  0.2606 -1.9094 -0.3697
 1209SOL    HW215087   3.911   4.000   4.422  1.2110  0.5028  0.7683
 1210SOL     OW15088   0.118   0.122   4.220  0.4702  0.1064  0.7394
 1210SOL    HW115089   0.128   0.028   4.234 -0.4093  0.2362  2.1540
 1210SOL    HW215090   0.089   0.151   4.306 -2.4321 -1.8493  0.4248
 1211SOL     OW15091   3.305   0.236   7.586  0.2510  0.1595 -0.1026
 1211SOL    HW115092   3.345   0.301   7.645  1.1253  1.7691 -2.4567
 1211SOL    HW215093   3.323   0.150   7.624  2.6591  0.9208  0.5301
 1212SOL     OW15094   0.892   2.141   1.979 -0.3195  0.1368 -0.2251
 1212SOL    HW115095   0.957   2.072   1.987  0.5062  0.8532 -0.7746
 1212SOL    HW215096   0.857   2.142   2.068  0.1459 -0.2540 -0.0373
 1213SOL     OW15097   3.466   3.622   4.879 -0.3048 -0.0312 -0.1236
 1213SOL    HW115098   3.439   3.537   4.844 -0.0915  0.1384 -0.7031
 1213SOL    HW215099   3.411   3.672   4.819  0.0125  0.1555 -0.2590
 1214SOL     OW15100   1.417   3.709  15.011 -0.0178  0.3069 -0.0703
 1214SOL    HW115101   1.373   3.787  14.977 -0.2123 -0.4359 -1.5152
 1214SOL    HW215102   1.466   3.755  15.081 -1.4768  3.1835 -0.9281
 1215SOL     OW15103   2.685   1.903   3.559 -0.3261  0.5787 -0.1188
 1215SOL    HW115104   2.600   1.863   3.541  0.2924 -0.6415 -0.3599
 1215SOL    HW215105   2.666   1.996   3.556 -1.2992  0.3111 -2.4825
 1216SOL     OW15106   2.577   2.301   1.096  0.1592  0.6477  0.0445
 1216SOL    HW115107   2.485   2.283   1.077  0.1504  1.0243 -0.2836
 1216SOL    HW215108   2.617   2.218   1.069  2.4749  1.2526  1.6272
 1217SOL     OW15109   1.793   2.888   4.353 -0.0817 -0.0715 -0.2191
 1217SOL    HW115110   1.710   2.841   4.348  0.9922 -2.0314  0.6910
 1217SOL    HW215111   1.830   2.869   4.267  1.6501  0.6654  0.3611
 1218SOL     OW15112   2.838   1.594   9.952 -0.1986 -0.4795 -0.7239
 1218SOL    HW115113   2.805   1.534  10.020 -0.3838 -0.0810 -0.4620
 1218SOL    HW215114   2.929   1.618   9.969  0.5018 -3.4819 -0.3263
 1219SOL     OW15115   3.606   0.041  10.156 -0.1572 -0.1547 -0.4269
 1219SOL    HW115116   3.658   0.034  10.076 -0.7612  0.9685 -0.9322
 1219SOL    HW215117   3.670   0.018  10.223  1.3883  1.9723 -1.1400
 1220SOL     OW15118   1.595   1.131   7.905  0.4339 -0.2781 -0.1434
 1220SOL    HW115119   1.612   1.186   7.828 -0.7888  1.4185  0.7959
 1220SOL    HW215120   1.556   1.057   7.859  0.9227  1.4635 -3.3452
 1221SOL     OW15121   2.404   4.568  16.888  0.0684 -0.3602 -0.5061
 1221SOL    HW115122   2.350   4.505  16.840 -1.4173 -0.6531  1.5490
 1221SOL    HW215123   2.428   4.523  16.969 -2.7169  0.9673  1.0934
 1222SOL     OW15124   3.435   2.483   9.483 -0.7259  0.1574 -0.3025
 1222SOL    HW115125   3.494   2.558   9.492  0.8824 -1.2283  0.7152
 1222SOL    HW215126   3.390   2.480   9.568 -0.8570 -2.5506 -0.4671
 1223SOL     OW15127   2.285   2.296   4.909 -0.6431  0.2226  0.1219
 1223SOL    HW115128   2.345   2.323   4.978  0.2547 -0.4600 -0.3876
 1223SOL    HW215129   2.336   2.221   4.879  0.9708  1.2968  0.1730
 1224SOL     OW15130   4.166   2.758   4.019  0.2590 -0.3841  0.0817
 1224SOL    HW115131   4.162   2.772   4.113  1.6848  1.0307 -0.0543
 1224SOL    HW215132   4.106   2.823   3.983 -0.5531 -0.1812  1.8291
 1225SOL     OW15133   2.740   2.041   1.073 -0.1901 -0.5978 -0.3088
 1225SOL    HW115134   2.764   2.106   1.139 -2.5396 -2.2583  2.1679
 1225SOL    HW215135   2.825   2.001   1.057 -0.3858 -0.6009 -1.3345
 1226SOL     OW15136   4.567   4.339   0.297  0.2908  0.0802 -0.0813
 1226SOL    HW115137   4.506   4.412   0.306 -1.9274 -1.8561  0.3131
 1226SOL    HW215138   4.656   4.374   0.291  0.2773  0.0806 -0.2830
 1227SOL     OW15139   3.526   0.696   0.200  0.0633  0.1745 -0.4036
 1227SOL    HW115140   3.448   0.737   0.162  0.2555  1.0599  0.1498
 1227SOL    HW215141   3.548   0.764   0.264 -0.3872 -0.7725  0.7502
 1228SOL     OW15142   4.294   2.248   6.899  0.5215 -0.1189 -0.7589
 1228SOL    HW115143   4.328   2.166   6.862  1.7780 -0.3556  0.9534
 1228SOL    HW215144   4.260   2.207   6.978 -0.4396 -1.5085 -1.9051
 1229SOL     OW15145   2.005   4.638   8.296  0.2464  0.4132  0.7643
 1229SOL    HW115146   2.039   4.588   8.371 -1.1082 -0.9927  0.4396
 1229SOL    HW215147   1.915   4.641   8.326  0.7444  1.5408  2.1225
 1230SOL     OW15148   2.741   0.233   6.178 -0.2142 -0.8128  0.3752
 1230SOL    HW115149   2.752   0.155   6.234  1.1182  0.9871  2.6443
 1230SOL    HW215150   2.819   0.225   6.124 -1.5123  0.4857 -1.6565
 1231SOL     OW15151   3.450   2.263  10.158 -0.4240  0.9339 -0.3067
 1231SOL    HW115152   3.522   2.323  10.176  0.4501 -1.0699  2.9882
 1231SOL    HW215153   3.461   2.250  10.064  4.6430  2.2557  0.1013
 1232SOL     OW15154   0.523   1.105  16.010 -0.1678  0.0350  0.0129
 1232SOL    HW115155   0.544   1.020  15.971 -0.1311 -0.5892  1.3840
 1232SOL    HW215156   0.516   1.081  16.103 -0.6475 -0.2926 -0.1063
 1233SOL     OW15157   2.001   3.006  11.105 -0.1821 -0.5739  0.0296
 1233SOL    HW115158   2.095   3.009  11.089 -0.5482  2.5627 -1.3426
 1233SOL    HW215159   1.998   3.077  11.169 -1.2384 -0.8419  0.2902
 1234SOL     OW15160   2.998   1.362   0.294  0.5069  0.4969 -0.1429
 1234SOL    HW115161   2.923   1.421   0.303 -0.3946 -0.5302 -0.9501
 1234SOL    HW215162   3.065   1.424   0.321  1.6930 -0.9444  0.2500
 1235SOL     OW15163   3.431   4.106  13.344 -0.3347 -0.3151 -0.0706
 1235SOL    HW115164   3.354   4.138  13.391  0.6658  0.8494  0.7912
 1235SOL    HW215165   3.419   4.160  13.266 -0.7066 -1.4214 -0.7735
 1236SOL     OW15166   2.646   0.463   3.292 -0.1147  0.1667  0.2692
 1236SOL    HW115167   2.607   0.515   3.222 -0.7288 -0.6987 -0.0325
 1236SOL    HW215168   2.740   0.481   3.294 -0.1941  0.6797 -0.7144
 1237SOL     OW15169   0.364   3.775   8.659 -0.2100 -0.5168 -0.5449
 1237SOL    HW115170   0.296   3.748   8.721  1.2204 -1.0397  0.7936
 1237SOL    HW215171   0.316   3.791   8.577  1.3492  1.6671 -1.0334
 1238SOL     OW15172   2.269   4.625  12.927  0.2373 -0.5952  0.0571
 1238SOL    HW115173   2.249   4.667  13.010 -1.4798  0.9340 -1.1204
 1238SOL    HW215174   2.206   4.553  12.930 -1.0207  0.4835 -0.1349
 1239SOL     OW15175   4.046   1.811  14.185 -0.0660 -0.2753  0.0621
 1239SOL    HW115176   4.000   1.867  14.122  2.0222  3.4798  1.8616
 1239SOL    HW215177   4.040   1.865  14.264 -0.5760 -0.5790  0.2240
 1240SOL     OW15178   1.413   4.518   3.582  0.6782 -0.6543 -0.7870
 1240SOL    HW115179   1.389   4.498   3.672 -0.2289  0.3345 -0.7981
 1240SOL    HW215180   1.508   4.521   3.587  0.7149  0.7652 -2.2384
 1241SOL     OW15181   0.131   4.089   2.020 -0.4899  0.1663 -0.2360
 1241SOL    HW115182   0.086   4.117   2.099  0.8532 -0.0113  0.5890
 1241SOL    HW215183   0.131   3.998   2.047  0.7787 -0.1628 -1.3672
 1242SOL     OW15184   0.049   2.018   5.955 -0.3577 -0.7734  0.3258
 1242SOL    HW115185   0.021   2.109   5.940  2.0550 -0.4992 -2.2679
 1242SOL    HW215186   0.143   2.020   5.940 -0.3008 -2.4912  0.4800
 1243SOL     OW15187   4.486   0.536   3.300 -0.1021 -0.1156 -0.4456
 1243SOL    HW115188   4.430   0.612   3.287 -0.2965 -0.1232  0.3593
 1243SOL    HW215189   4.519   0.551   3.389 -0.9436 -1.5203  0.1193
 1244SOL     OW15190   2.484   2.779   1.352  0.0790  0.1046 -0.1660
 1244SOL    HW115191   2.484   2.731   1.269 -4.2304 -1.4440  0.7426
 1244SOL    HW215192   2.439   2.858   1.320  1.1040  0.7897  0.0592
 1245SOL     OW15193   2.524   1.653   7.783 -0.4358 -0.2862  0.3783
 1245SOL    HW115194   2.588   1.585   7.765  0.0796  0.4425 -0.5978
 1245SOL    HW215195   2.486   1.665   7.696  0.3318  1.2804  0.2449
 1246SOL     OW15196   3.245   3.601   9.798 -0.0238 -0.0846  0.0024
 1246SOL    HW115197   3.293   3.626   9.877 -0.4463 -1.9776  0.8633
 1246SOL    HW215198   3.158   3.638   9.810 -0.5176 -1.7534  1.5156
 1247SOL     OW15199   2.372   0.491   3.829  0.0970 -0.3621 -0.0672
 1247SOL    HW115200   2.444   0.481   3.891  0.1167 -1.1527 -0.2160
 1247SOL    HW215201   2.291   0.466   3.875  1.0549 -0.2115  1.6907
 1248SOL     OW15202   4.281   1.655   6.394 -0.0922 -0.3021 -0.0021
 1248SOL    HW115203   4.298   1.749   6.393 -0.6458 -0.1990 -0.6857
 1248SOL    HW215204   4.258   1.636   6.485  0.3765  0.9333  0.3728
 1249SOL     OW15205   2.712   2.530   7.866 -0.0095 -0.6379  0.1690
 1249SOL    HW115206   2.620   2.548   7.849  0.3859 -0.5655 -1.9074
 1249SOL    HW215207   2.707   2.434   7.864  0.0441 -0.6545  0.8542
 1250SOL     OW15208   2.541   0.243   8.164  0.0214 -0.7129 -0.3831
 1250SOL    HW115209   2.555   0.166   8.220 -2.1310 -1.1362 -0.4252
 1250SOL    HW215210   2.547   0.314   8.228 -0.0962 -1.5599  0.5675
 1251SOL     OW15211   0.871   4.089   3.670 -0.5188  0.2081  0.2408
 1251SOL    HW115212   0.871   4.165   3.613 -0.8935  0.4515  0.5685
 1251SOL    HW215213   0.944   4.108   3.728  0.2862 -1.5930 -0.1653
 1252SOL     OW15214   2.749   3.021   7.844  0.2317 -0.4201 -0.2850
 1252SOL    HW115215   2.718   3.100   7.889  0.9303  1.6690 -3.4513
 1252SOL    HW215216   2.694   3.008   7.767 -0.3033  0.6357 -0.0803
 1253SOL     OW15217   1.379   0.670  13.718  0.0081  0.3767  0.1483
 1253SOL    HW115218   1.317   0.632  13.655  0.6673  0.8016 -0.7562
 1253SOL    HW215219   1.450   0.701  13.662 -0.9885 -1.3472 -2.0848
 1254SOL     OW15220   3.519   0.147   7.437  0.0746  0.5750  0.0357
 1254SOL    HW115221   3.476   0.157   7.353 -1.6810  0.8687  0.9708
 1254SOL    HW215222   3.607   0.174   7.413  0.3041  0.4337  0.7077
 1255SOL     OW15223   0.981   2.507   6.674 -0.0192  0.6196 -0.1849
 1255SOL    HW115224   0.955   2.588   6.629 -0.7724  0.6396  0.2817
 1255SOL    HW215225   0.950   2.521   6.764 -1.0517  1.4151 -0.6651
 1256SOL     OW15226   2.484   3.765  11.104 -0.2615 -0.3195  0.1916
 1256SOL    HW115227   2.529   3.718  11.174  0.5461  0.5027  0.2123
 1256SOL    HW215228   2.412   3.704  11.085  0.3305 -0.8294 -0.4059
 1257SOL     OW15229   4.477   0.804  12.052  0.3766  0.5220 -0.2036
 1257SOL    HW115230   4.417   0.765  12.116  1.5789  0.5309  0.9368
 1257SOL    HW215231   4.425   0.883  12.033  0.9990  0.3943 -2.3666
 1258SOL     OW15232   0.755   4.143   1.363  0.0723  0.6424  0.4817
 1258SOL    HW115233   0.724   4.132   1.273  0.9969  0.7888  0.1480
 1258SOL    HW215234   0.682   4.181   1.412 -1.2867  0.8586 -1.7015
 1259SOL     OW15235   0.300   4.105  16.054 -0.0460 -0.0155  0.1275
 1259SOL    HW115236   0.377   4.076  16.103  1.1389  0.7534 -1.2713
 1259SOL    HW215237   0.225   4.065  16.098 -0.0231  2.2264  2.1620
 1260SOL     OW15238   2.900   3.053   2.703 -0.2343 -0.4983  0.3835
 1260SOL    HW115239   2.807   3.058   2.680 -0.6253  1.5077  2.3935
 1260SOL    HW215240   2.948   3.066   2.621 -0.0876 -2.2917  0.1696
 1261SOL     OW15241   0.359   2.053   3.721 -0.4360  0.0926 -0.3750
 1261SOL    HW115242   0.349   2.140   3.760 -1.6921 -0.5719  0.7665
 1261SOL    HW215243   0.447   2.062   3.684  1.1107  0.8921  3.5703
 1262SOL     OW15244   2.708   3.833  12.086  0.8353 -0.6358  0.0730
 1262SOL    HW115245   2.708   3.861  11.995 -0.4545 -1.3412 -0.1390
 1262SOL    HW215246   2.743   3.744  12.078  0.7960 -0.7961  1.6357
 1263SOL     OW15247   3.469   1.854   4.635  0.2022 -0.8287 -0.0607
 1263SOL    HW115248   3.438   1.935   4.597  3.0440  1.5634  2.7256
 1263SOL    HW215249   3.457   1.800   4.557 -0.7717  0.2056 -0.6180
 1264SOL     OW15250   2.740   1.301   2.768  0.4860  0.1830  0.1082
 1264SOL    HW115251   2.819   1.320   2.716  0.1920 -1.9173 -1.1302
 1264SOL    HW215252   2.782   1.320   2.852  2.9660  1.8974 -1.5176
 1265SOL     OW15253   2.225   1.844   8.473 -0.0928 -0.3783 -0.2185
 1265SOL    HW115254   2.248   1.870   8.383 -1.4650 -0.0888 -0.4829
 1265SOL    HW215255   2.258   1.754   8.469 -0.1319 -0.3046 -2.0501
 1266SOL     OW15256   1.505   1.450  17.648 -0.1132  0.1944  0.2758
 1266SOL    HW115257   1.493   1.437  17.554 -1.6156 -0.9433  0.6251
 1266SOL    HW215258   1.509   1.358  17.676 -1.6224 -0.2042 -0.8117
 1267SOL     OW15259   0.960   2.259   6.567 -0.2628  0.1001  0.2884
 1267SOL    HW115260   1.008   2.193   6.618 -1.7872 -0.8541  0.5149
 1267SOL    HW215261   0.964   2.338   6.621  0.5898 -1.7304  2.9546
 1268SOL     OW15262   2.406   1.713   7.514  0.1170 -0.6561 -0.6420
 1268SOL    HW115263   2.326   1.698   7.464 -0.9605  2.6557  0.0374
 1268SOL    HW215264   2.478   1.678   7.462 -0.0964 -2.5067  0.3023
 1269SOL     OW15265   2.279   0.356  10.848  0.0363  0.1908 -0.1679
 1269SOL    HW115266   2.279   0.356  10.944  0.4297 -1.7234 -0.1644
 1269SOL    HW215267   2.360   0.398  10.821 -0.5107 -0.5944 -3.0237
 1270SOL     OW15268   2.060   1.467  16.158 -0.0063  0.8830  0.2740
 1270SOL    HW115269   1.971   1.471  16.122  0.6857  0.6228 -1.5056
 1270SOL    HW215270   2.056   1.535  16.225  2.3893  1.5572 -0.2679
 1271SOL     OW15271   0.166   0.640   5.571 -0.7407  0.5145  0.4196
 1271SOL    HW115272   0.222   0.635   5.648  2.1804  1.0279 -1.6543
 1271SOL    HW215273   0.201   0.714   5.520 -1.2137 -1.4081 -2.7002
 1272SOL     OW15274   2.848   1.220   4.420 -0.4289 -0.2484  0.6705
 1272SOL    HW115275   2.826   1.128   4.408 -0.7769  0.0783 -1.0799
 1272SOL    HW215276   2.778   1.263   4.372 -0.4409 -1.9225 -0.8076
 1273SOL     OW15277   0.622   0.399   1.549 -0.1623 -0.1488 -0.0972
 1273SOL    HW115278   0.578   0.347   1.483 -2.4466 -0.2528  1.5067
 1273SOL    HW215279   0.595   0.349   1.626  1.4827  0.2639  0.7524
 1274SOL     OW15280   4.335   3.596   5.818  0.3245 -0.1325  0.4470
 1274SOL    HW115281   4.319   3.610   5.725  0.7101  0.4110  0.4554
 1274SOL    HW215282   4.295   3.675   5.855 -2.6085 -0.8933 -1.1574
 1275SOL     OW15283   3.678   3.953   9.859 -0.3321 -0.0133  0.1338
 1275SOL    HW115284   3.770   3.933   9.840 -0.6538 -0.9308 -0.4905
 1275SOL    HW215285   3.670   3.946   9.954 -1.3029  1.5857  0.1613
 1276SOL     OW15286   2.368   3.057   3.027  0.5190  0.1660  0.0889
 1276SOL    HW115287   2.334   2.998   3.095 -0.5571 -0.5369 -1.0558
 1276SOL    HW215288   2.350   3.146   3.057 -0.6720 -0.3746  0.9803
 1277SOL     OW15289   4.331   0.420   3.035  0.4767 -0.2545  0.5242
 1277SOL    HW115290   4.339   0.325   3.027  0.2207 -0.1690 -0.7065
 1277SOL    HW215291   4.422   0.439   3.012  0.7800 -1.1540  0.9670
 1278SOL     OW15292   3.914   1.968  14.011 -0.1306 -0.3398 -0.7337
 1278SOL    HW115293   3.988   1.998  13.959  1.1019 -0.2267  1.0666
 1278SOL    HW215294   3.858   1.928  13.945 -2.5266  0.7689  0.6055
 1279SOL     OW15295   1.308   0.182   8.208  0.0118 -0.3983  0.3510
 1279SOL    HW115296   1.215   0.166   8.191 -0.1263 -0.9377  1.5625
 1279SOL    HW215297   1.346   0.150   8.126 -1.8296 -0.0956 -0.6058
 1280SOL     OW15298   4.553   1.191   5.772 -0.4087  0.3404 -0.5215
 1280SOL    HW115299   4.501   1.125   5.818  1.7803  0.0033  1.4563
 1280SOL    HW215300   4.495   1.212   5.698 -0.6494 -2.2515 -1.0598
 1281SOL     OW15301   3.421   2.114  12.264  0.3506  0.5828  0.7181
 1281SOL    HW115302   3.405   2.037  12.319 -2.7260 -1.0331 -2.4110
 1281SOL    HW215303   3.346   2.165  12.294  2.0382  1.6683  3.0600
 1282SOL     OW15304   2.051   3.254   3.312  0.2100  0.7403 -0.8338
 1282SOL    HW115305   1.993   3.182   3.287  0.0247  1.0883 -1.4118
 1282SOL    HW215306   2.056   3.229   3.404 -0.7546  0.7848 -0.7703
 1283SOL     OW15307   3.630   3.060   7.577 -0.4155 -0.0183  0.4172
 1283SOL    HW115308   3.691   3.059   7.504 -0.6950 -0.3941  0.1845
 1283SOL    HW215309   3.609   3.153   7.589 -2.0710 -0.3901  0.4930
 1284SOL     OW15310   1.701   1.419  16.366 -0.4080  0.5867  1.0929
 1284SOL    HW115311   1.617   1.459  16.342  0.7286  1.0974 -1.9892
 1284SOL    HW215312   1.751   1.439  16.287 -1.4939  0.4021  0.3489
 1285SOL     OW15313   1.124   3.737   5.373 -0.1807  0.0410  0.0490
 1285SOL    HW115314   1.102   3.825   5.341 -1.9008 -0.4377 -0.0572
 1285SOL    HW215315   1.206   3.755   5.418 -0.3426 -2.1202  1.1807
 1286SOL     OW15316   3.978   2.762   6.032  0.2718  0.3775  0.8350
 1286SOL    HW115317   4.046   2.750   5.966 -1.3910 -0.2120 -0.7784
 1286SOL    HW215318   3.906   2.703   6.009  0.6295 -0.5735  2.1775
 1287SOL     OW15319   4.335   2.238   4.898 -0.0984 -0.3145 -0.1337
 1287SOL    HW115320   4.247   2.219   4.866 -0.1759 -0.2031  0.0118
 1287SOL    HW215321   4.325   2.257   4.991  1.1014 -0.9063  0.1160
 1288SOL     OW15322   3.522   1.291   6.181 -0.2670 -0.1820  0.1111
 1288SOL    HW115323   3.514   1.348   6.257  2.7440  1.8416 -1.0888
 1288SOL    HW215324   3.468   1.336   6.116  0.6080  0.0595 -0.4589
 1289SOL     OW15325   1.916   3.072  10.444  0.2546 -0.2596 -0.3863
 1289SOL    HW115326   1.925   3.023  10.362 -0.9726 -1.1502  0.0101
 1289SOL    HW215327   1.932   3.008  10.513 -0.5385 -2.0408 -1.8449
 1290SOL     OW15328   3.527   0.289   3.803  0.1325 -0.3337  0.1214
 1290SOL    HW115329   3.457   0.270   3.740 -1.9820  1.0746  2.0434
 1290SOL    HW215330   3.479   0.332   3.874 -0.7119 -3.3417  1.3340
 1291SOL     OW15331   2.589   2.526   8.299 -0.4989 -0.6296  0.3518
 1291SOL    HW115332   2.621   2.480   8.222  0.3422  1.4134 -0.5244
 1291SOL    HW215333   2.500   2.534   8.266 -1.8408  0.5172  4.2312
 1292SOL     OW15334   4.594   2.565   5.740  0.6033  0.4794 -0.1540
 1292SOL    HW115335   4.686   2.583   5.757  1.3370 -3.2193 -0.0254
 1292SOL    HW215336   4.596   2.558   5.645  0.4909 -1.7992 -0.0006
 1293SOL     OW15337   0.067   3.501   4.330  0.3795 -0.3453 -0.2302
 1293SOL    HW115338   0.149   3.520   4.286  0.8018 -2.9312 -0.5752
 1293SOL    HW215339   0.032   3.437   4.268 -1.3473 -1.0813  1.4737
 1294SOL     OW15340   3.200   1.855   1.933 -0.0120 -0.0041 -0.0476
 1294SOL    HW115341   3.210   1.948   1.915  2.2012 -0.7511 -2.6404
 1294SOL    HW215342   3.107   1.840   1.952 -0.1810 -0.0780 -0.9175
 1295SOL     OW15343   3.471   0.411  14.118  0.1467  0.3013 -0.8964
 1295SOL    HW115344   3.403   0.385  14.057  1.0671  0.4588 -1.9960
 1295SOL    HW215345   3.419   0.403  14.198  2.1636 -2.0508  0.1787
 1296SOL     OW15346   0.129   1.034  12.819 -0.8139 -0.1849  0.5054
 1296SOL    HW115347   0.040   1.016  12.790 -0.2232 -0.3626 -1.1864
 1296SOL    HW215348   0.178   1.003  12.743 -0.6605  0.6346  0.2722
 1297SOL     OW15349   0.078   0.508   1.617 -0.0219 -0.2080  0.6966
 1297SOL    HW115350   0.014   0.539   1.553 -0.4539  0.1317  1.2934
 1297SOL    HW215351   0.108   0.593   1.648 -0.5962 -0.9476  3.3095
 1298SOL     OW15352   2.110   4.527   7.599  0.2972 -0.0932 -0.0901
 1298SOL    HW115353   2.030   4.476   7.610 -1.3380  1.7745 -2.9843
 1298SOL    HW215354   2.074   4.589   7.535 -1.6394  0.8466  1.9273
 1299SOL     OW15355   3.242   0.535   2.230  0.0396 -0.5370 -0.1880
 1299SOL    HW115356   3.281   0.516   2.315 -1.6659 -2.1895  0.2165
 1299SOL    HW215357   3.188   0.610   2.256 -3.3452 -3.6549  1.6410
 1300SOL     OW15358   1.551   3.423   2.263 -0.0572 -0.2000  0.3497
 1300SOL    HW115359   1.517   3.507   2.231  0.1375  0.0185  0.7103
 1300SOL    HW215360   1.563   3.382   2.177  0.5429  0.3413  0.1686
 1301SOL     OW15361   0.789   3.400   3.539  0.0380 -0.0168  0.6703
 1301SOL    HW115362   0.728   3.456   3.587  1.5116  1.3582  0.9489
 1301SOL    HW215363   0.746   3.316   3.523  0.9278 -0.6136  1.4411
 1302SOL     OW15364   1.972   1.582  14.511  0.5453 -0.7275 -0.0817
 1302SOL    HW115365   1.928   1.624  14.585  0.4464  1.3210 -1.3003
 1302SOL    HW215366   2.044   1.644  14.506  1.5726 -1.8499  0.8211
 1303SOL     OW15367   0.198   1.115   9.477 -0.7944 -0.3537  0.2144
 1303SOL    HW115368   0.211   1.111   9.571 -1.7676 -0.1218  0.3562
 1303SOL    HW215369   0.105   1.099   9.465 -0.6512 -0.8818 -0.2099
 1304SOL     OW15370   2.050   0.230   5.238  0.3114  0.1307 -0.1832
 1304SOL    HW115371   2.112   0.302   5.224  0.5672  0.1051  0.8731
 1304SOL    HW215372   1.987   0.270   5.298  0.8927  0.8328 -0.0355
 1305SOL     OW15373   2.926   2.167  12.159  0.2165 -0.1264 -0.4044
 1305SOL    HW115374   2.953   2.167  12.251 -0.8486  0.5579 -0.0978
 1305SOL    HW215375   2.941   2.260  12.142 -0.0738  0.1188  0.6857
 1306SOL     OW15376   3.779   2.895   1.652 -0.0154  0.3880  0.3066
 1306SOL    HW115377   3.732   2.825   1.698 -2.1552  1.7849  0.2867
 1306SOL    HW215378   3.848   2.842   1.612 -0.4894 -1.4313  1.9311
 1307SOL     OW15379   0.080   1.686  12.031 -0.2595 -0.3996 -0.1755
 1307SOL    HW115380   0.104   1.778  12.045 -0.5894 -0.3397  0.0055
 1307SOL    HW215381   0.072   1.682  11.936  1.1532  1.3349 -0.3733
 1308SOL     OW15382   2.013   4.522  14.765  0.0013 -0.2130  0.8191
 1308SOL    HW115383   1.992   4.458  14.697 -2.0712 -0.1835  1.4133
 1308SOL    HW215384   1.995   4.605  14.720 -1.9367 -0.8939  0.3428
 1309SOL     OW15385   0.072   1.503   5.063 -0.4538 -0.3435  0.0056
 1309SOL    HW115386   0.134   1.452   5.115 -2.6702 -1.7944  1.2312
 1309SOL    HW215387   0.032   1.545   5.140 -0.0291  0.0772 -0.0039
 1310SOL     OW15388   1.404   2.822   2.891  0.0098  0.1661  0.0255
 1310SOL    HW115389   1.375   2.748   2.945  0.5942 -0.3982 -0.4235
 1310SOL    HW215390   1.369   2.895   2.942 -0.5801  0.5037 -0.8692
 1311SOL     OW15391   4.421   0.430  11.488 -0.0371 -0.1188 -0.5881
 1311SOL    HW115392   4.498   0.479  11.517 -1.0853  1.6111 -0.7635
 1311SOL    HW215393   4.421   0.360  11.554  2.9234 -0.1366 -0.6059
 1312SOL     OW15394   3.282   4.477   2.296 -0.1670  0.1711 -0.6516
 1312SOL    HW115395   3.329   4.395   2.311  0.8568  0.8253 -0.3202
 1312SOL    HW215396   3.201   4.434   2.268 -1.3493  3.0448 -1.7003
 1313SOL     OW15397   3.781   2.084   6.527  0.5010  0.7548  0.3188
 1313SOL    HW115398   3.689   2.074   6.501  0.3416  0.4087  1.0352
 1313SOL    HW215399   3.796   2.172   6.491 -1.1084  1.2758  0.9031
 1314SOL     OW15400   4.694   0.886   4.987 -0.4465 -0.3222  0.1474
 1314SOL    HW115401   4.638   0.904   4.912  0.8006  1.0426 -0.4663
 1314SOL    HW215402   4.714   0.979   5.004  2.0359 -1.1428  1.8109
 1315SOL     OW15403   0.646   2.294  17.223  0.1868  0.2967 -0.2518
 1315SOL    HW115404   0.635   2.209  17.266  0.4422  1.4205  1.9742
 1315SOL    HW215405   0.566   2.342  17.243  0.5374  0.8859 -0.2760
 1316SOL     OW15406   0.934   3.312   2.294 -0.1993  0.6120  0.0537
 1316SOL    HW115407   0.990   3.322   2.371 -0.9880  0.7262  0.6072
 1316SOL    HW215408   0.924   3.217   2.287 -2.7701  0.8080  0.8106
 1317SOL     OW15409   1.583   0.626   7.619  0.0683  0.1926  0.1322
 1317SOL    HW115410   1.555   0.694   7.557  0.7292  0.8519  0.5550
 1317SOL    HW215411   1.678   0.618   7.612 -0.0889 -1.6492  0.0058
 1318SOL     OW15412   1.718   0.730  12.032 -0.2679  0.2048  0.0962
 1318SOL    HW115413   1.768   0.730  11.950 -1.3054  0.3100 -0.5277
 1318SOL    HW215414   1.737   0.646  12.072  0.9379 -0.5053 -1.9662
 1319SOL     OW15415   2.149   1.789  17.537  0.0374  0.1151  0.0069
 1319SOL    HW115416   2.199   1.794  17.618  1.3552 -1.9741 -0.6631
 1319SOL    HW215417   2.219   1.758  17.479  0.1460  0.4506 -0.0418
 1320SOL     OW15418   0.427   2.643   8.067 -0.6014  0.5701  0.0442
 1320SOL    HW115419   0.464   2.606   8.147 -0.8065 -0.9888 -0.5650
 1320SOL    HW215420   0.507   2.689   8.041 -0.3852  0.2847  0.2076
 1321SOL     OW15421   4.347   0.151   1.380  0.1843  0.2174 -0.3115
 1321SOL    HW115422   4.412   0.220   1.394 -0.7862  1.5008 -2.1084
 1321SOL    HW215423   4.348   0.140   1.285 -0.6578  1.4358 -0.4612
 1322SOL     OW15424   3.216   4.114   3.820  0.4032 -0.1389  0.3934
 1322SOL    HW115425   3.236   4.021   3.808  1.4970 -0.1093  1.9610
 1322SOL    HW215426   3.268   4.131   3.899  2.7956  1.7391 -1.5989
 1323SOL     OW15427   2.850   0.200   8.285 -0.4439 -0.0233  0.5434
 1323SOL    HW115428   2.828   0.184   8.193 -0.2132 -1.1602  0.6869
 1323SOL    HW215429   2.927   0.256   8.280 -1.1429  0.9194  0.3271
 1324SOL     OW15430   1.969   3.229  11.266 -0.4802 -0.2250  0.6984
 1324SOL    HW115431   2.014   3.313  11.274  0.1613 -0.1542 -3.9619
 1324SOL    HW215432   1.882   3.257  11.238 -1.2811 -2.4884  0.9392
 1325SOL     OW15433   2.149   2.905   2.204 -0.2418  0.3639 -0.0045
 1325SOL    HW115434   2.180   2.817   2.183  0.1813  0.3085  0.8079
 1325SOL    HW215435   2.168   2.904   2.298 -1.8332  1.0789  0.3187
 1326SOL     OW15436   1.293   0.810  10.834 -0.1620 -0.3336  0.4636
 1326SOL    HW115437   1.373   0.770  10.801 -0.0255  0.7139 -0.4580
 1326SOL    HW215438   1.324   0.880  10.891 -0.3813  0.6820 -0.6734
 1327SOL     OW15439   4.136   2.509   6.320 -0.2061  0.4369 -0.4435
 1327SOL    HW115440   4.176   2.523   6.234 -2.6213 -1.1913 -1.8323
 1327SOL    HW215441   4.042   2.521   6.306 -0.3179  2.1870  1.8396
 1328SOL     OW15442   0.756   0.688  17.681 -0.1270 -0.2395  0.3851
 1328SOL    HW115443   0.844   0.723  17.693 -0.9321  1.4501  1.4355
 1328SOL    HW215444   0.698   0.761  17.659  1.5450  1.0533  0.2442
 1329SOL     OW15445   1.951   4.418  10.469 -0.0469 -0.3091 -0.4335
 1329SOL    HW115446   1.943   4.459  10.383 -1.5726  0.5615  0.1218
 1329SOL    HW215447   1.883   4.353  10.450 -0.5388 -0.3695  1.5770
 1330SOL     OW15448   1.696   3.592   1.144  0.4145  0.2056 -0.0490
 1330SOL    HW115449   1.620   3.591   1.085  0.4092 -2.6892  0.0003
 1330SOL    HW215450   1.687   3.679   1.183 -0.4149  0.0109  0.1823
 1331SOL     OW15451   4.147   2.117  15.251  0.2285 -0.1136  0.2720
 1331SOL    HW115452   4.187   2.039  15.212 -0.8336 -0.1588 -0.7330
 1331SOL    HW215453   4.089   2.153  15.184 -1.3901 -1.6988  0.8093
 1332SOL     OW15454   1.117   0.617   4.608  0.0334  0.8038  0.1443
 1332SOL    HW115455   1.033   0.660   4.623 -0.4424 -0.7255  1.8722
 1332SOL    HW215456   1.117   0.562   4.686 -0.9048  0.2851 -0.2198
 1333SOL     OW15457   1.937   0.427   5.400  0.4397  0.0687  0.1586
 1333SOL    HW115458   2.015   0.440   5.453  2.2446  0.5868 -2.6555
 1333SOL    HW215459   1.873   0.464   5.461 -0.1559 -1.3647  0.4128
 1334SOL     OW15460   4.241   1.824   1.505 -0.1676  0.3021  0.1083
 1334SOL    HW115461   4.334   1.808   1.522 -0.0736 -0.2442 -0.9712
 1334SOL    HW215462   4.217   1.744   1.458  2.7614 -0.8324  0.4827
 1335SOL     OW15463   0.718   0.190   4.391  0.2013  0.6604  0.5141
 1335SOL    HW115464   0.677   0.174   4.476 -1.0594  2.7454  0.2945
 1335SOL    HW215465   0.637   0.201   4.342  1.1314 -0.7625 -1.3727
 1336SOL     OW15466   1.474   3.731   3.114  0.1691  0.3561 -0.4670
 1336SOL    HW115467   1.417   3.744   3.038  2.3040 -2.4590 -2.5399
 1336SOL    HW215468   1.425   3.794   3.168 -0.4770  1.1581 -1.9951
 1337SOL     OW15469   0.884   0.241  12.181 -0.0702 -0.5807  0.3543
 1337SOL    HW115470   0.842   0.224  12.265  1.6490  0.5857  1.4563
 1337SOL    HW215471   0.922   0.328  12.197  1.9603 -1.4528  0.2716
 1338SOL     OW15472   0.325   4.002   8.370  0.1845 -0.2430 -0.2180
 1338SOL    HW115473   0.271   3.941   8.420 -0.0860 -1.0206 -1.4647
 1338SOL    HW215474   0.334   3.959   8.285  0.5368 -0.9935  0.2014
 1339SOL     OW15475   4.225   3.639   6.504  0.3509  0.2390  0.4221
 1339SOL    HW115476   4.284   3.703   6.464  1.2954 -0.7584  0.2117
 1339SOL    HW215477   4.269   3.556   6.486  0.4208  0.2063  0.7460
 1340SOL     OW15478   3.488   2.867   1.825 -0.0365 -0.0572  0.5643
 1340SOL    HW115479   3.517   2.850   1.915 -0.4661 -2.9328  0.1505
 1340SOL    HW215480   3.479   2.780   1.786  3.2974  0.7920 -2.1221
 1341SOL     OW15481   2.997   1.942   4.212  0.1280 -0.5277  0.0054
 1341SOL    HW115482   2.924   1.896   4.254 -0.2084 -1.4508 -1.5727
 1341SOL    HW215483   3.071   1.882   4.218 -0.4630 -1.1188  1.4127
 1342SOL     OW15484   4.527   1.509   9.354 -0.6761 -0.3113  0.3645
 1342SOL    HW115485   4.466   1.444   9.320 -1.5618  0.1195  1.1306
 1342SOL    HW215486   4.467   1.560   9.407 -0.6985 -0.5692  0.5847
 1343SOL     OW15487   0.219   0.773   1.368  0.0359 -0.1131 -0.0632
 1343SOL    HW115488   0.277   0.727   1.428  0.6223 -0.2992 -0.7763
 1343SOL    HW215489   0.229   0.863   1.399  1.2367 -1.4947  3.6008
 1344SOL     OW15490   1.217   2.426  15.940  0.2689  0.4678 -0.4387
 1344SOL    HW115491   1.248   2.365  16.008  0.0672 -1.0635 -1.7278
 1344SOL    HW215492   1.154   2.372  15.893 -0.9516  1.4949  0.0378
 1345SOL     OW15493   2.546   2.441   4.154 -0.2661 -0.1721  0.2025
 1345SOL    HW115494   2.610   2.474   4.092 -0.2295  0.8500  0.7738
 1345SOL    HW215495   2.611   2.413   4.219  2.3331  1.6877 -1.5956
 1346SOL     OW15496   3.847   2.834   4.145  0.6440  0.0054 -0.3200
 1346SOL    HW115497   3.873   2.765   4.085  4.0758 -1.8831  3.2801
 1346SOL    HW215498   3.858   2.796   4.233 -0.6702  1.4091  0.4528
 1347SOL     OW15499   0.089   1.526   8.113 -0.0962  0.1558  0.4335
 1347SOL    HW115500   0.061   1.617   8.118 -1.2553 -0.1488 -0.5663
 1347SOL    HW215501   0.009   1.478   8.092 -0.3304  0.1532  1.3418
 1348SOL     OW15502   3.490   0.175   2.160  0.0310 -0.4808  0.3936
 1348SOL    HW115503   3.394   0.176   2.161  0.0180 -1.2191 -0.1582
 1348SOL    HW215504   3.519   0.085   2.169 -0.5178 -1.0563 -3.5326
 1349SOL     OW15505   3.502   0.639   3.091 -0.1770 -0.6014 -0.2616
 1349SOL    HW115506   3.563   0.614   3.160  1.5129  0.9161 -1.2142
 1349SOL    HW215507   3.526   0.730   3.074 -2.1917  0.0153  0.1924
 1350SOL     OW15508   2.980   0.716   3.464  0.2181  0.1286 -0.4617
 1350SOL    HW115509   2.988   0.654   3.536 -1.1097  0.2898 -0.1790
 1350SOL    HW215510   3.036   0.789   3.489  3.7539 -3.2496  1.3851
 1351SOL     OW15511   2.076   3.610   7.789 -0.0205  0.2420 -0.1311
 1351SOL    HW115512   2.070   3.516   7.806 -2.4725  0.9852  3.1181
 1351SOL    HW215513   2.170   3.619   7.800  0.2748 -0.6126 -1.9140
 1352SOL     OW15514   1.212   1.918   8.853 -0.1176  0.1617 -0.6018
 1352SOL    HW115515   1.134   1.863   8.850 -0.8222  0.9927  2.1778
 1352SOL    HW215516   1.211   1.970   8.933  1.2091  0.4871 -0.7875
 1353SOL     OW15517   2.137   2.759   5.617 -0.2869 -0.0857  0.0150
 1353SOL    HW115518   2.223   2.720   5.631  0.0673  0.0802 -1.6638
 1353SOL    HW215519   2.101   2.688   5.563  0.8699  1.0116 -2.1575
 1354SOL     OW15520   0.182   4.464   5.244  0.2010  0.1037 -0.0855
 1354SOL    HW115521   0.153   4.385   5.290 -0.3317  0.3021 -0.0900
 1354SOL    HW215522   0.269   4.482   5.281 -0.1159  0.6227  0.4127
 1355SOL     OW15523   4.505   0.848   1.528 -0.5134 -0.1176  0.1519
 1355SOL    HW115524   4.510   0.810   1.616 -0.1414 -1.5165 -0.4717
 1355SOL    HW215525   4.501   0.942   1.542 -4.3251 -0.2397  0.1384
 1356SOL     OW15526   0.403   2.230   4.313 -0.2261  0.1773  0.3672
 1356SOL    HW115527   0.335   2.297   4.300 -2.4537 -1.8685  1.3352
 1356SOL    HW215528   0.469   2.266   4.372 -0.3183  0.4416  0.3097
 1357SOL     OW15529   1.606   3.778   4.198 -0.6447 -0.1211 -0.2386
 1357SOL    HW115530   1.696   3.748   4.202 -1.2019 -1.8196 -0.5422
 1357SOL    HW215531   1.613   3.869   4.227  2.1049 -0.6595  0.7189
 1358SOL     OW15532   0.223   3.215   0.705 -0.8591 -0.1261 -0.5041
 1358SOL    HW115533   0.245   3.281   0.771 -1.2296 -0.8756  0.3535
 1358SOL    HW215534   0.128   3.217   0.712 -0.7708 -1.0703  0.9696
 1359SOL     OW15535   4.045   2.529   8.796 -0.0784  0.1330  0.4953
 1359SOL    HW115536   4.015   2.438   8.793 -1.3287  0.5529  0.3207
 1359SOL    HW215537   3.994   2.569   8.725  0.4705  0.6656  0.4029
 1360SOL     OW15538   4.018   0.670   5.258 -0.1540  0.3215 -0.3032
 1360SOL    HW115539   4.059   0.752   5.231 -0.7529  2.0590  4.1065
 1360SOL    HW215540   4.090   0.618   5.294 -0.4037  0.6567  0.6726
 1361SOL     OW15541   3.224   0.945   4.268 -0.8533 -0.4334  0.0614
 1361SOL    HW115542   3.309   0.913   4.299 -2.0122 -1.8734  1.7230
 1361SOL    HW215543   3.177   0.865   4.244 -0.4747 -0.3452 -0.9899
 1362SOL     OW15544   0.283   1.353   6.172 -0.1762  0.6323  0.5512
 1362SOL    HW115545   0.225   1.291   6.216  1.2773 -0.3181  1.1367
 1362SOL    HW215546   0.352   1.293   6.143 -0.6565 -0.2013  1.1471
 1363SOL     OW15547   1.244   1.209   6.718 -0.3811 -0.0853 -0.3069
 1363SOL    HW115548   1.258   1.124   6.675  0.4039  0.0232 -0.2686
 1363SOL    HW215549   1.151   1.227   6.705 -0.2358  0.6575 -0.2946
 1364SOL     OW15550   3.843   1.219   3.997  0.0997  0.0163 -0.1805
 1364SOL    HW115551   3.810   1.179   3.916  1.3686 -2.9035  0.7567
 1364SOL    HW215552   3.772   1.205   4.060  0.1317 -2.1490 -0.6121
 1365SOL     OW15553   3.200   1.527   4.603  0.2648  0.7292 -0.3974
 1365SOL    HW115554   3.173   1.583   4.675  2.2231  0.1109  0.8373
 1365SOL    HW215555   3.115   1.505   4.566  0.2264  0.3418 -0.0818
 1366SOL     OW15556   4.453   3.373   4.373  0.0307 -0.1748  0.4821
 1366SOL    HW115557   4.443   3.458   4.417  0.8970 -0.0852  0.5242
 1366SOL    HW215558   4.364   3.352   4.347 -0.0651  0.3979  0.3331
 1367SOL     OW15559   0.815   1.014  12.898  0.3325  0.5893 -0.6251
 1367SOL    HW115560   0.820   0.987  12.990 -1.1878  2.2227 -0.0693
 1367SOL    HW215561   0.877   1.087  12.901  0.7659  0.1121  1.8918
 1368SOL     OW15562   1.737   2.105   1.794  0.0287  0.4481  0.5346
 1368SOL    HW115563   1.708   2.190   1.760 -2.4070 -0.2438  0.9512
 1368SOL    HW215564   1.783   2.135   1.872  0.9878 -3.6764  1.5153
 1369SOL     OW15565   1.718   0.721  14.346 -0.4253  0.2358 -0.5003
 1369SOL    HW115566   1.717   0.812  14.318 -1.0361  0.3951  0.0453
 1369SOL    HW215567   1.797   0.714  14.400 -1.4758  1.2958  1.1787
 1370SOL     OW15568   2.721   2.203  10.662  0.3458 -0.2191 -0.5159
 1370SOL    HW115569   2.684   2.271  10.605 -0.6551 -0.3162  0.0066
 1370SOL    HW215570   2.778   2.260  10.713  3.0003 -3.2999 -0.0399
 1371SOL     OW15571   2.162   1.239   6.593  0.0004  0.1270  0.3135
 1371SOL    HW115572   2.253   1.225   6.620  0.1644 -0.2567 -0.4510
 1371SOL    HW215573   2.121   1.155   6.571  0.0149  0.3951 -0.7110
 1372SOL     OW15574   2.043   1.076   4.656  0.2224  0.2649  0.4834
 1372SOL    HW115575   2.059   0.984   4.633  1.3342  0.3463  0.9218
 1372SOL    HW215576   1.949   1.079   4.672  0.2283  0.6922  0.4308
 1373SOL     OW15577   2.102   1.543   7.697 -0.4184  0.3965  0.4567
 1373SOL    HW115578   2.155   1.503   7.765 -0.3229  0.5810  0.4912
 1373SOL    HW215579   2.165   1.609   7.666  0.6278 -0.7819  0.0914
 1374SOL     OW15580   1.328   1.683   2.641 -0.7863 -0.0099  0.1871
 1374SOL    HW115581   1.306   1.773   2.616  0.7317  0.2976 -0.0211
 1374SOL    HW215582   1.374   1.644   2.567  2.8901  3.6057  0.5510
 1375SOL     OW15583   3.701   2.096   7.697  0.1592 -0.0819  0.4226
 1375SOL    HW115584   3.626   2.057   7.741 -0.1631  1.4331  1.2001
 1375SOL    HW215585   3.750   2.024   7.657 -0.5844 -0.7417  0.7095
 1376SOL     OW15586   3.268   0.482   1.194 -0.1032  0.2505 -0.1508
 1376SOL    HW115587   3.358   0.462   1.166 -0.3745 -1.8218  0.4792
 1376SOL    HW215588   3.271   0.578   1.199  0.1026  0.1534  1.6682
 1377SOL     OW15589   3.148   1.677   8.234 -0.0231 -0.1718  0.5617
 1377SOL    HW115590   3.147   1.623   8.313  2.9465  0.1009  0.8114
 1377SOL    HW215591   3.085   1.630   8.180 -0.2071 -1.5351  1.9811
 1378SOL     OW15592   1.672   2.978   4.649  0.2310  0.1349 -0.4391
 1378SOL    HW115593   1.671   2.882   4.645 -0.3047  0.1934 -1.5084
 1378SOL    HW215594   1.760   3.001   4.618  0.1397 -1.4265 -1.8238
 1379SOL     OW15595   2.791   0.889   4.088  0.2222  0.1877 -0.3830
 1379SOL    HW115596   2.814   0.838   4.166 -0.6289 -0.3889 -0.5101
 1379SOL    HW215597   2.734   0.831   4.038  1.5444  0.3193 -2.0412
 1380SOL     OW15598   0.498   4.463   9.345  0.0880  0.3334  0.4036
 1380SOL    HW115599   0.509   4.371   9.367  0.0775 -0.1452 -1.5930
 1380SOL    HW215600   0.581   4.489   9.307 -0.1251 -0.6382 -0.7385
 1381SOL     OW15601   2.558   0.176   9.192 -0.0494  0.1442  0.4826
 1381SOL    HW115602   2.612   0.107   9.230  0.7714  2.0858  2.8663
 1381SOL    HW215603   2.538   0.236   9.264  1.6663  1.2416  0.0618
 1382SOL     OW15604   0.642   2.580   4.701 -0.8365  0.2766 -0.5165
 1382SOL    HW115605   0.731   2.561   4.731  0.1126  0.8051 -2.9737
 1382SOL    HW215606   0.647   2.534   4.617 -0.1189  1.6924 -1.2296
 1383SOL     OW15607   3.261   4.493   6.028  0.1756 -0.4846 -0.1254
 1383SOL    HW115608   3.284   4.496   6.121 -0.8381 -2.8713  0.1887
 1383SOL    HW215609   3.344   4.518   5.987 -1.0791 -1.6011 -3.2822
 1384SOL     OW15610   4.702   1.065  12.320 -0.0442  0.0747  0.5101
 1384SOL    HW115611   0.036   1.000  12.357  0.2103  0.6544  1.1229
 1384SOL    HW215612   4.618   1.022  12.337 -0.1810 -0.3534 -1.3337
 1385SOL     OW15613   4.157   2.389  15.369  0.1132 -0.0414 -0.0168
 1385SOL    HW115614   4.140   2.297  15.349 -2.1483  0.3367  0.1454
 1385SOL    HW215615   4.253   2.395  15.363  0.0559  0.2730 -0.6252
 1386SOL     OW15616   0.945   4.186   5.682 -0.3748  0.4048  0.1690
 1386SOL    HW115617   0.934   4.265   5.735  2.0344  1.1003 -0.3630
 1386SOL    HW215618   0.911   4.216   5.597 -1.6639 -0.8470  0.2479
 1387SOL     OW15619   1.861   0.576  11.590 -0.2740  0.9706 -0.1021
 1387SOL    HW115620   1.781   0.551  11.544  0.4392  0.8522 -1.2696
 1387SOL    HW215621   1.901   0.634  11.525 -2.0031  2.1829 -0.0790
 1388SOL     OW15622   2.987   4.177   8.982  0.0851 -0.0048  0.0822
 1388SOL    HW115623   2.934   4.143   8.910 -0.0287 -0.7959  0.5351
 1388SOL    HW215624   2.918   4.211   9.039 -1.9127 -2.5981 -0.7685
 1389SOL     OW15625   3.731   2.409   9.830 -0.3071 -0.1092 -0.4895
 1389SOL    HW115626   3.760   2.498   9.850 -1.4113 -0.3850  2.3556
 1389SOL    HW215627   3.814   2.361   9.832  0.2016  0.7859 -0.2474
 1390SOL     OW15628   2.988   3.162   4.577  0.4206 -0.1819 -0.2455
 1390SOL    HW115629   3.035   3.136   4.656 -0.8492 -0.7065  0.3470
 1390SOL    HW215630   3.054   3.215   4.531  0.9130 -1.5497 -1.1227
 1391SOL     OW15631   2.581   1.127  16.661 -0.3476  0.2242  0.3596
 1391SOL    HW115632   2.632   1.162  16.587 -0.9501  1.3199  0.4625
 1391SOL    HW215633   2.601   1.196  16.725 -0.7594 -0.4488  1.2118
 1392SOL     OW15634   0.584   3.902   4.981  0.0955 -0.3509 -0.0426
 1392SOL    HW115635   0.675   3.875   4.994 -0.3501 -1.7247  0.1486
 1392SOL    HW215636   0.549   3.883   5.068 -0.1568  0.0676 -0.0479
 1393SOL     OW15637   0.236   2.465  13.570 -0.4427 -0.3440 -0.7495
 1393SOL    HW115638   0.199   2.494  13.486  1.0815 -1.2202 -1.7238
 1393SOL    HW215639   0.322   2.507  13.560 -0.4394 -0.0213  0.6993
 1394SOL     OW15640   0.560   4.704   4.110 -0.4155  0.3773 -0.2457
 1394SOL    HW115641   0.537   0.054   4.165 -0.1313  1.7806 -2.0450
 1394SOL    HW215642   0.617   0.024   4.048  0.2429 -3.0552 -2.1319
 1395SOL     OW15643   3.332   3.165   7.582 -0.4995  0.3276 -0.2556
 1395SOL    HW115644   3.428   3.163   7.580 -0.5217 -0.0494 -1.1257
 1395SOL    HW215645   3.304   3.202   7.498 -1.3764  0.3555  0.0467
 1396SOL     OW15646   2.001   3.710  15.999 -0.1915 -0.4709  0.3355
 1396SOL    HW115647   2.027   3.755  16.080 -0.7142 -3.3419  2.0786
 1396SOL    HW215648   1.926   3.762  15.970 -0.3747 -0.7814  0.2567
 1397SOL     OW15649   0.083   3.666   5.819 -0.0866 -0.8343  0.0336
 1397SOL    HW115650   0.013   3.628   5.872 -0.8819 -0.1104 -0.5004
 1397SOL    HW215651   0.075   3.627   5.732  2.5859 -2.4072  0.4926
 1398SOL     OW15652   1.283   3.719   3.784  1.1041  0.3130 -0.1269
 1398SOL    HW115653   1.295   3.625   3.775 -0.0958  0.2193 -0.6591
 1398SOL    HW215654   1.299   3.747   3.694  2.0554  1.0055  0.2577
 1399SOL     OW15655   3.766   2.230   4.526 -0.2357 -0.1537 -0.1999
 1399SOL    HW115656   3.670   2.235   4.523 -0.1798  1.1292  0.0045
 1399SOL    HW215657   3.783   2.147   4.571  0.2160 -0.0136 -0.1145
 1400SOL     OW15658   3.511   3.588   7.716  0.4781  0.2216  0.2231
 1400SOL    HW115659   3.428   3.625   7.745  1.0015  0.3872  1.4757
 1400SOL    HW215660   3.530   3.646   7.643  1.7280  0.0957  0.4564
 1401SOL     OW15661   1.266   2.633  12.933 -0.2439 -0.7079  0.1077
 1401SOL    HW115662   1.330   2.570  12.902  0.3736 -0.3428  0.6439
 1401SOL    HW215663   1.306   2.716  12.908  0.6249 -0.7600  1.3419
 1402SOL     OW15664   4.316   0.256  10.090  0.5894 -0.6624 -0.3951
 1402SOL    HW115665   4.264   0.326  10.130  0.5466 -0.3183 -1.0493
 1402SOL    HW215666   4.377   0.250  10.163 -0.8131 -0.0232  0.8514
 1403SOL     OW15667   0.790   2.496  15.092 -0.6142 -0.2179 -0.6041
 1403SOL    HW115668   0.844   2.419  15.112  1.6743  1.4804 -0.2016
 1403SOL    HW215669   0.827   2.528  15.010  0.0086  0.6509  0.0121
 1404SOL     OW15670   4.472   3.188   5.444 -0.1369 -0.4264  0.0221
 1404SOL    HW115671   4.417   3.119   5.479  0.9854 -1.2744  0.1252
 1404SOL    HW215672   4.498   3.239   5.520 -0.8098 -0.4185  0.2436
 1405SOL     OW15673   2.249   2.119   7.539 -0.4546 -0.0271  0.5476
 1405SOL    HW115674   2.235   2.149   7.449  0.1733 -1.0408  0.1033
 1405SOL    HW215675   2.325   2.060   7.537 -1.4681 -1.2281 -2.3030
 1406SOL     OW15676   1.561   1.970   1.951 -0.3721 -0.1337 -0.5090
 1406SOL    HW115677   1.604   1.995   1.869  0.1620  1.1565  0.1582
 1406SOL    HW215678   1.605   2.035   2.007 -2.3537 -0.5021  1.4857
 1407SOL     OW15679   1.180   2.549   6.439 -0.1541 -0.1927 -0.7461
 1407SOL    HW115680   1.128   2.516   6.366 -0.9146  1.9464 -1.1557
 1407SOL    HW215681   1.128   2.527   6.517  1.1779 -0.6001  0.0230
 1408SOL     OW15682   2.437   2.755   8.851 -0.1252 -0.2212 -0.5103
 1408SOL    HW115683   2.379   2.831   8.862  2.6830  1.7681  0.6757
 1408SOL    HW215684   2.491   2.750   8.929  0.4529 -1.0941 -0.9720
 1409SOL     OW15685   3.970   4.471   8.041  0.1606  0.0461 -0.0792
 1409SOL    HW115686   3.917   4.531   7.989  3.0437  2.2626 -0.4393
 1409SOL    HW215687   4.031   4.534   8.079  0.3160 -0.1648  0.0244
 1410SOL     OW15688   3.749   3.494   2.467 -0.3961  0.3716 -0.3064
 1410SOL    HW115689   3.760   3.405   2.502  1.0856  0.9030  0.5827
 1410SOL    HW215690   3.663   3.514   2.504 -0.3633 -0.0905  0.0219
 1411SOL     OW15691   4.371   2.538  16.120 -0.8427  0.6593  0.6450
 1411SOL    HW115692   4.354   2.632  16.128 -1.4814  0.7103 -1.1589
 1411SOL    HW215693   4.421   2.512  16.197  0.6959 -0.0075 -0.5585
 1412SOL     OW15694   4.249   2.235   6.349 -0.7902 -0.0872 -0.5648
 1412SOL    HW115695   4.214   2.196   6.429 -0.3681  0.0220 -0.3256
 1412SOL    HW215696   4.226   2.327   6.359  1.3703  0.5541 -1.6311
 1413SOL     OW15697   1.312   2.272  16.366 -0.4284  0.1981  0.0066
 1413SOL    HW115698   1.245   2.295  16.301  0.7299  2.6570 -0.3358
 1413SOL    HW215699   1.297   2.348  16.422 -1.1491  1.0540 -1.3317
 1414SOL     OW15700   1.270   2.000  16.386 -0.3584 -0.1713  0.5589
 1414SOL    HW115701   1.270   2.094  16.405  0.4932 -0.3447  1.4060
 1414SOL    HW215702   1.343   1.998  16.325  0.8557 -3.8214  2.1536
 1415SOL     OW15703   4.616   4.287   3.785 -0.5846 -0.0786  0.2838
 1415SOL    HW115704   4.695   4.337   3.805  0.8269 -1.6453 -1.3737
 1415SOL    HW215705   4.642   4.227   3.715 -0.0975  0.6117 -0.1348
 1416SOL     OW15706   2.158   3.496   5.437 -0.0133 -0.4356  0.2662
 1416SOL    HW115707   2.199   3.410   5.436  0.3127 -0.2812 -0.0813
 1416SOL    HW215708   2.167   3.529   5.348  1.2477 -1.2909  0.0797
 1417SOL     OW15709   2.933   1.282   7.805 -0.6347 -0.2651  0.3546
 1417SOL    HW115710   2.903   1.191   7.805  1.1063 -0.8320  2.0882
 1417SOL    HW215711   2.941   1.302   7.898  0.7998  2.1202 -0.2834
 1418SOL     OW15712   0.436   0.589   0.695  0.3951  0.1269 -0.1926
 1418SOL    HW115713   0.428   0.494   0.687 -2.4981  0.3833 -0.2541
 1418SOL    HW215714   0.522   0.598   0.653 -1.3218  1.2616 -3.5005
 1419SOL     OW15715   4.410   3.982   1.844  0.0568 -0.4334  0.4485
 1419SOL    HW115716   4.444   3.893   1.857  2.6196  0.0394 -2.9482
 1419SOL    HW215717   4.385   3.978   1.752 -1.3967 -1.8724  0.9111
 1420SOL     OW15718   2.234   1.097  15.789  0.3389 -0.7588  0.2909
 1420SOL    HW115719   2.222   1.163  15.857  0.5629  0.8934 -1.2683
 1420SOL    HW215720   2.265   1.148  15.714 -0.7883  1.0154  1.0354
 1421SOL     OW15721   0.162   1.098   1.070 -0.3518  0.2540 -0.4514
 1421SOL    HW115722   0.253   1.068   1.073 -0.7961 -0.9560  0.7614
 1421SOL    HW215723   0.185   1.191   1.078 -2.2885  0.8264 -1.5702
 1422SOL     OW15724   4.618   1.938   6.467  0.2499  0.4752  0.4227
 1422SOL    HW115725   4.586   2.028   6.463 -0.7395 -0.0207 -2.5193
 1422SOL    HW215726   4.577   1.890   6.395  0.5164  0.1355  0.4972
 1423SOL     OW15727   3.462   3.300   5.296  0.1386  0.0199  0.3724
 1423SOL    HW115728   3.375   3.308   5.335  0.5800 -1.9059  1.7590
 1423SOL    HW215729   3.503   3.371   5.345  1.1652 -0.0907 -0.3231
 1424SOL     OW15730   0.580   0.781   6.279 -0.3358 -0.0162 -0.0756
 1424SOL    HW115731   0.562   0.687   6.280 -2.1297  0.3235 -0.7089
 1424SOL    HW215732   0.664   0.779   6.233  0.4457  0.2938  1.3368
 1425SOL     OW15733   3.602   2.712   4.502  0.0927 -0.7591  0.4977
 1425SOL    HW115734   3.559   2.626   4.502  2.2277 -1.8281 -0.1129
 1425SOL    HW215735   3.530   2.765   4.469  0.9974  1.4476  2.0690
 1426SOL     OW15736   1.097   2.716   3.951 -0.0329 -0.0120  0.2689
 1426SOL    HW115737   1.152   2.683   3.881  0.3189 -0.9891  1.0061
 1426SOL    HW215738   1.052   2.791   3.912 -1.6691 -0.6803  0.8757
 1427SOL     OW15739   0.546   2.223   3.324  0.2078  0.0548 -0.0942
 1427SOL    HW115740   0.589   2.308   3.317  0.5973 -0.0325  1.1358
 1427SOL    HW215741   0.613   2.184   3.381 -0.3352 -0.3428  0.2697
 1428SOL     OW15742   2.124   3.522   4.193  0.0749 -0.0679 -0.2995
 1428SOL    HW115743   2.038   3.546   4.228 -0.0459  0.8427 -1.2373
 1428SOL    HW215744   2.111   3.429   4.214 -1.0820  0.1626  0.0042
 1429SOL     OW15745   3.531   0.042   1.377 -0.7144 -1.3568 -0.5820
 1429SOL    HW115746   3.545   0.131   1.346 -0.6460 -1.4319 -0.7662
 1429SOL    HW215747   3.614   0.001   1.402  0.8533  1.5349 -1.0414
 1430SOL     OW15748   4.136   0.841   2.434  0.0250  0.4181 -0.1715
 1430SOL    HW115749   4.110   0.789   2.509  1.6644 -0.2969 -0.1108
 1430SOL    HW215750   4.094   0.927   2.444 -0.4576  0.2988 -1.1356
 1431SOL     OW15751   4.530   3.488  14.556  0.3470  0.1774 -0.8128
 1431SOL    HW115752   4.466   3.469  14.487  0.0679  1.5831 -0.9570
 1431SOL    HW215753   4.563   3.574  14.530  2.0640 -0.3967 -0.5119
 1432SOL     OW15754   4.131   0.015  15.040 -0.6030  0.6577  0.2999
 1432SOL    HW115755   4.059   4.687  15.073 -0.7770  1.7079  1.6331
 1432SOL    HW215756   4.106   0.101  15.074 -0.6685  0.8712 -0.2873
 1433SOL     OW15757   2.765   3.559   9.916  0.4277 -0.2162 -0.8538
 1433SOL    HW115758   2.792   3.468   9.934  1.0427  0.1697  0.1765
 1433SOL    HW215759   2.676   3.571   9.949  1.3615  1.3900  1.0357
 1434SOL     OW15760   2.140   0.839   3.532 -0.0028 -0.0476  0.7284
 1434SOL    HW115761   2.126   0.745   3.524  1.3877 -0.3540  2.0207
 1434SOL    HW215762   2.147   0.844   3.627 -2.1230 -1.1835  0.9525
 1435SOL     OW15763   1.810   1.925   8.947 -0.0824  0.7092  0.2911
 1435SOL    HW115764   1.883   1.933   9.009  1.2617 -4.2616 -0.6504
 1435SOL    HW215765   1.729   1.939   8.996 -0.7553 -0.5728 -0.4523
 1436SOL     OW15766   0.233   1.497   5.522 -0.0451 -0.0147  0.3307
 1436SOL    HW115767   0.257   1.408   5.497 -0.0316  0.1034 -0.0712
 1436SOL    HW215768   0.311   1.526   5.569 -1.6317  0.2974  2.7952
 1437SOL     OW15769   2.982   2.512  13.895 -0.6899  0.5479  0.0413
 1437SOL    HW115770   2.900   2.543  13.856 -0.6942  0.3094 -0.1352
 1437SOL    HW215771   3.046   2.559  13.841 -1.1895  1.8078  0.5388
 1438SOL     OW15772   4.568   1.319   0.348 -0.1558  0.0743 -0.2572
 1438SOL    HW115773   4.571   1.255   0.277  1.8310  0.9076 -0.9444
 1438SOL    HW215774   4.561   1.400   0.297  0.2246  1.2755  1.5743
 1439SOL     OW15775   2.228   1.282   3.662  0.5405 -0.0660 -0.4516
 1439SOL    HW115776   2.221   1.335   3.741  2.1586 -0.7925  0.1863
 1439SOL    HW215777   2.166   1.210   3.673 -1.4314  1.9650  1.8238
 1440SOL     OW15778   1.134   2.785  16.734  0.2327  0.2377 -0.3976
 1440SOL    HW115779   1.112   2.856  16.794  1.6219 -0.0863  0.5188
 1440SOL    HW215780   1.050   2.757  16.698 -0.1015 -1.0109  1.3251
 1441SOL     OW15781   4.353   2.051   6.177  0.0566  0.1785 -0.1812
 1441SOL    HW115782   4.310   2.120   6.227 -1.3790 -0.7954 -0.0671
 1441SOL    HW215783   4.358   2.082   6.086  4.2284 -0.5924 -0.2190
 1442SOL     OW15784   4.423   0.736  11.690  0.6055  0.2214 -0.9027
 1442SOL    HW115785   4.469   0.690  11.761  0.1519  0.7785 -0.2487
 1442SOL    HW215786   4.495   0.773  11.640  1.3135  1.6698  1.2001
 1443SOL     OW15787   3.451   2.414   9.035 -0.1886  0.2625  0.2406
 1443SOL    HW115788   3.522   2.438   9.095  2.1407 -1.9718 -1.5920
 1443SOL    HW215789   3.470   2.322   9.015 -0.0080  0.5203 -0.7811
 1444SOL     OW15790   4.364   3.903   6.858  0.4054  0.2972  0.7507
 1444SOL    HW115791   4.330   3.957   6.929  1.2154  1.3383  0.3346
 1444SOL    HW215792   4.438   3.954   6.823  0.8100 -0.9790 -0.2825
 1445SOL     OW15793   1.900   2.983   8.082 -0.6183  0.0339  0.1251
 1445SOL    HW115794   1.981   2.985   8.133  0.1147 -4.5960 -0.8276
 1445SOL    HW215795   1.869   2.893   8.090 -0.5904 -0.0903 -1.1954
 1446SOL     OW15796   0.011   3.856   4.227 -0.4797  0.1326 -0.3564
 1446SOL    HW115797   0.017   3.769   4.188 -0.0118  0.2331 -0.5119
 1446SOL    HW215798   4.718   3.904   4.146 -0.6231 -0.8020 -0.8661
 1447SOL     OW15799   4.571   4.326   2.391  0.1959  0.0881  0.5424
 1447SOL    HW115800   4.645   4.362   2.440  0.2089  0.4235  0.2833
 1447SOL    HW215801   4.516   4.404   2.397  1.3025  1.0070 -1.1135
 1448SOL     OW15802   0.161   2.034   4.304  0.0835  0.3540  0.1157
 1448SOL    HW115803   0.204   1.956   4.269 -1.7779  0.2386 -1.9236
 1448SOL    HW215804   0.196   2.109   4.256  1.8004  1.0464  2.4782
 1449SOL     OW15805   0.829   0.478   9.096 -0.1989  0.0301 -0.2116
 1449SOL    HW115806   0.778   0.476   9.015 -0.2617 -3.2671 -0.0915
 1449SOL    HW215807   0.756   0.492   9.157 -0.3656 -2.7107  0.2101
 1450SOL     OW15808   2.737   0.084   2.582  0.0669 -0.8212 -0.1951
 1450SOL    HW115809   2.681   0.161   2.576 -0.1450 -0.8677  1.0878
 1450SOL    HW215810   2.812   0.118   2.535 -1.3598 -1.5345 -2.9666
 1451SOL     OW15811   4.635   2.550   5.464  0.4689 -0.2984 -0.3219
 1451SOL    HW115812   4.630   2.478   5.401 -0.0948 -0.0513 -0.5547
 1451SOL    HW215813   4.576   2.616   5.429 -0.5111 -0.7560  0.4590
 1452SOL     OW15814   4.508   3.728   7.154  0.3754 -0.2486  0.5027
 1452SOL    HW115815   4.413   3.737   7.142  0.2170 -3.6121 -0.5686
 1452SOL    HW215816   4.525   3.646   7.108  1.0402  0.5595 -0.6840
 1453SOL     OW15817   3.984   2.610  15.351  0.0776  0.0082 -0.2234
 1453SOL    HW115818   4.055   2.661  15.390 -0.4495 -2.2714  3.7529
 1453SOL    HW215819   4.020   2.527  15.382 -0.9494 -1.0472 -1.8076
 1454SOL     OW15820   2.571   1.636   1.509 -0.3220  0.2396 -0.5395
 1454SOL    HW115821   2.642   1.630   1.446  0.1385 -0.1076  0.0136
 1454SOL    HW215822   2.614   1.606   1.589  1.2251 -2.2528 -2.3006
 1455SOL     OW15823   1.555   3.668  15.535  0.0680  0.3000 -0.1876
 1455SOL    HW115824   1.482   3.728  15.554 -0.6639 -0.8739  0.7156
 1455SOL    HW215825   1.596   3.670  15.621 -2.0410  2.9830  0.7823
 1456SOL     OW15826   3.413   2.935  14.685  0.1920 -0.0635 -0.3838
 1456SOL    HW115827   3.454   2.944  14.599 -0.9810  0.7047 -0.8679
 1456SOL    HW215828   3.333   2.984  14.670  0.9029  1.9541  2.2838
 1457SOL     OW15829   1.091   3.959   1.718 -0.4651 -0.2630 -0.1740
 1457SOL    HW115830   1.075   3.868   1.741  1.7690 -0.9118 -1.1301
 1457SOL    HW215831   1.168   3.934   1.666 -1.4253 -0.4467 -1.5143
 1458SOL     OW15832   2.107   0.498  14.563 -0.1280  0.1576  0.3354
 1458SOL    HW115833   2.114   0.434  14.492 -2.2142  1.6910 -1.2568
 1458SOL    HW215834   2.070   0.571  14.512  0.6545  0.6548  0.4713
 1459SOL     OW15835   3.268   1.326   7.012 -0.6110 -0.5977 -0.0344
 1459SOL    HW115836   3.216   1.260   6.966 -0.6286  0.0358 -0.9129
 1459SOL    HW215837   3.226   1.408   6.988  1.2205  0.3904  0.1910
 1460SOL     OW15838   1.653   1.836   6.111  0.6349  0.1642 -0.1676
 1460SOL    HW115839   1.643   1.881   6.195 -1.1637  1.5355 -1.1126
 1460SOL    HW215840   1.568   1.850   6.070  0.3454  0.3840  0.5190
 1461SOL     OW15841   3.709   2.531   8.892  0.0021  0.3820  0.0252
 1461SOL    HW115842   3.643   2.548   8.825 -0.7063 -0.3941  0.5100
 1461SOL    HW215843   3.733   2.445   8.858  0.1481  0.5192 -0.2162
 1462SOL     OW15844   3.886   0.588  10.118  0.1178 -0.2164  0.2773
 1462SOL    HW115845   3.800   0.602  10.158 -0.2419  0.0849 -0.5887
 1462SOL    HW215846   3.871   0.495  10.104 -0.8859 -0.0617  0.3156
 1463SOL     OW15847   2.067   0.957   2.603 -0.0532 -0.3737  0.5694
 1463SOL    HW115848   2.024   1.040   2.624 -1.5639 -1.2325  0.9396
 1463SOL    HW215849   2.052   0.920   2.690 -1.3702 -0.6000  0.2511
 1464SOL     OW15850   1.530   4.049   8.291 -0.0651  0.0772  0.0807
 1464SOL    HW115851   1.605   4.109   8.295  1.2768 -1.5052 -1.3262
 1464SOL    HW215852   1.458   4.103   8.260  0.3460  1.5323  1.6231
 1465SOL     OW15853   3.833   3.220   5.494  0.0332  0.0350  0.2060
 1465SOL    HW115854   3.927   3.212   5.477  0.1510  0.1572  0.8144
 1465SOL    HW215855   3.785   3.174   5.424 -0.5617  1.0146 -0.0327
 1466SOL     OW15856   0.399   3.456   5.524 -0.3670 -0.0825  0.4010
 1466SOL    HW115857   0.494   3.467   5.524 -0.4761  0.9290 -1.0861
 1466SOL    HW215858   0.391   3.402   5.602 -1.5857  1.3774  1.2786
 1467SOL     OW15859   1.099   1.889  16.166  0.0186  0.4110 -0.2982
 1467SOL    HW115860   1.063   1.978  16.161  1.0925  0.9327  1.2943
 1467SOL    HW215861   1.176   1.904  16.220  0.4989 -0.7336 -0.6651
 1468SOL     OW15862   1.549   1.915   0.830  0.3906 -0.0910  0.1595
 1468SOL    HW115863   1.510   2.001   0.848  1.5455  0.7710 -1.5197
 1468SOL    HW215864   1.642   1.928   0.848  0.9786 -0.9354 -2.2403
 1469SOL     OW15865   3.524   3.329   2.253  0.5784  0.0355  0.0203
 1469SOL    HW115866   3.471   3.278   2.192  0.5221  1.7242 -1.3393
 1469SOL    HW215867   3.554   3.264   2.316 -1.7152 -2.7703 -1.8051
 1470SOL     OW15868   2.702   3.010  15.596  0.8784  0.2438  0.5526
 1470SOL    HW115869   2.674   3.000  15.505 -0.5881  2.1330  0.8109
 1470SOL    HW215870   2.618   2.992  15.638  0.5460  0.1554 -0.1424
 1471SOL     OW15871   0.856   3.405   2.577 -0.2154 -0.1409  0.2704
 1471SOL    HW115872   0.893   3.324   2.612  1.7497  0.5633 -0.1668
 1471SOL    HW215873   0.779   3.375   2.531  1.2631 -3.3241 -0.0902
 1472SOL     OW15874   3.916   0.941   6.403 -0.4147 -0.4681 -0.1941
 1472SOL    HW115875   3.837   0.981   6.440  0.1503 -0.2715  0.7986
 1472SOL    HW215876   3.953   0.902   6.483 -1.0585 -0.8285 -0.0719
 1473SOL     OW15877   3.900   2.082   1.676  0.1958  0.7505  0.0693
 1473SOL    HW115878   3.914   2.124   1.591 -1.6318 -1.9045 -1.5490
 1473SOL    HW215879   3.815   2.124   1.690 -0.4714 -0.4067 -0.5510
 1474SOL     OW15880   3.331   1.318   0.382  0.5134  0.6965 -0.6745
 1474SOL    HW115881   3.368   1.400   0.348 -0.6306  1.1225 -0.9025
 1474SOL    HW215882   3.361   1.323   0.472 -1.5553  0.9943  0.0113
 1475SOL     OW15883   3.667   1.209   8.219  0.3840  0.4260  0.9758
 1475SOL    HW115884   3.625   1.246   8.142 -1.8219 -0.7702  1.6167
 1475SOL    HW215885   3.588   1.181   8.265  0.8623 -2.7092 -0.1350
 1476SOL     OW15886   3.353   3.760  17.495 -0.4248  0.5797 -0.1519
 1476SOL    HW115887   3.442   3.797  17.495 -1.0001  1.9451 -1.2258
 1476SOL    HW215888   3.325   3.779  17.405 -1.5059  0.8292  0.2356
 1477SOL     OW15889   0.991   0.577  15.545 -0.6252 -0.2731  0.0120
 1477SOL    HW115890   0.911   0.584  15.493  1.1976  1.8235 -2.4696
 1477SOL    HW215891   1.004   0.668  15.571  2.8055 -0.2937 -1.6351
 1478SOL     OW15892   0.553   2.322  13.447  0.7488 -0.7734  0.8831
 1478SOL    HW115893   0.629   2.289  13.495  0.4174 -2.6201  0.1491
 1478SOL    HW215894   0.499   2.243  13.451  0.0023 -0.3401 -1.0907
 1479SOL     OW15895   0.341   2.864   9.076 -0.1197  0.0038 -0.2603
 1479SOL    HW115896   0.387   2.787   9.043 -0.1770 -0.2202  0.1770
 1479SOL    HW215897   0.388   2.893   9.154  1.4892 -1.2121 -0.7816
 1480SOL     OW15898   1.205   4.374   6.767  0.6631 -0.5899 -0.6408
 1480SOL    HW115899   1.138   4.367   6.699  0.5755 -0.4329 -0.5696
 1480SOL    HW215900   1.160   4.430   6.830  1.9864  0.5164 -0.6942
 1481SOL     OW15901   3.681   3.479   4.992 -0.1811  0.4684  0.1647
 1481SOL    HW115902   3.618   3.550   4.976  0.8476  1.3812  0.1340
 1481SOL    HW215903   3.621   3.404   4.988  0.9838 -0.3749 -1.6115
 1482SOL     OW15904   3.398   1.982   6.906  0.4667 -0.1217  0.3213
 1482SOL    HW115905   3.372   2.044   6.838 -1.4423 -0.9342  0.3444
 1482SOL    HW215906   3.312   1.971   6.946  0.2711 -0.3842 -0.1747
 1483SOL     OW15907   4.272   3.970  15.327  0.7201  0.0473 -0.1018
 1483SOL    HW115908   4.306   3.881  15.316  0.0752 -0.3101  0.7820
 1483SOL    HW215909   4.228   3.986  15.243  0.8162  1.9390  0.2110
 1484SOL     OW15910   3.102   0.268   3.012  0.4271 -0.2165  0.0441
 1484SOL    HW115911   3.079   0.264   3.105  0.7236 -0.8195  0.0964
 1484SOL    HW215912   3.146   0.353   3.010 -0.7208  0.3844  0.4412
 1485SOL     OW15913   3.288   4.546  11.654  0.1522  0.4657 -0.1494
 1485SOL    HW115914   3.314   4.505  11.572  0.5120  2.0735 -0.8276
 1485SOL    HW215915   3.218   4.607  11.633  0.3726  2.0450  3.6631
 1486SOL     OW15916   1.283   3.212  13.976 -0.1430  0.5040 -0.0410
 1486SOL    HW115917   1.202   3.167  13.952  0.8575  0.5053 -3.5496
 1486SOL    HW215918   1.342   3.139  13.995  0.7220  1.0858 -0.4717
 1487SOL     OW15919   1.586   3.267  12.973 -0.1231  0.2425  0.0758
 1487SOL    HW115920   1.544   3.212  13.039  2.2795 -0.9646  0.5887
 1487SOL    HW215921   1.517   3.269  12.906  1.2636  2.6048 -1.2926
 1488SOL     OW15922   3.233   4.050   5.651 -0.3892 -0.6857 -0.4119
 1488SOL    HW115923   3.176   4.109   5.701 -0.0045 -0.2120 -0.5382
 1488SOL    HW215924   3.276   4.023   5.732 -0.1612 -1.5665 -0.8278
 1489SOL     OW15925   0.749   0.457   1.256  0.2746  0.5204 -0.3289
 1489SOL    HW115926   0.700   0.515   1.315  0.8298  0.1888  0.4655
 1489SOL    HW215927   0.693   0.380   1.266  0.1046  0.7881  0.8102
 1490SOL     OW15928   4.543   1.438   8.146  0.0556 -0.6287 -0.0444
 1490SOL    HW115929   4.477   1.483   8.093 -0.8569  0.7570  2.2667
 1490SOL    HW215930   4.526   1.471   8.234  2.1895  0.0800  0.1080
 1491SOL     OW15931   0.015   0.307   4.037 -0.2692 -0.4076  0.1884
 1491SOL    HW115932   0.046   0.264   4.117  0.9333 -2.0105 -1.1317
 1491SOL    HW215933   4.646   0.299   4.044 -0.3570  0.5382  0.1910
 1492SOL     OW15934   3.234   2.456   8.597 -0.0197  0.0536 -0.0570
 1492SOL    HW115935   3.148   2.496   8.609  2.2472  4.4064  1.7637
 1492SOL    HW215936   3.290   2.498   8.663  0.4916  0.1989 -0.5775
 1493SOL     OW15937   4.376   2.164   5.946  0.3915  0.5575  0.4093
 1493SOL    HW115938   4.384   2.099   5.876  1.3835  0.3171  0.7422
 1493SOL    HW215939   4.456   2.217   5.935  0.3532  0.9096  1.8406
 1494SOL     OW15940   2.847   2.428   0.862 -0.2562  0.1851 -0.9122
 1494SOL    HW115941   2.879   2.385   0.942 -1.6880 -0.7651 -0.8511
 1494SOL    HW215942   2.901   2.507   0.855 -0.6970  0.7001  1.3113
 1495SOL     OW15943   0.042   0.950   2.880  0.4447 -0.4922 -0.0415
 1495SOL    HW115944   0.069   0.959   2.789  1.0952  0.9848  0.3000
 1495SOL    HW215945   0.119   0.895   2.898  2.1105  1.9246  0.1868
 1496SOL     OW15946   1.687   1.278  15.957 -0.5082 -0.0337 -0.5220
 1496SOL    HW115947   1.768   1.270  15.908 -1.6103 -0.4559 -2.2999
 1496SOL    HW215948   1.661   1.189  15.981  1.0797 -0.2752  0.2998
 1497SOL     OW15949   3.858   1.204   0.830  0.2690 -0.2243  0.4509
 1497SOL    HW115950   3.892   1.248   0.908 -0.7889  0.1015  0.7334
 1497SOL    HW215951   3.935   1.187   0.776 -1.5197 -2.1500 -1.4831
 1498SOL     OW15952   3.675   4.278   9.594 -1.1104  0.3049 -0.2236
 1498SOL    HW115953   3.753   4.225   9.608 -1.3164  0.0501 -0.0308
 1498SOL    HW215954   3.728   4.342   9.547  1.0618 -2.2616 -1.2533
 1499SOL     OW15955   2.370   3.188   5.993  0.4440 -0.1834  0.0754
 1499SOL    HW115956   2.346   3.210   5.903 -0.5503  2.6052  1.0057
 1499SOL    HW215957   2.308   3.243   6.041  1.1356  0.4227  0.2724
 1500SOL     OW15958   3.639   2.460   7.988  0.2344 -0.6339 -0.1641
 1500SOL    HW115959   3.545   2.470   7.973  0.2960 -0.2424 -0.2858
 1500SOL    HW215960   3.661   2.546   8.024 -2.0221  0.4316 -1.3455
 1501SOL     OW15961   0.921   2.057   6.359 -0.1584  0.0691 -0.4143
 1501SOL    HW115962   0.996   2.059   6.299 -0.9027  1.5859 -1.3011
 1501SOL    HW215963   0.940   2.136   6.410 -2.2863  1.1609 -1.2998
 1502SOL     OW15964   1.787   3.429   8.927 -0.2571 -0.5300 -0.2206
 1502SOL    HW115965   1.776   3.365   8.857 -1.2112 -0.8260  0.2009
 1502SOL    HW215966   1.865   3.478   8.900  0.6434 -2.2660 -0.7276
 1503SOL     OW15967   2.258   0.522   5.308  0.4204 -0.2987  0.3887
 1503SOL    HW115968   2.202   0.560   5.241 -1.8296  0.0916  2.4453
 1503SOL    HW215969   2.343   0.557   5.283  0.2082  1.0422  1.5326
 1504SOL     OW15970   3.397   0.514   2.013 -0.6680  0.5867  0.3224
 1504SOL    HW115971   3.339   0.515   2.090 -2.0791  0.2785 -0.7352
 1504SOL    HW215972   3.359   0.446   1.958  1.5990 -0.2711 -0.1730
 1505SOL     OW15973   1.491   3.331   7.954 -0.7234  0.4413  0.8980
 1505SOL    HW115974   1.531   3.260   8.004 -4.5946 -0.6795  2.4303
 1505SOL    HW215975   1.419   3.357   8.011 -0.2960  1.2100  1.0735
 1506SOL     OW15976   1.411   2.306   2.293 -0.0576  0.1829  0.0413
 1506SOL    HW115977   1.421   2.400   2.308  0.2347  0.5161 -2.2459
 1506SOL    HW215978   1.495   2.270   2.322  1.1586  2.5208 -0.5523
 1507SOL     OW15979   4.149   2.087   3.480 -0.3707 -0.0759 -0.4720
 1507SOL    HW115980   4.098   2.158   3.519  0.0865  0.2003 -0.3729
 1507SOL    HW215981   4.217   2.140   3.437 -0.3854  0.4664  0.1788
 1508SOL     OW15982   3.385   1.510  16.134 -0.1527 -1.0529 -0.0513
 1508SOL    HW115983   3.457   1.478  16.189  0.5135  1.0117  0.2744
 1508SOL    HW215984   3.443   1.525  16.060  0.3375  0.7812  0.7012
 1509SOL     OW15985   0.109   3.888   6.442  0.2479 -0.0551 -0.1958
 1509SOL    HW115986   0.079   3.967   6.398 -0.5978 -0.0147  0.4603
 1509SOL    HW215987   0.140   3.937   6.518  3.1106 -0.7605 -0.8945
 1510SOL     OW15988   2.949   2.828   3.834 -0.3470  0.0243 -0.1659
 1510SOL    HW115989   2.856   2.804   3.831 -0.3780  0.2542 -1.1418
 1510SOL    HW215990   2.974   2.840   3.742 -1.1891  0.3667 -0.3591
 1511SOL     OW15991   0.077   1.544   3.234 -0.4457 -0.0910 -0.2166
 1511SOL    HW115992   0.049   1.471   3.179 -0.2703 -0.1260 -0.2580
 1511SOL    HW215993   0.033   1.622   3.200 -0.3336  0.1023  0.0728
 1512SOL     OW15994   0.890   2.309   7.955 -0.1164 -0.0185 -0.0404
 1512SOL    HW115995   0.944   2.236   7.923 -0.1381 -0.7089  1.4961
 1512SOL    HW215996   0.930   2.319   8.042 -0.3387 -1.2161  0.2019
 1513SOL     OW15997   4.408   1.475   7.276  0.0686  0.0515 -0.3039
 1513SOL    HW115998   4.478   1.472   7.341 -0.4969  0.4088  0.3256
 1513SOL    HW215999   4.348   1.414   7.321  1.5886 -0.6027  0.8194
 1514SOL     OW16000   1.199   0.939  16.280  0.0101  0.6861  0.5149
 1514SOL    HW116001   1.294   0.929  16.272 -0.3469 -1.3732 -0.9555
 1514SOL    HW216002   1.191   1.032  16.302 -3.8870 -1.1733  6.8791
 1515SOL     OW16003   0.273   0.420   3.260 -0.6198  0.1561 -0.1662
 1515SOL    HW116004   0.324   0.350   3.299  1.8642  1.6157 -0.8007
 1515SOL    HW216005   0.298   0.407   3.169 -1.5551  0.3534 -0.4539
 1516SOL     OW16006   3.045   2.069   7.710 -0.2627 -0.1181  0.7066
 1516SOL    HW116007   3.026   1.976   7.698 -1.1990  0.1514  0.1299
 1516SOL    HW216008   3.107   2.091   7.640  0.0756  1.0464  1.3690
 1517SOL     OW16009   2.772   1.860   5.654  0.0762 -0.1574  0.3498
 1517SOL    HW116010   2.696   1.832   5.603  0.3560 -2.8069  1.4034
 1517SOL    HW216011   2.833   1.883   5.584 -0.4170 -2.0818 -0.7240
 1518SOL     OW16012   3.087   1.408   6.004 -0.3759 -0.2475  1.3891
 1518SOL    HW116013   3.144   1.349   5.955 -2.6109 -3.7068  2.9475
 1518SOL    HW216014   2.995   1.381   5.993 -0.5679  0.4259  1.3315
 1519SOL     OW16015   1.249   0.897   5.752  0.1028  0.0833  0.5064
 1519SOL    HW116016   1.259   0.865   5.662 -0.6349 -1.7969  1.0936
 1519SOL    HW216017   1.322   0.845   5.785  0.0147  0.2683  0.9874
 1520SOL     OW16018   3.174   0.855   8.563 -0.3913 -0.3356  0.5260
 1520SOL    HW116019   3.229   0.932   8.574 -0.6141  0.0374 -1.0496
 1520SOL    HW216020   3.243   0.790   8.552 -0.0084  0.0543  0.6751
 1521SOL     OW16021   2.615   2.981   7.607 -0.1628 -0.0874 -0.4225
 1521SOL    HW116022   2.569   3.062   7.626 -3.2161 -1.5453 -1.5800
 1521SOL    HW216023   2.557   2.916   7.648  1.6771 -0.7726  1.0895
 1522SOL     OW16024   2.521   1.691  13.276  0.4291 -0.1281  0.2407
 1522SOL    HW116025   2.578   1.637  13.220 -1.2448  0.5469 -2.1200
 1522SOL    HW216026   2.451   1.712  13.214 -0.3016 -2.1879  0.3489
 1523SOL     OW16027   3.184   2.494   4.533  0.1251  0.0253 -0.9196
 1523SOL    HW116028   3.183   2.494   4.628  1.5326 -1.0782 -0.9044
 1523SOL    HW216029   3.134   2.574   4.517  0.6230 -0.0778 -2.9722
 1524SOL     OW16030   4.214   0.273   2.376  0.1507  0.2912 -0.3622
 1524SOL    HW116031   4.229   0.359   2.413 -0.9179  0.6310 -0.7302
 1524SOL    HW216032   4.123   0.260   2.403 -0.4012  2.0461 -1.4344
 1525SOL     OW16033   1.248   2.427   6.025 -0.1497 -0.5186  0.3346
 1525SOL    HW116034   1.278   2.449   5.938 -0.6107  0.6092  0.4649
 1525SOL    HW216035   1.327   2.444   6.076 -0.1606  1.7499 -0.4453
 1526SOL     OW16036   0.888   4.098   4.571 -0.0602 -0.1508 -0.4629
 1526SOL    HW116037   0.888   4.009   4.606 -0.9621  0.1801  0.3792
 1526SOL    HW216038   0.915   4.153   4.645 -3.4498  3.0383 -1.6138
 1527SOL     OW16039   1.260   3.680   2.329 -0.3213  0.5596  0.0668
 1527SOL    HW116040   1.301   3.675   2.416  0.0976 -0.3780 -0.1833
 1527SOL    HW216041   1.180   3.629   2.342  0.7874 -1.4182 -0.7677
 1528SOL     OW16042   3.694   2.311   8.243  0.1720  0.2810 -0.3750
 1528SOL    HW116043   3.759   2.368   8.284  0.3199 -1.2193  1.4502
 1528SOL    HW216044   3.692   2.345   8.153  1.1791  0.1572 -0.4438
 1529SOL     OW16045   3.244   1.010   1.488 -0.6218 -0.5009 -0.0100
 1529SOL    HW116046   3.212   1.091   1.528 -1.3797 -0.2688 -1.0923
 1529SOL    HW216047   3.289   0.973   1.564 -2.1205 -1.2327  0.4997
 1530SOL     OW16048   1.376   1.955   7.865 -0.2486 -0.1440  0.1024
 1530SOL    HW116049   1.408   1.998   7.944 -0.6743  0.5721 -0.1149
 1530SOL    HW216050   1.388   1.862   7.887 -0.3113 -0.3880 -0.8526
 1531SOL     OW16051   0.712   4.615   1.579  0.2730 -0.2231 -0.2700
 1531SOL    HW116052   0.624   4.583   1.556 -0.3289  0.7356  0.7229
 1531SOL    HW216053   0.753   4.528   1.586  0.8141  0.1509  1.2079
 1532SOL     OW16054   1.478   4.317  12.145  0.0978  0.0461  0.0831
 1532SOL    HW116055   1.406   4.266  12.108  0.0786  0.9620 -1.1578
 1532SOL    HW216056   1.557   4.290  12.098  0.8764  2.0281  0.2306
 1533SOL     OW16057   2.741   1.164   3.287 -0.0071  0.4637  0.3071
 1533SOL    HW116058   2.735   1.080   3.241  1.4835 -0.1363  1.1965
 1533SOL    HW216059   2.681   1.159   3.361  1.1727  0.7403  1.2878
 1534SOL     OW16060   0.863   3.624   7.398  0.4357 -0.1839  0.3640
 1534SOL    HW116061   0.899   3.582   7.476 -1.5693  1.0622  1.9699
 1534SOL    HW216062   0.931   3.613   7.332 -0.9509 -1.0498 -0.9246
 1535SOL     OW16063   0.617   2.193   2.426  0.0719 -0.9053 -0.0095
 1535SOL    HW116064   0.558   2.144   2.484 -2.3983  0.2801 -1.5023
 1535SOL    HW216065   0.612   2.280   2.466 -0.3809 -1.0398  0.2277
 1536SOL     OW16066   3.856   1.514   6.803  0.2661  0.1251 -0.2923
 1536SOL    HW116067   3.820   1.507   6.715 -0.8799  1.0079  0.0913
 1536SOL    HW216068   3.951   1.513   6.795  0.1528  1.1903 -1.7248
 1537SOL     OW16069   2.841   1.763  15.656  0.2205 -0.8634 -0.3481
 1537SOL    HW116070   2.823   1.734  15.745  0.2908  0.1305 -0.0057
 1537SOL    HW216071   2.931   1.732  15.643 -0.3380 -1.8951 -1.7396
 1538SOL     OW16072   2.682   2.945   1.488  0.3981 -0.3311  0.0198
 1538SOL    HW116073   2.620   2.888   1.442 -0.7873 -0.3162  1.5729
 1538SOL    HW216074   2.753   2.881   1.492 -0.4817 -1.3309 -0.3311
 1539SOL     OW16075   4.197   3.643   3.115 -0.0663 -0.2958  0.3114
 1539SOL    HW116076   4.240   3.565   3.150 -0.1939  0.2155  1.5991
 1539SOL    HW216077   4.180   3.633   3.022  2.0988  1.2132 -0.2338
 1540SOL     OW16078   0.142   4.169   5.754  0.0474  0.1085 -0.3723
 1540SOL    HW116079   0.085   4.092   5.750 -0.3973  0.4058  0.3308
 1540SOL    HW216080   0.077   4.236   5.735  2.1716  2.0121 -0.9218
 1541SOL     OW16081   1.802   0.787   4.661 -0.0362  0.1986 -0.4833
 1541SOL    HW116082   1.768   0.751   4.579  0.0737  0.6694 -0.7323
 1541SOL    HW216083   1.776   0.723   4.727  0.2559  0.6383  0.0560
 1542SOL     OW16084   4.724   1.783  16.728  0.2141 -0.4330  0.6230
 1542SOL    HW116085   0.005   1.691  16.703 -1.5027 -0.2748 -0.4552
 1542SOL    HW216086   0.024   1.832  16.650  0.9241  0.1745  1.2287
 1543SOL     OW16087   2.429   0.029  16.680 -0.7031 -0.4065 -0.6944
 1543SOL    HW116088   2.393   4.691  16.619 -0.5685 -0.0016 -1.1932
 1543SOL    HW216089   2.449   4.703  16.758 -1.4863 -1.8199 -1.4461
 1544SOL     OW16090   3.998   4.411   6.203  0.7377  0.0904 -0.6403
 1544SOL    HW116091   4.076   4.416   6.258  1.4649  0.9592 -1.7587
 1544SOL    HW216092   3.945   4.362   6.265  0.4316  0.0515 -0.9312
 1545SOL     OW16093   1.545   3.906  14.544 -0.1178  0.4393  0.3542
 1545SOL    HW116094   1.597   3.982  14.518 -0.2435  0.5712  0.4850
 1545SOL    HW216095   1.561   3.848  14.469 -1.2799 -1.5468  1.6538
 1546SOL     OW16096   3.233   2.409   3.528 -0.3981 -0.3045  0.1635
 1546SOL    HW116097   3.243   2.363   3.612 -2.7832 -1.2697 -0.0957
 1546SOL    HW216098   3.273   2.353   3.461 -1.2347  0.0558 -0.6207
 1547SOL     OW16099   3.062   1.057   5.949 -0.1504  0.1529  0.1543
 1547SOL    HW116100   3.092   0.968   5.931  0.9313  0.3107  1.1859
 1547SOL    HW216101   3.101   1.068   6.036  0.2960  2.6237 -0.3649
 1548SOL     OW16102   3.890   3.650  16.123  0.4136  0.3127  0.1097
 1548SOL    HW116103   3.965   3.643  16.064  0.9848 -0.5158  0.9374
 1548SOL    HW216104   3.880   3.745  16.124 -0.3557  0.2348 -0.6278
 1549SOL     OW16105   2.449   2.350   6.312  0.7757 -0.0046  0.2322
 1549SOL    HW116106   2.392   2.408   6.363  0.9029 -1.7387  2.3383
 1549SOL    HW216107   2.389   2.279   6.290 -0.3943  0.3630  2.2832
 1550SOL     OW16108   1.996   3.738   3.199  0.6691  0.2287 -0.3533
 1550SOL    HW116109   1.918   3.713   3.151  0.8864 -0.0979 -0.5336
 1550SOL    HW216110   2.022   3.659   3.246  1.5199  0.9372  0.3799
 1551SOL     OW16111   4.268   1.767  16.776  0.5853  0.2751  0.2274
 1551SOL    HW116112   4.206   1.829  16.739 -2.3168 -1.8906  1.4134
 1551SOL    HW216113   4.203   1.699  16.795  0.2479  0.6752  0.4948
 1552SOL     OW16114   0.633   3.324   4.614 -0.9888  0.3469  0.2415
 1552SOL    HW116115   0.672   3.357   4.533  0.1980 -0.9893  0.2649
 1552SOL    HW216116   0.711   3.283   4.652 -1.7402  1.0046  2.5024
 1553SOL     OW16117   0.364   0.018   1.335 -0.1255  0.6298 -0.2017
 1553SOL    HW116118   0.427   0.090   1.333  2.2237 -1.4157  0.0050
 1553SOL    HW216119   0.318   0.034   1.253 -3.5064  0.4421  1.6367
 1554SOL     OW16120   2.739   4.260  12.360  0.9347  1.0200  0.5677
 1554SOL    HW116121   2.679   4.334  12.356  1.8960  1.7863  0.2368
 1554SOL    HW216122   2.688   4.180  12.345  2.2969  0.0359  1.1761
 1555SOL     OW16123   2.495   4.073   8.951 -0.5854 -0.3705  0.0345
 1555SOL    HW116124   2.469   3.983   8.927 -0.8511  0.1593 -1.6611
 1555SOL    HW216125   2.447   4.119   8.882  0.6121 -1.1252 -1.2855
 1556SOL     OW16126   3.758   2.242   3.288  0.5204  0.0571  0.1667
 1556SOL    HW116127   3.718   2.230   3.375 -0.1602 -0.7213 -0.2513
 1556SOL    HW216128   3.710   2.323   3.270  2.7040  1.3153  0.0509
 1557SOL     OW16129   1.205   0.621   8.048 -0.3356 -0.3125  0.2076
 1557SOL    HW116130   1.197   0.551   8.112  1.0875  0.3870  1.1522
 1557SOL    HW216131   1.235   0.569   7.973  0.1769 -0.1692  0.3081
 1558SOL     OW16132   3.102   4.141   8.270  0.3325 -0.3500  0.1458
 1558SOL    HW116133   3.179   4.127   8.214  0.0611 -1.5020  0.0612
 1558SOL    HW216134   3.139   4.126   8.357 -0.6406 -0.0673  0.6029
 1559SOL     OW16135   2.047   4.414   3.189 -0.6430  0.1693 -0.1487
 1559SOL    HW116136   2.097   4.387   3.112 -1.9954 -0.0900 -0.9185
 1559SOL    HW216137   2.108   4.388   3.259  0.0614  0.5645 -0.6106
 1560SOL     OW16138   2.948   2.846  13.870  0.0075  0.4573  0.4884
 1560SOL    HW116139   2.934   2.810  13.957  0.0859 -0.8968 -0.0636
 1560SOL    HW216140   3.018   2.794  13.830 -1.5867 -1.0190 -0.3677
 1561SOL     OW16141   2.203   2.609   2.187 -0.4840 -0.0919 -0.0047
 1561SOL    HW116142   2.203   2.605   2.283  3.1074  0.2879 -0.0006
 1561SOL    HW216143   2.171   2.521   2.168 -2.9874  0.5364  1.2050
 1562SOL     OW16144   1.527   0.535   2.251 -0.0987  0.0751  0.6332
 1562SOL    HW116145   1.470   0.511   2.178 -1.5819  0.6036  1.6229
 1562SOL    HW216146   1.610   0.502   2.216  1.4575  4.7423 -0.1524
 1563SOL     OW16147   1.902   2.321   1.954  0.2325  1.0363 -0.1202
 1563SOL    HW116148   1.971   2.346   2.016 -0.4445  0.8747  0.6951
 1563SOL    HW216149   1.840   2.298   2.023  1.8799  1.3312  1.4715
 1564SOL     OW16150   4.290   2.619   6.502  0.1396 -0.1964  0.2489
 1564SOL    HW116151   4.224   2.593   6.438 -2.3224  0.6123  2.4530
 1564SOL    HW216152   4.303   2.536   6.548 -0.6518  0.1107  1.0322
 1565SOL     OW16153   3.966   1.424  13.091  0.0602 -0.1116 -0.1481
 1565SOL    HW116154   3.971   1.343  13.040 -0.3395 -0.4310  0.3185
 1565SOL    HW216155   3.873   1.444  13.080 -0.1180 -0.1982  1.1441
 1566SOL     OW16156   3.045   3.206   7.973 -0.3609  0.3422 -0.1013
 1566SOL    HW116157   2.998   3.289   7.971 -1.5705 -0.3706 -0.8671
 1566SOL    HW216158   3.032   3.168   8.060 -0.7595  1.7980  0.4651
 1567SOL     OW16159   0.853   3.609   8.325 -0.5236  0.2687 -0.3091
 1567SOL    HW116160   0.937   3.652   8.309 -1.6903  1.6882 -2.7064
 1567SOL    HW216161   0.791   3.668   8.281 -1.5802 -0.1113  0.6767
 1568SOL     OW16162   0.335   0.855   3.665  0.0833  0.5571 -0.0877
 1568SOL    HW116163   0.286   0.852   3.747  1.4294  0.5937  0.7175
 1568SOL    HW216164   0.275   0.804   3.611  0.7313 -0.0097 -0.2864
 1569SOL     OW16165   0.027   4.505  15.842  0.4147 -0.4871  0.5183
 1569SOL    HW116166   0.121   4.525  15.835  0.2501  0.2055  0.3259
 1569SOL    HW216167   4.717   4.593  15.851  1.5564  0.0247  0.0949
 1570SOL     OW16168   1.752   0.867   7.801 -0.1224  0.3975  0.5580
 1570SOL    HW116169   1.797   0.948   7.775 -1.7067  0.6596 -1.3849
 1570SOL    HW216170   1.789   0.807   7.737  2.0138 -1.2507  3.3382
 1571SOL     OW16171   0.504   1.541   1.577 -0.7390 -0.4432  0.1286
 1571SOL    HW116172   0.530   1.576   1.492 -0.6294  1.9598  1.1373
 1571SOL    HW216173   0.586   1.546   1.626 -1.5437 -1.5450  1.6072
 1572SOL     OW16174   3.999   1.451   7.562 -0.0078  0.3919  0.2717
 1572SOL    HW116175   3.987   1.543   7.583  2.3465  0.9226 -0.6915
 1572SOL    HW216176   3.944   1.411   7.630  1.1133 -2.1245 -0.2722
 1573SOL     OW16177   4.325   3.609   5.536  0.4298  0.1156 -0.0115
 1573SOL    HW116178   4.272   3.544   5.490  0.4775  1.3824 -1.8637
 1573SOL    HW216179   4.410   3.584   5.500 -0.1637 -1.2577 -0.4725
 1574SOL     OW16180   3.555   3.367   4.006  0.7135 -0.1412 -0.5533
 1574SOL    HW116181   3.650   3.380   4.005  0.5351  1.1747 -0.0445
 1574SOL    HW216182   3.549   3.358   3.911  0.4130  2.5157 -0.7800
 1575SOL     OW16183   0.267   1.521   7.904 -0.6936  0.0881  0.1035
 1575SOL    HW116184   0.352   1.508   7.947 -0.9271  0.0785  0.5642
 1575SOL    HW216185   0.215   1.519   7.985  1.7186 -1.5768  1.6021
 1576SOL     OW16186   0.053   3.727   3.575  0.2672 -0.0594  0.6271
 1576SOL    HW116187   0.065   3.761   3.486  2.0166  0.3213  1.0223
 1576SOL    HW216188   0.120   3.769   3.629 -1.6043  0.4179  2.5642
 1577SOL     OW16189   1.218   3.665   8.759 -0.0637 -0.4742  0.3973
 1577SOL    HW116190   1.288   3.724   8.735 -1.8738  2.1527  1.5805
 1577SOL    HW216191   1.141   3.710   8.723  0.5862  1.5053  1.5041
 1578SOL     OW16192   0.004   3.049  16.566  0.7862 -0.0731  0.1046
 1578SOL    HW116193   0.060   3.006  16.501  0.3002 -0.1242 -0.2754
 1578SOL    HW216194   4.665   3.091  16.510 -0.9341  0.2584  2.3519
 1579SOL     OW16195   0.367   1.784   7.835 -0.1086  0.8092  0.0857
 1579SOL    HW116196   0.439   1.753   7.780  1.0625  1.0355  1.4867
 1579SOL    HW216197   0.320   1.703   7.852  1.4802 -0.3376 -0.9904
 1580SOL     OW16198   1.494   2.558   5.934 -0.4680  0.4486 -0.3906
 1580SOL    HW116199   1.537   2.548   6.019 -1.9902  0.9373  0.4466
 1580SOL    HW216200   1.565   2.585   5.876 -1.2791  0.9264 -1.1709
 1581SOL     OW16201   2.362   4.687   0.790 -0.0651  0.0409 -0.1525
 1581SOL    HW116202   2.372   0.007   0.707  1.6521 -0.2651 -0.1168
 1581SOL    HW216203   2.268   4.698   0.804 -0.2578  0.5107 -1.7778
 1582SOL     OW16204   4.708   0.576  16.041 -0.2750 -0.1025 -0.6052
 1582SOL    HW116205   0.040   0.545  15.971  0.5168 -0.7829  0.3407
 1582SOL    HW216206   0.040   0.638  16.086  0.2273 -1.9278  1.2784
 1583SOL     OW16207   4.317   0.983   7.441  0.2071 -0.2074  0.6039
 1583SOL    HW116208   4.371   1.033   7.502 -0.4890 -1.2601  2.0888
 1583SOL    HW216209   4.378   0.912   7.419  0.4624 -0.6106  2.5788
 1584SOL     OW16210   0.891   1.908   6.796  0.2062  0.2441 -0.0529
 1584SOL    HW116211   0.877   1.935   6.887 -0.8467 -1.1380  0.1877
 1584SOL    HW216212   0.806   1.871   6.773 -0.5057  1.6382  0.3530
 1585SOL     OW16213   3.702   3.061  14.795  0.6286 -0.0274 -0.6950
 1585SOL    HW116214   3.688   2.977  14.752  0.6891 -0.8595  0.8868
 1585SOL    HW216215   3.615   3.100  14.791 -0.3280 -2.0871  0.0690
 1586SOL     OW16216   0.822   3.342  14.740  0.1340  0.3793  0.2157
 1586SOL    HW116217   0.809   3.313  14.649 -1.1367 -1.9836  1.1643
 1586SOL    HW216218   0.820   3.265  14.796  2.0319 -0.3092 -0.6782
 1587SOL     OW16219   2.290   1.789   5.720  0.7708  0.0103  0.6368
 1587SOL    HW116220   2.267   1.744   5.801 -3.0681 -1.1897 -1.0909
 1587SOL    HW216221   2.320   1.874   5.753  0.4480  0.0331  0.8687
 1588SOL     OW16222   1.528   1.954   7.138 -0.3757  0.0338 -0.1217
 1588SOL    HW116223   1.538   1.926   7.229  0.7616  3.0341  0.6659
 1588SOL    HW216224   1.480   2.037   7.143 -0.9710 -0.2679 -0.7209
 1589SOL     OW16225   4.700   1.353  15.688  0.3322  0.1228 -0.1010
 1589SOL    HW116226   4.625   1.306  15.652  1.0280 -0.3160 -0.9952
 1589SOL    HW216227   0.027   1.366  15.609  0.5670 -0.5466 -0.0506
 1590SOL     OW16228   2.819   3.726   4.165  0.1388 -0.1299  0.2786
 1590SOL    HW116229   2.754   3.717   4.095  0.7621  2.8478 -0.6729
 1590SOL    HW216230   2.896   3.751   4.114  1.8653 -0.1871  2.8808
 1591SOL     OW16231   2.076   3.368   3.939 -0.1741 -0.4558  0.2196
 1591SOL    HW116232   2.132   3.409   3.873 -1.9230 -1.4021 -1.8666
 1591SOL    HW216233   2.083   3.426   4.015  3.5886 -0.3313 -0.2537
 1592SOL     OW16234   3.545   1.514  13.313 -0.0791  0.3144  0.2553
 1592SOL    HW116235   3.474   1.467  13.358 -0.0072  2.0013  2.1170
 1592SOL    HW216236   3.537   1.605  13.343  0.4135 -0.0851  1.5948
 1593SOL     OW16237   2.635   4.600   0.913 -0.1017  0.3357  0.0705
 1593SOL    HW116238   2.540   4.601   0.900 -0.3394 -2.3766  1.5981
 1593SOL    HW216239   2.639   4.506   0.931  1.2217  0.4554  0.3687
 1594SOL     OW16240   1.085   3.158   8.698 -0.5639 -0.1286  0.0206
 1594SOL    HW116241   1.036   3.088   8.740  3.4082 -3.2098 -0.5074
 1594SOL    HW216242   1.020   3.228   8.701  0.4206  0.7877  0.0694
 1595SOL     OW16243   4.711   1.001   7.602 -0.6454  0.9094 -0.0420
 1595SOL    HW116244   0.080   1.016   7.609 -0.2643 -1.0842 -0.9372
 1595SOL    HW216245   4.697   0.916   7.560  1.3527  1.3771 -1.6778
 1596SOL     OW16246   0.058   2.290  13.979 -0.2760  0.0902 -0.6791
 1596SOL    HW116247   0.081   2.269  14.070 -1.0530  1.5099 -0.1367
 1596SOL    HW216248   4.725   2.366  13.988 -1.3948 -0.6151 -2.0506
 1597SOL     OW16249   1.486   0.646  10.038  0.2995 -0.2313 -0.7823
 1597SOL    HW116250   1.482   0.616  10.129  0.2742  1.0006 -0.3806
 1597SOL    HW216251   1.396   0.649  10.006  0.5929 -2.2567 -1.8109
 1598SOL     OW16252   4.276   1.087  17.508  0.1379 -0.4552 -0.5208
 1598SOL    HW116253   4.270   0.991  17.502  0.3143 -0.5865  1.6474
 1598SOL    HW216254   4.194   1.106  17.553  0.2155  0.3049 -0.6992
 1599SOL     OW16255   3.000   4.688   4.861  0.0234  0.5276  0.0418
 1599SOL    HW116256   2.960   0.049   4.856  0.7609  0.8573 -0.0189
 1599SOL    HW216257   3.061   4.703   4.933 -1.1262 -0.5669  1.2629
 1600SOL     OW16258   0.325   3.143  12.018 -0.1695 -0.6130  0.1648
 1600SOL    HW116259   0.374   3.118  11.940 -0.1269 -0.1428  0.0368
 1600SOL    HW216260   0.345   3.077  12.084  1.3297 -0.0249  0.2969
 1601SOL     OW16261   2.034   4.463   4.318 -0.7219  0.2683 -0.2483
 1601SOL    HW116262   1.961   4.414   4.356 -1.0283  0.9687  0.0523
 1601SOL    HW216263   2.004   4.552   4.336 -0.5983 -0.0352  1.5155
 1602SOL     OW16264   2.393   4.302   2.867  0.1899 -0.4086  0.0071
 1602SOL    HW116265   2.452   4.270   2.935 -1.4980  0.0853  1.7113
 1602SOL    HW216266   2.336   4.225   2.862 -2.4748  1.7170 -2.0459
 1603SOL     OW16267   1.076   1.063  16.687 -0.2267  0.4062 -0.2995
 1603SOL    HW116268   1.127   1.144  16.683 -0.2082  0.4893  1.8664
 1603SOL    HW216269   1.025   1.095  16.612 -0.0740  1.5275  0.0840
 1604SOL     OW16270   4.263   0.428   7.391  0.0005  0.0228  0.6017
 1604SOL    HW116271   4.271   0.452   7.484  1.3052 -1.1757  0.7859
 1604SOL    HW216272   4.202   0.494   7.357  0.0893  0.1265  0.6443
 1605SOL     OW16273   3.336   2.701   1.621  0.1207 -0.0697 -0.7585
 1605SOL    HW116274   3.397   2.648   1.570 -1.7460 -1.8805 -1.0953
 1605SOL    HW216275   3.334   2.645   1.699 -1.5789 -1.0016 -1.4751
 1606SOL     OW16276   1.175   3.200   3.326  0.0796  0.2693 -0.1225
 1606SOL    HW116277   1.104   3.210   3.263 -1.1629 -2.4370  0.8579
 1606SOL    HW216278   1.155   3.271   3.387  1.6769  0.7312 -0.1285
 1607SOL     OW16279   2.908   3.544   6.420 -0.4666  0.9289  0.4912
 1607SOL    HW116280   2.988   3.556   6.471  1.7281 -1.0083 -2.4106
 1607SOL    HW216281   2.841   3.534   6.487 -0.7246 -0.7171 -0.0009
 1608SOL     OW16282   1.230   0.692   1.992  0.2874  0.2751 -0.0791
 1608SOL    HW116283   1.286   0.629   2.037  1.6096  2.8309  1.8669
 1608SOL    HW216284   1.189   0.737   2.066 -0.7079  1.4992 -1.3818
 1609SOL     OW16285   4.147   1.373   1.958 -0.5290 -0.5919 -0.1988
 1609SOL    HW116286   4.079   1.334   1.903 -1.5839 -0.3215  0.9035
 1609SOL    HW216287   4.136   1.465   1.935 -1.0363 -0.8992 -1.1966
 1610SOL     OW16288   0.333   1.944  15.333 -0.2141  0.3476 -0.1699
 1610SOL    HW116289   0.403   1.945  15.267 -0.5304  1.9919 -0.4752
 1610SOL    HW216290   0.269   1.888  15.290  1.6864 -1.0121 -1.2070
 1611SOL     OW16291   1.221   0.017  12.215  0.2608  0.1142 -0.3236
 1611SOL    HW116292   1.314   0.031  12.230  0.2639  0.0581 -0.2899
 1611SOL    HW216293   1.233   4.662  12.165  1.0760  0.4849 -0.7233
 1612SOL     OW16294   2.742   3.053  16.672 -0.4853 -0.1680 -0.2469
 1612SOL    HW116295   2.826   3.028  16.709  0.1235  2.5026  0.1659
 1612SOL    HW216296   2.692   3.080  16.749  1.3215  3.3817 -0.3419
 1613SOL     OW16297   3.202   0.186   4.377 -0.1793  0.3584  0.7827
 1613SOL    HW116298   3.270   0.149   4.434  1.4239  0.0451 -1.3544
 1613SOL    HW216299   3.252   0.224   4.305 -1.3507  3.8387  1.8385
 1614SOL     OW16300   1.440   1.745   6.804  0.2649  0.0513 -0.0880
 1614SOL    HW116301   1.358   1.784   6.835  0.1737  0.3732 -0.7280
 1614SOL    HW216302   1.444   1.666   6.857  1.5217  1.6923  2.2372
 1615SOL     OW16303   0.377   4.527   3.008 -0.3243 -0.0713  0.1603
 1615SOL    HW116304   0.459   4.572   3.028  0.5074 -1.5119 -0.0599
 1615SOL    HW216305   0.406   4.452   2.956 -0.2670  0.5007 -0.6486
 1616SOL     OW16306   1.154   1.639   8.618  0.2804 -0.2784 -0.2002
 1616SOL    HW116307   1.209   1.689   8.558  2.3663 -2.2886  0.0697
 1616SOL    HW216308   1.213   1.615   8.689 -1.6104  0.4576  1.6438
 1617SOL     OW16309   4.342   4.112   0.393 -0.2750  0.2324 -0.0402
 1617SOL    HW116310   4.431   4.082   0.414 -0.8960 -1.1835  0.5234
 1617SOL    HW216311   4.351   4.139   0.302  2.4065 -1.1607 -0.1983
 1618SOL     OW16312   3.336   1.231   3.964 -0.7001  0.1010  0.0535
 1618SOL    HW116313   3.321   1.311   4.014  3.2010  1.1629 -0.4341
 1618SOL    HW216314   3.425   1.236   3.928  0.1117 -2.2198  1.7460
 1619SOL     OW16315   3.597   4.566   8.751  0.3438  0.2841 -0.1050
 1619SOL    HW116316   3.613   4.618   8.672 -1.8121  0.5435 -0.3759
 1619SOL    HW216317   3.631   4.480   8.727  1.5715  1.3628 -2.2688
 1620SOL     OW16318   3.973   3.083  14.851  0.4302  0.2041 -0.0377
 1620SOL    HW116319   4.012   2.999  14.878 -1.2961  0.2074  2.4636
 1620SOL    HW216320   3.881   3.057  14.857  0.1141  1.5317  0.9773
 1621SOL     OW16321   4.660   4.580   7.292 -0.3882  0.3777 -0.8003
 1621SOL    HW116322   4.665   4.538   7.379  2.2049 -0.1178 -1.2003
 1621SOL    HW216323   4.595   4.648   7.309 -2.3783 -1.7968  0.3184
 1622SOL     OW16324   0.528   0.576   3.456 -0.0650 -0.3008 -0.2212
 1622SOL    HW116325   0.589   0.618   3.517  1.0113 -1.8160 -0.2301
 1622SOL    HW216326   0.489   0.504   3.506  0.6101 -1.0141 -0.7151
 1623SOL     OW16327   3.317   1.093   8.625 -0.3375  0.4445 -0.2571
 1623SOL    HW116328   3.288   1.168   8.678 -0.2123  0.1084  0.2827
 1623SOL    HW216329   3.379   1.047   8.681 -1.1296  0.1768  0.3867
 1624SOL     OW16330   4.120   0.814   1.374  0.6956  0.4627 -0.2018
 1624SOL    HW116331   4.182   0.740   1.379 -0.3702 -0.4840 -0.9667
 1624SOL    HW216332   4.179   0.889   1.369  1.1587  0.1255  0.1152
 1625SOL     OW16333   0.956   3.974   9.309 -0.1712 -0.2901 -0.8873
 1625SOL    HW116334   1.007   3.964   9.228  1.0922  0.5422 -0.1849
 1625SOL    HW216335   0.869   3.980   9.270 -1.4839 -2.1769  1.7414
 1626SOL     OW16336   2.642   1.822   3.202 -0.3475 -0.0422  0.1954
 1626SOL    HW116337   2.552   1.853   3.203  0.5668  2.4552  2.8074
 1626SOL    HW216338   2.628   1.755   3.134  3.1613  0.1387 -0.7107
 1627SOL     OW16339   3.587   4.012   4.048 -0.2700 -0.4738 -0.1497
 1627SOL    HW116340   3.623   4.100   4.044  0.5679 -0.7638  1.1037
 1627SOL    HW216341   3.500   4.029   4.083 -0.5175  1.3118 -1.6434
 1628SOL     OW16342   2.094   2.752  10.366  0.6874  0.3882  0.0296
 1628SOL    HW116343   2.101   2.663  10.399  0.4588 -0.5349 -2.4438
 1628SOL    HW216344   2.163   2.800  10.411  0.6745  0.4268  0.0090
 1629SOL     OW16345   1.807   4.108   7.502 -0.6779  0.0117 -0.1301
 1629SOL    HW116346   1.858   4.189   7.501  0.5507 -0.7748 -0.5220
 1629SOL    HW216347   1.852   4.064   7.431 -0.1729  1.4887 -0.7290
 1630SOL     OW16348   2.112   0.747   7.878 -0.5536  0.8131  0.7749
 1630SOL    HW116349   2.070   0.793   7.951 -1.3591  0.0969  0.7608
 1630SOL    HW216350   2.122   0.657   7.908  1.7384  0.8794  0.1696
 1631SOL     OW16351   1.765   3.662   9.107  0.0324 -0.3777  0.2932
 1631SOL    HW116352   1.799   3.585   9.061 -0.1936 -0.3930  0.1485
 1631SOL    HW216353   1.680   3.631   9.138  0.1238 -0.2540  0.6633
 1632SOL     OW16354   3.619   0.065   0.687 -0.0357  0.0733 -0.4086
 1632SOL    HW116355   3.567   0.090   0.764  1.7726  0.3088  0.7289
 1632SOL    HW216356   3.557   0.036   0.620  0.5622 -2.2543  0.0478
 1633SOL     OW16357   4.219   1.018   9.648 -0.1302 -0.5632  0.4913
 1633SOL    HW116358   4.266   1.023   9.731 -0.4125 -0.3547  0.6377
 1633SOL    HW216359   4.162   0.941   9.650 -0.7223 -0.1363 -0.0654
 1634SOL     OW16360   4.537   1.819   0.348  0.7367  0.1429  0.4320
 1634SOL    HW116361   4.456   1.807   0.398 -0.8125  2.2332 -1.5836
 1634SOL    HW216362   4.508   1.887   0.287  3.7616 -0.7814 -2.0220
 1635SOL     OW16363   2.964   2.175   6.193  0.0564  0.2128 -0.5156
 1635SOL    HW116364   2.899   2.109   6.218  0.2936  0.1794  0.0134
 1635SOL    HW216365   2.942   2.185   6.100  0.0838  0.1381 -0.5300
 1636SOL     OW16366   1.543   2.955   3.496 -0.0449 -0.1456 -0.0107
 1636SOL    HW116367   1.448   2.967   3.491  0.0166  0.4948  0.3536
 1636SOL    HW216368   1.549   2.935   3.589  1.0070 -0.2260 -0.0964
 1637SOL     OW16369   1.205   3.107  12.218  0.1465 -0.2963  0.0378
 1637SOL    HW116370   1.160   3.031  12.254  0.0685 -1.2399 -2.0602
 1637SOL    HW216371   1.139   3.172  12.195 -0.2416  0.4022  3.1721
 1638SOL     OW16372   0.809   0.155   6.004 -0.0051 -0.2932 -0.0145
 1638SOL    HW116373   0.887   0.211   6.012  0.9475 -1.7054  0.6403
 1638SOL    HW216374   0.742   0.223   6.013  1.3962  0.7113  2.9335
 1639SOL     OW16375   4.709   0.681   6.257  0.0878  0.3445  0.0440
 1639SOL    HW116376   0.016   0.765   6.288 -0.4150 -0.2464  2.1699
 1639SOL    HW216377   4.669   0.715   6.178 -1.4001 -1.8186 -0.1414
 1640SOL     OW16378   2.404   2.518   8.660 -0.1588  0.7325 -0.2944
 1640SOL    HW116379   2.336   2.452   8.666 -0.9218  1.2293 -3.4929
 1640SOL    HW216380   2.381   2.573   8.735  0.6533  1.5300 -0.6369
 1641SOL     OW16381   1.128   1.633  11.131  0.1034  0.1274  0.3834
 1641SOL    HW116382   1.199   1.607  11.189  1.5805 -0.0410 -1.5021
 1641SOL    HW216383   1.113   1.723  11.162 -1.2263  0.0787 -0.1103
 1642SOL     OW16384   1.124   0.802  14.069  0.9375 -0.0032 -0.3900
 1642SOL    HW116385   1.209   0.834  14.039  0.5572  1.0510 -0.3310
 1642SOL    HW216386   1.127   0.843  14.155  1.3322 -1.4402  0.2744
 1643SOL     OW16387   3.485   3.667  14.160 -0.3697  0.2792  0.6252
 1643SOL    HW116388   3.408   3.610  14.155 -0.4514  0.3340  1.2376
 1643SOL    HW216389   3.468   3.722  14.084  1.1976 -2.3026 -1.5728
 1644SOL     OW16390   4.093   3.416   3.584  0.2993  0.4201 -0.3589
 1644SOL    HW116391   4.074   3.505   3.553  2.8623  1.0173 -0.1564
 1644SOL    HW216392   4.077   3.362   3.506 -3.3505  1.3662 -0.2596
 1645SOL     OW16393   4.052   2.369   2.439  0.2564 -0.4236  0.4281
 1645SOL    HW116394   4.092   2.282   2.443  2.3599  0.5961  1.9080
 1645SOL    HW216395   3.967   2.353   2.479 -0.3719  1.4587 -0.1594
 1646SOL     OW16396   1.105   2.545  15.233  0.5100 -0.2781  0.1825
 1646SOL    HW116397   1.024   2.596  15.232  2.4409  2.7999  1.2323
 1646SOL    HW216398   1.162   2.602  15.181 -0.5621 -1.0802 -1.8499
 1647SOL     OW16399   3.233   1.818  17.365 -0.2173 -0.7561  0.1688
 1647SOL    HW116400   3.247   1.729  17.399  2.7421 -0.7819 -1.1883
 1647SOL    HW216401   3.146   1.838  17.399  1.4163  0.7063  3.4315
 1648SOL     OW16402   0.816   0.184   2.153 -0.2489  0.3033 -0.0314
 1648SOL    HW116403   0.796   0.161   2.062 -0.6613  1.9084 -0.3558
 1648SOL    HW216404   0.888   0.245   2.140 -2.0683  3.0162  2.4251
 1649SOL     OW16405   0.150   4.148   8.895  0.2574 -0.2603  0.2807
 1649SOL    HW116406   0.064   4.176   8.863 -1.1814 -2.4235  2.1914
 1649SOL    HW216407   0.136   4.053   8.897  0.3413 -0.2497  1.4288
 1650SOL     OW16408   1.003   4.036  17.284 -0.5127 -0.0770  0.3365
 1650SOL    HW116409   1.003   3.946  17.250 -2.6124 -0.0018  0.1739
 1650SOL    HW216410   1.094   4.051  17.261  0.0222 -0.0536  2.4309
 1651SOL     OW16411   4.469   1.745   3.192  0.8727  0.2226 -0.0202
 1651SOL    HW116412   4.408   1.815   3.168  2.5947  1.5714 -0.5143
 1651SOL    HW216413   4.409   1.671   3.190 -0.1859  1.1414 -2.1065
 1652SOL     OW16414   4.354   2.775   9.562  0.1923  0.5234 -0.2465
 1652SOL    HW116415   4.425   2.773   9.497 -0.0507  0.0554 -0.4977
 1652SOL    HW216416   4.397   2.750   9.643  0.7337 -1.8547 -1.2816
 1653SOL     OW16417   0.745   2.610  12.826 -0.0849  0.6543  0.3569
 1653SOL    HW116418   0.835   2.585  12.843 -0.2842  0.8875  1.7509
 1653SOL    HW216419   0.706   2.523  12.830 -1.4864  1.2582  0.0302
 1654SOL     OW16420   1.933   3.187   2.636  0.2723 -0.2650  0.0559
 1654SOL    HW116421   1.900   3.263   2.685 -2.0116 -0.6849 -0.8292
 1654SOL    HW216422   1.903   3.118   2.695 -0.6535 -0.5488 -0.7307
 1655SOL     OW16423   1.842   0.594   0.303  0.3694  0.5739 -0.3751
 1655SOL    HW116424   1.877   0.588   0.215  0.3410 -0.9052 -0.2865
 1655SOL    HW216425   1.854   0.503   0.332  1.5540  1.5222  2.1346
 1656SOL     OW16426   2.718   4.683   9.245  0.1435 -0.2042  0.0460
 1656SOL    HW116427   2.718   4.631   9.165  1.5511  1.5880 -1.1294
 1656SOL    HW216428   2.760   4.614   9.295 -0.0043 -0.8166 -0.6693
 1657SOL     OW16429   2.582   4.078  17.219  0.1327 -0.6038 -0.4523
 1657SOL    HW116430   2.526   4.112  17.148  0.4373 -0.5774 -0.6822
 1657SOL    HW216431   2.615   3.995  17.186 -0.1360 -0.2433 -1.6555
 1658SOL     OW16432   1.192   2.873   0.979 -0.0391  0.3021  0.0396
 1658SOL    HW116433   1.205   2.968   0.970 -1.6403  0.7192  2.0791
 1658SOL    HW216434   1.237   2.861   1.062 -2.1703 -0.6527  1.0354
 1659SOL     OW16435   1.163   0.536   6.543 -0.0148 -0.0196 -0.1029
 1659SOL    HW116436   1.117   0.452   6.532  2.7724 -1.8762  2.6375
 1659SOL    HW216437   1.136   0.558   6.632  0.9085 -1.5008  0.5428
 1660SOL     OW16438   3.870   1.554   9.796  0.0271 -0.1709 -0.6785
 1660SOL    HW116439   3.878   1.461   9.816 -2.5407  0.0599  1.4089
 1660SOL    HW216440   3.854   1.557   9.701  1.5262 -0.7434 -0.9350
 1661SOL     OW16441   4.585   0.251   9.233  0.3889 -0.6369  0.0713
 1661SOL    HW116442   4.579   0.157   9.215  1.4322 -0.5337 -0.8098
 1661SOL    HW216443   4.495   0.262   9.266  0.3598  0.9842 -0.5592
 1662SOL     OW16444   0.711   3.266  11.100 -0.0125 -0.4752  0.3932
 1662SOL    HW116445   0.649   3.320  11.150  1.4121  0.5105  1.0800
 1662SOL    HW216446   0.785   3.324  11.115 -1.2831  1.0089  1.0276
 1663SOL     OW16447   3.026   0.898   5.149  0.1993 -0.0425  0.2944
 1663SOL    HW116448   3.031   0.984   5.108 -2.6497  0.0763  0.1787
 1663SOL    HW216449   3.077   0.912   5.229 -1.1111  1.7564  0.7871
 1664SOL     OW16450   0.025   2.671   3.217 -0.2375 -0.5266 -0.0588
 1664SOL    HW116451   4.684   2.668   3.149  2.2364  3.4048 -2.6315
 1664SOL    HW216452   0.079   2.742   3.183 -2.7374  1.6380  0.5399
 1665SOL     OW16453   2.384   3.688   7.075 -0.1447 -0.1370 -0.2206
 1665SOL    HW116454   2.394   3.648   6.989  3.5014 -0.6795  0.4560
 1665SOL    HW216455   2.460   3.746   7.075  0.2666 -0.6813  0.7104
 1666SOL     OW16456   1.606   1.478  15.755  0.5601  0.1909  0.8281
 1666SOL    HW116457   1.600   1.419  15.829  0.7310 -0.5158  0.2765
 1666SOL    HW216458   1.541   1.546  15.772  0.2560  0.1168 -0.0268
 1667SOL     OW16459   3.808   3.712   5.459  0.5679 -0.7518 -0.2011
 1667SOL    HW116460   3.794   3.784   5.398 -2.7907 -0.8420  0.4741
 1667SOL    HW216461   3.901   3.724   5.474  0.4336 -1.6951  1.3621
 1668SOL     OW16462   1.182   1.077   2.939  0.1714  0.5169  0.1791
 1668SOL    HW116463   1.120   1.147   2.962 -1.1556  0.1742 -2.3307
 1668SOL    HW216464   1.263   1.106   2.982  1.5490 -0.8350 -1.5187
 1669SOL     OW16465   0.186   4.007   6.053 -0.1197 -0.3417  0.0073
 1669SOL    HW116466   0.122   3.993   6.123 -0.9186  0.4125 -0.5743
 1669SOL    HW216467   0.132   4.043   5.984  1.8183  2.2321 -0.1722
 1670SOL     OW16468   1.195   3.066   6.271  0.4135 -0.0164  0.3347
 1670SOL    HW116469   1.104   3.075   6.297  0.0039  0.2479 -1.1671
 1670SOL    HW216470   1.207   2.972   6.288  0.7998  0.2317  1.4008
 1671SOL     OW16471   0.423   2.036   2.528  0.6123  0.5854 -0.9274
 1671SOL    HW116472   0.355   2.085   2.481 -0.7907 -1.2973 -0.8413
 1671SOL    HW216473   0.373   1.965   2.567  2.1184 -0.0055 -0.0787
 1672SOL     OW16474   1.413   1.510   8.388 -0.8438 -0.0854 -0.2514
 1672SOL    HW116475   1.421   1.459   8.468  0.4263 -1.7396 -1.4228
 1672SOL    HW216476   1.478   1.454   8.344 -0.8949 -0.2972 -0.0551
 1673SOL     OW16477   2.219   2.703   7.741 -0.7513 -0.6133 -0.0995
 1673SOL    HW116478   2.133   2.683   7.777  0.5728 -1.8554  2.4351
 1673SOL    HW216479   2.198   2.761   7.668 -2.4788 -0.0232  0.8685
 1674SOL     OW16480   4.493   3.828   4.801 -0.3876 -0.3001  0.3054
 1674SOL    HW116481   4.428   3.761   4.823  1.7026 -2.6845 -0.7572
 1674SOL    HW216482   4.466   3.842   4.710  0.9016 -0.8826 -0.1690
 1675SOL     OW16483   2.346   4.425   9.227  0.1440 -0.7454 -0.1845
 1675SOL    HW116484   2.349   4.410   9.132  0.0471  1.5780 -0.5424
 1675SOL    HW216485   2.256   4.434   9.259  0.5191 -2.7609  1.4239
 1676SOL     OW16486   4.156   2.968   7.390 -0.8857 -0.1177 -0.4468
 1676SOL    HW116487   4.068   3.005   7.395 -0.0972  1.3496  2.3760
 1676SOL    HW216488   4.155   2.902   7.459  0.5547  0.5895  0.2439
 1677SOL     OW16489   0.230   0.778   1.986 -0.0373 -0.2178  0.4695
 1677SOL    HW116490   0.164   0.711   1.970 -0.0419 -0.4282  1.3448
 1677SOL    HW216491   0.206   0.783   2.079  1.3134  2.9376  0.6737
 1678SOL     OW16492   2.785   2.965   7.249  0.1679 -0.8281  0.2332
 1678SOL    HW116493   2.809   2.921   7.331 -1.0107  0.6432  1.3560
 1678SOL    HW216494   2.790   2.890   7.190 -0.6637  0.3696 -1.3382
 1679SOL     OW16495   0.847   0.331   4.854 -0.3933 -0.4357  0.7152
 1679SOL    HW116496   0.829   0.386   4.778  1.2822  0.9247  1.3117
 1679SOL    HW216497   0.763   0.338   4.899  0.0613 -0.0645  1.5016
 1680SOL     OW16498   1.243   2.067   9.081  0.7778 -0.0256 -0.5025
 1680SOL    HW116499   1.166   2.056   9.136  0.4811 -1.3163 -1.1652
 1680SOL    HW216500   1.305   2.086   9.151  0.7726 -3.2910  0.4253
 1681SOL     OW16501   4.417   1.212   2.386  0.3269  0.1604  0.2506
 1681SOL    HW116502   4.327   1.209   2.351  0.6176  0.2858 -0.5049
 1681SOL    HW216503   4.447   1.292   2.344  1.4699 -0.6333 -0.4377
 1682SOL     OW16504   2.350   3.249   1.354 -0.0186  0.1711 -0.7175
 1682SOL    HW116505   2.428   3.260   1.299 -0.5942 -1.2083 -1.7935
 1682SOL    HW216506   2.363   3.322   1.415  0.0116  0.9544 -1.6768
 1683SOL     OW16507   1.338   3.088  10.236  0.3977  0.5275 -0.0413
 1683SOL    HW116508   1.272   3.121  10.297 -0.2538  1.2723 -1.1467
 1683SOL    HW216509   1.391   3.166  10.220  2.5214 -1.8342 -4.7473
 1684SOL     OW16510   4.620   0.563   9.335 -0.1433 -0.5148 -0.3613
 1684SOL    HW116511   4.635   0.473   9.309 -0.1537 -0.5804 -0.1454
 1684SOL    HW216512   4.705   0.605   9.319 -0.6761  0.2391 -1.1728
 1685SOL     OW16513   4.022   4.573  11.147  0.0295 -0.4426  0.1998
 1685SOL    HW116514   3.964   4.646  11.170 -1.0564 -1.1610 -0.2494
 1685SOL    HW216515   4.060   4.602  11.064 -2.3782  1.6089 -0.1717
 1686SOL     OW16516   3.374   2.187   7.634 -0.1569  0.1296  0.4400
 1686SOL    HW116517   3.339   2.271   7.604  0.2153  0.0465 -0.2214
 1686SOL    HW216518   3.446   2.169   7.574 -0.2454  1.3375 -0.0271
 1687SOL     OW16519   3.463   1.787   8.720 -0.3150 -0.3031  0.6466
 1687SOL    HW116520   3.521   1.777   8.645 -1.3388 -0.0287 -0.1895
 1687SOL    HW216521   3.466   1.881   8.735 -2.9802 -0.3896  1.7685
 1688SOL     OW16522   1.779   3.430   3.869  0.5941 -0.6061 -0.0998
 1688SOL    HW116523   1.769   3.520   3.901  1.0974 -1.1608  1.5969
 1688SOL    HW216524   1.848   3.391   3.923  1.8913  1.8469 -0.0111
 1689SOL     OW16525   2.652   1.473   8.841  0.4308 -0.1455 -0.2892
 1689SOL    HW116526   2.627   1.541   8.779 -1.3895 -0.2370  0.3316
 1689SOL    HW216527   2.627   1.393   8.794 -0.3104 -0.9387  1.3958
 1690SOL     OW16528   2.411   3.483   5.038  0.4539 -0.4932  0.4815
 1690SOL    HW116529   2.485   3.544   5.040  1.1307 -1.2435 -2.0714
 1690SOL    HW216530   2.402   3.463   4.945 -2.2249  1.3311  0.3470
 1691SOL     OW16531   4.033   2.803  14.902 -0.1312  0.1931 -0.5560
 1691SOL    HW116532   4.084   2.822  14.981 -0.9410  1.0727 -0.2362
 1691SOL    HW216533   4.092   2.734  14.872  0.4272  0.1696  0.6232
 1692SOL     OW16534   4.420   1.439   0.860 -0.8078 -0.5651 -0.2728
 1692SOL    HW116535   4.412   1.344   0.848 -1.4001 -0.3525 -1.4643
 1692SOL    HW216536   4.348   1.475   0.809 -0.4561 -0.7903 -0.9262
 1693SOL     OW16537   2.060   2.204   5.841  0.2333  0.6523  0.3631
 1693SOL    HW116538   1.967   2.226   5.843 -0.1894 -0.9116 -2.0665
 1693SOL    HW216539   2.109   2.266   5.788 -2.2896  2.0789 -0.2977
 1694SOL     OW16540   1.437   0.274   3.697 -0.0572  1.0069 -0.3995
 1694SOL    HW116541   1.405   0.198   3.647  2.0055  0.3828 -0.7975
 1694SOL    HW216542   1.528   0.248   3.682  0.2409  2.2820 -0.7405
 1695SOL     OW16543   0.061   1.776   4.714  0.1118  0.0649  0.5781
 1695SOL    HW116544   0.032   1.688   4.741 -0.5133 -0.1815 -0.8903
 1695SOL    HW216545   4.706   1.811   4.676 -0.2529 -0.2181  1.0873
 1696SOL     OW16546   1.474   0.524   0.917  0.4373 -0.7542 -0.1489
 1696SOL    HW116547   1.494   0.457   0.982  2.1928  0.3424  0.4444
 1696SOL    HW216548   1.410   0.578   0.964  1.8116 -1.7718  2.9161
 1697SOL     OW16549   3.086   4.658   9.178  0.3418 -0.2263  0.6150
 1697SOL    HW116550   3.149   4.694   9.240 -2.0417  1.6136  1.9677
 1697SOL    HW216551   3.113   4.567   9.187 -2.9459 -0.9767  2.7311
 1698SOL     OW16552   2.993   1.742  10.924 -0.1116  0.1713  0.7231
 1698SOL    HW116553   2.950   1.657  10.915 -0.9484  0.5917  0.7305
 1698SOL    HW216554   2.936   1.781  10.990 -1.9099 -0.4672 -0.4525
 1699SOL     OW16555   1.069   0.641   6.768 -0.1450 -0.1796  0.1196
 1699SOL    HW116556   1.130   0.662   6.839 -1.6460  0.8479  1.1125
 1699SOL    HW216557   1.011   0.576   6.806 -0.1217  0.1629  0.7556
 1700SOL     OW16558   0.253   4.001   4.587 -0.6695 -0.0520 -0.8589
 1700SOL    HW116559   0.270   4.091   4.617  0.6545 -0.4872 -0.3243
 1700SOL    HW216560   0.306   3.951   4.649 -0.0646 -2.4355 -3.3388
 1701SOL     OW16561   1.980   1.097   8.083 -0.0493  0.2639 -0.0541
 1701SOL    HW116562   2.046   1.139   8.027 -0.8927 -0.8940 -1.8938
 1701SOL    HW216563   1.905   1.122   8.029  0.3957  1.4347 -0.1441
 1702SOL     OW16564   1.642   3.088   4.906 -0.1296  0.1973  0.0374
 1702SOL    HW116565   1.658   3.040   4.825 -0.5657 -1.1187  0.7107
 1702SOL    HW216566   1.668   3.174   4.876 -0.1937  0.0091 -0.5435
 1703SOL     OW16567   1.289   4.078   6.484 -0.0887  0.1171  0.3022
 1703SOL    HW116568   1.193   4.081   6.479 -0.0655  2.2606  1.2560
 1703SOL    HW216569   1.314   4.104   6.396  1.6254  1.5863  1.2198
 1704SOL     OW16570   4.173   4.332  13.381  0.7725  0.1591  0.0045
 1704SOL    HW116571   4.199   4.400  13.443 -3.1808  1.7700 -0.1372
 1704SOL    HW216572   4.158   4.393  13.309  0.3722 -0.2207 -0.2320
 1705SOL     OW16573   3.035   1.778  10.253  0.1225 -0.3373  0.0894
 1705SOL    HW116574   3.013   1.712  10.319 -1.4452 -0.2417 -0.3297
 1705SOL    HW216575   3.053   1.719  10.180  1.4899 -0.5814  0.6195
 1706SOL     OW16576   0.295   3.608   3.234 -0.2224 -0.0065 -0.5412
 1706SOL    HW116577   0.262   3.677   3.177  0.6127  1.1996  0.4292
 1706SOL    HW216578   0.280   3.646   3.321  0.0526  1.3075 -1.0692
 1707SOL     OW16579   0.289   4.097   4.929  0.2866  0.3941 -0.2671
 1707SOL    HW116580   0.201   4.079   4.962  0.3300 -0.9305 -0.8481
 1707SOL    HW216581   0.329   4.010   4.938  1.9661  1.1491 -0.4173
 1708SOL     OW16582   4.087   2.954   4.377  0.5288 -0.0533 -0.1566
 1708SOL    HW116583   4.059   3.045   4.382  0.8785  0.0161  0.4443
 1708SOL    HW216584   4.008   2.900   4.385 -0.6319  1.7816  0.7805
 1709SOL     OW16585   1.880   4.628   4.859  0.4669 -0.1554 -0.1394
 1709SOL    HW116586   1.850   4.576   4.933  0.7505 -0.8233 -0.5026
 1709SOL    HW216587   1.943   4.687   4.901  0.5698 -0.5080  0.1989
 1710SOL     OW16588   4.691   4.025  15.480  0.0686 -0.0162 -0.0996
 1710SOL    HW116589   4.616   3.981  15.520 -1.0553  2.5172  0.5643
 1710SOL    HW216590   4.722   4.065  15.561  0.6598  0.0219 -0.3435
 1711SOL     OW16591   4.225   0.195   6.296 -0.0677  0.0706 -0.2935
 1711SOL    HW116592   4.141   0.196   6.250 -0.4087 -2.5577  0.2596
 1711SOL    HW216593   4.247   0.287   6.283  1.9746 -0.2420  1.0319
 1712SOL     OW16594   1.960   2.861  16.736  0.2547  0.3445  0.1418
 1712SOL    HW116595   1.875   2.825  16.762  1.2814 -1.2900  1.2612
 1712SOL    HW216596   1.934   2.931  16.677 -0.3878 -0.2280 -0.2474
 1713SOL     OW16597   1.087   0.766  13.148 -0.1323  0.1915  0.2864
 1713SOL    HW116598   1.090   0.787  13.054 -2.4089  0.7017  0.3337
 1713SOL    HW216599   1.018   0.829  13.168 -0.3808  0.4715 -1.3731
 1714SOL     OW16600   4.602   1.905  11.572 -0.2427 -0.8271  0.3883
 1714SOL    HW116601   4.638   1.904  11.484  2.9235 -2.4119  1.7072
 1714SOL    HW216602   4.635   1.986  11.610  0.5197 -0.0197 -2.0121
 1715SOL     OW16603   2.294   0.026  13.186  0.0488  0.2937  0.4462
 1715SOL    HW116604   2.268   4.660  13.198  0.6340  0.1263  0.4567
 1715SOL    HW216605   2.270   0.064  13.270  0.3888  2.7474 -0.5538
 1716SOL     OW16606   1.637   2.062   7.562 -0.1800 -0.4072  0.3306
 1716SOL    HW116607   1.622   1.976   7.524  0.5517 -0.2411 -0.3345
 1716SOL    HW216608   1.723   2.070   7.519  0.2747 -2.7828  0.8036
 1717SOL     OW16609   1.516   1.047  14.161  0.1293  0.5581 -0.2902
 1717SOL    HW116610   1.527   0.972  14.102 -0.0160 -1.6705  2.5118
 1717SOL    HW216611   1.530   1.124  14.106 -0.9330  0.0860 -1.2244
 1718SOL     OW16612   1.094   2.039   5.796 -0.2431  0.3762 -0.2550
 1718SOL    HW116613   1.019   2.021   5.740 -1.3891 -0.0208  1.4094
 1718SOL    HW216614   1.124   1.949   5.813  1.5251  0.7625 -1.3177
 1719SOL     OW16615   3.761   0.794   3.030 -0.3302  0.3961  0.4347
 1719SOL    HW116616   3.740   0.829   2.944  1.8058 -0.1972 -0.3333
 1719SOL    HW216617   3.831   0.733   3.006 -0.6969 -0.2017  0.8794
 1720SOL     OW16618   2.433   0.827  16.873  0.3964 -0.4207 -0.3170
 1720SOL    HW116619   2.434   0.808  16.967 -1.5186 -0.2221 -0.2397
 1720SOL    HW216620   2.524   0.832  16.846  1.0074  0.3016  1.9147
 1721SOL     OW16621   2.119   2.842   7.514 -0.5639  0.3608 -0.2574
 1721SOL    HW116622   2.178   2.918   7.516 -1.0769  0.6959  2.0680
 1721SOL    HW216623   2.161   2.787   7.448 -0.3559 -0.3378  0.4522
 1722SOL     OW16624   0.896   1.851   3.504 -0.0383 -0.5971 -0.2052
 1722SOL    HW116625   0.901   1.794   3.580  0.5411 -0.1080  0.1197
 1722SOL    HW216626   0.953   1.925   3.523 -0.4474 -0.5276  0.7220
 1723SOL     OW16627   1.058   3.870  13.975 -0.0331 -0.5225  0.1885
 1723SOL    HW116628   0.984   3.889  13.918 -1.3779 -3.2020  1.0240
 1723SOL    HW216629   1.013   3.878  14.059 -0.2249  0.6962 -0.0368
 1724SOL     OW16630   1.506   0.325  10.089 -0.5540  0.3030  0.2642
 1724SOL    HW116631   1.597   0.346  10.070 -0.1778 -2.6367 -1.3097
 1724SOL    HW216632   1.505   0.257  10.157  0.8131 -0.6455 -0.6826
 1725SOL     OW16633   0.416   1.381   3.853  0.2244 -0.6299  0.2408
 1725SOL    HW116634   0.348   1.333   3.901  1.2662 -0.3765  1.9640
 1725SOL    HW216635   0.484   1.316   3.839 -2.1929 -3.0647 -0.2157
 1726SOL     OW16636   3.562   4.533   3.326 -0.3940 -0.1248 -0.2106
 1726SOL    HW116637   3.476   4.535   3.284 -0.7365 -0.9630  0.4394
 1726SOL    HW216638   3.596   4.456   3.282  1.1580  0.9105 -0.8144
 1727SOL     OW16639   2.813   2.299   2.511 -0.3629  0.3327  0.0013
 1727SOL    HW116640   2.856   2.278   2.594 -2.2231  1.1433  1.1564
 1727SOL    HW216641   2.851   2.382   2.480  1.3508  0.2497  1.9008
 1728SOL     OW16642   4.132   2.014  16.779  0.2587 -0.2359 -0.2225
 1728SOL    HW116643   4.213   2.017  16.830  0.8108 -0.3619 -1.0914
 1728SOL    HW216644   4.071   2.049  16.843 -0.5060  0.0668 -1.1161
 1729SOL     OW16645   3.171   4.500   5.665  0.5322 -0.4696  0.1100
 1729SOL    HW116646   3.157   4.441   5.591  2.2253 -1.3512  0.4783
 1729SOL    HW216647   3.144   4.443   5.737 -0.4905 -0.7833 -0.5289
 1730SOL     OW16648   0.693   2.236   6.523 -0.4734 -0.7788 -0.4306
 1730SOL    HW116649   0.789   2.240   6.524 -0.5151 -0.1846  0.6364
 1730SOL    HW216650   0.679   2.313   6.468 -1.0025 -0.5402  0.0451
 1731SOL     OW16651   2.638   4.535  12.653 -0.1212 -0.1751  0.2241
 1731SOL    HW116652   2.544   4.517  12.657  0.1718 -1.9680 -1.0713
 1731SOL    HW216653   2.659   4.565  12.565  0.6546 -1.3633  0.0049
 1732SOL     OW16654   3.263   2.963   2.320  0.1813  0.3023  0.0297
 1732SOL    HW116655   3.290   2.871   2.318 -0.0363  0.2147  1.2094
 1732SOL    HW216656   3.311   3.002   2.247  1.0136 -1.7843 -0.5629
 1733SOL     OW16657   1.475   0.910  11.265 -0.1669 -0.4008  0.2825
 1733SOL    HW116658   1.543   0.914  11.331  1.2839 -1.4021 -1.1609
 1733SOL    HW216659   1.465   0.815  11.257 -0.2463 -0.5638  2.3661
 1734SOL     OW16660   2.915   4.046   3.742  0.4981  0.6942 -0.4040
 1734SOL    HW116661   2.885   4.062   3.832 -1.0933 -1.4823 -0.5492
 1734SOL    HW216662   2.997   4.095   3.740 -1.0671  3.2710 -2.1023
 1735SOL     OW16663   2.120   1.527   6.266  0.4226  0.3675  0.4263
 1735SOL    HW116664   2.135   1.565   6.179 -0.4406  0.5509  0.3614
 1735SOL    HW216665   2.042   1.471   6.260  0.3134  0.4781  0.8120
 1736SOL     OW16666   0.453   4.578  13.794  0.2451  0.3603  0.3306
 1736SOL    HW116667   0.436   4.632  13.717  0.1924  1.1887  0.9260
 1736SOL    HW216668   0.462   4.639  13.867  0.6189  0.4412  0.2196
 1737SOL     OW16669   1.197   2.862   8.207  0.7619  0.5413 -0.0586
 1737SOL    HW116670   1.196   2.957   8.200  0.4573  0.4893 -0.6495
 1737SOL    HW216671   1.155   2.841   8.291  1.0450 -1.1864 -0.3618
 1738SOL     OW16672   1.611   0.083  16.560  0.1485  0.0762  0.3945
 1738SOL    HW116673   1.697   0.121  16.577  1.3702 -1.5440 -2.1533
 1738SOL    HW216674   1.614   0.005  16.615  3.1917 -0.1955 -0.1868
 1739SOL     OW16675   1.696   1.471  12.377 -0.3716 -0.8206 -0.1076
 1739SOL    HW116676   1.672   1.417  12.302  1.7463  0.1330 -1.5068
 1739SOL    HW216677   1.781   1.508  12.352 -0.3013 -1.1458 -0.3439
 1740SOL     OW16678   4.575   3.726   2.177 -0.2147 -0.2703 -0.1755
 1740SOL    HW116679   4.593   3.694   2.265  1.1726  0.8013 -0.0690
 1740SOL    HW216680   4.613   3.664   2.115 -0.9260 -0.7829 -0.0890
 1741SOL     OW16681   2.997   2.390   9.235  0.0292  0.4744 -0.9840
 1741SOL    HW116682   3.017   2.479   9.207  1.0799  0.6232  0.2120
 1741SOL    HW216683   3.023   2.391   9.327 -0.7418 -0.3102 -0.7546
 1742SOL     OW16684   2.666   3.972   8.590 -0.0932 -0.0177  0.7516
 1742SOL    HW116685   2.722   4.019   8.528  0.2587 -0.5641  0.6563
 1742SOL    HW216686   2.721   3.979   8.668 -0.8042  0.9206  1.1707
 1743SOL     OW16687   2.488   4.242   6.352  0.3064  0.1239  0.2234
 1743SOL    HW116688   2.401   4.278   6.370  0.6813  1.2908 -0.3298
 1743SOL    HW216689   2.546   4.317   6.339  0.2653 -0.1322 -1.3584
 1744SOL     OW16690   4.492   1.062   2.856 -0.0302 -0.2385  0.1081
 1744SOL    HW116691   4.494   1.060   2.760  2.4913  0.6144  0.1367
 1744SOL    HW216692   4.582   1.042   2.883 -0.0221  0.3353  0.5066
 1745SOL     OW16693   4.172   3.289  17.328  0.3984  0.3457 -0.4098
 1745SOL    HW116694   4.252   3.237  17.313 -0.3807 -1.5444  2.0923
 1745SOL    HW216695   4.125   3.268  17.247 -0.2564  1.5555 -0.3438
 1746SOL     OW16696   3.314   1.840   9.917 -0.1133  0.0886  0.3491
 1746SOL    HW116697   3.410   1.838   9.922 -0.2537  0.7582  3.2971
 1746SOL    HW216698   3.306   1.872   9.827  0.8978 -2.1251 -0.5349
 1747SOL     OW16699   3.969   4.220   1.062  0.0962 -0.6067 -0.4461
 1747SOL    HW116700   3.914   4.297   1.048 -0.2304 -1.0668 -1.6345
 1747SOL    HW216701   4.053   4.263   1.047 -0.1953  0.4137  0.8719
 1748SOL     OW16702   3.910   1.581   2.688  0.1433  0.3047 -0.5403
 1748SOL    HW116703   3.931   1.497   2.646 -0.9747 -0.0601 -0.3734
 1748SOL    HW216704   3.929   1.572   2.781  0.4608 -0.9902 -0.7200
 1749SOL     OW16705   1.221   2.069   8.624 -0.0825  0.4683 -0.0232
 1749SOL    HW116706   1.295   2.129   8.629 -2.3917  3.2364  0.6701
 1749SOL    HW216707   1.223   2.042   8.716 -3.6117 -2.5102 -0.8506
 1750SOL     OW16708   3.540   1.676   5.277 -0.3654  0.1735  0.0240
 1750SOL    HW116709   3.581   1.636   5.201  1.4178  0.6948  0.7093
 1750SOL    HW216710   3.470   1.613   5.294  0.7441 -0.9216  0.6088
 1751SOL     OW16711   0.775   4.329   9.584  0.2953  0.3181 -0.2798
 1751SOL    HW116712   0.695   4.294   9.545  1.7173 -2.4045 -0.7177
 1751SOL    HW216713   0.736   4.416   9.593 -0.6023 -0.1070 -0.0776
 1752SOL     OW16714   2.617   1.545   5.143 -0.0753 -0.1191  0.3228
 1752SOL    HW116715   2.587   1.628   5.180 -0.7516 -0.8760  1.4871
 1752SOL    HW216716   2.552   1.527   5.075 -0.9608 -1.7617  1.6082
 1753SOL     OW16717   3.057   2.851  12.440  0.1883  0.1174  0.1508
 1753SOL    HW116718   3.151   2.832  12.431  0.3038  1.0063 -0.5118
 1753SOL    HW216719   3.069   2.913  12.512  1.6650  1.3794 -1.1742
 1754SOL     OW16720   1.972   0.741  10.751 -0.0360 -0.2935 -0.0192
 1754SOL    HW116721   1.985   0.651  10.781  0.2158 -0.0704  0.5404
 1754SOL    HW216722   1.876   0.743  10.752 -0.0092  0.6412  1.0794
 1755SOL     OW16723   3.925   1.696   5.326  0.2454  0.2637  0.1296
 1755SOL    HW116724   3.860   1.626   5.317 -0.5453  0.9977  0.1259
 1755SOL    HW216725   3.962   1.680   5.413  0.6502 -2.5802 -0.5656
 1756SOL     OW16726   3.937   3.097   8.118 -0.2397  0.0221  0.3909
 1756SOL    HW116727   4.013   3.101   8.061 -1.1499  0.1461 -0.8240
 1756SOL    HW216728   3.913   3.004   8.125  0.2616 -0.1901 -0.7674
 1757SOL     OW16729   2.903   1.356  13.827 -0.1974 -0.4492 -0.4118
 1757SOL    HW116730   2.871   1.313  13.748  0.8459  1.2269 -1.7434
 1757SOL    HW216731   2.995   1.330  13.824  0.1023  0.7385 -1.3054
 1758SOL     OW16732   4.535   0.663   5.438 -0.4655 -0.1454 -0.1008
 1758SOL    HW116733   4.585   0.706   5.369  0.8070  0.4535  1.1966
 1758SOL    HW216734   4.584   0.581   5.448 -1.5174 -0.7850 -0.2030
 1759SOL     OW16735   2.355   1.866   3.179 -0.0535 -0.5426 -0.0116
 1759SOL    HW116736   2.312   1.805   3.239 -0.8067  1.4499  1.4739
 1759SOL    HW216737   2.337   1.835   3.090  0.5407  3.4095 -1.4904
 1760SOL     OW16738   2.432   2.103   3.319 -0.6151  0.2376 -0.3094
 1760SOL    HW116739   2.407   2.030   3.262 -1.9428 -0.6549  1.3982
 1760SOL    HW216740   2.385   2.178   3.282  0.9662  0.3820 -2.0205
 1761SOL     OW16741   3.943   0.295   2.032  0.2630 -0.4342  0.0891
 1761SOL    HW116742   3.948   0.280   1.937 -0.1192 -0.5100  0.0816
 1761SOL    HW216743   3.855   0.331   2.042 -1.0911 -3.6804 -0.1508
 1762SOL     OW16744   3.080   1.544   1.080  0.4284  0.0020 -0.4798
 1762SOL    HW116745   3.034   1.549   1.163 -1.2022  0.6243 -1.4211
 1762SOL    HW216746   3.118   1.457   1.069 -1.4713 -1.1556  2.3879
 1763SOL     OW16747   4.044   0.772   4.206 -0.0300 -0.8442  0.4589
 1763SOL    HW116748   3.985   0.772   4.130 -1.9812  1.5372  2.0134
 1763SOL    HW216749   4.119   0.734   4.159 -1.2467 -0.0914 -2.0953
 1764SOL     OW16750   1.112   3.174   3.747  0.0850  0.2641  0.3932
 1764SOL    HW116751   1.105   3.269   3.736  0.9991  0.3617  0.6484
 1764SOL    HW216752   1.197   3.173   3.792 -1.2796 -2.4141  2.9278
 1765SOL     OW16753   1.354   3.840   4.336 -0.3202  0.0250 -0.1889
 1765SOL    HW116754   1.430   3.797   4.297 -0.5668  2.7421 -3.6156
 1765SOL    HW216755   1.306   3.847   4.253  1.6727 -0.7226 -1.4024
 1766SOL     OW16756   2.579   1.484  14.104  0.2857  0.0208 -0.2245
 1766SOL    HW116757   2.499   1.536  14.092  1.1514  1.5528  0.6868
 1766SOL    HW216758   2.577   1.425  14.029  4.2159 -0.9294  0.4302
 1767SOL     OW16759   4.052   0.772   1.960 -0.0698  0.2041 -0.4638
 1767SOL    HW116760   4.065   0.686   1.999  1.7639  0.6562 -0.0865
 1767SOL    HW216761   3.958   0.790   1.948  0.5111  3.1671 -0.5579
 1768SOL     OW16762   1.792   0.799   8.250 -0.5278 -0.6047  0.8178
 1768SOL    HW116763   1.777   0.741   8.174 -1.7120 -0.4710  0.9565
 1768SOL    HW216764   1.716   0.773   8.302 -0.8698 -0.0287  0.5981
 1769SOL     OW16765   2.719   2.246   8.184 -0.0839  0.0138 -0.3466
 1769SOL    HW116766   2.735   2.153   8.195  0.0498  0.2867  1.7878
 1769SOL    HW216767   2.696   2.256   8.091 -0.4334 -0.1258 -0.2773
 1770SOL     OW16768   1.422   4.403   4.491  0.3965  0.6530  0.4746
 1770SOL    HW116769   1.404   4.313   4.519  1.4322  0.2634 -0.1130
 1770SOL    HW216770   1.516   4.391   4.491  0.3175  0.0035  1.2666
 1771SOL     OW16771   2.489   4.010   4.623 -0.2816 -0.7469  0.6077
 1771SOL    HW116772   2.560   3.946   4.618 -0.0441 -0.5136  0.9658
 1771SOL    HW216773   2.454   3.992   4.711 -1.2449  0.6482  0.5152
 1772SOL     OW16774   0.158   2.741   2.526 -0.1713  0.0662 -0.3924
 1772SOL    HW116775   0.074   2.715   2.487  0.5881 -1.0891 -1.2446
 1772SOL    HW216776   0.187   2.804   2.460 -0.1086  0.8828  0.4105
 1773SOL     OW16777   4.460   4.046  15.857 -0.5646 -0.4449  0.0114
 1773SOL    HW116778   4.393   4.049  15.925 -0.9419  0.8100 -0.4241
 1773SOL    HW216779   4.505   4.129  15.873 -1.9047  0.3289 -0.2371
 1774SOL     OW16780   1.485   4.549   8.297  0.7323  0.6116 -0.3723
 1774SOL    HW116781   1.406   4.520   8.250 -0.8666  2.2675  1.3060
 1774SOL    HW216782   1.455   4.636   8.322  0.6576  0.6673 -0.6481
 1775SOL     OW16783   2.617   0.993  14.553 -0.0611  0.2709  0.7021
 1775SOL    HW116784   2.657   0.944  14.481 -1.4740  1.0812 -0.6506
 1775SOL    HW216785   2.596   1.080  14.519  1.7914  0.5091  0.1779
 1776SOL     OW16786   2.808   3.374   7.201  0.3478  0.1346 -0.3301
 1776SOL    HW116787   2.890   3.325   7.197  1.0176  1.2888 -0.6864
 1776SOL    HW216788   2.802   3.444   7.135 -0.1184 -0.5672 -1.0298
 1777SOL     OW16789   2.103   4.224  11.060 -0.2170 -0.1911 -0.5823
 1777SOL    HW116790   2.098   4.140  11.014  3.6179 -0.0420 -1.2645
 1777SOL    HW216791   2.169   4.199  11.125 -1.5140 -2.7827 -0.2533
 1778SOL     OW16792   0.809   0.483  13.404  0.6149 -0.2809  0.3709
 1778SOL    HW116793   0.903   0.498  13.389  0.5884  0.5427  1.0202
 1778SOL    HW216794   0.763   0.550  13.354 -1.4505 -1.6140  0.5114
 1779SOL     OW16795   4.584   2.520   7.508  0.0421 -0.1618  0.2184
 1779SOL    HW116796   4.531   2.515   7.429  0.0745  4.1617 -0.0691
 1779SOL    HW216797   4.549   2.598   7.550 -2.5702 -1.2873  0.1503
 1780SOL     OW16798   0.207   4.280   6.918 -0.1097  0.1530 -0.0333
 1780SOL    HW116799   0.120   4.243   6.904 -0.0397 -0.7523  2.0182
 1780SOL    HW216800   0.189   4.368   6.950 -2.0892 -0.1915 -0.1698
 1781SOL     OW16801   0.338   3.367  13.412  0.3215  0.1574 -0.5365
 1781SOL    HW116802   0.345   3.284  13.460  0.0042  0.0909 -0.6094
 1781SOL    HW216803   0.311   3.418  13.489 -1.4201 -0.6566 -0.6149
 1782SOL     OW16804   4.293   2.757   8.445 -0.1271  0.0821  0.4409
 1782SOL    HW116805   4.310   2.706   8.365  0.0537  1.1437 -0.1939
 1782SOL    HW216806   4.212   2.806   8.432  1.5194  2.6792  0.0107
 1783SOL     OW16807   1.727   0.042   0.404 -0.2585 -0.3393 -0.1339
 1783SOL    HW116808   1.632   0.053   0.395 -0.6321 -1.4826  2.3508
 1783SOL    HW216809   1.755   0.129   0.375  2.1094 -1.2012 -0.4420
 1784SOL     OW16810   0.886   4.633   8.495 -0.1120  0.2440 -0.7884
 1784SOL    HW116811   0.862   4.589   8.414  1.1710 -0.8020 -0.6088
 1784SOL    HW216812   0.980   4.652   8.489 -0.0713 -0.0389 -1.0356
 1785SOL     OW16813   0.437   1.832   4.872 -0.8496 -0.1684 -0.0568
 1785SOL    HW116814   0.448   1.759   4.811  0.2154 -0.7920  0.8914
 1785SOL    HW216815   0.508   1.889   4.840 -0.5135 -0.4260  0.2318
 1786SOL     OW16816   2.683   3.745   2.143  0.4961 -0.1645  0.6573
 1786SOL    HW116817   2.624   3.715   2.212 -0.8444  2.1529  0.5138
 1786SOL    HW216818   2.665   3.678   2.077 -3.0740  0.9265  0.5311
 1787SOL     OW16819   3.121   0.108  14.128 -0.3878 -0.4130 -0.0782
 1787SOL    HW116820   3.029   0.127  14.147 -0.2537  0.2316 -0.0687
 1787SOL    HW216821   3.144   0.048  14.199 -0.4299 -0.7410 -0.3447
 1788SOL     OW16822   4.554   3.493   9.068 -0.1956 -0.3645  0.2299
 1788SOL    HW116823   4.487   3.558   9.089  1.7957  1.1201  2.0014
 1788SOL    HW216824   4.495   3.422   9.041 -0.3757  0.0404 -0.4189
 1789SOL     OW16825   0.828   1.624   2.775  0.1337 -0.0350 -0.4608
 1789SOL    HW116826   0.756   1.616   2.712  0.3268 -1.3717 -0.5080
 1789SOL    HW216827   0.800   1.698   2.830 -0.1906 -1.6168  1.4793
 1790SOL     OW16828   4.387   1.069   9.840  0.0691 -0.0426  0.2620
 1790SOL    HW116829   4.363   1.015   9.915 -0.8417  0.0750  0.0610
 1790SOL    HW216830   4.475   1.034   9.826  0.2102  0.2006  0.5518
 1791SOL     OW16831   0.951   1.747  15.246 -0.5505 -0.0110  0.1741
 1791SOL    HW116832   0.932   1.665  15.291  1.9860 -0.4542  0.4061
 1791SOL    HW216833   0.891   1.805  15.293 -1.1489  1.4866 -2.4040
 1792SOL     OW16834   2.068   0.034   9.258  0.1307 -0.2718 -0.0457
 1792SOL    HW116835   2.062   0.090   9.335 -1.4873  0.3325 -0.5981
 1792SOL    HW216836   2.136   0.074   9.204 -0.5876  1.5540  0.4183
 1793SOL     OW16837   1.329   0.437  11.946  0.1289 -0.0329  1.1477
 1793SOL    HW116838   1.317   0.372  11.877 -0.0234  1.2606 -0.0325
 1793SOL    HW216839   1.425   0.444  11.952  0.2791 -1.8296  1.0348
 1794SOL     OW16840   1.063   1.743   4.184 -0.2017 -0.2518  0.0568
 1794SOL    HW116841   0.970   1.763   4.175  0.1919  1.2604 -0.6141
 1794SOL    HW216842   1.100   1.816   4.134 -2.2395  0.3034 -0.6158
 1795SOL     OW16843   0.498   1.316  14.411 -0.0991 -0.4955  0.6553
 1795SOL    HW116844   0.513   1.404  14.445 -0.3593  0.3723 -1.4893
 1795SOL    HW216845   0.540   1.323  14.325 -1.9456  3.0818  0.0711
 1796SOL     OW16846   4.246   1.098  11.763  0.4524 -0.3454  0.3564
 1796SOL    HW116847   4.256   1.046  11.843 -2.3194  0.4413  1.2107
 1796SOL    HW216848   4.314   1.165  11.763 -0.8034  0.9331  2.1241
 1797SOL     OW16849   4.341   2.408  12.044  0.3351  0.0740  0.3660
 1797SOL    HW116850   4.345   2.456  12.127 -1.8728 -0.8166  0.9804
 1797SOL    HW216851   4.333   2.477  11.978  3.2283  0.4697  0.4247
 1798SOL     OW16852   1.026   3.834   2.476  0.0529  0.3674 -0.3274
 1798SOL    HW116853   1.038   3.743   2.448 -1.3501 -0.0882  0.5151
 1798SOL    HW216854   1.062   3.839   2.564 -1.5402  1.9888  0.2280
 1799SOL     OW16855   1.573   4.056   4.287 -0.3750 -0.0618  0.1832
 1799SOL    HW116856   1.487   4.053   4.245 -0.1037 -0.8957 -0.3135
 1799SOL    HW216857   1.616   4.124   4.234 -0.5376  0.9795  1.3847
 1800SOL     OW16858   1.211   1.451   8.921 -0.2481  0.7562 -0.2441
 1800SOL    HW116859   1.259   1.529   8.894 -0.5669  1.0066 -0.0881
 1800SOL    HW216860   1.119   1.475   8.915 -0.2612  0.9194  0.5882
 1801SOL     OW16861   3.036   2.994   1.694 -0.5450 -0.2156 -0.5162
 1801SOL    HW116862   2.951   3.029   1.667 -0.8726 -0.7368 -0.1402
 1801SOL    HW216863   3.038   3.028   1.783  1.2243  0.1708 -0.6976
 1802SOL     OW16864   3.712   2.390   9.244  0.2791  0.2176 -0.0477
 1802SOL    HW116865   3.710   2.306   9.199  0.2044  1.0278 -1.5672
 1802SOL    HW216866   3.729   2.353   9.330 -0.6307  0.3775  0.2039
 1803SOL     OW16867   2.996   0.421   1.877 -0.1819 -0.2841  0.2458
 1803SOL    HW116868   3.050   0.466   1.811 -0.8942 -2.7317 -2.0044
 1803SOL    HW216869   2.919   0.399   1.825  0.9662 -2.2409 -0.6414
 1804SOL     OW16870   2.034   1.761   6.773 -0.0270 -0.0364 -0.1380
 1804SOL    HW116871   2.015   1.672   6.804  4.3785 -0.8959  0.0748
 1804SOL    HW216872   2.041   1.754   6.677 -0.6495 -0.7933 -0.1348
 1805SOL     OW16873   1.699   1.073   6.856 -0.0770 -0.1960  0.0093
 1805SOL    HW116874   1.753   1.059   6.934 -0.8765 -1.0983  0.4117
 1805SOL    HW216875   1.748   1.035   6.784 -1.2391 -3.1337  0.7567
 1806SOL     OW16876   0.597   2.625   9.513  0.5472 -0.5074 -0.5571
 1806SOL    HW116877   0.586   2.535   9.483 -0.9752 -0.2956 -0.6074
 1806SOL    HW216878   0.675   2.651   9.464 -0.9226  1.9863 -1.5580
 1807SOL     OW16879   0.264   2.186   2.323  0.0292  0.1898 -0.3397
 1807SOL    HW116880   0.208   2.264   2.320 -0.8994 -0.4904 -1.0853
 1807SOL    HW216881   0.202   2.120   2.291  1.2573 -0.8814 -0.5173
 1808SOL     OW16882   1.428   1.330  14.030 -0.2126 -0.3630 -0.1702
 1808SOL    HW116883   1.470   1.352  14.113  1.3887  0.7964 -1.2996
 1808SOL    HW216884   1.343   1.306  14.067 -0.3172 -1.4164 -1.0724
 1809SOL     OW16885   2.949   1.445  15.241  0.2522  0.3206 -0.1933
 1809SOL    HW116886   3.037   1.470  15.215  1.1714 -1.9611  0.6911
 1809SOL    HW216887   2.949   1.351  15.219  1.1500  0.7477 -2.0058
 1810SOL     OW16888   4.634   4.271   4.810  0.0928  0.2628  0.1154
 1810SOL    HW116889   4.697   4.331   4.770  2.3440 -2.8580 -0.9943
 1810SOL    HW216890   4.565   4.337   4.816  0.6611  0.9021 -0.3863
 1811SOL     OW16891   3.430   1.560  12.622  0.3131 -0.6041 -0.3987
 1811SOL    HW116892   3.441   1.637  12.566 -1.5896 -0.2800 -0.3171
 1811SOL    HW216893   3.488   1.572  12.697  0.1312 -0.5615 -0.2652
 1812SOL     OW16894   1.604   0.870   5.414  0.0471 -0.3588  0.1304
 1812SOL    HW116895   1.675   0.916   5.458  0.2880 -0.0141 -0.6064
 1812SOL    HW216896   1.605   0.918   5.331 -0.3438  0.5901  0.6740
 1813SOL     OW16897   4.255   2.037   0.675  0.1287  0.3893 -0.3838
 1813SOL    HW116898   4.330   2.012   0.622  0.9235 -2.2192  1.9419
 1813SOL    HW216899   4.201   2.077   0.607  0.6085  0.1647 -0.8962
 1814SOL     OW16900   4.684   4.076  17.324 -0.3304 -0.4242  0.6734
 1814SOL    HW116901   0.000   4.161  17.313 -1.2155 -0.0286  0.3685
 1814SOL    HW216902   0.027   4.034  17.375 -0.8249  0.3330  1.9713
 1815SOL     OW16903   3.200   4.462   8.223 -0.2356  0.4012 -0.2021
 1815SOL    HW116904   3.234   4.378   8.191  0.3757  0.0980  1.2374
 1815SOL    HW216905   3.145   4.421   8.289  1.5196 -1.8925 -0.1616
 1816SOL     OW16906   0.902   3.681  15.388  0.2443 -0.5634 -0.1621
 1816SOL    HW116907   0.832   3.734  15.350  0.7310  0.0575 -0.2112
 1816SOL    HW216908   0.883   3.597  15.347  3.5509 -1.1995 -0.4038
 1817SOL     OW16909   2.934   1.728   1.572  0.3728 -0.4711  0.0178
 1817SOL    HW116910   3.000   1.719   1.641 -1.0379 -0.3192  1.3821
 1817SOL    HW216911   2.934   1.640   1.534  0.7384 -1.4967  2.4073
 1818SOL     OW16912   0.244   2.173   2.939 -0.7108 -0.2932  0.7813
 1818SOL    HW116913   0.283   2.240   2.995 -3.4868  1.8227  0.1633
 1818SOL    HW216914   0.280   2.094   2.980  1.9229  0.1793 -0.5958
 1819SOL     OW16915   1.569   4.559  11.002 -0.8349  0.2846 -0.0075
 1819SOL    HW116916   1.556   4.472  10.963  2.6049 -0.3184  0.1301
 1819SOL    HW216917   1.611   4.602  10.929 -0.2295 -0.5709 -0.1695
 1820SOL     OW16918   0.699   0.529  17.448  0.6320 -0.3287  0.2495
 1820SOL    HW116919   0.693   0.439  17.479  0.7118  0.1818  1.7427
 1820SOL    HW216920   0.713   0.570  17.533 -0.2344 -1.2721  0.8414
 1821SOL     OW16921   1.690   2.714   4.628 -0.3841  0.2108 -0.1734
 1821SOL    HW116922   1.740   2.656   4.686 -2.2016  0.1459  1.3564
 1821SOL    HW216923   1.636   2.653   4.578 -0.6246  0.7717 -0.5973
 1822SOL     OW16924   0.311   3.805   5.890  0.0225 -0.1340 -0.0210
 1822SOL    HW116925   0.272   3.867   5.953  0.5160  0.7172 -0.5526
 1822SOL    HW216926   0.241   3.753   5.851 -1.2790  2.2166 -0.8563
 1823SOL     OW16927   1.047   0.877   8.095  0.3963  0.1012  0.5436
 1823SOL    HW116928   1.124   0.829   8.066 -0.8181 -0.0967 -2.3118
 1823SOL    HW216929   0.987   0.802   8.099 -0.3982  0.6308 -1.5479
 1824SOL     OW16930   1.648   3.638   8.712 -0.2626 -0.0849  0.0759
 1824SOL    HW116931   1.721   3.612   8.656 -0.3229 -0.0584 -0.0154
 1824SOL    HW216932   1.679   3.645   8.802 -1.9254 -1.7578  0.7785
 1825SOL     OW16933   2.598   0.063   2.831 -0.1486  0.5371  0.0644
 1825SOL    HW116934   2.668   0.106   2.880  0.3789  0.6990 -0.8282
 1825SOL    HW216935   2.642   0.051   2.747 -0.7373  1.4133 -0.3614
 1826SOL     OW16936   2.202   1.411  14.428 -0.5612 -0.1280  0.5468
 1826SOL    HW116937   2.178   1.439  14.340  1.8537 -0.6937 -0.2806
 1826SOL    HW216938   2.143   1.466  14.481 -0.9919  0.3417 -0.4137
 1827SOL     OW16939   4.248   3.583   4.536 -0.0235 -0.4096  0.3672
 1827SOL    HW116940   4.274   3.614   4.623  0.6490 -2.2066  0.7992
 1827SOL    HW216941   4.284   3.649   4.477  1.9817 -0.1510  1.8759
 1828SOL     OW16942   3.654   3.457  12.866 -0.0520  0.1591  0.2659
 1828SOL    HW116943   3.745   3.461  12.897  1.1793 -0.0778 -3.3250
 1828SOL    HW216944   3.617   3.518  12.930 -1.3266  1.1213 -1.3733
 1829SOL     OW16945   4.424   4.422   2.729  0.0546 -0.0843 -0.4127
 1829SOL    HW116946   4.410   4.471   2.810 -0.6371 -1.6104  0.3735
 1829SOL    HW216947   4.471   4.344   2.758  1.2611  1.0166  0.6192
 1830SOL     OW16948   2.426   4.273  15.497  0.0269  0.1171 -0.2919
 1830SOL    HW116949   2.499   4.232  15.450 -1.2371 -1.9142 -0.4719
 1830SOL    HW216950   2.357   4.219  15.460 -0.3666 -0.7349  1.6607
 1831SOL     OW16951   4.338   0.897   8.098 -0.7879  0.1017 -0.1044
 1831SOL    HW116952   4.319   0.958   8.170 -2.9636 -1.5538  0.7116
 1831SOL    HW216953   4.375   0.963   8.039 -0.5188  0.8186  0.8767
 1832SOL     OW16954   1.430   2.471   6.554 -0.5509 -0.3900  0.2196
 1832SOL    HW116955   1.344   2.506   6.528  0.3096  1.6787  0.1808
 1832SOL    HW216956   1.406   2.393   6.604 -1.0114 -2.0710 -2.6308
 1833SOL     OW16957   2.229   2.031  13.439 -0.2635 -0.6071 -0.5670
 1833SOL    HW116958   2.214   1.938  13.426 -1.2713 -0.2897 -1.6611
 1833SOL    HW216959   2.198   2.067  13.356  0.0434 -1.6321 -1.1136
 1834SOL     OW16960   1.202   0.470   3.274 -0.0011 -0.2329  0.1770
 1834SOL    HW116961   1.202   0.436   3.364 -0.1535  1.4987  0.8333
 1834SOL    HW216962   1.156   0.554   3.285 -1.4809 -1.2037  1.4621
 1835SOL     OW16963   3.073   0.038   7.001  0.2521  0.1323 -0.0869
 1835SOL    HW116964   3.127   4.689   7.026  1.1032  0.3641 -1.2622
 1835SOL    HW216965   3.014   4.710   6.947 -0.5365  0.9683 -0.0671
 1836SOL     OW16966   3.615   2.447   3.212  0.0983 -0.4267 -0.9165
 1836SOL    HW116967   3.627   2.515   3.146  0.5921 -2.3749 -2.8411
 1836SOL    HW216968   3.579   2.504   3.280  0.0010 -2.2054  0.5182
 1837SOL     OW16969   3.584   0.643   8.771  0.4640  0.2368 -0.0776
 1837SOL    HW116970   3.535   0.561   8.775 -0.4762  0.6379 -3.6841
 1837SOL    HW216971   3.594   0.656   8.865  2.1218  3.4547 -0.7225
 1838SOL     OW16972   0.893   2.270   4.981  0.0593  0.3835  0.3692
 1838SOL    HW116973   0.950   2.194   4.983 -0.9674 -0.3387  3.1005
 1838SOL    HW216974   0.934   2.322   5.050 -0.4112 -0.1785  1.0741
 1839SOL     OW16975   0.513   0.105   6.661  0.6149  0.6471 -0.0231
 1839SOL    HW116976   0.554   0.152   6.588  0.3990  0.0125 -0.5612
 1839SOL    HW216977   0.569   0.027   6.655  0.5264  0.6715 -1.2037
 1840SOL     OW16978   1.341   2.117  10.811  0.3618 -0.1474  0.1026
 1840SOL    HW116979   1.301   2.093  10.895 -1.5231 -0.2981 -0.8342
 1840SOL    HW216980   1.339   2.212  10.810 -0.1970 -0.1671 -0.9933
 1841SOL     OW16981   4.632   4.711   6.626  0.0668 -0.3871 -0.2898
 1841SOL    HW116982   4.592   4.633   6.665  1.2441 -0.4842  0.6996
 1841SOL    HW216983   4.560   0.002   6.565  0.4167 -0.8440 -0.8338
 1842SOL     OW16984   4.408   3.881  10.084  0.0229 -0.5015 -0.3051
 1842SOL    HW116985   4.421   3.962  10.033  0.4209 -1.0374 -1.0550
 1842SOL    HW216986   4.372   3.923  10.162 -0.6610 -1.3344 -0.1711
 1843SOL     OW16987   2.468   2.431   5.795 -0.0680  0.2181  0.1728
 1843SOL    HW116988   2.393   2.373   5.813  0.3340  0.1730  1.7340
 1843SOL    HW216989   2.486   2.456   5.886 -0.4985  0.8667  0.0782
 1844SOL     OW16990   2.839   4.281  12.637 -0.4164 -0.4804 -1.1864
 1844SOL    HW116991   2.915   4.338  12.628  0.9934 -1.8974  1.8309
 1844SOL    HW216992   2.829   4.258  12.545 -0.8433  2.2833 -1.8483
 1845SOL     OW16993   2.324   2.278   3.161 -0.3274  0.3967  0.0913
 1845SOL    HW116994   2.402   2.254   3.112 -0.6187 -0.7454  0.1979
 1845SOL    HW216995   2.256   2.267   3.096 -0.1500 -0.0112 -0.0249
 1846SOL     OW16996   2.827   1.772   8.668  0.1701 -0.3673  0.0489
 1846SOL    HW116997   2.765   1.781   8.741 -0.4530 -0.8478 -0.4096
 1846SOL    HW216998   2.799   1.838   8.605 -0.4864 -2.3723 -1.7821
 1847SOL     OW16999   4.724   1.954   7.088  0.4814  0.0467 -0.2511
 1847SOL    HW117000   4.725   2.013   7.163 -2.0985  2.2790 -1.9905
 1847SOL    HW217001   4.678   1.877   7.122 -0.3094 -0.3206 -2.1605
 1848SOL     OW17002   4.643   0.520   3.717 -0.2138 -0.0054 -0.2082
 1848SOL    HW117003   4.599   0.436   3.707  0.2504 -0.3149  0.3431
 1848SOL    HW217004   4.617   0.577   3.645  0.5500  0.9692  0.2878
 1849SOL     OW17005   3.289   2.215  11.168 -0.0581 -0.2502  0.8542
 1849SOL    HW117006   3.253   2.129  11.189 -2.0743 -0.1527 -2.2511
 1849SOL    HW217007   3.317   2.211  11.077 -0.7841  1.6445  0.5535
 1850SOL     OW17008   3.411   1.310   5.189 -0.1436 -0.5523 -0.1642
 1850SOL    HW117009   3.365   1.228   5.205 -0.0072 -0.9248 -1.6430
 1850SOL    HW217010   3.464   1.269   5.120 -2.4698 -3.2304 -0.3473
 1851SOL     OW17011   0.845   1.708   5.524  0.2063 -0.0778  0.3014
 1851SOL    HW117012   0.917   1.732   5.466 -0.7477 -0.4049 -1.0323
 1851SOL    HW217013   0.865   1.617   5.549 -1.2047 -1.3259 -3.1196
 1852SOL     OW17014   3.808   0.658  11.537  0.4301 -0.6000  0.5684
 1852SOL    HW117015   3.843   0.570  11.530  1.9397 -0.0270  0.9281
 1852SOL    HW217016   3.875   0.692  11.597  0.1665  0.6831  0.1520
 1853SOL     OW17017   2.650   3.821   6.932 -0.6315 -0.5809 -0.3008
 1853SOL    HW117018   2.722   3.880   6.909 -0.6641 -1.0821 -1.6686
 1853SOL    HW217019   2.587   3.884   6.967  0.2901  0.5294 -0.6144
 1854SOL     OW17020   1.208   0.758   3.324  0.9084 -0.0187 -0.1611
 1854SOL    HW117021   1.257   0.794   3.398 -1.3052  0.0876  1.2437
 1854SOL    HW217022   1.143   0.827   3.326  0.3282 -0.6120  1.7362
 1855SOL     OW17023   2.654   3.444   6.554 -0.2644 -0.1674  0.1491
 1855SOL    HW117024   2.709   3.371   6.583  0.8434  0.1242 -1.2456
 1855SOL    HW217025   2.575   3.408   6.595 -0.1501  0.0748  0.5786
 1856SOL     OW17026   3.539   1.898   7.963 -0.3772  0.2439  0.2407
 1856SOL    HW117027   3.481   1.847   8.019  1.6410 -1.2276  0.9881
 1856SOL    HW217028   3.471   1.944   7.914  0.2582 -0.0527 -0.9174
 1857SOL     OW17029   4.552   1.065   2.594 -0.0533  0.4457 -0.6516
 1857SOL    HW117030   4.528   1.124   2.523 -0.7892 -0.3085 -1.0258
 1857SOL    HW217031   4.616   1.010   2.549  0.4137  0.5969 -0.1715
 1858SOL     OW17032   1.075   3.624   8.047  0.3376 -0.0822  0.5295
 1858SOL    HW117033   1.163   3.661   8.061 -0.4772  1.8383  0.5729
 1858SOL    HW217034   1.066   3.548   8.103 -2.4152  0.5896  1.0031
 1859SOL     OW17035   0.452   0.589  11.038 -0.5180 -1.0985  0.6412
 1859SOL    HW117036   0.446   0.494  11.025 -0.8652 -0.8978 -0.6779
 1859SOL    HW217037   0.365   0.606  11.074 -0.1491 -0.0816  1.0594
 1860SOL     OW17038   1.109   2.572  11.628 -0.0819  0.1121  0.2442
 1860SOL    HW117039   1.080   2.645  11.682 -0.3990  2.2126 -2.7174
 1860SOL    HW217040   1.166   2.527  11.690 -0.0089 -1.2166 -0.7996
 1861SOL     OW17041   1.228   0.528   4.374  0.1061  0.2352 -0.6685
 1861SOL    HW117042   1.172   0.559   4.446 -0.8237 -0.6293 -1.0228
 1861SOL    HW217043   1.160   0.506   4.311 -1.0634 -1.7881  1.3020
 1862SOL     OW17044   0.310   3.200   6.591 -0.2902  0.1228  0.8151
 1862SOL    HW117045   0.391   3.167   6.551 -0.6784 -1.7224  1.5280
 1862SOL    HW217046   0.301   3.281   6.542  0.1479 -0.6286 -0.5096
 1863SOL     OW17047   1.169   3.107  13.690  0.2737 -0.3794 -0.1648
 1863SOL    HW117048   1.243   3.046  13.688  1.8236  1.5353 -1.1516
 1863SOL    HW217049   1.097   3.053  13.659  0.4602  0.0802 -1.3795
 1864SOL     OW17050   0.990   3.086   5.208  0.0548  0.2515 -0.2771
 1864SOL    HW117051   1.053   3.155   5.227  0.0002 -0.1317  1.2783
 1864SOL    HW217052   0.944   3.066   5.290  0.8651 -0.4557  0.0114
 1865SOL     OW17053   0.844   4.303  11.848  0.3441 -0.5989 -0.2012
 1865SOL    HW117054   0.791   4.302  11.927  4.0806 -2.2800  2.2621
 1865SOL    HW217055   0.923   4.351  11.874 -0.8389  1.2111  0.1078
 1866SOL     OW17056   4.644   4.510   7.544  0.5400 -0.1633 -0.1894
 1866SOL    HW117057   4.575   4.502   7.610 -0.6260  2.5712 -1.0689
 1866SOL    HW217058   4.707   4.557   7.599 -0.1916  2.2577 -1.4326
 1867SOL     OW17059   1.815   2.481  14.507 -0.5903  0.4172 -0.3916
 1867SOL    HW117060   1.816   2.567  14.465  2.9623  0.3590 -0.4262
 1867SOL    HW217061   1.857   2.440  14.432  1.4903  1.1242  0.4034
 1868SOL     OW17062   3.534   0.137   8.384  0.5317 -0.6417  0.2064
 1868SOL    HW117063   3.449   0.132   8.426 -0.2450  3.2681 -0.9672
 1868SOL    HW217064   3.596   0.083   8.433  1.0980 -0.7956 -0.6693
 1869SOL     OW17065   1.540   2.109   9.467  0.2725 -0.1249  0.6147
 1869SOL    HW117066   1.502   2.062   9.541  0.6544 -1.2770  0.0738
 1869SOL    HW217067   1.555   2.199   9.497 -0.9194  0.4205 -0.4268
 1870SOL     OW17068   1.033   3.543   7.209 -0.4022 -0.2116 -0.8424
 1870SOL    HW117069   1.080   3.465   7.179  0.6803 -0.7944  2.3720
 1870SOL    HW217070   1.064   3.604   7.142  2.3167 -1.7104 -0.9209
 1871SOL     OW17071   4.393   4.531   0.243  0.1402  0.2528  0.1269
 1871SOL    HW117072   4.336   4.505   0.170 -0.3379  4.0228 -0.8532
 1871SOL    HW217073   4.402   4.625   0.227 -2.3413  0.1918 -1.6568
 1872SOL     OW17074   1.258   2.264   2.996  0.1426  0.5473  0.0458
 1872SOL    HW117075   1.234   2.218   3.077  2.0668 -0.9825 -0.2579
 1872SOL    HW217076   1.284   2.190   2.942 -1.9292  0.3427 -0.6974
 1873SOL     OW17077   2.866   1.017   3.555  1.2768 -0.6079 -0.0536
 1873SOL    HW117078   2.844   0.989   3.644  0.2091 -0.8680 -0.4039
 1873SOL    HW217079   2.796   1.082   3.544  1.6289 -0.1467  0.4256
 1874SOL     OW17080   3.926   3.950   2.231 -0.1312 -0.2229  0.3728
 1874SOL    HW117081   3.891   3.987   2.150 -0.3030  2.0061  1.4671
 1874SOL    HW217082   3.950   3.860   2.206 -0.2854 -1.2324  3.8136
 1875SOL     OW17083   2.959   0.856   6.418 -0.0658  0.9147 -0.5223
 1875SOL    HW117084   2.983   0.944   6.447  1.2858  0.4811 -0.3331
 1875SOL    HW217085   3.025   0.804   6.464  0.7189  1.5388 -0.9347
 1876SOL     OW17086   0.751   3.076   7.538 -0.7301 -0.4037 -0.1806
 1876SOL    HW117087   0.765   2.987   7.571 -2.6595 -0.0018  1.7088
 1876SOL    HW217088   0.666   3.103   7.571 -0.2679  1.5406 -0.5756
 1877SOL     OW17089   4.244   1.811  12.107  0.3157  0.2813  0.1964
 1877SOL    HW117090   4.152   1.786  12.115  0.4370 -0.3180 -0.2912
 1877SOL    HW217091   4.237   1.856  12.022  0.0094 -2.0506 -1.0107
 1878SOL     OW17092   3.952   1.244   7.772 -0.4086  0.3415  0.0124
 1878SOL    HW117093   3.949   1.164   7.720  0.8071  0.4403 -0.2187
 1878SOL    HW217094   3.923   1.211   7.857  1.9902 -1.3218  0.1669
 1879SOL     OW17095   2.188   2.697   4.259 -0.0651  0.1116 -0.1773
 1879SOL    HW117096   2.195   2.634   4.332  0.3891  0.1242 -0.2107
 1879SOL    HW217097   2.281   2.704   4.238  0.3739  1.1586  2.1046
 1880SOL     OW17098   4.685   1.834   8.023  0.3836 -0.5139  0.3192
 1880SOL    HW117099   4.598   1.803   8.046  0.1184 -0.0600 -0.0786
 1880SOL    HW217100   4.720   1.774   7.957  2.9598  0.1973  1.0275
 1881SOL     OW17101   3.094   4.665   0.368 -0.1966 -0.2513 -0.2371
 1881SOL    HW117102   3.131   4.581   0.340 -0.5718 -1.2332  2.2302
 1881SOL    HW217103   3.065   4.639   0.455 -0.4632 -1.6071 -0.7178
 1882SOL     OW17104   0.365   2.072   8.255 -0.2039  0.3756  0.3249
 1882SOL    HW117105   0.393   2.024   8.333  0.2633 -0.6541 -0.4768
 1882SOL    HW217106   0.402   2.016   8.186 -0.5075  0.5541  0.0224
 1883SOL     OW17107   0.352   4.239   0.887  0.3240  0.0141 -0.3269
 1883SOL    HW117108   0.344   4.222   0.981  0.9015 -1.7799 -0.5899
 1883SOL    HW217109   0.334   4.152   0.852  0.2837  0.4110 -1.2891
 1884SOL     OW17110   0.400   0.277   0.864  0.8151 -0.0270  0.3673
 1884SOL    HW117111   0.487   0.268   0.825  0.8323  2.1251 -0.1110
 1884SOL    HW217112   0.355   0.281   0.779  1.5799 -2.0812 -0.1274
 1885SOL     OW17113   2.029   4.670   3.574  0.3267 -0.0334  0.8420
 1885SOL    HW117114   2.000   4.643   3.486 -0.0752 -0.1929  1.0268
 1885SOL    HW217115   2.112   4.709   3.547  1.4715 -0.7332  3.3752
 1886SOL     OW17116   4.725   1.954   0.963  0.1158  0.2675  0.5855
 1886SOL    HW117117   4.682   1.901   1.031 -1.1521 -1.1244 -1.2871
 1886SOL    HW217118   0.087   1.916   0.957 -0.1570 -0.5125  1.4511
 1887SOL     OW17119   2.416   3.801   3.818 -0.4434 -0.5082 -0.3428
 1887SOL    HW117120   2.369   3.884   3.818 -1.6488 -1.1983  0.1046
 1887SOL    HW217121   2.430   3.783   3.725  0.1779  0.1256 -0.3734
 1888SOL     OW17122   4.560   0.250   8.259  0.4673  0.4853  0.8561
 1888SOL    HW117123   4.623   0.247   8.331  1.0341 -0.1378  0.3328
 1888SOL    HW217124   4.607   0.297   8.190 -5.2939  2.2470 -1.8876
 1889SOL     OW17125   2.743   4.463   9.077  0.2228 -0.5598 -0.1133
 1889SOL    HW117126   2.730   4.373   9.049 -0.2619 -0.4801 -0.1492
 1889SOL    HW217127   2.742   4.514   8.997  0.4607  1.2322  1.0196
 1890SOL     OW17128   3.083   0.338   3.278  0.5534 -0.3892  0.2099
 1890SOL    HW117129   3.170   0.365   3.308  0.3087  0.1405  0.4256
 1890SOL    HW217130   3.045   0.283   3.347 -0.5623 -0.1312 -0.1971
 1891SOL     OW17131   2.646   2.315  13.952 -0.4509  0.6170  0.1702
 1891SOL    HW117132   2.733   2.276  13.947 -0.3384  0.2303  4.4924
 1891SOL    HW217133   2.649   2.378  13.881  0.7759  1.4457  0.9565
 1892SOL     OW17134   0.185   4.027   6.675  0.0997 -0.1499  0.1592
 1892SOL    HW117135   0.241   3.970   6.728  0.0536  0.4634  0.8655
 1892SOL    HW217136   0.238   4.107   6.670 -1.1106  0.5685 -0.9459
 1893SOL     OW17137   0.093   2.655   7.600  0.2484 -0.2310  0.5544
 1893SOL    HW117138   0.154   2.676   7.530  2.0825 -3.6463  1.1041
 1893SOL    HW217139   0.031   2.597   7.556 -1.6042  2.2545 -0.1229
 1894SOL     OW17140   2.411   2.497  12.638  0.6306 -0.2019  0.0800
 1894SOL    HW117141   2.451   2.577  12.672 -0.8030  0.3292  0.4855
 1894SOL    HW217142   2.348   2.527  12.573  0.7519  0.9920  0.5245
 1895SOL     OW17143   0.400   1.620   3.969  0.3411 -0.1715  0.0526
 1895SOL    HW117144   0.387   1.544   3.911  1.3733 -0.1366 -0.2309
 1895SOL    HW217145   0.383   1.679   3.896 -0.7923 -2.9023 -1.8908
 1896SOL     OW17146   1.134   3.642   4.348 -0.3724 -0.0049  0.0764
 1896SOL    HW117147   1.223   3.635   4.312 -0.1546  2.7679  0.1097
 1896SOL    HW217148   1.121   3.570   4.410 -0.3516  0.4474  0.6016
 1897SOL     OW17149   3.375   3.010   4.663  0.2178 -0.5452  0.4015
 1897SOL    HW117150   3.290   3.036   4.699  1.3515  2.6925  0.7416
 1897SOL    HW217151   3.366   2.918   4.640  2.0849 -0.5104 -0.4452
 1898SOL     OW17152   1.778   3.423   7.544 -0.0275  0.2056 -0.2194
 1898SOL    HW117153   1.827   3.406   7.624  2.0853  2.2179 -1.0881
 1898SOL    HW217154   1.718   3.487   7.581  0.8962  0.1173  1.4108
 1899SOL     OW17155   3.719   4.234   4.088 -0.1482  0.4982  0.0592
 1899SOL    HW117156   3.660   4.301   4.123 -0.6715  0.6954 -1.2305
 1899SOL    HW217157   3.801   4.265   4.128  0.1765  0.9697 -0.9865
 1900SOL     OW17158   4.269   0.650  14.025  0.0801 -0.2175 -0.6458
 1900SOL    HW117159   4.194   0.675  14.079  1.1052  1.5134 -0.0358
 1900SOL    HW217160   4.321   0.611  14.096  0.9378  0.0604 -1.1115
 1901SOL     OW17161   1.743   3.166   5.603  0.2548 -0.2046 -0.3596
 1901SOL    HW117162   1.827   3.124   5.585  0.2593 -0.3292 -0.0504
 1901SOL    HW217163   1.749   3.236   5.538  1.0617  1.8025  1.9218
 1902SOL     OW17164   0.347   0.285   8.117  0.3571  0.2623  0.2528
 1902SOL    HW117165   0.300   0.321   8.042 -0.7532 -1.0697  0.3174
 1902SOL    HW217166   0.350   0.356   8.182 -1.2186  0.8756 -0.3441
 1903SOL     OW17167   2.639   1.591   4.472 -0.1404 -0.0083 -0.3889
 1903SOL    HW117168   2.578   1.665   4.473  0.0618  0.1373  1.1198
 1903SOL    HW217169   2.602   1.549   4.550 -1.8930  0.0696 -1.1744
 1904SOL     OW17170   2.307   2.144   5.504  0.2537  0.7629  0.5523
 1904SOL    HW117171   2.391   2.179   5.474  1.2353 -1.0446  1.2241
 1904SOL    HW217172   2.260   2.216   5.547  0.7050  0.6172  1.3019
 1905SOL     OW17173   3.983   0.367   4.100  0.1594 -0.4106 -0.6143
 1905SOL    HW117174   3.971   0.427   4.026 -0.8651 -0.4107 -0.4457
 1905SOL    HW217175   3.902   0.318   4.084  1.3828 -2.6353 -0.0911
 1906SOL     OW17176   4.364   2.891   4.428 -0.0391 -0.6253 -0.4588
 1906SOL    HW117177   4.379   2.964   4.488 -0.6606  0.4481 -1.6135
 1906SOL    HW217178   4.281   2.923   4.392  1.3642  0.7942 -2.4128
 1907SOL     OW17179   3.000   4.082   7.418  0.6567  0.5120 -0.0823
 1907SOL    HW117180   2.909   4.094   7.444  0.2651 -0.5127 -0.9573
 1907SOL    HW217181   2.987   4.033   7.336  1.9453 -0.1229  0.0848
 1908SOL     OW17182   4.215   4.258   8.883 -0.0956 -0.3086 -0.4571
 1908SOL    HW117183   4.266   4.195   8.935  0.4008  1.1139  0.7926
 1908SOL    HW217184   4.250   4.339   8.920 -0.9946 -1.2832  2.5632
 1909SOL     OW17185   1.099   3.161   5.693  0.3355  0.4097 -0.6618
 1909SOL    HW117186   1.144   3.245   5.687 -0.1560  0.6436 -1.0981
 1909SOL    HW217187   1.123   3.137   5.782  0.7291  1.4963 -0.4781
 1910SOL     OW17188   1.137   3.380   1.026 -0.3343 -0.3388 -0.0533
 1910SOL    HW117189   1.153   3.401   1.118 -0.8538  0.0944 -0.0675
 1910SOL    HW217190   1.071   3.446   1.008 -0.2130 -0.2546 -0.1918
 1911SOL     OW17191   2.782   4.640   6.524 -0.3673  0.4646 -0.5137
 1911SOL    HW117192   2.689   4.638   6.503 -0.1390 -1.4986 -1.2645
 1911SOL    HW217193   2.801   4.547   6.515  3.6591  1.3879 -1.7305
 1912SOL     OW17194   0.560   4.607   6.451 -0.2122  0.5602  0.4996
 1912SOL    HW117195   0.526   4.579   6.536  1.0510  0.1301  0.8637
 1912SOL    HW217196   0.476   4.602   6.405  0.6702  0.1869 -1.0756
 1913SOL     OW17197   3.455   0.276   6.436  0.7920 -0.3340 -0.1285
 1913SOL    HW117198   3.364   0.306   6.433  0.8592 -0.3152 -1.9386
 1913SOL    HW217199   3.439   0.183   6.420  0.8200 -0.0645 -1.7804
 1914SOL     OW17200   0.472   3.889   3.214  0.1132  0.1889  0.6219
 1914SOL    HW117201   0.547   3.834   3.237 -0.6946 -0.7226  1.0660
 1914SOL    HW217202   0.461   3.857   3.124  0.1884  0.2771  0.5807
 1915SOL     OW17203   2.416   1.746  12.217  0.2923  0.0417 -0.0866
 1915SOL    HW117204   2.461   1.753  12.133 -1.4796 -2.8681 -1.2759
 1915SOL    HW217205   2.464   1.812  12.266  3.3021 -2.8169  0.7847
 1916SOL     OW17206   4.070   0.937   5.039  0.2599  0.2167 -0.7921
 1916SOL    HW117207   3.982   0.973   5.052  0.5854  0.3123  1.2122
 1916SOL    HW217208   4.110   0.949   5.126  2.3605  0.9302 -1.8495
 1917SOL     OW17209   3.751   4.651   3.065 -0.4019  0.3015  0.1441
 1917SOL    HW117210   3.658   4.668   3.072 -0.2865  0.3549  1.6361
 1917SOL    HW217211   3.778   4.691   3.148 -1.6807 -1.0023  1.1939
 1918SOL     OW17212   4.634   2.400   7.024  0.2661  0.1164 -0.2739
 1918SOL    HW117213   4.594   2.332   7.079 -0.8204 -1.0697 -2.5285
 1918SOL    HW217214   0.003   2.384   7.027 -0.0250 -1.7093 -0.3973
 1919SOL     OW17215   4.270   1.357   0.207  0.6562 -0.2806 -0.1514
 1919SOL    HW117216   4.357   1.397   0.203  0.5772 -0.1800 -0.7910
 1919SOL    HW217217   4.265   1.327   0.117  4.7798 -0.8712 -0.1904
 1920SOL     OW17218   2.383   0.285   8.558 -0.1677  0.0452  0.2563
 1920SOL    HW117219   2.449   0.286   8.627  1.8030 -0.2748 -1.6223
 1920SOL    HW217220   2.363   0.192   8.561  0.4950  0.0084  3.4497
 1921SOL     OW17221   0.919   3.365   0.254  0.2868 -0.2522  0.6137
 1921SOL    HW117222   0.999   3.352   0.305  1.5277 -1.0948 -1.5027
 1921SOL    HW217223   0.865   3.380   0.331 -0.2500 -2.8642  0.7620
 1922SOL     OW17224   3.105   0.928   7.206 -0.3437  0.3140  0.2739
 1922SOL    HW117225   3.177   0.990   7.218  3.4904 -4.1986  0.6402
 1922SOL    HW217226   3.045   0.975   7.148 -1.5344 -2.4042 -0.7350
 1923SOL     OW17227   3.039   2.219   7.396 -0.5401 -0.1891  0.6858
 1923SOL    HW117228   2.987   2.296   7.416 -0.0147 -0.0831  1.6208
 1923SOL    HW217229   3.123   2.259   7.373  0.2856 -2.2705  0.0638
 1924SOL     OW17230   3.367   1.804   2.455 -0.3516 -0.0067  0.2013
 1924SOL    HW117231   3.317   1.723   2.442 -1.0580  0.5886 -0.7382
 1924SOL    HW217232   3.334   1.858   2.383 -0.4062  0.8338  0.8616
 1925SOL     OW17233   4.286   1.590   7.060 -0.6089 -0.1403 -0.1370
 1925SOL    HW117234   4.318   1.528   7.126  0.0603  0.3092 -0.0380
 1925SOL    HW217235   4.245   1.532   6.997 -0.6427  1.2491 -1.3929
 1926SOL     OW17236   3.575   3.618  15.384 -0.2032  0.1933 -0.3831
 1926SOL    HW117237   3.534   3.649  15.465 -0.0749 -0.5004 -0.0518
 1926SOL    HW217238   3.539   3.529  15.378 -3.1092  1.3959 -0.7805
 1927SOL     OW17239   1.363   0.008   9.664  0.4373  0.3298 -0.6463
 1927SOL    HW117240   1.381   0.065   9.739 -3.1230 -0.1365  0.5714
 1927SOL    HW217241   1.361   0.076   9.596  1.1183  2.0615  1.0438
 1928SOL     OW17242   3.079   1.913   8.432 -0.4316 -0.0105 -0.0210
 1928SOL    HW117243   3.116   1.939   8.347  1.9196 -0.8706  0.7354
 1928SOL    HW217244   3.046   1.998   8.461 -1.5194  0.1425 -1.6964
 1929SOL     OW17245   3.833   2.917  13.717  0.3737 -0.2710 -0.5178
 1929SOL    HW117246   3.738   2.903  13.726  0.1427  0.8113 -1.1381
 1929SOL    HW217247   3.861   2.933  13.807 -1.5338 -0.3482  0.0962
 1930SOL     OW17248   4.093   4.297  11.405 -0.5012  0.0342  0.0490
 1930SOL    HW117249   4.020   4.345  11.443  0.1793  1.0149  0.1018
 1930SOL    HW217250   4.066   4.300  11.313  0.1594  0.0105 -0.1423
 1931SOL     OW17251   2.130   2.705  14.428 -0.0854 -0.2606  0.4533
 1931SOL    HW117252   2.115   2.787  14.381 -0.8954 -2.1646 -2.6348
 1931SOL    HW217253   2.146   2.637  14.362  3.4737 -1.1895  2.2392
 1932SOL     OW17254   1.153   1.524  16.321  0.1018 -0.0314  0.4797
 1932SOL    HW117255   1.109   1.592  16.374  2.3219  2.9956 -1.5660
 1932SOL    HW217256   1.125   1.449  16.374  0.7589 -1.2106 -0.8645
 1933SOL     OW17257   3.973   1.113   7.303  0.0817 -0.1213 -0.6933
 1933SOL    HW117258   3.979   1.044   7.368  0.4482 -0.5060 -1.1299
 1933SOL    HW217259   4.063   1.141   7.284  0.1753 -0.0429 -0.1156
 1934SOL     OW17260   3.158   1.017  13.253  0.1700 -0.0459  0.1811
 1934SOL    HW117261   3.179   0.924  13.247 -0.8074 -0.4053  2.5951
 1934SOL    HW217262   3.113   1.032  13.170  0.9544  1.0962 -0.0430
 1935SOL     OW17263   1.988   0.709   8.489  0.1252  0.2664  0.1432
 1935SOL    HW117264   2.056   0.686   8.426  0.1708  1.2532 -0.1725
 1935SOL    HW217265   1.930   0.769   8.442  0.5526  0.2730 -0.3814
 1936SOL     OW17266   3.848   2.090   1.131 -0.4147 -0.3644  0.5299
 1936SOL    HW117267   3.809   2.024   1.187 -2.0586  1.1875  1.2024
 1936SOL    HW217268   3.936   2.063   1.102 -0.8714  0.6015 -1.7491
 1937SOL     OW17269   3.942   4.395   3.184 -0.4383 -0.1973 -0.1097
 1937SOL    HW117270   4.004   4.322   3.189 -0.7749 -0.5937 -1.5995
 1937SOL    HW217271   3.947   4.427   3.274  0.4911  2.6878 -1.2026
 1938SOL     OW17272   1.383   3.945   9.410  0.2546 -0.2918  0.0546
 1938SOL    HW117273   1.296   3.980   9.431  0.5808  0.6633 -0.2343
 1938SOL    HW217274   1.435   3.993   9.474 -0.7467 -0.7180  1.2056
 1939SOL     OW17275   0.036   2.173   8.113 -0.0152  0.1889  0.1016
 1939SOL    HW117276   4.695   2.162   8.181  0.5452 -0.6598  0.5138
 1939SOL    HW217277   4.713   2.228   8.051 -1.4512 -0.3789  0.7252
 1940SOL     OW17278   3.124   2.943   7.407  0.0241 -0.2230  0.1369
 1940SOL    HW117279   3.042   2.896   7.420  0.3055 -0.6235  0.4909
 1940SOL    HW217280   3.126   3.012   7.474  1.0849  0.7643 -0.9102
 1941SOL     OW17281   4.369   2.608   6.155  0.3052 -0.3572  0.7085
 1941SOL    HW117282   4.404   2.523   6.182  1.0681 -0.2697  0.0061
 1941SOL    HW217283   4.374   2.604   6.060  1.8625 -0.1282  0.7702
 1942SOL     OW17284   0.557   0.659   6.574 -0.5069  0.2321 -0.5878
 1942SOL    HW117285   0.498   0.731   6.552  0.0859  1.0654  0.6058
 1942SOL    HW217286   0.540   0.588   6.511  1.8008  0.3562 -1.3303
 1943SOL     OW17287   2.255   1.130   8.238  0.0501  0.4519  0.0051
 1943SOL    HW117288   2.330   1.114   8.181 -0.1601 -2.0918  0.4436
 1943SOL    HW217289   2.181   1.097   8.188 -0.9211  1.6009  0.6903
 1944SOL     OW17290   3.266   1.204   3.176 -0.2306 -0.3635  0.6006
 1944SOL    HW117291   3.349   1.251   3.169  0.3863 -1.3873  0.9245
 1944SOL    HW217292   3.220   1.262   3.236 -1.3159  0.5449 -1.1237
 1945SOL     OW17293   3.029   0.159   2.769  0.4965 -0.2690 -0.7393
 1945SOL    HW117294   3.054   0.175   2.860 -0.3067  0.8812 -0.7345
 1945SOL    HW217295   2.992   0.245   2.753 -0.4880 -0.3019  1.3214
 1946SOL     OW17296   3.777   2.040   5.881 -0.3730  0.6801  0.3032
 1946SOL    HW117297   3.766   1.954   5.921  0.7656  0.4643  0.1347
 1946SOL    HW217298   3.857   2.070   5.923  0.1139 -0.0955 -0.0662
 1947SOL     OW17299   1.147   0.314   2.418  0.4327 -0.1677  0.0021
 1947SOL    HW117300   1.204   0.241   2.397 -1.4487 -1.3621 -0.9052
 1947SOL    HW217301   1.215   0.351   2.475  2.1398  0.5299 -2.4601
 1948SOL     OW17302   0.803   0.460   3.154 -0.0607  0.5445 -0.5300
 1948SOL    HW117303   0.842   0.505   3.079  1.2880 -0.4948 -0.4616
 1948SOL    HW217304   0.837   0.508   3.230 -2.0605  0.6145  0.3327
 1949SOL     OW17305   2.534   2.452   2.484  0.2568 -0.7936 -0.1933
 1949SOL    HW117306   2.603   2.386   2.480  0.8763 -0.1216 -0.6378
 1949SOL    HW217307   2.533   2.479   2.392 -0.1340 -1.6810 -0.4479
 1950SOL     OW17308   2.044   1.853   7.058  0.5777 -0.2760  0.5593
 1950SOL    HW117309   2.061   1.805   6.977  2.8303  2.5403 -0.6154
 1950SOL    HW217310   2.078   1.938   7.029  0.8947 -0.7403 -0.4217
 1951SOL     OW17311   4.048   1.933   5.365 -0.4247 -0.0433  0.1291
 1951SOL    HW117312   4.033   1.940   5.459 -2.0075 -0.2569 -0.1044
 1951SOL    HW217313   3.981   1.866   5.353 -1.0478  0.0168  3.3597
 1952SOL     OW17314   1.349   2.514   8.287  0.3345  0.2217  0.2165
 1952SOL    HW117315   1.293   2.437   8.273 -0.1832  0.8689 -1.3297
 1952SOL    HW217316   1.366   2.558   8.204 -2.5360  0.5091 -0.2349
 1953SOL     OW17317   3.506   2.594   8.452 -0.2528  0.2728  0.8425
 1953SOL    HW117318   3.520   2.663   8.517  0.8847 -1.4156  2.4034
 1953SOL    HW217319   3.450   2.631   8.384  1.4525  1.6969  0.2096
 1954SOL     OW17320   4.597   3.897   5.027  0.3798 -0.5061 -0.1352
 1954SOL    HW117321   4.593   3.885   4.932  1.0894 -0.8480 -0.1216
 1954SOL    HW217322   4.564   3.812   5.055  0.0095  0.0218  1.0593
 1955SOL     OW17323   0.773   1.199   1.473 -0.2309 -0.2401  0.9797
 1955SOL    HW117324   0.683   1.210   1.504 -0.6968  2.0908 -1.1919
 1955SOL    HW217325   0.781   1.104   1.465 -0.7162  0.0517 -3.1054
 1956SOL     OW17326   4.508   4.469   1.904 -0.1964 -0.5018 -0.4905
 1956SOL    HW117327   4.436   4.531   1.914  1.9234  1.9158 -0.1913
 1956SOL    HW217328   4.563   4.507   1.836 -2.8655  4.6394  0.1899
 1957SOL     OW17329   2.510   3.983   7.448  0.3673 -0.0999  0.1427
 1957SOL    HW117330   2.417   3.965   7.433  0.4830 -0.5461 -0.0233
 1957SOL    HW217331   2.522   3.905   7.501  0.3758 -1.3513 -1.7274
 1958SOL     OW17332   0.396   0.569   8.013 -0.1413  0.5527  0.2493
 1958SOL    HW117333   0.460   0.552   8.082  0.5483 -3.2181 -1.3147
 1958SOL    HW217334   0.428   0.645   7.964 -0.7948  1.0456  0.5972
 1959SOL     OW17335   0.358   2.674   3.427  0.6896 -0.3021  0.3433
 1959SOL    HW117336   0.278   2.722   3.450  0.6881  0.6738 -1.6978
 1959SOL    HW217337   0.425   2.742   3.425  0.6507 -0.2136  2.0754
 1960SOL     OW17338   2.201   0.671  14.972 -0.6098 -0.0037 -0.1200
 1960SOL    HW117339   2.267   0.624  15.022 -0.7747  0.1993  0.2937
 1960SOL    HW217340   2.134   0.694  15.037  0.8606  0.7190  1.1613
 1961SOL     OW17341   1.453   1.193  14.414  0.1964  0.3771 -0.0071
 1961SOL    HW117342   1.376   1.191  14.357  1.6619  0.9866 -2.0265
 1961SOL    HW217343   1.514   1.133  14.372 -1.0404 -0.3718 -0.7421
 1962SOL     OW17344   4.562   0.141   4.404  0.2178 -0.0018  0.1081
 1962SOL    HW117345   4.636   0.178   4.452 -0.2261  0.7614  0.2107
 1962SOL    HW217346   4.484   0.187   4.435 -0.5081 -1.5447  0.5650
 1963SOL     OW17347   1.502   3.137   2.280  0.2578  0.3645 -0.7890
 1963SOL    HW117348   1.569   3.182   2.229  2.3331 -0.8583  0.8436
 1963SOL    HW217349   1.532   3.149   2.371  3.0316 -0.8844 -1.5376
 1964SOL     OW17350   3.511   2.280   8.577  0.0343 -0.0678 -0.5857
 1964SOL    HW117351   3.600   2.316   8.577  0.8342 -2.0377 -0.1442
 1964SOL    HW217352   3.454   2.356   8.567  1.6158  1.1117 -0.7720
 1965SOL     OW17353   3.586   4.712  13.420 -0.1562 -0.9707 -0.1472
 1965SOL    HW117354   3.649   0.010  13.351  0.3964  2.0049  1.4013
 1965SOL    HW217355   3.632   4.638  13.460  0.7821 -0.8720 -1.0466
 1966SOL     OW17356   1.574   3.590   7.255 -0.0691  0.2016 -1.0473
 1966SOL    HW117357   1.568   3.651   7.181  0.5951 -0.3031 -1.5060
 1966SOL    HW217358   1.513   3.520   7.232  1.8421 -1.5043 -0.8522
 1967SOL     OW17359   0.332   3.644   3.975  0.2439  0.5055 -0.2942
 1967SOL    HW117360   0.250   3.657   4.022 -0.3379 -0.2824 -1.0714
 1967SOL    HW217361   0.313   3.572   3.915  0.3311  1.6722 -1.7391
 1968SOL     OW17362   1.415   0.692   9.504 -0.1112 -0.5074  0.5432
 1968SOL    HW117363   1.441   0.686   9.596  3.2996 -1.2448 -0.4705
 1968SOL    HW217364   1.373   0.607   9.496  0.0790 -0.3527 -2.0025
 1969SOL     OW17365   0.185   0.601  11.116 -0.1822  0.3296  0.1116
 1969SOL    HW117366   0.109   0.627  11.063 -2.1644 -2.4998  1.6108
 1969SOL    HW217367   0.147   0.587  11.203  3.4329 -1.9422  1.3191
 1970SOL     OW17368   0.441   4.719  16.825 -0.3838  0.0559  0.6162
 1970SOL    HW117369   0.413   4.660  16.895 -1.8961  0.6446  0.5209
 1970SOL    HW217370   0.513   4.675  16.781 -0.3620  0.7839 -0.0673
 1971SOL     OW17371   0.717   0.510   4.690  0.2119  0.7756 -0.2079
 1971SOL    HW117372   0.719   0.533   4.596  0.0465 -1.5941 -0.7791
 1971SOL    HW217373   0.645   0.566   4.719  2.3163  1.7155  3.1915
 1972SOL     OW17374   3.676   2.922   6.921  0.1851  0.0405  0.7901
 1972SOL    HW117375   3.643   3.004   6.956 -2.5839 -2.1897  3.3997
 1972SOL    HW217376   3.769   2.938   6.908  0.3816 -1.0439  0.8703
 1973SOL     OW17377   2.207   4.220   3.616  0.4192  0.0610 -0.5226
 1973SOL    HW117378   2.160   4.292   3.658 -0.7333 -0.9929  0.0059
 1973SOL    HW217379   2.294   4.252   3.594 -0.3282  1.4345 -1.4851
 1974SOL     OW17380   4.639   3.675   1.598 -0.3442 -0.2105 -0.2913
 1974SOL    HW117381   0.001   3.706   1.575 -0.5852  0.4516 -0.3099
 1974SOL    HW217382   4.673   3.597   1.641 -1.5994  1.3238  3.5115
 1975SOL     OW17383   0.605   2.849  10.748 -0.0493 -0.0561  0.1354
 1975SOL    HW117384   0.618   2.928  10.801  2.1152 -0.2764 -0.0389
 1975SOL    HW217385   0.690   2.805  10.761 -0.3246 -0.6865 -0.2319
 1976SOL     OW17386   2.474   0.507  16.337 -0.0308 -0.2687 -0.4254
 1976SOL    HW117387   2.429   0.573  16.389  1.4018 -0.6442  1.3008
 1976SOL    HW217388   2.397   0.456  16.311 -1.0618 -0.3668  2.7612
 1977SOL     OW17389   4.614   3.244   5.194  0.1451  0.7316 -0.4416
 1977SOL    HW117390   4.559   3.229   5.271  1.0930  0.5104  0.1922
 1977SOL    HW217391   4.545   3.270   5.133  0.1989  0.2426 -0.7020
 1978SOL     OW17392   0.922   2.504   5.533 -0.6124 -0.1437 -0.2998
 1978SOL    HW117393   0.894   2.417   5.504  0.1918 -0.5350  0.0954
 1978SOL    HW217394   1.014   2.491   5.512 -0.6381 -0.2656 -0.3393
 1979SOL     OW17395   4.624   2.815   2.426 -0.8373 -0.3326  0.5485
 1979SOL    HW117396   4.599   2.725   2.448 -0.0285 -1.1255 -1.6764
 1979SOL    HW217397   4.548   2.855   2.469 -1.1635 -1.9822  1.4924
 1980SOL     OW17398   1.189   2.645   8.491 -0.0635  0.1004  0.5094
 1980SOL    HW117399   1.242   2.602   8.424  1.0448  1.1109  0.7209
 1980SOL    HW217400   1.198   2.577   8.557 -3.0448 -0.8589 -0.0748
 1981SOL     OW17401   0.509   3.983   5.246  0.7421 -0.3416  0.3745
 1981SOL    HW117402   0.447   4.055   5.239 -0.3194 -1.4169 -1.3778
 1981SOL    HW217403   0.592   4.028   5.263  0.3259  0.0165  1.4459
 1982SOL     OW17404   2.272   1.775  16.104  0.2358  0.8794 -0.8366
 1982SOL    HW117405   2.258   1.833  16.028  2.7518  0.3895 -1.6734
 1982SOL    HW217406   2.201   1.807  16.159  0.1263  0.3303 -0.6656
 1983SOL     OW17407   0.337   3.255   7.833  0.1827 -0.4933  0.2402
 1983SOL    HW117408   0.415   3.236   7.780  1.5872  0.9188  1.7644
 1983SOL    HW217409   0.340   3.176   7.887 -1.9333 -0.3290  0.5987
 1984SOL     OW17410   3.621   3.330   5.609 -0.7982 -0.0449 -0.0032
 1984SOL    HW117411   3.604   3.396   5.542 -1.1894  1.4964  1.6141
 1984SOL    HW217412   3.699   3.291   5.569 -1.3345  0.1944 -1.2981
 1985SOL     OW17413   3.269   1.985  11.310 -0.3962  0.2482 -0.0147
 1985SOL    HW117414   3.241   1.895  11.325  0.0564  0.2006  0.5707
 1985SOL    HW217415   3.210   2.034  11.366 -2.3451 -0.6052 -1.3467
 1986SOL     OW17416   3.334   1.655   9.356  0.3386 -1.0043  0.3687
 1986SOL    HW117417   3.409   1.663   9.416 -1.5770 -0.3873  2.6654
 1986SOL    HW217418   3.263   1.652   9.419  0.6371  0.9687  0.8100
 1987SOL     OW17419   3.502   0.217   5.844 -0.1458  0.3010 -0.2953
 1987SOL    HW117420   3.455   0.160   5.783  1.1959 -0.3339 -0.7262
 1987SOL    HW217421   3.508   0.300   5.797 -1.8684  1.7026  1.8963
 1988SOL     OW17422   2.156   2.088   5.034  0.5552 -0.1137  0.3215
 1988SOL    HW117423   2.132   2.028   4.963 -0.0109  1.8581 -1.1829
 1988SOL    HW217424   2.167   2.172   4.988 -1.0968  0.1316  0.3618
 1989SOL     OW17425   0.388   0.525   2.187  0.1130 -0.2338  0.0717
 1989SOL    HW117426   0.430   0.512   2.102 -1.1780 -0.7542 -0.4884
 1989SOL    HW217427   0.458   0.497   2.246  0.3513  1.0037  0.3805
 1990SOL     OW17428   1.838   0.413  16.714 -0.5473  0.8747 -0.0163
 1990SOL    HW117429   1.866   0.368  16.794 -1.0888 -3.7085 -2.3940
 1990SOL    HW217430   1.844   0.503  16.746  2.0234  0.3231  1.0637
 1991SOL     OW17431   0.746   3.632   2.677  0.3306  0.6715 -0.2122
 1991SOL    HW117432   0.692   3.574   2.731  1.3515  0.7093  0.8300
 1991SOL    HW217433   0.820   3.581   2.645  0.9351  1.5537 -0.2273
 1992SOL     OW17434   0.171   4.193  13.892  0.2777 -0.1405 -0.2369
 1992SOL    HW117435   0.159   4.288  13.898  0.9503  0.0086 -1.4361
 1992SOL    HW217436   0.250   4.183  13.840 -0.0731 -1.5844 -0.4908
 1993SOL     OW17437   2.781   0.878   3.319 -0.0530 -0.2098  0.1909
 1993SOL    HW117438   2.783   0.931   3.399  2.1574 -2.6456  1.7382
 1993SOL    HW217439   2.816   0.793   3.347 -1.0557 -0.1111  1.7537
 1994SOL     OW17440   3.811   1.082  15.563 -0.7349  0.1387 -0.3534
 1994SOL    HW117441   3.878   1.070  15.496 -1.0147 -1.6518 -0.3175
 1994SOL    HW217442   3.860   1.120  15.636  1.9379 -1.2663 -1.4489
 1995SOL     OW17443   2.136   1.486  14.175 -0.1010 -0.1010 -0.0606
 1995SOL    HW117444   2.171   1.424  14.111 -1.7846 -1.5060  0.3583
 1995SOL    HW217445   2.043   1.468  14.164  0.0843 -0.4641 -1.0558
 1996SOL     OW17446   2.729   1.515  11.404 -0.1853 -0.3260 -0.2505
 1996SOL    HW117447   2.636   1.521  11.427 -0.0518 -0.6790  0.3867
 1996SOL    HW217448   2.750   1.423  11.419 -1.0289 -0.5233 -0.2897
 1997SOL     OW17449   4.194   3.704  15.022  0.0082  0.0256 -0.0342
 1997SOL    HW117450   4.145   3.775  14.981 -1.7556 -0.7371  0.7368
 1997SOL    HW217451   4.116   3.678  15.072  0.0524 -1.2076 -0.6246
 1998SOL     OW17452   4.715   3.939   5.796  0.1629  0.3709 -0.1507
 1998SOL    HW117453   0.021   3.849   5.793  0.6245  0.5539 -0.8756
 1998SOL    HW217454   4.666   3.941   5.878 -2.2720  0.3234 -1.6102
 1999SOL     OW17455   3.895   1.107   4.843  0.4872 -0.0015 -0.1699
 1999SOL    HW117456   3.917   1.067   4.759  1.4798 -0.0535  0.1203
 1999SOL    HW217457   3.857   1.035   4.894  2.8202  1.0340  2.9774
 2000SOL     OW17458   3.303   4.528   3.211 -0.2775 -0.0727 -0.0678
 2000SOL    HW117459   3.286   4.447   3.163 -1.4484  0.0414  0.1567
 2000SOL    HW217460   3.211   4.538   3.237 -0.0771 -0.8372  0.9699
 2001SOL     OW17461   1.764   0.739   9.744  0.3061 -0.0793  0.0350
 2001SOL    HW117462   1.787   0.739   9.837  0.7535 -0.6948 -0.0784
 2001SOL    HW217463   1.835   0.793   9.708  2.4497 -1.6647  1.9072
 2002SOL     OW17464   1.485   2.249   7.937  0.0454  0.2198 -0.7108
 2002SOL    HW117465   1.447   2.215   7.856  0.5815  0.7341 -1.1800
 2002SOL    HW217466   1.443   2.335   7.939  2.5869  1.4266  1.1293
 2003SOL     OW17467   0.711   1.322   4.662  0.0748 -0.5725 -0.1354
 2003SOL    HW117468   0.756   1.294   4.583  0.6804 -0.7395  0.2712
 2003SOL    HW217469   0.782   1.369   4.705 -0.5356 -1.4413  1.8196
 2004SOL     OW17470   0.263   1.980   7.054  0.1933  0.4268 -0.3092
 2004SOL    HW117471   0.274   1.956   6.962  0.5497  0.6332 -0.3191
 2004SOL    HW217472   0.167   1.985   7.053  0.2066  0.9525  2.0201
 2005SOL     OW17473   4.012   0.122   1.280 -0.0205  0.2802  0.4839
 2005SOL    HW117474   3.989   0.048   1.224  0.4343  0.5224 -0.0192
 2005SOL    HW217475   4.088   0.157   1.233 -0.7379 -0.0763 -0.9259
 2006SOL     OW17476   1.940   3.893   7.319  0.5598  0.0756  0.1333
 2006SOL    HW117477   2.000   3.818   7.320  1.6005  0.9116  0.6179
 2006SOL    HW217478   1.857   3.861   7.354  1.0929 -2.6487 -1.0708
 2007SOL     OW17479   3.334   1.619  11.318  0.0331  0.0409  0.3001
 2007SOL    HW117480   3.261   1.663  11.360  0.1099 -1.0749  1.6127
 2007SOL    HW217481   3.302   1.615  11.228 -1.5821  1.6427  0.8237
 2008SOL     OW17482   4.723   3.220   4.803 -0.4822 -0.0363 -0.7575
 2008SOL    HW117483   0.061   3.287   4.778  3.0516 -1.9916  3.0640
 2008SOL    HW217484   0.046   3.165   4.864 -0.0209  1.2205  0.0043
 2009SOL     OW17485   2.436   4.257  16.414 -0.1183  0.5204 -0.3395
 2009SOL    HW117486   2.520   4.259  16.369  0.3464  0.2743  0.5288
 2009SOL    HW217487   2.377   4.307  16.358  0.6257 -0.7217 -2.2236
 2010SOL     OW17488   4.355   1.491   6.677  0.1186  0.4163 -0.1067
 2010SOL    HW117489   4.384   1.430   6.609 -1.1383 -0.1728 -0.0948
 2010SOL    HW217490   4.410   1.469   6.753  0.9991  1.4526 -0.4450
 2011SOL     OW17491   2.948   2.623   6.633 -0.0072  0.1179 -0.1582
 2011SOL    HW117492   2.864   2.582   6.612  0.4641 -1.1519  0.4344
 2011SOL    HW217493   2.966   2.581   6.717  0.0946  0.8273  0.1765
 2012SOL     OW17494   4.329   0.513   1.835  0.1115  0.2386  0.4492
 2012SOL    HW117495   4.335   0.493   1.928  3.4748 -0.9551 -0.0394
 2012SOL    HW217496   4.345   0.425   1.801 -1.5509  1.1228 -2.6564
 2013SOL     OW17497   4.665   4.558   8.159 -0.3268  0.2228 -0.1934
 2013SOL    HW117498   0.034   4.544   8.157 -0.2902  0.7382 -2.0470
 2013SOL    HW217499   4.655   4.552   8.254 -0.3624  0.1432 -0.2018
 2014SOL     OW17500   0.091   3.498  11.852 -0.3999 -0.4846 -0.3330
 2014SOL    HW117501   0.137   3.446  11.918  1.7816  2.9225  0.8139
 2014SOL    HW217502   0.092   3.582  11.897  1.6639 -1.0498  0.6595
 2015SOL     OW17503   2.017   0.170   3.729  0.6675  0.6048 -0.0431
 2015SOL    HW117504   2.009   0.228   3.654  2.0520  1.9584  0.8430
 2015SOL    HW217505   1.982   0.086   3.700 -2.3669  1.7674  0.3461
 2016SOL     OW17506   3.441   4.603   8.184 -0.3492 -0.5157  0.6333
 2016SOL    HW117507   3.380   4.530   8.188 -1.7208  0.7133  1.9912
 2016SOL    HW217508   3.376   4.671   8.205  0.6209  0.6589 -0.1695
 2017SOL     OW17509   1.332   1.052   0.828 -0.4519 -0.3962 -0.3133
 2017SOL    HW117510   1.372   1.074   0.912  1.8002 -0.5704 -1.3655
 2017SOL    HW217511   1.380   1.102   0.762 -2.5004  1.2436 -0.5636
 2018SOL     OW17512   4.072   0.932  11.078  0.1199  0.3236 -0.1519
 2018SOL    HW117513   4.057   1.013  11.127 -1.4241  0.6905 -1.2296
 2018SOL    HW217514   3.982   0.901  11.084  0.1641 -0.0369 -1.2628
 2019SOL     OW17515   0.243   2.174   4.629 -0.9882  0.3536  0.2811
 2019SOL    HW117516   0.190   2.132   4.561  1.4665 -0.0792 -1.3273
 2019SOL    HW217517   0.324   2.141   4.590 -3.6696 -0.2393 -4.8144
 2020SOL     OW17518   3.551   3.214   1.019  0.4283  0.0978 -0.2416
 2020SOL    HW117519   3.546   3.236   1.112  0.2371  0.6734 -0.3922
 2020SOL    HW217520   3.470   3.250   0.984 -0.3881 -0.1939  1.3682
 2021SOL     OW17521   3.187   2.611  15.106  0.2848  0.3289  0.0800
 2021SOL    HW117522   3.189   2.539  15.042  1.5779 -0.2471  0.7697
 2021SOL    HW217523   3.119   2.658  15.058  0.0208  0.4994  0.6193
 2022SOL     OW17524   2.262   1.070   8.504  0.4131  0.0361 -0.3613
 2022SOL    HW117525   2.341   1.018   8.521  0.7393  0.6228 -0.0704
 2022SOL    HW217526   2.272   1.076   8.409 -3.7558 -0.4609 -0.8319
 2023SOL     OW17527   3.513   4.235   5.515 -0.1758 -0.0883 -0.6071
 2023SOL    HW117528   3.508   4.139   5.514  2.2991 -0.2161  0.9166
 2023SOL    HW217529   3.508   4.264   5.424  2.7965 -2.2050 -1.4437
 2024SOL     OW17530   3.734   2.682   8.099 -0.4230  0.4025  0.3379
 2024SOL    HW117531   3.686   2.751   8.144 -0.5186 -0.4775  1.5974
 2024SOL    HW217532   3.824   2.686   8.129 -0.6924  1.5716  0.9676
 2025SOL     OW17533   3.553   0.953   5.836  0.3571 -0.0678  0.7448
 2025SOL    HW117534   3.538   0.860   5.848 -0.8934  0.2139  1.3769
 2025SOL    HW217535   3.622   0.978   5.898 -0.0593  1.8092  0.4682
 2026SOL     OW17536   3.605   0.500  13.361 -0.4229  0.0758  0.4480
 2026SOL    HW117537   3.670   0.475  13.427 -0.0050  0.0994  0.0424
 2026SOL    HW217538   3.574   0.417  13.325  0.8992 -0.2775  0.1244
 2027SOL     OW17539   3.479   0.983  11.566  0.2176 -0.3032 -0.0182
 2027SOL    HW117540   3.396   0.994  11.519 -1.3180 -0.8849  2.5914
 2027SOL    HW217541   3.486   0.887  11.566  0.7420 -0.2804 -2.6581
 2028SOL     OW17542   2.996   3.597   4.364 -0.6542 -0.2007  0.0611
 2028SOL    HW117543   2.935   3.641   4.304  0.6816 -1.2478 -2.0685
 2028SOL    HW217544   2.936   3.534   4.403 -1.9318  1.1612  0.3057
 2029SOL     OW17545   2.010   4.370   8.098  0.2119 -0.2595 -0.1654
 2029SOL    HW117546   2.048   4.304   8.156  0.6355  0.3545  0.2502
 2029SOL    HW217547   1.974   4.440   8.152  0.8058  0.1487 -0.3033
 2030SOL     OW17548   4.535   0.766   9.512  0.1154 -0.1302 -0.0579
 2030SOL    HW117549   4.570   0.703   9.449 -0.8000 -0.1848 -0.5077
 2030SOL    HW217550   4.541   0.715   9.593  3.6774 -0.1344 -0.2965
 2031SOL     OW17551   2.535   3.113   0.615  0.4711 -0.2810 -0.4144
 2031SOL    HW117552   2.533   3.204   0.644  1.5667 -0.4480  0.1821
 2031SOL    HW217553   2.456   3.116   0.561  1.2364 -2.7653 -1.7093
 2032SOL     OW17554   0.997   0.925   3.362 -0.1324  0.3025 -0.2620
 2032SOL    HW117555   0.925   0.946   3.422  1.0422 -0.8289  1.5541
 2032SOL    HW217556   0.961   0.863   3.299 -0.5058 -0.0751  0.3153
 2033SOL     OW17557   2.318   0.805   5.093 -0.0374  0.2055 -0.6104
 2033SOL    HW117558   2.311   0.803   4.998  2.2185 -4.3791 -0.6574
 2033SOL    HW217559   2.241   0.753   5.115  0.1453  0.0119 -0.4220
 2034SOL     OW17560   3.196   0.438   9.562 -0.5500 -0.1897 -0.5845
 2034SOL    HW117561   3.180   0.444   9.657 -0.8482 -2.5028 -0.4862
 2034SOL    HW217562   3.284   0.475   9.568 -0.9327  1.0810 -3.1821
 2035SOL     OW17563   4.232   4.571   7.853  0.4121  0.3246 -0.2808
 2035SOL    HW117564   4.178   4.540   7.925  0.5398 -1.8912 -1.1281
 2035SOL    HW217565   4.184   4.533   7.780 -0.3527 -0.4872  0.6481
 2036SOL     OW17566   4.615   1.514   7.481  0.7555  0.2533 -0.0124
 2036SOL    HW117567   4.649   1.425   7.492 -3.3135 -1.2423  0.3935
 2036SOL    HW217568   4.585   1.524   7.572 -1.6819 -0.7034 -0.7074
 2037SOL     OW17569   4.483   1.508   6.312 -0.4531  0.0975  0.1586
 2037SOL    HW117570   4.458   1.430   6.361  0.3507 -0.5348 -0.4191
 2037SOL    HW217571   4.413   1.569   6.333 -0.3364  0.0674  0.6313
 2038SOL     OW17572   2.968   0.534   5.218 -0.0540  0.4151 -0.1263
 2038SOL    HW117573   2.946   0.548   5.310  1.2069 -2.8269  0.6699
 2038SOL    HW217574   2.878   0.541   5.185  0.8375  0.0515 -2.6398
 2039SOL     OW17575   2.175   3.509   7.035 -0.5703  0.5550 -0.1861
 2039SOL    HW117576   2.225   3.537   7.111 -1.4816  0.0100  0.6104
 2039SOL    HW217577   2.088   3.513   7.075 -1.3114 -0.0602 -1.7260
 2040SOL     OW17578   0.841   1.789   6.420 -0.3167 -0.3783  0.3474
 2040SOL    HW117579   0.907   1.857   6.424  0.9512 -1.5260 -1.1403
 2040SOL    HW217580   0.889   1.711   6.392  0.4363  0.6258 -1.1329
 2041SOL     OW17581   1.308   4.460   7.084  0.6413 -0.8894  0.4862
 2041SOL    HW117582   1.387   4.493   7.042  0.4042 -0.2120  0.5678
 2041SOL    HW217583   1.245   4.523   7.048  0.9739  0.7810  2.8576
 2042SOL     OW17584   3.014   1.217  10.205  0.0999 -0.2264 -0.1122
 2042SOL    HW117585   3.068   1.161  10.261  1.3550  1.9820  0.8947
 2042SOL    HW217586   3.066   1.224  10.125  0.0042  2.8022  0.1074
 2043SOL     OW17587   3.039   2.408   8.874 -0.7754  0.4092 -0.1990
 2043SOL    HW117588   2.962   2.377   8.826 -0.8668  0.3112  0.0129
 2043SOL    HW217589   3.020   2.499   8.897  0.1970  0.8620 -1.1359
 2044SOL     OW17590   2.574   1.898   4.665 -0.2555 -0.0713 -0.3186
 2044SOL    HW117591   2.642   1.832   4.679  0.6483  1.0755  0.7369
 2044SOL    HW217592   2.606   1.957   4.598  1.1555  0.5835  0.9275
 2045SOL     OW17593   0.475   1.810   8.124 -0.2941 -0.4411 -0.1338
 2045SOL    HW117594   0.424   1.816   8.043  0.9716 -0.0241 -0.8950
 2045SOL    HW217595   0.534   1.742   8.092 -1.2218 -2.2895  2.0908
 2046SOL     OW17596   0.111   2.275  14.274  0.2930  0.0526  0.7900
 2046SOL    HW117597   0.164   2.196  14.275  0.5961  0.2291 -1.8965
 2046SOL    HW217598   0.024   2.237  14.280 -0.0793  0.8618  0.5978
 2047SOL     OW17599   3.549   0.809   3.559 -0.3218 -0.1677  0.2819
 2047SOL    HW117600   3.495   0.887   3.543  0.5226  0.7070  1.6905
 2047SOL    HW217601   3.567   0.797   3.466  0.7061 -0.6165  0.5460
 2048SOL     OW17602   0.193   4.700   9.239 -0.4085 -0.2658 -0.2923
 2048SOL    HW117603   0.223   4.609   9.243 -1.1102 -0.4432  0.8556
 2048SOL    HW217604   0.099   4.685   9.232 -0.6507  2.5333 -2.9999
 2049SOL     OW17605   4.066   0.242   2.727  0.3538 -0.5548 -0.3332
 2049SOL    HW117606   4.032   0.170   2.780  0.4683 -0.6662 -0.4087
 2049SOL    HW217607   4.024   0.226   2.642 -1.7773 -3.3125  1.2231
 2050SOL     OW17608   0.042   1.531  10.441 -0.0696 -0.3277 -0.4151
 2050SOL    HW117609   0.058   1.477  10.518  0.4610  1.1540  0.5223
 2050SOL    HW217610   4.673   1.540  10.447  0.0499  1.9371 -1.8403
 2051SOL     OW17611   2.190   2.483   4.447 -0.2745  0.0606  0.0543
 2051SOL    HW117612   2.192   2.448   4.536  3.3690 -0.6529 -0.2934
 2051SOL    HW217613   2.176   2.405   4.394  0.7696  0.0158 -0.1713
 2052SOL     OW17614   0.673   1.179   2.034  0.3798  0.3304  0.6569
 2052SOL    HW117615   0.618   1.101   2.021  0.2300  0.2915  1.5261
 2052SOL    HW217616   0.742   1.149   2.093  1.8629  0.7312 -0.8507
 2053SOL     OW17617   0.375   2.383   7.690  0.0014 -0.0455  0.3397
 2053SOL    HW117618   0.465   2.415   7.701 -1.0994  3.1288  0.0753
 2053SOL    HW217619   0.382   2.320   7.761 -1.2988  0.1797  0.6580
 2054SOL     OW17620   1.492   0.589  11.030  0.8429  0.1663 -0.3534
 2054SOL    HW117621   1.537   0.506  11.043  0.4622  0.1063  0.5708
 2054SOL    HW217622   1.493   0.603  10.935  1.2639  2.0570 -0.0817
 2055SOL     OW17623   1.345   0.651  13.313  0.5806  0.4539 -0.0279
 2055SOL    HW117624   1.263   0.662  13.266  0.2913 -1.5672  0.0168
 2055SOL    HW217625   1.332   0.721  13.378 -0.7988 -1.1468  1.4228
 2056SOL     OW17626   4.154   4.347   2.383  0.0680 -0.3976  0.4530
 2056SOL    HW117627   4.218   4.370   2.315  1.0069 -1.1379  1.0969
 2056SOL    HW217628   4.192   4.262   2.401  1.0330 -0.4786 -1.8666
 2057SOL     OW17629   1.252   1.136   5.469 -0.1874 -0.3995 -0.4840
 2057SOL    HW117630   1.253   1.096   5.382  0.0415 -0.1290 -0.6092
 2057SOL    HW217631   1.178   1.196   5.462 -0.9888 -1.1600  1.5271
 2058SOL     OW17632   2.009   0.009  17.680 -0.3443  0.7888 -0.1494
 2058SOL    HW117633   1.994   4.660  17.623 -1.2992  2.4344 -2.0688
 2058SOL    HW217634   1.982   4.691   0.056  0.3509 -1.4586 -1.1523
 2059SOL     OW17635   2.956   0.523  17.647  0.0790 -0.0951  0.1885
 2059SOL    HW117636   3.016   0.470  17.699  1.9865  1.4706 -0.4085
 2059SOL    HW217637   2.989   0.513  17.558  2.0400  0.5668  0.8542
 2060SOL     OW17638   1.823   1.230   0.457  0.5416  0.1569 -0.1957
 2060SOL    HW117639   1.779   1.204   0.376 -0.7944  0.7115  0.3609
 2060SOL    HW217640   1.908   1.256   0.420  0.0203  1.8511 -0.2104
 2061SOL     OW17641   1.274   1.026   4.200 -0.3253  0.4826  0.3361
 2061SOL    HW117642   1.300   0.976   4.123 -1.5823  1.5656 -0.7818
 2061SOL    HW217643   1.353   1.079   4.212 -0.1899  0.0737  1.3177
 2062SOL     OW17644   2.939   0.156   4.356 -0.7183 -0.1967  0.5428
 2062SOL    HW117645   2.898   0.121   4.435  0.1034  0.9010  1.4478
 2062SOL    HW217646   3.023   0.190   4.388 -1.0817  1.4358 -0.2250
 2063SOL     OW17647   2.954   1.000  13.606  0.4064  0.3404 -0.4517
 2063SOL    HW117648   3.041   1.018  13.642 -0.3622  2.4206  0.3837
 2063SOL    HW217649   2.907   1.082  13.623 -0.0585 -0.0865  0.3125
 2064SOL     OW17650   4.330   3.227   3.674 -0.0568 -0.5203  0.3515
 2064SOL    HW117651   4.295   3.174   3.602 -0.9132 -0.0830  0.4394
 2064SOL    HW217652   4.253   3.278   3.701 -0.6136 -0.3643 -1.5153
 2065SOL     OW17653   3.431   4.698  10.860  0.0326  0.0390  0.6517
 2065SOL    HW117654   3.486   0.051  10.853 -2.1203  1.6688  2.2284
 2065SOL    HW217655   3.507   4.640  10.859 -1.0776 -1.3756 -0.6697
 2066SOL     OW17656   2.069   0.384   9.064 -0.4717  0.4872  0.5475
 2066SOL    HW117657   2.137   0.433   9.110 -0.5381  0.6025  0.5220
 2066SOL    HW217658   2.091   0.303   9.111 -0.0141 -0.4745 -1.3212
 2067SOL     OW17659   1.762   0.390   9.987  0.1518  0.0735 -0.1846
 2067SOL    HW117660   1.770   0.471  10.037  1.3550  1.5076 -2.7246
 2067SOL    HW217661   1.853   0.367   9.971  0.8062  1.8411  1.0638
 2068SOL     OW17662   3.216   3.994   0.213  0.1059 -0.5808 -0.4171
 2068SOL    HW117663   3.132   3.969   0.176 -1.0307 -0.0847  1.8489
 2068SOL    HW217664   3.277   3.946   0.157  0.6523 -0.4657  0.0746
 2069SOL     OW17665   2.262   4.174   9.781 -0.5956  0.7330 -0.5508
 2069SOL    HW117666   2.346   4.133   9.803 -0.4022  0.4720 -1.8077
 2069SOL    HW217667   2.203   4.138   9.848 -0.0383 -0.1038 -0.5080
 2070SOL     OW17668   3.251   0.276   8.993 -0.2022 -0.0440  0.6608
 2070SOL    HW117669   3.254   0.348   8.930  0.9641 -0.0736  0.6808
 2070SOL    HW217670   3.241   0.203   8.932  0.3252  1.8197 -1.6512
 2071SOL     OW17671   1.114   4.604   5.069  0.3368 -0.2918  0.0368
 2071SOL    HW117672   1.051   4.662   5.026  2.3919  1.3616 -0.7259
 2071SOL    HW217673   1.189   4.663   5.076  0.5850 -0.7045  0.8965
 2072SOL     OW17674   1.154   0.213   1.640 -0.0301  0.2399 -1.0827
 2072SOL    HW117675   1.077   0.244   1.593  1.5274  2.4286 -2.1795
 2072SOL    HW217676   1.114   0.165   1.713  0.7919  1.6988  0.3140
 2073SOL     OW17677   1.307   4.449   8.100 -0.0530 -0.4115  0.1451
 2073SOL    HW117678   1.307   4.487   8.013 -2.4808  2.3991  1.4019
 2073SOL    HW217679   1.215   4.455   8.126  0.0637  1.4668  0.1027
 2074SOL     OW17680   3.012   0.213   5.152  0.5364 -0.2076  0.0913
 2074SOL    HW117681   3.061   0.251   5.079  2.7006 -1.1132  1.0638
 2074SOL    HW217682   3.081   0.217   5.218 -0.5639 -1.1309  1.2892
 2075SOL     OW17683   3.221   2.998  17.525  0.0102 -0.3441 -0.2283
 2075SOL    HW117684   3.294   2.955  17.480  1.2995 -0.8822  2.3315
 2075SOL    HW217685   3.270   3.058  17.582 -0.2495 -0.4359  0.0929
 2076SOL     OW17686   3.117   1.641   3.993 -0.1143  0.5757  0.3064
 2076SOL    HW117687   3.074   1.624   4.077 -0.2663  0.4404  0.1994
 2076SOL    HW217688   3.211   1.638   4.011  0.2100  1.7724 -1.2434
 2077SOL     OW17689   2.824   3.967   5.149  0.5475 -0.2386 -0.7840
 2077SOL    HW117690   2.744   3.916   5.151 -0.6506  1.6826 -0.0910
 2077SOL    HW217691   2.803   4.038   5.210 -0.7203  0.9729 -2.6398
 2078SOL     OW17692   3.646   3.752   9.259  0.0016 -0.6830 -0.0716
 2078SOL    HW117693   3.740   3.760   9.279 -0.2960 -0.0926  1.0882
 2078SOL    HW217694   3.622   3.845   9.263  0.9023 -0.4169 -0.5483
 2079SOL     OW17695   2.061   3.778   9.709 -0.2340  0.4458 -0.2151
 2079SOL    HW117696   2.039   3.685   9.705 -0.0902  0.3784  0.6562
 2079SOL    HW217697   2.097   3.792   9.622 -0.8290 -0.5218 -0.6145
 2080SOL     OW17698   3.324   1.385  17.219 -0.1108  0.0249  0.2487
 2080SOL    HW117699   3.353   1.448  17.153  0.8792 -0.3864  0.2882
 2080SOL    HW217700   3.231   1.408  17.216 -0.2862 -0.6433  0.6356
 2081SOL     OW17701   0.669   3.553   3.789 -0.6133  0.4182 -0.1042
 2081SOL    HW117702   0.585   3.599   3.784 -0.4329  0.6002 -1.4992
 2081SOL    HW217703   0.725   3.617   3.745  1.1662  0.9104  2.8351
 2082SOL     OW17704   0.643   0.092   8.555 -0.0416  0.2254 -0.1623
 2082SOL    HW117705   0.619   4.725   8.553 -0.0760  0.2124  0.8422
 2082SOL    HW217706   0.665   0.109   8.464  0.5770  0.5627  0.0514
 2083SOL     OW17707   2.317   0.089   7.110 -0.0742 -0.1464 -0.0723
 2083SOL    HW117708   2.261   0.051   7.177 -1.3863  3.4742  0.8578
 2083SOL    HW217709   2.369   0.014   7.080  0.2976  1.7070 -4.1457
 2084SOL     OW17710   0.331   0.057   4.460  0.3466  0.2922 -0.3010
 2084SOL    HW117711   0.276   4.724   4.407 -1.9558  1.2296  1.0200
 2084SOL    HW217712   0.385   4.724   4.513 -1.2576 -0.1601  0.8700
 2085SOL     OW17713   3.152   1.925   2.927 -0.4260  0.2244 -0.1285
 2085SOL    HW117714   3.144   2.019   2.942  2.2286  0.3825  0.2780
 2085SOL    HW217715   3.153   1.897   3.018 -2.8079 -1.1688 -0.5217
 2086SOL     OW17716   1.701   4.497   6.610 -0.2787  0.4422 -0.6705
 2086SOL    HW117717   1.606   4.505   6.613 -0.0760  2.8430 -0.9594
 2086SOL    HW217718   1.723   4.529   6.697  1.2671  0.7722 -1.1815
 2087SOL     OW17719   4.552   2.456   3.064  0.3045  0.5000  0.2959
 2087SOL    HW117720   4.509   2.433   2.981  1.4256  0.4437 -0.2589
 2087SOL    HW217721   4.476   2.443   3.121  1.0340 -1.6090  0.7835
 2088SOL     OW17722   1.732   0.583   4.806  0.5082 -0.7779  0.5501
 2088SOL    HW117723   1.759   0.534   4.884  0.7435  0.8595  1.5073
 2088SOL    HW217724   1.723   0.510   4.746  2.3361  1.3605 -2.3101
 2089SOL     OW17725   0.345   2.480  10.001  0.3196 -0.0738 -0.6606
 2089SOL    HW117726   0.416   2.423  10.029 -0.4718 -0.7248  0.0308
 2089SOL    HW217727   0.307   2.448   9.919 -0.4472 -1.9012  0.4088
 2090SOL     OW17728   2.326   0.276   4.156 -0.7538  0.2044 -0.3180
 2090SOL    HW117729   2.386   0.207   4.183  1.9337  1.0804 -3.9692
 2090SOL    HW217730   2.271   0.275   4.234  0.6409  2.7329  0.7272
 2091SOL     OW17731   4.045   4.313  11.105  0.0256  0.0186  0.4426
 2091SOL    HW117732   4.096   4.322  11.025 -1.2759  0.0354 -0.3957
 2091SOL    HW217733   4.027   4.403  11.130  1.6024 -0.0522  1.7976
 2092SOL     OW17734   3.257   1.160   9.056 -0.2781  0.3416  0.0960
 2092SOL    HW117735   3.350   1.166   9.079 -0.1577  0.9682 -0.5212
 2092SOL    HW217736   3.244   1.231   8.993 -1.7379 -1.9755 -2.2518
 2093SOL     OW17737   3.185   4.428   6.466 -0.1414 -0.2028 -0.0534
 2093SOL    HW117738   3.113   4.384   6.421 -2.2190  0.5636  2.5382
 2093SOL    HW217739   3.171   4.403   6.557  0.9600  0.1578  0.2118
 2094SOL     OW17740   3.551   2.681   9.677  0.5941 -0.3307  0.1868
 2094SOL    HW117741   3.491   2.625   9.725 -0.5243  1.9088  1.4020
 2094SOL    HW217742   3.631   2.689   9.728  0.2927  0.6077  0.5106
 2095SOL     OW17743   3.486   3.830   7.552  0.7237  0.3121 -0.8280
 2095SOL    HW117744   3.546   3.893   7.512  0.2339  0.4040 -1.4261
 2095SOL    HW217745   3.433   3.892   7.603  0.0156 -0.3497 -0.7563
 2096SOL     OW17746   1.499   3.118   6.507  0.3868 -0.3568 -0.0674
 2096SOL    HW117747   1.503   3.061   6.430 -1.6649 -0.8332  0.1819
 2096SOL    HW217748   1.508   3.055   6.579  0.1213 -0.3707 -0.0482
 2097SOL     OW17749   1.872   0.935   4.937  0.2407  0.7322 -0.4544
 2097SOL    HW117750   1.834   1.023   4.943 -0.2322  0.4768  0.2959
 2097SOL    HW217751   1.867   0.915   4.844  0.2477  0.4573 -0.3936
 2098SOL     OW17752   1.325   0.655  12.204 -0.4305 -0.3360 -0.4444
 2098SOL    HW117753   1.316   0.567  12.166  1.6647 -1.2331  1.1140
 2098SOL    HW217754   1.396   0.643  12.267  0.6418 -1.4735 -1.8845
 2099SOL     OW17755   3.757   3.639   2.773  0.1628 -0.0453  0.5831
 2099SOL    HW117756   3.840   3.594   2.757 -1.1579 -1.6179 -1.7354
 2099SOL    HW217757   3.786   3.730   2.769 -1.6883  0.5440  0.3446
 2100SOL     OW17758   3.164   0.151   5.884 -0.1342 -0.2292 -0.1162
 2100SOL    HW117759   3.176   0.189   5.798 -0.5146  1.8567  0.7668
 2100SOL    HW217760   3.212   0.071   5.862  1.5393  1.1324 -1.3325
 2101SOL     OW17761   3.154   2.840   8.577  0.0349  0.3204 -0.4135
 2101SOL    HW117762   3.068   2.881   8.575  0.5650  1.5099  1.0005
 2101SOL    HW217763   3.156   2.815   8.484  2.1907 -1.0594 -0.0001
 2102SOL     OW17764   0.423   3.034   6.917 -0.2095 -0.0046  0.0344
 2102SOL    HW117765   0.406   2.984   6.997  0.0271  0.5793  0.4498
 2102SOL    HW217766   0.348   3.092   6.906 -0.5549 -0.5986 -0.7709
 2103SOL     OW17767   1.450   2.153   4.580 -0.1342  0.0270  0.3993
 2103SOL    HW117768   1.483   2.218   4.643 -1.1801  0.5215  0.4348
 2103SOL    HW217769   1.475   2.185   4.493  2.5171 -0.5611  0.9320
 2104SOL     OW17770   3.064   4.203   5.831  0.8569 -0.6980 -0.2534
 2104SOL    HW117771   3.025   4.276   5.878  2.6724 -1.0828  1.8634
 2104SOL    HW217772   3.084   4.153   5.911  2.5917 -0.6858 -0.6695
 2105SOL     OW17773   4.650   2.570   2.528  0.1851 -0.0978 -0.0269
 2105SOL    HW117774   4.636   2.476   2.514 -1.0544 -0.0578  0.9699
 2105SOL    HW217775   4.626   2.582   2.619 -1.9541 -0.4856 -0.5481
 2106SOL     OW17776   3.563   0.891  15.518 -0.2603 -0.1636  0.5986
 2106SOL    HW117777   3.613   0.810  15.534  1.0818  0.3713 -0.9515
 2106SOL    HW217778   3.640   0.945  15.504 -0.2156  0.3130  2.7050
 2107SOL     OW17779   0.197   0.085   3.117 -0.4082 -0.0193 -0.1639
 2107SOL    HW117780   0.242   0.160   3.076 -3.7256  1.6497 -0.7461
 2107SOL    HW217781   0.191   0.023   3.044  0.1476  0.8879 -0.9968
 2108SOL     OW17782   4.006   3.012   7.734  0.6497  0.2868 -0.6656
 2108SOL    HW117783   3.979   3.103   7.723 -0.8148 -0.0623  0.0511
 2108SOL    HW217784   3.954   2.969   7.665  1.6521  2.3059 -2.6939
 2109SOL     OW17785   2.600   3.993   6.272 -0.4371 -0.4761  0.2677
 2109SOL    HW117786   2.562   4.069   6.316  2.2679 -0.2577  2.2440
 2109SOL    HW217787   2.645   3.952   6.346  0.0990 -2.0386 -0.9246
 2110SOL     OW17788   2.539   2.313   7.186 -0.1061 -0.2088  0.3131
 2110SOL    HW117789   2.606   2.252   7.217  0.3935 -0.0034 -0.3426
 2110SOL    HW217790   2.451   2.278   7.200  0.2001 -1.1841 -0.1928
 2111SOL     OW17791   1.015   4.055   6.529 -0.6737 -0.2122  0.1796
 2111SOL    HW117792   0.953   4.108   6.478 -1.1645 -0.1922  0.7868
 2111SOL    HW217793   0.996   3.971   6.488 -0.5606  0.3782 -1.0783
 2112SOL     OW17794   1.615   1.690   9.990 -0.0746 -0.2404 -0.2836
 2112SOL    HW117795   1.541   1.749  10.003  1.0247  1.0839 -0.0029
 2112SOL    HW217796   1.577   1.610   9.956 -0.7743  0.6145 -1.5081
 2113SOL     OW17797   3.553   2.078   1.006  0.0272  0.4608 -0.0224
 2113SOL    HW117798   3.639   2.048   0.977  0.0180  1.5988 -1.2120
 2113SOL    HW217799   3.573   2.171   0.996  1.4967  0.2807  1.2866
 2114SOL     OW17800   0.399   0.826  14.072 -0.0405 -0.0481  0.3429
 2114SOL    HW117801   0.417   0.766  13.999  0.0785 -0.3204  0.5936
 2114SOL    HW217802   0.422   0.770  14.147  2.1830 -1.4421 -1.3777
 2115SOL     OW17803   3.161   3.044  14.335 -0.1148 -0.1428  0.1095
 2115SOL    HW117804   3.084   3.020  14.284 -0.7747 -0.1887  1.1174
 2115SOL    HW217805   3.216   2.969  14.313  1.4404  1.0591 -0.1300
 2116SOL     OW17806   3.281   2.066   9.716  0.4352  0.2023  0.1574
 2116SOL    HW117807   3.240   2.146   9.752 -1.4587 -1.4742  1.7597
 2116SOL    HW217808   3.326   2.101   9.639 -0.8440  1.0330 -0.2288
 2117SOL     OW17809   2.891   2.276   7.667 -0.0613 -0.2111 -0.5135
 2117SOL    HW117810   2.803   2.284   7.704  0.0399  0.6768 -0.4691
 2117SOL    HW217811   2.917   2.187   7.692 -0.3031  0.0308  0.5722
 2118SOL     OW17812   3.545   1.305  11.543 -0.7674 -0.5378 -0.3102
 2118SOL    HW117813   3.522   1.327  11.452  1.7555  1.0685 -0.5449
 2118SOL    HW217814   3.637   1.330  11.541 -1.5265  2.3873  1.6865
 2119SOL     OW17815   1.253   0.384   3.528  0.1343 -0.7284  0.0073
 2119SOL    HW117816   1.318   0.336   3.579 -1.9504 -2.6468  0.8525
 2119SOL    HW217817   1.174   0.363   3.578  0.7533  0.3626  1.4354
 2120SOL     OW17818   3.917   1.836   3.043  0.1952 -0.5209 -0.1154
 2120SOL    HW117819   3.834   1.872   3.010 -0.5185 -1.4961  0.5927
 2120SOL    HW217820   3.907   1.869   3.132  1.3771  0.3504 -0.3022
 2121SOL     OW17821   3.068   3.481   9.580  0.6382 -0.3693 -0.4619
 2121SOL    HW117822   3.048   3.389   9.599 -1.5073  0.5230  1.6272
 2121SOL    HW217823   3.126   3.465   9.506  2.7898  1.7772  0.7721
 2122SOL     OW17824   2.564   2.317  14.853  0.1694 -0.2364 -0.3931
 2122SOL    HW117825   2.627   2.374  14.895 -0.2119 -0.0655 -0.0505
 2122SOL    HW217826   2.509   2.380  14.806 -1.5538 -1.5194 -0.0984
 2123SOL     OW17827   1.375   3.315   4.755 -0.2393 -0.8273 -0.5607
 2123SOL    HW117828   1.380   3.399   4.802 -0.2366  0.2256 -2.4272
 2123SOL    HW217829   1.340   3.257   4.822  0.3241 -0.7760 -0.2190
 2124SOL     OW17830   3.371   3.239   2.608 -0.2922  0.1735  0.0952
 2124SOL    HW117831   3.285   3.282   2.606 -0.2656  0.2663  1.2597
 2124SOL    HW217832   3.432   3.292   2.557  0.5607 -1.4032 -0.5203
 2125SOL     OW17833   4.577   1.526   0.564 -0.0750 -0.0176  0.1517
 2125SOL    HW117834   4.562   1.442   0.520 -2.2612 -0.3280  1.5084
 2125SOL    HW217835   4.487   1.543   0.590  0.0724 -0.4320  0.9184
 2126SOL     OW17836   0.678   1.423   7.682  0.6456 -0.5303 -0.1843
 2126SOL    HW117837   0.654   1.350   7.739 -1.6334 -0.6391 -1.2965
 2126SOL    HW217838   0.739   1.377   7.626  0.9134  0.9127 -1.0796
 2127SOL     OW17839   0.967   2.366   8.200  0.2932  0.5849  0.4307
 2127SOL    HW117840   1.019   2.338   8.275  0.7405 -0.3750 -0.2515
 2127SOL    HW217841   0.983   2.460   8.212  0.2978  0.6199  0.1452
 2128SOL     OW17842   1.703   3.101  14.072 -0.3133  0.1796 -0.6709
 2128SOL    HW117843   1.630   3.076  14.014 -0.1815 -1.3742 -0.1615
 2128SOL    HW217844   1.734   3.166  14.010  0.1306  2.7854  2.2911
 2129SOL     OW17845   4.106   4.174   4.953  0.0297 -0.0153  0.5542
 2129SOL    HW117846   4.191   4.138   4.928 -1.2775 -2.4973 -0.3399
 2129SOL    HW217847   4.140   4.232   5.021  0.2487 -0.6845  1.0104
 2130SOL     OW17848   0.337   0.940  11.542  0.1606  0.4852 -0.4632
 2130SOL    HW117849   0.350   0.923  11.448 -1.6001  0.0374 -0.6337
 2130SOL    HW217850   0.263   0.882  11.561 -0.7552  1.4663 -0.9506
 2131SOL     OW17851   1.058   3.025   7.885 -0.1532 -1.3650 -0.1743
 2131SOL    HW117852   1.039   3.083   7.960 -0.9975 -1.2946 -0.4426
 2131SOL    HW217853   1.154   3.021   7.890 -0.0787  1.1646  0.6659
 2132SOL     OW17854   4.111   3.301   5.150 -0.0518  0.0855 -0.3009
 2132SOL    HW117855   4.135   3.380   5.102 -1.4690  0.2642 -0.7289
 2132SOL    HW217856   4.016   3.301   5.136 -0.2006 -0.3102  0.6868
 2133SOL     OW17857   4.392   2.118  10.795  0.0489 -0.1760 -0.6629
 2133SOL    HW117858   4.387   2.202  10.841 -1.8033 -2.0934  2.6588
 2133SOL    HW217859   4.482   2.087  10.802 -0.1672 -0.7048 -0.1705
 2134SOL     OW17860   1.670   0.186   1.840 -0.1377  0.3060 -0.4014
 2134SOL    HW117861   1.667   0.270   1.795  1.2614  0.8294  0.4761
 2134SOL    HW217862   1.741   0.153   1.786  0.4344  0.1493  0.4374
 2135SOL     OW17863   3.314   1.682   1.036 -0.3284 -0.1841 -0.0973
 2135SOL    HW117864   3.274   1.721   0.958  0.4377  1.3204  0.2713
 2135SOL    HW217865   3.241   1.629   1.068  0.2391 -0.7384  0.2776
 2136SOL     OW17866   1.559   2.372  16.322 -0.1440 -0.1084 -0.0415
 2136SOL    HW117867   1.470   2.337  16.322 -0.1835  0.0044  0.7795
 2136SOL    HW217868   1.565   2.402  16.231 -0.3578  1.0823  0.3474
 2137SOL     OW17869   0.352   3.448   8.923  0.2978  0.3780  0.3161
 2137SOL    HW117870   0.412   3.464   8.850  0.4931 -0.8279  0.2060
 2137SOL    HW217871   0.293   3.386   8.880 -1.2124  3.0852 -1.5657
 2138SOL     OW17872   2.171   4.219   6.189 -0.1361  0.4481 -0.1704
 2138SOL    HW117873   2.190   4.166   6.266  1.0307 -0.8734 -1.3618
 2138SOL    HW217874   2.080   4.245   6.206  0.4209  1.2744  1.6224
 2139SOL     OW17875   2.394   1.610   9.920 -0.3258 -0.3706 -0.2543
 2139SOL    HW117876   2.447   1.532   9.905  0.7639  0.2506  0.3219
 2139SOL    HW217877   2.446   1.663   9.859  0.8178 -1.9801 -0.6670
 2140SOL     OW17878   1.475   4.106   8.835 -0.1707  0.3697  0.0057
 2140SOL    HW117879   1.426   4.187   8.821  1.2765  1.3055  0.3750
 2140SOL    HW217880   1.559   4.145   8.860  0.7478 -2.8464  1.8974
 2141SOL     OW17881   2.843   3.322   3.918  0.2477 -0.2774  0.2284
 2141SOL    HW117882   2.795   3.321   3.835  0.3482  1.2409  0.1429
 2141SOL    HW217883   2.772   3.354   3.973 -1.6477 -0.3252 -2.1840
 2142SOL     OW17884   4.447   1.120  10.952 -0.4542 -0.1315  0.0963
 2142SOL    HW117885   4.365   1.166  10.970 -2.1206 -2.4048 -1.5666
 2142SOL    HW217886   4.454   1.064  11.030 -2.0070 -3.0200 -1.8319
 2143SOL     OW17887   2.450   0.134   5.511  0.0764  0.3539 -0.3353
 2143SOL    HW117888   2.382   0.173   5.567  0.7939  1.9666 -0.5877
 2143SOL    HW217889   2.417   0.169   5.428  0.8058  0.1658 -0.7043
 2144SOL     OW17890   1.745   4.225   4.822 -0.0335 -0.0342 -0.2636
 2144SOL    HW117891   1.807   4.160   4.787 -1.2058 -0.7638 -0.9898
 2144SOL    HW217892   1.787   4.256   4.902 -0.1383  0.7879 -0.5300
 2145SOL     OW17893   0.395   0.076   1.633  0.2001  0.4597 -0.0891
 2145SOL    HW117894   0.362   0.071   1.544 -2.3619 -1.3940  0.9592
 2145SOL    HW217895   0.317   0.053   1.684  0.4356 -1.2261 -0.4918
 2146SOL     OW17896   3.953   3.939   1.773 -0.7102 -0.4999  0.1459
 2146SOL    HW117897   4.014   3.908   1.840  2.4197  2.4410 -1.3462
 2146SOL    HW217898   3.936   3.859   1.723  3.0045 -2.0240  1.3283
 2147SOL     OW17899   1.490   3.979  13.177  0.0762 -0.1903  0.3730
 2147SOL    HW117900   1.418   4.041  13.186  0.4945  0.2634  0.6284
 2147SOL    HW217901   1.527   4.016  13.096 -0.9283 -0.4756 -0.2156
 2148SOL     OW17902   0.288   2.601  12.040  0.5556  0.0377  0.0766
 2148SOL    HW117903   0.258   2.663  12.106  0.0446  2.8132 -2.7427
 2148SOL    HW217904   0.335   2.541  12.098  0.3586 -1.0183 -0.8416
 2149SOL     OW17905   4.197   4.436   0.487  0.1799 -0.1966 -0.0425
 2149SOL    HW117906   4.175   4.394   0.404  0.0687  0.3350 -0.2810
 2149SOL    HW217907   4.278   4.478   0.459 -1.3739  1.4814 -2.0208
 2150SOL     OW17908   2.505   1.830  15.574  0.1100 -0.3563  0.2988
 2150SOL    HW117909   2.496   1.895  15.644 -1.3208 -1.2649  0.9633
 2150SOL    HW217910   2.437   1.765  15.591 -0.6424 -0.0621 -1.5385
 2151SOL     OW17911   3.723   0.284   4.036 -0.4922  0.0902  0.2699
 2151SOL    HW117912   3.692   0.265   3.947  0.9179  1.0648 -0.4231
 2151SOL    HW217913   3.657   0.342   4.073  0.1191  0.9653 -0.0151
 2152SOL     OW17914   0.491   0.836   0.881 -0.1111  0.2218 -0.0849
 2152SOL    HW117915   0.542   0.796   0.810  0.6050  0.7026  0.1638
 2152SOL    HW217916   0.403   0.824   0.845  0.6768 -3.2992 -0.8788
 2153SOL     OW17917   3.081   2.708   1.681 -0.0403 -0.1063 -0.3260
 2153SOL    HW117918   3.075   2.803   1.679 -0.6975 -0.1871 -2.4376
 2153SOL    HW217919   3.172   2.697   1.656 -0.4268  0.0094 -1.7570
 2154SOL     OW17920   0.155   1.914  10.975 -0.7100  0.0205 -0.0138
 2154SOL    HW117921   0.063   1.921  11.002 -0.7434 -1.6137  0.2984
 2154SOL    HW217922   0.136   1.849  10.907  0.3713  1.0537 -1.3056
 2155SOL     OW17923   4.254   0.384   3.935  0.0596 -0.2136  0.0340
 2155SOL    HW117924   4.279   0.337   3.855  0.4444 -2.9240  1.7530
 2155SOL    HW217925   4.253   0.318   4.004 -0.7730  0.0375  0.2565
 2156SOL     OW17926   3.923   0.453   0.199 -0.2832  0.4503  0.3028
 2156SOL    HW117927   3.977   0.494   0.267 -1.4326  0.6585  1.0874
 2156SOL    HW217928   3.858   0.408   0.253 -1.4162  2.2626  0.4373
 2157SOL     OW17929   3.019   2.830   3.564 -0.1944 -0.2532  0.1993
 2157SOL    HW117930   2.968   2.866   3.491 -1.0648 -2.4974 -0.3072
 2157SOL    HW217931   2.998   2.737   3.551 -0.6929 -0.1411  0.1957
 2158SOL     OW17932   4.153   2.808   1.733 -0.3293 -0.5230  0.2657
 2158SOL    HW117933   4.235   2.787   1.689  0.3157  1.5897  0.4400
 2158SOL    HW217934   4.086   2.802   1.665 -0.0577 -0.7034  0.0165
 2159SOL     OW17935   1.367   1.780   1.154 -0.1431 -0.5613 -0.4342
 2159SOL    HW117936   1.363   1.732   1.072  2.2875 -0.7261 -0.4534
 2159SOL    HW217937   1.396   1.714   1.217  1.6073 -0.3214 -0.9713
 2160SOL     OW17938   0.107   0.205   7.586 -0.1517  0.2390 -0.4044
 2160SOL    HW117939   0.030   0.262   7.592 -1.5285 -1.7422  0.8097
 2160SOL    HW217940   0.169   0.263   7.542  0.8947 -1.3041 -0.9485
 2161SOL     OW17941   1.562   0.374   0.673 -0.3682  0.1289  0.0354
 2161SOL    HW117942   1.506   0.299   0.656  0.6632 -0.5875 -0.2276
 2161SOL    HW217943   1.649   0.349   0.640  0.1883  1.0280  0.8133
 2162SOL     OW17944   4.040   1.597   4.293  0.2265 -0.1617 -0.3326
 2162SOL    HW117945   4.037   1.512   4.251 -0.0289 -2.0537  3.4978
 2162SOL    HW217946   4.082   1.646   4.222  2.1761 -1.0269  0.2201
 2163SOL     OW17947   4.311   0.588   4.115 -0.1921  0.3283  0.0609
 2163SOL    HW117948   4.309   0.529   4.190  0.3984  0.4875  0.2059
 2163SOL    HW217949   4.299   0.522   4.046  1.7679  0.3397 -0.2946
 2164SOL     OW17950   4.397   2.070  15.556  0.8492 -0.1532 -0.7299
 2164SOL    HW117951   4.338   1.998  15.577  0.4889  0.1784 -0.5892
 2164SOL    HW217952   4.345   2.149  15.537 -0.4601 -1.1140 -1.1169
 2165SOL     OW17953   2.448   3.583   3.041 -0.4669 -0.2538  0.2857
 2165SOL    HW117954   2.392   3.661   3.040 -0.9116 -0.5712  0.4437
 2165SOL    HW217955   2.393   3.520   2.994 -1.3766 -1.4498  2.8934
 2166SOL     OW17956   3.643   0.710   1.051  0.2728  0.4356 -0.4205
 2166SOL    HW117957   3.583   0.635   1.049 -2.5144  2.6491  0.9293
 2166SOL    HW217958   3.594   0.776   1.002 -0.1301  1.4384  1.3309
 2167SOL     OW17959   1.787   3.403   7.901 -0.0806 -0.1808 -0.9049
 2167SOL    HW117960   1.695   3.377   7.891 -0.5068  1.1728 -0.3641
 2167SOL    HW217961   1.794   3.400   7.996  0.3437 -0.7132 -0.9498
 2168SOL     OW17962   3.529   4.128   3.617 -0.0700 -0.0947  0.5725
 2168SOL    HW117963   3.532   4.200   3.681  3.8060 -0.2957  0.6079
 2168SOL    HW217964   3.485   4.179   3.549  1.5273  0.3882 -0.0935
 2169SOL     OW17965   3.108   4.624   1.977 -0.5268  0.6245  0.0969
 2169SOL    HW117966   3.022   4.594   2.005 -1.2828  2.7162  0.0635
 2169SOL    HW217967   3.160   4.563   2.029 -1.1043  0.6124  0.6639
 2170SOL     OW17968   2.195   4.694   9.711  0.0172 -0.0087  0.7382
 2170SOL    HW117969   2.109   0.009   9.704 -0.6495 -1.0160  3.2286
 2170SOL    HW217970   2.196   4.677   9.805  1.0676 -1.6177  0.4477
 2171SOL     OW17971   2.687   2.471   8.596  0.2128 -0.0130  0.5300
 2171SOL    HW117972   2.648   2.488   8.510  2.2074  0.5626 -0.2624
 2171SOL    HW217973   2.617   2.502   8.653  0.2801 -0.8633  1.0886
 2172SOL     OW17974   3.447   2.091   4.512  0.3348 -0.5296  0.2894
 2172SOL    HW117975   3.353   2.102   4.497  0.3332 -1.1646 -0.1941
 2172SOL    HW217976   3.489   2.095   4.426  2.3764  0.6891  1.3591
 2173SOL     OW17977   4.498   4.431   9.346  0.1401 -0.6840 -0.1805
 2173SOL    HW117978   4.412   4.390   9.351 -0.0014 -0.3270  0.2781
 2173SOL    HW217979   4.544   4.362   9.393 -0.2575  0.4212  1.8076
 2174SOL     OW17980   4.189   1.287   6.097 -0.1201 -0.1172  0.9441
 2174SOL    HW117981   4.198   1.225   6.170 -0.4316 -0.8103  0.3915
 2174SOL    HW217982   4.155   1.364   6.142 -2.3761 -0.2746 -0.5032
 2175SOL     OW17983   2.325   2.740   2.953  0.0125  0.5001 -0.3696
 2175SOL    HW117984   2.420   2.730   2.961  0.0146 -0.9952 -2.2245
 2175SOL    HW217985   2.296   2.675   3.017 -0.9237  1.5441  0.2506
 2176SOL     OW17986   0.687   1.009   4.644 -0.4773  0.1251  0.0441
 2176SOL    HW117987   0.622   0.950   4.607  0.6633 -1.2557  0.2154
 2176SOL    HW217988   0.754   1.001   4.576 -3.0851 -2.9760 -2.1158
 2177SOL     OW17989   0.124   2.408   6.080  0.4248 -0.0918  0.0523
 2177SOL    HW117990   0.169   2.395   6.164 -1.7243  0.1907  1.2499
 2177SOL    HW217991   0.053   2.468   6.102  0.8782 -0.0108  1.3086
 2178SOL     OW17992   0.283   4.111  15.019 -0.2532  0.0563 -0.0040
 2178SOL    HW117993   0.194   4.110  15.053 -0.7301  0.8333 -1.1953
 2178SOL    HW217994   0.262   4.064  14.938 -0.8560  1.1484 -0.4809
 2179SOL     OW17995   2.284   1.795  10.101  0.1684 -0.0369  0.3161
 2179SOL    HW117996   2.307   1.720  10.046  1.3320  0.1653  0.5209
 2179SOL    HW217997   2.189   1.782  10.105  0.3876 -1.4756  0.7878
 2180SOL     OW17998   2.052   3.661  11.949 -0.4410 -0.0040  0.0332
 2180SOL    HW117999   2.100   3.590  11.993 -0.4653  1.6659  2.7213
 2180SOL    HW218000   1.994   3.682  12.021 -1.9860 -0.9931 -0.9259
 2181SOL     OW18001   1.162   2.106  11.015  0.2123 -0.2952 -0.1712
 2181SOL    HW118002   1.117   2.033  11.057  0.0738 -0.0005  0.1855
 2181SOL    HW218003   1.148   2.169  11.085 -0.1272 -0.0907 -0.4213
 2182SOL     OW18004   1.224   3.164   3.027 -0.0349 -0.0611  0.0823
 2182SOL    HW118005   1.263   3.181   3.113 -2.9613  1.0761  1.1714
 2182SOL    HW218006   1.166   3.095   3.060  0.6271 -0.5617  0.1929
 2183SOL     OW18007   4.617   3.261   7.814  0.5608  0.6236 -0.1682
 2183SOL    HW118008   4.547   3.326   7.814  0.9775  1.0758 -0.6390
 2183SOL    HW218009   4.688   3.321   7.794 -1.2339  1.8453 -2.9857
 2184SOL     OW18010   3.568   0.931   9.584 -0.0936  0.2141  0.1289
 2184SOL    HW118011   3.659   0.940   9.612 -0.3814  0.7538  0.8973
 2184SOL    HW218012   3.544   0.999   9.520  1.0683 -0.7860 -1.3648
 2185SOL     OW18013   4.541   1.442   1.203  0.3245  0.1372  0.0494
 2185SOL    HW118014   4.576   1.431   1.291  1.7711 -0.6245 -0.6099
 2185SOL    HW218015   4.598   1.508   1.164 -0.0961  0.0798 -0.6671
 2186SOL     OW18016   4.022   0.896   8.780  0.1905  0.7926  0.1042
 2186SOL    HW118017   4.095   0.849   8.740 -0.0799  1.0267 -0.6635
 2186SOL    HW218018   3.960   0.825   8.796  1.3305 -0.5187 -1.3183
 2187SOL     OW18019   0.961   0.681   3.635  0.0617  0.1833  0.3243
 2187SOL    HW118020   1.031   0.629   3.675  0.4294  0.9163  0.6412
 2187SOL    HW218021   1.012   0.754   3.600  0.9756 -1.0975 -1.0099
 2188SOL     OW18022   4.264   3.373  12.740 -0.2016 -0.7255 -0.6667
 2188SOL    HW118023   4.264   3.405  12.830  1.7634 -0.9132 -0.6072
 2188SOL    HW218024   4.239   3.450  12.689  1.0655  0.7149  0.9088
 2189SOL     OW18025   1.112   0.063  15.255  0.1049  0.4372 -0.2525
 2189SOL    HW118026   1.068   4.724  15.310  0.9784 -1.4062 -1.6966
 2189SOL    HW218027   1.042   0.087  15.193 -0.1546 -1.6417 -0.7609
 2190SOL     OW18028   3.862   2.539   8.342 -0.1817 -0.2353  0.1230
 2190SOL    HW118029   3.910   2.598   8.283  0.4243 -0.6777  0.1817
 2190SOL    HW218030   3.790   2.600   8.355 -0.5141 -0.3510 -1.1426
 2191SOL     OW18031   0.620   1.628  17.031 -0.1728  0.0818 -0.2245
 2191SOL    HW118032   0.705   1.671  17.017  0.1997 -0.4959  0.2562
 2191SOL    HW218033   0.641   1.539  17.059 -0.6036  0.2815  0.7051
 2192SOL     OW18034   0.009   2.581   7.219  0.1252  0.3918 -0.1318
 2192SOL    HW118035   4.693   2.546   7.140  0.6375  1.6556 -0.9817
 2192SOL    HW218036   4.676   2.545   7.284  0.0737  1.0625  0.1929
 2193SOL     OW18037   0.646   3.306  12.130 -0.0686 -0.2333  0.6317
 2193SOL    HW118038   0.630   3.317  12.036 -0.3388 -2.7512  0.3938
 2193SOL    HW218039   0.681   3.393  12.150  1.3756 -0.7143  0.1680
 2194SOL     OW18040   2.448   1.781   4.371 -0.5177 -0.4264 -0.0974
 2194SOL    HW118041   2.481   1.844   4.307  0.1198  0.6670  1.3135
 2194SOL    HW218042   2.397   1.841   4.425  0.6039 -0.5692  1.1108
 2195SOL     OW18043   4.212   3.976  14.126  0.0036  0.1332 -0.7088
 2195SOL    HW118044   4.235   4.065  14.098  0.3904 -0.0483 -0.9575
 2195SOL    HW218045   4.211   3.948  14.035  0.2573  0.2080 -0.7337
 2196SOL     OW18046   0.928   0.788   6.570 -0.1037  0.0660  0.6772
 2196SOL    HW118047   1.008   0.748   6.604 -1.6374 -1.4494  2.4492
 2196SOL    HW218048   0.877   0.708   6.560 -0.9921  0.9428 -1.9767
 2197SOL     OW18049   1.117   2.029   6.717 -0.8596 -0.8501 -0.0775
 2197SOL    HW118050   1.043   1.977   6.748 -0.8318 -1.1688 -0.5481
 2197SOL    HW218051   1.150   1.975   6.645  1.7328 -2.1915  2.0844
 2198SOL     OW18052   2.733   1.146  11.253 -0.4385 -0.2148  0.1296
 2198SOL    HW118053   2.645   1.174  11.228 -0.5211 -0.9247 -0.4000
 2198SOL    HW218054   2.735   1.169  11.346  0.1926 -2.5020  0.6759
 2199SOL     OW18055   1.862   3.520   9.648 -0.0472  0.2624  0.2841
 2199SOL    HW118056   1.813   3.443   9.618 -0.9180  1.0143 -0.2592
 2199SOL    HW218057   1.845   3.522   9.742 -0.9606  1.1899  0.0995
 2200SOL     OW18058   0.332   0.822  12.641 -0.4500  0.8816 -0.5085
 2200SOL    HW118059   0.338   0.746  12.582 -0.1175  0.3254  0.2331
 2200SOL    HW218060   0.323   0.888  12.573  2.1901 -0.7339 -2.3937
 2201SOL     OW18061   3.228   0.532   3.069  0.0052  0.2490  0.1661
 2201SOL    HW118062   3.173   0.585   3.127 -0.6628 -0.6536  0.3471
 2201SOL    HW218063   3.313   0.564   3.100 -0.0303 -0.7574  1.3150
 2202SOL     OW18064   3.906   2.683   2.738 -0.1607  0.0243 -0.2100
 2202SOL    HW118065   3.871   2.597   2.714  1.5792 -0.9013  0.6235
 2202SOL    HW218066   3.974   2.690   2.671 -0.1709  0.8513 -0.1360
 2203SOL     OW18067   2.867   2.876   8.041 -0.5970 -0.0009 -0.3334
 2203SOL    HW118068   2.837   2.944   7.980  1.2490  1.0745 -0.0455
 2203SOL    HW218069   2.890   2.931   8.115 -0.7425 -2.7257  1.7194
 2204SOL     OW18070   2.520   1.214   5.130  0.2351 -0.3021 -0.0357
 2204SOL    HW118071   2.612   1.240   5.134 -0.2040  1.0926  0.9230
 2204SOL    HW218072   2.518   1.149   5.200  0.5494 -0.1893  0.0812
 2205SOL     OW18073   1.161   0.999   1.706  0.3621  0.3341 -0.6544
 2205SOL    HW118074   1.228   0.949   1.659 -0.5666  0.1188 -1.7501
 2205SOL    HW218075   1.094   0.931   1.709 -1.0621  1.7295 -0.5328
 2206SOL     OW18076   1.323   4.086   2.855 -0.2724  0.0729  0.0811
 2206SOL    HW118077   1.256   4.150   2.876  0.4567  1.0429 -0.5642
 2206SOL    HW218078   1.270   4.009   2.833  0.9773 -0.4124 -1.2356
 2207SOL     OW18079   1.826   2.240   4.014 -0.1935  0.2358  0.0907
 2207SOL    HW118080   1.840   2.276   3.927  1.3837 -0.6176 -0.0054
 2207SOL    HW218081   1.753   2.183   3.988  0.6193 -0.4716 -0.6634
 2208SOL     OW18082   2.226   3.873   9.513 -0.8291 -0.4001  0.6007
 2208SOL    HW118083   2.173   3.952   9.515  0.9750  0.8074  1.1049
 2208SOL    HW218084   2.226   3.860   9.418 -0.3531  2.4417  0.2139
 2209SOL     OW18085   0.477   0.598   3.802 -0.3306 -0.5306 -0.1148
 2209SOL    HW118086   0.455   0.652   3.878 -1.1932 -0.3821 -0.4694
 2209SOL    HW218087   0.568   0.626   3.794 -0.5833 -0.2026 -1.7805
 2210SOL     OW18088   3.384   1.470   1.240  0.0088 -0.0018 -0.0782
 2210SOL    HW118089   3.290   1.472   1.224 -0.3589 -0.7014  2.0564
 2210SOL    HW218090   3.415   1.523   1.166  2.2714  2.5861  2.7202
 2211SOL     OW18091   0.145   2.755   6.326  0.1207  0.4126 -0.5481
 2211SOL    HW118092   0.215   2.821   6.331  0.4849  0.0661 -1.1821
 2211SOL    HW218093   0.112   2.775   6.414  0.7575 -0.4367 -0.1254
 2212SOL     OW18094   2.163   0.520  10.626 -0.0101 -0.5602  0.0783
 2212SOL    HW118095   2.168   0.463  10.703 -3.8627 -2.4485 -1.0830
 2212SOL    HW218096   2.218   0.590  10.662 -0.5452  0.9865 -2.1267
 2213SOL     OW18097   1.386   1.193   6.968  0.4388  0.4459  0.9693
 2213SOL    HW118098   1.319   1.244   7.014 -0.8126  2.7655 -3.5279
 2213SOL    HW218099   1.340   1.191   6.884  2.7967  3.7631 -0.3688
 2214SOL     OW18100   3.953   4.361   8.911 -0.0683 -0.0234 -0.1929
 2214SOL    HW118101   3.946   4.435   8.850  1.3841  1.2004  1.1211
 2214SOL    HW218102   4.036   4.318   8.893  1.5830  2.1860  2.1634
 2215SOL     OW18103   1.902   2.179   2.345 -0.4580  0.2644  0.3942
 2215SOL    HW118104   1.962   2.106   2.326 -1.0553 -0.4110  1.1287
 2215SOL    HW218105   1.858   2.159   2.427  0.3264  0.2159  0.8020
 2216SOL     OW18106   2.334   2.614   1.587 -0.4351 -0.0691  0.0398
 2216SOL    HW118107   2.242   2.610   1.559 -0.4089 -0.5081  0.0287
 2216SOL    HW218108   2.375   2.621   1.501 -1.4028 -0.3011 -0.4481
 2217SOL     OW18109   1.008   1.179  16.434  0.1070  0.3751  0.0636
 2217SOL    HW118110   0.927   1.230  16.431  0.1347  0.6767  3.9103
 2217SOL    HW218111   1.022   1.176  16.340 -0.7260  1.6449 -0.1001
 2218SOL     OW18112   1.179   2.145  17.284  0.4048  0.4907  0.1590
 2218SOL    HW118113   1.165   2.235  17.313  1.1446 -0.0687  2.2449
 2218SOL    HW218114   1.253   2.150  17.223  1.6530 -2.8085  1.4143
 2219SOL     OW18115   2.853   0.187   9.411 -0.2577  0.9538 -0.1392
 2219SOL    HW118116   2.773   0.237   9.425 -0.1664  1.1275 -0.2389
 2219SOL    HW218117   2.830   0.141   9.330  1.0432 -2.2195  1.2845
 2220SOL     OW18118   4.020   2.741  17.058 -0.2049  0.0522 -0.1467
 2220SOL    HW118119   3.943   2.706  17.015 -0.8663  0.9275  0.3388
 2220SOL    HW218120   4.061   2.656  17.079 -0.2500  0.0617 -0.0187
 2221SOL     OW18121   2.125   1.716  12.867 -0.5996 -0.3742 -0.3818
 2221SOL    HW118122   2.147   1.793  12.813  0.6412  0.4845  1.3377
 2221SOL    HW218123   2.030   1.723  12.857 -0.5269  1.4990  0.2388
 2222SOL     OW18124   3.258   3.750   3.047  0.0869  0.1895 -0.2009
 2222SOL    HW118125   3.175   3.732   3.092 -0.4034 -0.4031 -1.3476
 2222SOL    HW218126   3.288   3.659   3.048 -0.7365 -0.0591  1.6074
 2223SOL     OW18127   0.343   3.427  16.974  0.1523 -0.0163  0.4619
 2223SOL    HW118128   0.346   3.361  17.043 -1.9426  0.8792  1.4261
 2223SOL    HW218129   0.354   3.508  17.024 -3.5163  1.0530 -0.4065
 2224SOL     OW18130   3.433   0.279  13.573  0.2305  0.3973  0.7261
 2224SOL    HW118131   3.527   0.282  13.592  0.8044 -0.2953 -1.8772
 2224SOL    HW218132   3.430   0.315  13.484 -1.5597  0.2134  0.7159
 2225SOL     OW18133   1.506   3.774  13.790 -0.3311 -0.1026  0.6061
 2225SOL    HW118134   1.578   3.793  13.730 -2.0208  1.2787 -0.9759
 2225SOL    HW218135   1.438   3.786  13.723  1.5229  0.5605 -1.1494
 2226SOL     OW18136   3.509   1.317   0.607 -0.2328 -0.2779 -0.3699
 2226SOL    HW118137   3.548   1.339   0.692  0.4118 -1.3183 -0.3934
 2226SOL    HW218138   3.581   1.294   0.549  0.3726  0.8634 -0.0695
 2227SOL     OW18139   2.639   4.655   5.611  0.4487  0.0480 -0.2119
 2227SOL    HW118140   2.661   4.706   5.689  4.8279 -0.6875 -0.9855
 2227SOL    HW218141   2.577   4.711   5.565 -1.1488 -0.4837  1.2701
 2228SOL     OW18142   2.169   3.021  16.782 -0.0622 -0.4767  0.6001
 2228SOL    HW118143   2.210   3.034  16.696  0.1904 -0.2875  0.7472
 2228SOL    HW218144   2.121   2.940  16.771 -1.5921  0.8205 -2.2686
 2229SOL     OW18145   3.563   2.646   5.334  0.5034  0.6921 -0.4725
 2229SOL    HW118146   3.541   2.705   5.263  0.5671 -1.8763 -2.6369
 2229SOL    HW218147   3.481   2.597   5.350 -0.2856  2.0462 -0.3711
 2230SOL     OW18148   1.961   3.160  16.176 -0.2509  0.1543  0.2029
 2230SOL    HW118149   2.002   3.123  16.253 -0.8314 -0.0975  0.3956
 2230SOL    HW218150   2.033   3.177  16.116 -1.2733 -0.4028 -1.2021
 2231SOL     OW18151   0.677   3.517   8.530 -0.2736 -0.4957 -0.0571
 2231SOL    HW118152   0.740   3.548   8.464 -0.0937 -0.9457 -0.0951
 2231SOL    HW218153   0.639   3.602   8.555  1.5477 -0.0927  1.3787
 2232SOL     OW18154   1.886   3.871   5.608  0.2707  0.1939 -0.5334
 2232SOL    HW118155   1.916   3.930   5.678 -0.6057  0.8813 -0.7416
 2232SOL    HW218156   1.808   3.916   5.577 -0.2810  0.7817  1.6836
 2233SOL     OW18157   3.175   0.255   5.430  0.4060  0.3430 -0.3623
 2233SOL    HW118158   3.235   0.180   5.431 -2.0815 -1.6744 -1.2325
 2233SOL    HW218159   3.229   0.333   5.439 -4.2720  3.5608 -0.1237
 2234SOL     OW18160   2.108   0.709  12.705 -0.0440 -0.0287 -0.0116
 2234SOL    HW118161   2.086   0.767  12.632  0.4440 -1.1433 -1.0358
 2234SOL    HW218162   2.019   0.683  12.732  0.3305  0.5082  1.7402
 2235SOL     OW18163   1.515   2.513   2.742  0.7195  0.0440 -0.1135
 2235SOL    HW118164   1.509   2.538   2.650 -0.0789 -2.9078 -0.8688
 2235SOL    HW218165   1.427   2.477   2.757  0.5778 -0.5850 -2.5571
 2236SOL     OW18166   1.073   3.389   3.479  0.0510  0.5405 -0.5473
 2236SOL    HW118167   1.067   3.450   3.406 -0.1023 -0.6547 -1.5413
 2236SOL    HW218168   0.998   3.416   3.533  0.0864  1.3401 -0.9056
 2237SOL     OW18169   4.134   1.022   3.937  0.1028 -0.6797 -0.5564
 2237SOL    HW118170   4.118   1.089   3.870 -0.5563  2.0705  2.3871
 2237SOL    HW218171   4.071   0.956   3.909  2.2542 -3.2110  0.6295
 2238SOL     OW18172   1.263   3.494   1.632 -0.5895 -0.7286 -0.2569
 2238SOL    HW118173   1.184   3.522   1.679  0.8820  0.3877  1.5586
 2238SOL    HW218174   1.293   3.427   1.694  0.1108  0.0174  0.2145
 2239SOL     OW18175   0.824   1.826   8.023  0.1836 -0.1399  0.3223
 2239SOL    HW118176   0.867   1.858   7.944 -1.7246 -0.9436 -1.0558
 2239SOL    HW218177   0.890   1.804   8.088  0.3728 -0.1396  0.1265
 2240SOL     OW18178   2.151   3.728  14.755 -0.0626 -0.2152 -0.4117
 2240SOL    HW118179   2.090   3.695  14.820  3.2942 -3.1438  1.2372
 2240SOL    HW218180   2.087   3.773  14.699  3.8029  2.3744 -2.8280
 2241SOL     OW18181   1.037   0.453  12.224 -0.5877 -0.6330  0.2225
 2241SOL    HW118182   1.113   0.400  12.250  1.4155  2.7138  1.1295
 2241SOL    HW218183   1.050   0.528  12.283 -2.8554  1.1132 -1.4946
 2242SOL     OW18184   2.202   2.703  16.986  0.3262 -0.1652 -0.3646
 2242SOL    HW118185   2.194   2.623  17.038 -2.2485  0.6147  0.4233
 2242SOL    HW218186   2.151   2.771  17.030  1.0748 -0.3937  0.8478
 2243SOL     OW18187   1.718   0.342  16.217  0.2519  0.3688  0.1952
 2243SOL    HW118188   1.629   0.311  16.234 -0.0934  1.1905 -0.0953
 2243SOL    HW218189   1.701   0.407  16.149 -0.2847 -0.0808 -0.1008
 2244SOL     OW18190   2.063   0.004   5.038 -0.2724 -0.0782  0.0983
 2244SOL    HW118191   2.080   0.065   5.109  1.1748 -1.5520  1.0196
 2244SOL    HW218192   2.138   4.671   5.046  0.1312 -0.0418 -3.3282
 2245SOL     OW18193   0.947   0.170   5.416  0.0534  0.4442  0.1423
 2245SOL    HW118194   1.023   0.180   5.358 -0.3727 -1.7460 -0.7665
 2245SOL    HW218195   0.980   0.209   5.497  0.7365 -1.4500  0.7721
 2246SOL     OW18196   1.547   3.088   8.135  0.1902  0.1504  0.4855
 2246SOL    HW118197   1.532   3.032   8.211 -2.2788  1.3462  0.8918
 2246SOL    HW218198   1.627   3.051   8.099 -0.0242  1.0891 -0.9526
 2247SOL     OW18199   1.161   1.261   8.651 -0.2711 -0.2904  0.0196
 2247SOL    HW118200   1.098   1.271   8.579 -1.0747  4.5943  1.3781
 2247SOL    HW218201   1.236   1.300   8.605 -0.1105 -1.2588 -0.5486
 2248SOL     OW18202   0.170   2.048  17.097 -0.0532  0.2384 -0.0574
 2248SOL    HW118203   0.161   2.048  17.192  0.6716  1.0433  0.0192
 2248SOL    HW218204   0.210   2.135  17.083  0.5054  0.2211  1.3921
 2249SOL     OW18205   1.612   0.007   4.680 -0.0656 -0.2788 -0.1191
 2249SOL    HW118206   1.559   4.660   4.712 -0.9140  0.6469  0.5672
 2249SOL    HW218207   1.606   0.068   4.753 -1.3415  0.0054 -0.4672
 2250SOL     OW18208   0.378   3.011   0.749  0.0390  0.7232 -0.0755
 2250SOL    HW118209   0.310   3.079   0.743 -0.4533  0.3016  0.6682
 2250SOL    HW218210   0.404   3.016   0.657 -0.6041 -0.5302 -0.3360
 2251SOL     OW18211   2.211   1.716  14.506  0.1723  0.1727 -0.1965
 2251SOL    HW118212   2.186   1.785  14.444 -0.1989  1.3250  1.2369
 2251SOL    HW218213   2.292   1.763  14.524 -0.0470  1.8105 -3.4300
 2252SOL     OW18214   4.258   3.664   8.169  0.5571 -0.3441 -0.0023
 2252SOL    HW118215   4.180   3.713   8.194  1.6984  0.3428  2.1878
 2252SOL    HW218216   4.235   3.577   8.201 -0.6545 -1.8539 -4.9295
 2253SOL     OW18217   1.821   2.914   7.230 -0.2199  0.4475  0.2190
 2253SOL    HW118218   1.894   2.863   7.194 -1.5562 -0.3728 -1.3472
 2253SOL    HW218219   1.815   2.992   7.175 -0.8927 -1.2914 -2.1965
 2254SOL     OW18220   1.750   3.758   3.046 -0.2747 -0.7842 -0.3499
 2254SOL    HW118221   1.759   3.848   3.017 -1.5478 -1.1285 -1.8102
 2254SOL    HW218222   1.663   3.761   3.087 -0.3421  2.2016 -0.7130
 2255SOL     OW18223   1.663   0.200   3.073 -0.4995  0.0122  0.6714
 2255SOL    HW118224   1.751   0.238   3.073 -1.6004  2.5680  0.4134
 2255SOL    HW218225   1.604   0.270   3.101  0.2476  0.9196 -0.0005
 2256SOL     OW18226   2.132   2.989   4.276  0.7615 -0.1173  0.6040
 2256SOL    HW118227   2.163   2.908   4.317  1.7685  0.0164  0.1206
 2256SOL    HW218228   2.145   2.960   4.186 -0.9903 -0.4398  0.4601
 2257SOL     OW18229   2.822   4.546   4.708 -0.3682  0.3513  0.1628
 2257SOL    HW118230   2.884   4.614   4.736  0.3307  0.4469 -1.6045
 2257SOL    HW218231   2.813   4.548   4.612  1.1427  0.7715  0.0298
 2258SOL     OW18232   4.637   0.264  14.211  1.0596 -0.1835  0.2081
 2258SOL    HW118233   4.665   0.321  14.140 -0.3970  0.6536  0.3069
 2258SOL    HW218234   4.568   0.215  14.167  0.1360  1.0641  0.2727
 2259SOL     OW18235   0.197   3.365  12.084 -0.0730  0.2895 -0.0507
 2259SOL    HW118236   0.228   3.278  12.060 -0.9980  0.3072 -1.3177
 2259SOL    HW218237   0.279   3.406  12.113 -0.5497  1.1368  0.1018
 2260SOL     OW18238   3.740   4.422   1.080 -0.2716 -0.0580  0.4842
 2260SOL    HW118239   3.676   4.363   1.119  0.2492 -0.2275  1.0843
 2260SOL    HW218240   3.689   4.481   1.025 -1.1205  0.0084  1.3449
 2261SOL     OW18241   2.883   0.793   8.042  0.1042 -0.5367 -0.1339
 2261SOL    HW118242   2.925   0.831   8.120  0.9247  1.2269 -1.4317
 2261SOL    HW218243   2.842   0.869   8.000 -1.1132 -1.2336 -0.2194
 2262SOL     OW18244   3.401   4.462   6.292 -0.3079 -0.3981 -0.3227
 2262SOL    HW118245   3.467   4.402   6.326  0.1800 -0.7475 -1.9133
 2262SOL    HW218246   3.324   4.435   6.342  0.1537 -1.3182 -0.1105
 2263SOL     OW18247   2.990   0.464   6.675 -0.0634  0.9307  0.4042
 2263SOL    HW118248   3.060   0.494   6.733  1.2081  1.9276 -1.6213
 2263SOL    HW218249   2.921   0.443   6.738 -1.2718  1.2583 -0.8044
 2264SOL     OW18250   0.416   2.637   5.611 -0.2201  0.2979  0.0657
 2264SOL    HW118251   0.398   2.729   5.628  1.0754  0.9392 -2.0024
 2264SOL    HW218252   0.512   2.634   5.605 -0.2000  0.0629  0.5065
 2265SOL     OW18253   4.135   2.812   4.621  0.3551 -0.8520 -0.3525
 2265SOL    HW118254   4.075   2.737   4.612 -0.5609 -0.3974  2.0060
 2265SOL    HW218255   4.103   2.872   4.554  0.5455  1.5256  1.7000
 2266SOL     OW18256   0.953   0.513  16.559  0.2925 -0.3619 -0.5176
 2266SOL    HW118257   1.011   0.557  16.496 -0.9990  0.0193 -1.4484
 2266SOL    HW218258   0.882   0.573  16.581 -1.6819 -2.5213 -1.0676
 2267SOL     OW18259   4.159   2.402   3.787  0.6401  0.0082  0.3780
 2267SOL    HW118260   4.248   2.423   3.816  1.4338  1.8082 -3.4702
 2267SOL    HW218261   4.131   2.370   3.873  0.3066  0.3719  0.4007
 2268SOL     OW18262   3.838   2.615   7.852 -0.2658  0.1364  0.6986
 2268SOL    HW118263   3.807   2.631   7.942  0.3360 -1.1690  1.1335
 2268SOL    HW218264   3.918   2.667   7.850  0.9299 -1.6481  1.7841
 2269SOL     OW18265   2.992   4.619   6.005  0.1028  0.0879  0.2045
 2269SOL    HW118266   3.079   4.650   6.029  0.2628 -2.6596  3.2134
 2269SOL    HW218267   2.942   4.659   6.076  0.3039  0.2581  0.2473
 2270SOL     OW18268   2.529   2.961  17.174 -0.0774 -0.0457  0.1434
 2270SOL    HW118269   2.486   2.927  17.095  0.4654  3.0668 -1.4850
 2270SOL    HW218270   2.472   2.926  17.242 -0.0900 -0.2792  0.0147
 2271SOL     OW18271   2.650   2.995  10.021 -0.1444 -0.1139  0.0100
 2271SOL    HW118272   2.581   3.057  10.000 -1.3511 -0.9526  1.4309
 2271SOL    HW218273   2.597   2.928  10.066 -0.9161  0.4726 -0.0259
 2272SOL     OW18274   1.933   4.074   4.375  0.0642 -0.6993  0.1804
 2272SOL    HW118275   1.943   3.981   4.354  0.0304  0.0162 -3.0523
 2272SOL    HW218276   1.946   4.118   4.291  0.2676 -2.9809 -0.9800
 2273SOL     OW18277   2.927   3.306   1.821  0.1881 -0.1001  0.3144
 2273SOL    HW118278   2.837   3.334   1.805 -0.1775 -1.6832 -0.3290
 2273SOL    HW218279   2.969   3.347   1.745  0.1547 -0.5037  0.0814
 2274SOL     OW18280   0.296   2.246   8.084  0.5962  0.4115 -0.1546
 2274SOL    HW118281   0.212   2.209   8.057  0.2066  0.2923  1.2006
 2274SOL    HW218282   0.310   2.201   8.168  2.1703 -1.1841 -1.2833
 2275SOL     OW18283   4.628   1.108  14.729  0.8308  0.5680 -0.2159
 2275SOL    HW118284   4.611   1.020  14.760 -1.1611  1.7999  2.1684
 2275SOL    HW218285   4.698   1.134  14.789 -1.0578  3.8411  0.5766
 2276SOL     OW18286   2.978   2.493   4.925 -0.2521  0.1034 -0.1772
 2276SOL    HW118287   3.068   2.507   4.895  0.2610 -3.4208 -0.2163
 2276SOL    HW218288   2.940   2.524   4.843  1.8891  0.7670 -0.9426
 2277SOL     OW18289   0.615   1.501  13.277 -0.1975  0.0527 -0.4278
 2277SOL    HW118290   0.535   1.499  13.330 -0.5512 -1.0053 -0.9806
 2277SOL    HW218291   0.670   1.563  13.324 -1.5330 -0.5140  1.9039
 2278SOL     OW18292   3.229   4.439   0.325  0.3271  0.3749 -0.1718
 2278SOL    HW118293   3.204   4.366   0.382  1.7251 -0.3312 -0.4601
 2278SOL    HW218294   3.321   4.417   0.313  0.2234 -0.1628  0.0026
 2279SOL     OW18295   4.726   0.362  10.020 -0.2634 -0.0139 -0.7828
 2279SOL    HW118296   0.048   0.425   9.967 -0.0831  0.9193  0.5070
 2279SOL    HW218297   0.026   0.393  10.107  2.0847  0.0933 -1.5353
 2280SOL     OW18298   1.475   0.895  16.276 -0.4101 -0.5633  0.6251
 2280SOL    HW118299   1.515   0.970  16.321 -2.7022  1.5367 -0.8311
 2280SOL    HW218300   1.552   0.841  16.259  0.5350  0.4218  1.7749
 2281SOL     OW18301   1.993   3.154  11.526  0.0543 -0.3850  0.2479
 2281SOL    HW118302   1.904   3.170  11.558 -0.2896  0.3453 -1.0856
 2281SOL    HW218303   1.974   3.166  11.433 -0.1847  1.7920  0.5860
 2282SOL     OW18304   1.027   1.010   6.948  0.3285  0.6473 -0.0580
 2282SOL    HW118305   0.982   1.013   6.864 -1.0852  1.0935  0.7178
 2282SOL    HW218306   1.008   1.091   6.996  2.4873  1.0258  0.1597
 2283SOL     OW18307   2.878   3.066  15.780 -0.3030  0.2910  0.1194
 2283SOL    HW118308   2.962   3.041  15.743 -0.3959 -0.2763  0.2981
 2283SOL    HW218309   2.827   3.051  15.700  0.2630  1.4656 -0.4691
 2284SOL     OW18310   4.482   1.403   2.190  0.3046  0.2493  0.5656
 2284SOL    HW118311   4.449   1.400   2.100  0.5159  1.7641  0.4380
 2284SOL    HW218312   4.454   1.491   2.214  0.3316  0.7273 -1.1604
 2285SOL     OW18313   3.710   2.657   2.474 -0.1372  0.3169  0.5161
 2285SOL    HW118314   3.653   2.721   2.517  0.8278  0.6358  1.3282
 2285SOL    HW218315   3.701   2.589   2.540  0.6912  1.8813  2.2606
 2286SOL     OW18316   0.206   2.729   0.937 -0.1412  0.1855 -0.6512
 2286SOL    HW118317   0.163   2.781   0.869  0.5837  1.3548 -0.2281
 2286SOL    HW218318   0.144   2.756   1.005 -1.9116 -2.2897 -1.3119
 2287SOL     OW18319   0.974   0.856  17.175 -0.6833 -0.6482 -0.3112
 2287SOL    HW118320   0.928   0.779  17.208  2.4197 -2.1326  0.6134
 2287SOL    HW218321   1.044   0.862  17.240 -0.8986 -0.6346 -0.0804
 2288SOL     OW18322   3.595   0.904   4.538 -0.0969  0.1915 -0.0216
 2288SOL    HW118323   3.671   0.867   4.494  0.0444  0.2589  0.1657
 2288SOL    HW218324   3.605   0.999   4.544  0.3926  0.2060 -1.0077
 2289SOL     OW18325   3.785   2.836   5.193 -0.6920  0.1748  0.5408
 2289SOL    HW118326   3.821   2.903   5.135  0.4997 -0.6057  0.3857
 2289SOL    HW218327   3.692   2.857   5.201 -0.8612 -1.2638  2.3950
 2290SOL     OW18328   1.709   2.439   6.523 -0.3016 -0.1014 -0.1168
 2290SOL    HW118329   1.614   2.439   6.535 -0.3599  0.8923 -0.5763
 2290SOL    HW218330   1.710   2.513   6.462  1.0985 -0.8776 -1.0156
 2291SOL     OW18331   0.368   0.739   3.314  0.4966 -0.3968 -0.0938
 2291SOL    HW118332   0.313   0.706   3.385  1.0560 -0.0146  0.5109
 2291SOL    HW218333   0.448   0.688   3.325  0.7575  0.1113  0.3767
 2292SOL     OW18334   3.811   4.651   7.010 -0.1231  0.3960 -0.4508
 2292SOL    HW118335   3.810   4.721   7.075 -2.0020  0.0227 -0.0874
 2292SOL    HW218336   3.807   4.576   7.069  1.1915  0.7569  0.1024
 2293SOL     OW18337   1.856   3.337   5.432  0.0100  0.2587 -0.1215
 2293SOL    HW118338   1.927   3.306   5.376 -0.2971  1.1249 -1.0021
 2293SOL    HW218339   1.896   3.415   5.471 -0.6096 -0.2278  1.4536
 2294SOL     OW18340   4.416   0.901   3.680 -0.2374 -0.1273  0.7330
 2294SOL    HW118341   4.428   0.962   3.753  0.2945 -2.5820  2.6952
 2294SOL    HW218342   4.329   0.865   3.695 -0.3077 -0.2906 -0.0621
 2295SOL     OW18343   1.274   2.528  10.562  0.4776 -1.0118 -0.1457
 2295SOL    HW118344   1.332   2.600  10.539  0.6891 -1.2573 -0.3718
 2295SOL    HW218345   1.333   2.481  10.621 -0.1066 -1.3515  0.1723
 2296SOL     OW18346   2.149   3.954   0.682 -0.1953 -0.3284  0.6408
 2296SOL    HW118347   2.172   3.991   0.767  1.7931 -1.0094  0.3918
 2296SOL    HW218348   2.135   4.031   0.628 -1.2821 -1.4025 -0.6116
 2297SOL     OW18349   4.034   2.068   8.810 -0.5224  0.5260  0.3337
 2297SOL    HW118350   3.958   2.105   8.854 -0.4840 -0.4855  1.2385
 2297SOL    HW218351   4.097   2.138   8.828 -0.9214  0.5382  1.6619
 2298SOL     OW18352   1.486   2.583   4.918 -0.4022 -0.0746  0.6198
 2298SOL    HW118353   1.545   2.655   4.939 -2.3066  1.1563  1.7057
 2298SOL    HW218354   1.403   2.625   4.899  0.0046  0.8472  0.9041
 2299SOL     OW18355   1.454   1.458  16.284  0.0650 -0.5741  0.1277
 2299SOL    HW118356   1.468   1.545  16.247  3.0579  0.1343  2.9845
 2299SOL    HW218357   1.368   1.476  16.320  1.1695  2.8164  1.0613
 2300SOL     OW18358   4.018   0.015  17.629  0.5929 -0.4413  0.1930
 2300SOL    HW118359   4.076   0.084  17.596 -0.5757 -0.2019 -1.3870
 2300SOL    HW218360   3.970   0.067  17.694 -0.3915 -1.6517  0.4273
 2301SOL     OW18361   0.288   0.092   3.983 -0.1704 -0.4576 -0.1311
 2301SOL    HW118362   0.214   0.143   4.016  1.5996  2.4083 -0.6092
 2301SOL    HW218363   0.327   0.055   4.062  3.6029  2.9856 -0.3832
 2302SOL     OW18364   1.119   1.715   5.465  0.2850 -0.0594  0.2037
 2302SOL    HW118365   1.173   1.652   5.419 -1.8958 -0.3022 -2.0461
 2302SOL    HW218366   1.167   1.726   5.547 -0.2397 -0.7311  0.5997
 2303SOL     OW18367   1.272   3.390  10.093 -0.3048  0.2968  0.2018
 2303SOL    HW118368   1.271   3.359  10.002 -0.0278  2.0263 -0.3958
 2303SOL    HW218369   1.198   3.354  10.141 -0.0803  0.8899  0.9870
 2304SOL     OW18370   0.578   1.836   6.963 -0.2274  0.3299  0.1010
 2304SOL    HW118371   0.636   1.911   6.976 -0.5310  0.4868  0.5360
 2304SOL    HW218372   0.594   1.817   6.871  0.7158  1.9119 -0.0793
 2305SOL     OW18373   3.234   2.307   5.827  0.1554 -0.2522 -0.1716
 2305SOL    HW118374   3.147   2.345   5.838 -0.1321 -1.3111  1.2445
 2305SOL    HW218375   3.248   2.308   5.922 -1.0182 -0.5379  0.0066
 2306SOL     OW18376   2.773   1.249   1.884 -0.2536 -0.1241 -0.7734
 2306SOL    HW118377   2.830   1.303   1.829  0.4116 -0.4817 -0.4319
 2306SOL    HW218378   2.828   1.182   1.925 -3.0274 -0.8681  1.7509
 2307SOL     OW18379   3.739   2.821  11.866  0.6901  0.7550 -0.1958
 2307SOL    HW118380   3.653   2.793  11.835  0.8442 -0.9206  0.8757
 2307SOL    HW218381   3.717   2.914  11.867 -0.5623  0.4536 -0.2242
 2308SOL     OW18382   3.545   3.575  10.277  0.0594 -0.2261  0.1109
 2308SOL    HW118383   3.612   3.640  10.296  0.0081 -0.1710  0.1016
 2308SOL    HW218384   3.586   3.489  10.272 -3.0378 -1.7064 -0.1833
 2309SOL     OW18385   2.119   2.631   3.845  0.4519 -0.2463 -0.1085
 2309SOL    HW118386   2.028   2.638   3.873  0.7288  1.2182  0.4463
 2309SOL    HW218387   2.109   2.615   3.751 -1.8337  0.1961  0.0626
 2310SOL     OW18388   3.736   1.069   2.009 -0.2715  0.2912 -0.1286
 2310SOL    HW118389   3.640   1.063   2.010 -0.2415 -0.5138 -1.7450
 2310SOL    HW218390   3.745   0.974   2.019  0.2103  0.3137 -0.3774
 2311SOL     OW18391   3.764   3.966  13.212 -0.0638  0.2590  0.0983
 2311SOL    HW118392   3.688   3.972  13.154  0.4902  0.3110 -0.6194
 2311SOL    HW218393   3.813   3.896  13.169  1.0347  0.6297  0.7536
 2312SOL     OW18394   3.620   2.352   7.656 -0.3460  0.5859 -0.2841
 2312SOL    HW118395   3.647   2.260   7.658  0.1979  0.7880  2.0124
 2312SOL    HW218396   3.532   2.341   7.691 -1.0273  1.3552 -1.7309
 2313SOL     OW18397   3.532   1.205   3.765 -0.0083 -0.0530  0.0929
 2313SOL    HW118398   3.619   1.166   3.759 -0.0320 -0.3921  1.8991
 2313SOL    HW218399   3.543   1.267   3.693 -0.4950 -1.4778 -1.2131
 2314SOL     OW18400   0.052   0.018  15.989 -0.4375  0.1069  0.1486
 2314SOL    HW118401   0.069   0.103  15.949 -0.6412  0.8914  1.7215
 2314SOL    HW218402   0.030   0.038  16.081 -0.0633 -0.3218  0.3283
 2315SOL     OW18403   0.256   3.639   9.095  0.3495 -0.5938  0.1282
 2315SOL    HW118404   0.300   3.567   9.050  0.4312 -0.2781 -0.2951
 2315SOL    HW218405   0.202   3.593   9.159 -0.7420  3.2942  2.0171
 2316SOL     OW18406   3.404   0.104   5.431  0.0636 -0.4469  0.0435
 2316SOL    HW118407   3.464   0.031   5.417 -1.9162 -1.6974 -1.8349
 2316SOL    HW218408   3.465   0.175   5.410 -1.3248  0.3010 -1.4014
 2317SOL     OW18409   1.522   2.386  10.644 -0.5595  0.0474 -0.7812
 2317SOL    HW118410   1.556   2.327  10.712 -0.2288 -0.9852 -1.8466
 2317SOL    HW218411   1.598   2.441  10.624 -0.4825  1.1579  2.5063
 2318SOL     OW18412   1.266   0.016  15.014 -0.1464  0.2315 -0.5189
 2318SOL    HW118413   1.305   4.654  15.022 -1.3567 -0.1457  1.3170
 2318SOL    HW218414   1.225   0.007  14.928  0.4192  1.6534 -0.9383
 2319SOL     OW18415   2.359   0.181  14.312  0.4611  0.3716 -0.0362
 2319SOL    HW118416   2.289   0.243  14.333 -0.6656  0.2073 -3.3560
 2319SOL    HW218417   2.314   0.123  14.251  1.9112 -0.4563 -0.3142
 2320SOL     OW18418   4.364   3.918   5.636  0.6478 -0.2774  0.1407
 2320SOL    HW118419   4.356   3.828   5.603  0.9445  0.1636 -1.1419
 2320SOL    HW218420   4.363   3.905   5.731 -0.7036 -0.2290  0.1228
 2321SOL     OW18421   3.633   3.730   9.638 -0.2444  0.5444  0.8306
 2321SOL    HW118422   3.707   3.789   9.654  1.5740 -0.8386 -2.4815
 2321SOL    HW218423   3.592   3.767   9.560  0.5507  1.5522  0.8844
 2322SOL     OW18424   2.096   0.175   2.799 -0.2103 -0.1239  0.0984
 2322SOL    HW118425   2.191   0.166   2.813 -0.4967 -0.8504  1.6134
 2322SOL    HW218426   2.092   0.172   2.704 -0.1289 -2.6763  0.1746
 2323SOL     OW18427   3.956   4.550   0.593 -0.5828 -0.1716  0.3394
 2323SOL    HW118428   4.042   4.587   0.569 -0.2690 -0.7037  0.6420
 2323SOL    HW218429   3.917   4.568   0.508  1.2993 -1.3569 -0.7966
 2324SOL     OW18430   3.183   1.964   3.833  0.1345 -0.0699 -0.1482
 2324SOL    HW118431   3.142   1.883   3.801 -1.2480  0.9582 -0.9964
 2324SOL    HW218432   3.274   1.938   3.845  0.2945  0.7642  0.4309
 2325SOL     OW18433   1.278   4.225   3.397  0.2083  0.5225 -0.0465
 2325SOL    HW118434   1.221   4.196   3.325 -0.4241  0.6033  0.4195
 2325SOL    HW218435   1.261   4.319   3.390  1.3490  0.8122  1.2406
 2326SOL     OW18436   2.431   3.152   3.813 -0.1789  0.5338 -0.3117
 2326SOL    HW118437   2.465   3.240   3.830 -0.5854  0.1619  2.4867
 2326SOL    HW218438   2.396   3.168   3.726 -0.2931  0.3481 -0.2999
 2327SOL     OW18439   1.384   0.309   1.557 -0.3224  0.1396 -0.5556
 2327SOL    HW118440   1.298   0.279   1.586  1.0504 -1.1184  2.2732
 2327SOL    HW218441   1.395   0.253   1.480 -0.9132  0.7483 -1.0784
 2328SOL     OW18442   2.454   1.377   5.650 -0.1424  0.2271 -0.3106
 2328SOL    HW118443   2.466   1.436   5.724  0.9452 -0.1643 -0.1810
 2328SOL    HW218444   2.485   1.430   5.577 -1.7874  0.8171 -0.5783
 2329SOL     OW18445   3.772   1.908   8.114 -0.2934 -0.1352 -0.7619
 2329SOL    HW118446   3.714   1.918   8.038 -1.4940 -2.3474 -0.1274
 2329SOL    HW218447   3.772   1.996   8.152 -0.2802 -0.2371 -0.5230
 2330SOL     OW18448   3.819   4.549  10.612  0.0824  0.0159 -0.2425
 2330SOL    HW118449   3.797   4.500  10.692 -0.0292  0.5598  0.0598
 2330SOL    HW218450   3.891   4.500  10.573 -2.5851 -2.4504 -2.0694
 2331SOL     OW18451   1.884   4.516   4.056 -0.2789 -0.2987  0.2873
 2331SOL    HW118452   1.917   4.553   4.138 -1.7794  1.5693  0.0469
 2331SOL    HW218453   1.961   4.471   4.021 -0.4462 -0.3854  0.0247
 2332SOL     OW18454   0.791   4.581   5.981 -0.0561 -0.7215 -0.5252
 2332SOL    HW118455   0.816   4.667   6.013  1.6583 -1.4011 -0.0444
 2332SOL    HW218456   0.709   4.594   5.934 -1.4727 -1.3983  1.7237
 2333SOL     OW18457   3.797   4.040   1.999 -0.6396 -0.4446  0.0566
 2333SOL    HW118458   3.761   3.953   2.018 -0.0193 -0.6873  0.1303
 2333SOL    HW218459   3.847   4.032   1.917  0.6323  0.9563  0.7165
 2334SOL     OW18460   1.125   2.549   7.049  0.8039  0.4204 -0.1548
 2334SOL    HW118461   1.159   2.639   7.045  0.7990  0.5033  1.7306
 2334SOL    HW218462   1.203   2.496   7.065  0.0215 -0.1828  1.6698
 2335SOL     OW18463   0.906   0.736   4.721 -0.0348 -0.4368 -0.2772
 2335SOL    HW118464   0.856   0.811   4.687  0.1256  0.0558  0.5666
 2335SOL    HW218465   0.838   0.677   4.750 -0.2264  1.1050  2.3861
 2336SOL     OW18466   1.915   1.101   1.798  0.1802 -0.2615  0.1616
 2336SOL    HW118467   1.927   1.121   1.891  2.9429 -2.0605  0.1696
 2336SOL    HW218468   1.947   1.011   1.796  0.2228 -0.2416 -0.0481
 2337SOL     OW18469   0.601   1.033  12.744 -0.0027  0.2946  0.1598
 2337SOL    HW118470   0.527   1.022  12.804 -0.4864  0.1631 -0.4554
 2337SOL    HW218471   0.673   1.008  12.801  0.2498 -0.1660 -0.3501
 2338SOL     OW18472   1.734   4.668   2.416  0.3954 -0.3474  0.2226
 2338SOL    HW118473   1.776   4.672   2.330 -1.9734  0.8597 -0.8513
 2338SOL    HW218474   1.762   4.579   2.438  0.8376 -0.6388 -1.4846
 2339SOL     OW18475   3.159   2.502   1.015  0.0335 -0.2827  0.3539
 2339SOL    HW118476   3.075   2.521   1.056  0.7444  0.5135  1.4407
 2339SOL    HW218477   3.149   2.528   0.923 -0.3455  1.6735  0.9527
 2340SOL     OW18478   4.667   2.052   7.824 -0.2327 -0.3611 -0.6247
 2340SOL    HW118479   4.675   1.981   7.888 -0.6867 -1.4895 -1.8042
 2340SOL    HW218480   4.622   2.010   7.750 -1.0364 -1.3710  0.4314
 2341SOL     OW18481   2.275   1.921   5.336  0.0640 -0.1611 -1.0070
 2341SOL    HW118482   2.186   1.926   5.301 -0.7042 -1.6063  0.7655
 2341SOL    HW218483   2.286   1.998   5.391 -0.4440  1.4763 -3.2103
 2342SOL     OW18484   1.081   1.045  14.943 -0.7121 -0.0049 -0.2128
 2342SOL    HW118485   1.096   1.137  14.920  1.2793  0.1037  1.5151
 2342SOL    HW218486   1.155   1.038  15.003  0.4624  0.5107 -1.6181
 2343SOL     OW18487   2.543   4.212  11.956  0.1217 -0.1025 -0.1547
 2343SOL    HW118488   2.560   4.249  11.870 -0.7343 -1.8886 -1.0871
 2343SOL    HW218489   2.580   4.280  12.012  0.2051 -0.0495 -0.2753
 2344SOL     OW18490   2.923   2.037  10.917  0.0927 -0.0848 -0.0225
 2344SOL    HW118491   2.925   1.972  10.847  0.6695 -2.0720  1.8523
 2344SOL    HW218492   2.882   1.982  10.983 -0.6474 -0.1908 -0.5673
 2345SOL     OW18493   0.178   2.705  14.193  0.4403 -0.3567 -0.1685
 2345SOL    HW118494   0.177   2.634  14.257 -0.0661 -0.8533 -0.7291
 2345SOL    HW218495   0.250   2.690  14.133  0.4125  3.2999 -1.1252
 2346SOL     OW18496   1.553   1.724   2.490  0.0469  0.7258 -0.2646
 2346SOL    HW118497   1.530   1.733   2.398 -1.1515 -0.0442 -0.0426
 2346SOL    HW218498   1.631   1.670   2.482 -0.6314 -0.5831  1.9532
 2347SOL     OW18499   1.054   2.102   3.554 -0.2318 -0.1982 -0.7333
 2347SOL    HW118500   1.069   2.169   3.620 -0.2654  0.5459 -1.4862
 2347SOL    HW218501   1.140   2.089   3.513 -0.2871 -3.5186  0.2104
 2348SOL     OW18502   4.107   0.521   2.089 -0.2487  0.0960  0.7988
 2348SOL    HW118503   4.192   0.485   2.114 -0.1225 -1.0072 -1.1355
 2348SOL    HW218504   4.062   0.437   2.077 -2.5704  1.6780 -1.7945
 2349SOL     OW18505   1.266   0.831   4.962 -0.1097 -0.3105  0.8481
 2349SOL    HW118506   1.342   0.825   4.903 -1.8155  0.0633 -1.3880
 2349SOL    HW218507   1.309   0.883   5.030 -0.8640  0.8401  0.4570
 2350SOL     OW18508   1.909   3.457   2.815  0.1752  0.1251 -0.3141
 2350SOL    HW118509   1.840   3.520   2.791  0.5838  0.0023 -1.8020
 2350SOL    HW218510   1.974   3.469   2.746  2.2081 -0.4586  1.5207
 2351SOL     OW18511   1.578   0.070   0.027 -0.1166  0.0219 -0.2648
 2351SOL    HW118512   1.558   0.137   0.092  1.0977  0.3927 -0.2842
 2351SOL    HW218513   1.644   0.116  17.679 -1.0927  2.0694  0.2762
 2352SOL     OW18514   4.569   4.312  15.891 -0.3019 -0.2780 -0.1678
 2352SOL    HW118515   4.612   4.392  15.861  0.4084 -1.1126 -1.3875
 2352SOL    HW218516   4.627   4.293  15.965  0.1243  0.3475 -0.3465
 2353SOL     OW18517   3.530   0.833   6.790 -0.3782 -0.5400 -0.3404
 2353SOL    HW118518   3.473   0.895   6.836 -0.0388  0.1844 -0.9120
 2353SOL    HW218519   3.535   0.861   6.699  2.7329  1.6383  0.5220
 2354SOL     OW18520   4.059   0.838   3.349 -0.3372  0.5468  0.0078
 2354SOL    HW118521   4.014   0.919   3.373  0.2103  0.5391  1.0625
 2354SOL    HW218522   3.992   0.771   3.368  1.1399 -0.6105  1.1196
 2355SOL     OW18523   3.296   3.905   2.577  0.2350  0.2579  0.3648
 2355SOL    HW118524   3.244   3.894   2.498 -0.4214 -0.0143  0.8314
 2355SOL    HW218525   3.386   3.885   2.551 -0.3053  0.9517 -1.9795
 2356SOL     OW18526   0.080   3.631  13.453  0.8054  0.3037 -0.0468
 2356SOL    HW118527   4.723   3.641  13.406  0.5073 -0.9353  0.2278
 2356SOL    HW218528   0.101   3.722  13.475 -2.3521  0.6109  1.7031
 2357SOL     OW18529   0.959   3.235   3.172  0.1868  0.1359  0.2019
 2357SOL    HW118530   0.899   3.228   3.246 -0.4662  0.7792 -0.2626
 2357SOL    HW218531   0.896   3.190   3.115 -1.6661 -0.6379  2.8409
 2358SOL     OW18532   1.231   3.620   6.626  0.1832  0.1380 -0.8843
 2358SOL    HW118533   1.167   3.553   6.650  0.1918 -0.2505 -1.9463
 2358SOL    HW218534   1.301   3.559   6.604 -1.3064 -1.6122 -0.8081
 2359SOL     OW18535   1.056   2.884  12.263 -0.1505 -0.4568  0.1648
 2359SOL    HW118536   1.059   2.840  12.348  0.9854  0.4636  0.6033
 2359SOL    HW218537   0.963   2.869  12.250 -0.1823 -1.2351  1.2325
 2360SOL     OW18538   0.861   1.083  10.115 -0.2623 -0.1931  0.2741
 2360SOL    HW118539   0.917   1.005  10.115 -0.2910 -0.2130  0.1654
 2360SOL    HW218540   0.907   1.139  10.178 -0.9035  0.4800  0.1357
 2361SOL     OW18541   1.463   4.008   1.079 -0.2424  0.2322 -0.4197
 2361SOL    HW118542   1.390   3.963   1.037 -1.6118  0.8992  1.2456
 2361SOL    HW218543   1.419   4.093   1.078  0.8376  0.8104  1.6934
 2362SOL     OW18544   4.425   0.994  12.292 -0.2678 -0.4370  0.2337
 2362SOL    HW118545   4.380   1.039  12.221 -1.3332  1.0121  1.8157
 2362SOL    HW218546   4.402   0.902  12.276 -2.4973  0.4927 -1.8573
 2363SOL     OW18547   4.646   1.237   7.486  0.1105  0.2892  0.0164
 2363SOL    HW118548   4.664   1.152   7.526  2.4662 -0.0195 -1.7530
 2363SOL    HW218549   4.563   1.238   7.535 -0.9262 -0.8741 -1.6700
 2364SOL     OW18550   3.696   1.639   2.911 -0.0628  0.1065 -0.1834
 2364SOL    HW118551   3.775   1.593   2.882  1.2101  2.7491 -0.8908
 2364SOL    HW218552   3.707   1.640   3.006  1.5643 -1.3439 -0.3650
 2365SOL     OW18553   1.140   4.624   4.041  0.2263  0.3543  0.1266
 2365SOL    HW118554   1.083   4.595   4.113 -1.0005 -0.7144 -1.2606
 2365SOL    HW218555   1.221   4.619   4.092  0.1443 -2.3497  0.0161
 2366SOL     OW18556   3.445   1.743   1.948  0.4083  0.0362 -0.1793
 2366SOL    HW118557   3.362   1.783   1.919 -0.5649 -1.9027 -0.1127
 2366SOL    HW218558   3.493   1.780   1.874  0.5530  2.1268  0.9615
 2367SOL     OW18559   1.105   1.496   4.070  0.1263  0.1542 -0.3736
 2367SOL    HW118560   1.184   1.476   4.120 -0.2260 -3.4744 -1.2782
 2367SOL    HW218561   1.084   1.579   4.111  0.7689  0.2360 -0.2116
 2368SOL     OW18562   4.091   4.576   2.846 -0.1306  0.2930 -0.0570
 2368SOL    HW118563   4.094   4.487   2.811  0.2286  0.5238 -0.6346
 2368SOL    HW218564   4.166   4.620   2.804 -0.2827  0.3677 -0.2497
 2369SOL     OW18565   4.622   0.578   2.202  0.7284  0.6572  0.1737
 2369SOL    HW118566   4.702   0.624   2.226  1.5402  0.4175 -2.0226
 2369SOL    HW218567   4.589   0.560   2.290  0.0031  3.6606  0.5126
 2370SOL     OW18568   4.017   4.447   5.660 -0.0788  0.6356  0.9757
 2370SOL    HW118569   4.067   4.490   5.591 -0.4039  2.2237  1.7067
 2370SOL    HW218570   3.931   4.444   5.618  2.0112  1.4698 -3.3291
 2371SOL     OW18571   3.182   1.911   6.682 -0.4344  0.5783 -1.0021
 2371SOL    HW118572   3.102   1.928   6.732 -1.3290  0.6930 -2.4898
 2371SOL    HW218573   3.221   1.998   6.675  0.8323  0.1544  0.6720
 2372SOL     OW18574   3.819   3.200  12.731  0.6164  0.3933  0.5746
 2372SOL    HW118575   3.802   3.294  12.728  0.3823  0.3954  1.6692
 2372SOL    HW218576   3.904   3.195  12.773  0.5262 -2.0040  0.4420
 2373SOL     OW18577   1.224   0.225   5.083 -0.1476  0.1512 -0.0254
 2373SOL    HW118578   1.129   0.232   5.073 -0.1343  1.8816  1.0965
 2373SOL    HW218579   1.244   0.132   5.075 -0.4408 -0.1147  2.3527
 2374SOL     OW18580   0.102   2.064  11.634  0.2680 -0.1064 -0.3648
 2374SOL    HW118581   0.178   2.119  11.617 -0.0183  0.5537  0.4983
 2374SOL    HW218582   0.076   2.090  11.722 -0.9938 -1.3624 -0.3607
 2375SOL     OW18583   4.333   1.042   5.943  0.2234 -0.2593 -0.0597
 2375SOL    HW118584   4.280   0.965   5.920 -2.1873  1.8118 -1.5425
 2375SOL    HW218585   4.269   1.114   5.949 -0.5058 -0.9738  0.6288
 2376SOL     OW18586   2.754   1.317   0.090 -0.2191  0.3109  0.9842
 2376SOL    HW118587   2.784   1.263   0.163  1.0566 -0.2087  0.0719
 2376SOL    HW218588   2.779   1.399   0.132 -1.1121  1.1124 -0.0422
 2377SOL     OW18589   3.626   0.699   5.532 -0.2233 -0.6560 -0.3825
 2377SOL    HW118590   3.700   0.639   5.522 -0.3883 -0.6446 -1.7083
 2377SOL    HW218591   3.635   0.699   5.627  0.2628 -0.0763 -0.4328
 2378SOL     OW18592   3.145   1.409   3.783  0.2373  0.3997 -0.5442
 2378SOL    HW118593   3.203   1.459   3.841  0.0079  1.7263 -1.4762
 2378SOL    HW218594   3.143   1.470   3.710 -1.5903  3.4040  1.9820
 2379SOL     OW18595   2.452   1.386  10.230 -0.0488 -0.0198  0.2396
 2379SOL    HW118596   2.384   1.374  10.164  0.9282 -0.1935 -0.7470
 2379SOL    HW218597   2.443   1.303  10.276  4.4801  0.1299  1.4440
 2380SOL     OW18598   4.122   4.125  10.735 -0.0004 -0.4089 -0.6348
 2380SOL    HW118599   4.176   4.186  10.684 -0.1081 -0.6457 -1.0288
 2380SOL    HW218600   4.035   4.163  10.735 -0.1674 -0.7884 -3.2812
 2381SOL     OW18601   1.901   3.003   2.224 -0.2151 -0.6309  0.2448
 2381SOL    HW118602   1.854   2.919   2.221  0.3431 -0.9231 -0.3032
 2381SOL    HW218603   1.995   2.984   2.234 -0.1742  0.1815  1.3600
 2382SOL     OW18604   0.052   0.553   3.336  0.5390  0.0707  0.4356
 2382SOL    HW118605   4.702   0.511   3.294  2.0064 -2.9085  0.7374
 2382SOL    HW218606   0.124   0.498   3.303 -0.3937 -1.2615  0.6099
 2383SOL     OW18607   2.732   1.457   7.692 -0.6809 -0.1205  0.0675
 2383SOL    HW118608   2.793   1.403   7.743  1.0702  2.0547  0.2440
 2383SOL    HW218609   2.780   1.474   7.612 -2.5494 -0.6609 -1.1700
 2384SOL     OW18610   2.030   3.997   9.907 -0.5810 -0.1024  0.0381
 2384SOL    HW118611   2.021   3.922   9.849 -0.0679 -1.6044  1.9099
 2384SOL    HW218612   2.054   3.948   9.985  0.3813  0.3339  0.0097
 2385SOL     OW18613   3.773   0.290   3.259  0.3541 -0.5959 -0.0969
 2385SOL    HW118614   3.835   0.315   3.191 -0.2039  0.4644 -0.2109
 2385SOL    HW218615   3.819   0.211   3.288  0.0089 -1.4008 -1.7697
 2386SOL     OW18616   1.319   2.788  11.934 -0.2321  0.0023  0.0970
 2386SOL    HW118617   1.325   2.696  11.910 -1.7219 -0.3212  0.9983
 2386SOL    HW218618   1.293   2.827  11.850  3.0099  1.6706 -0.1466
 2387SOL     OW18619   2.043   2.120   3.839 -0.2861 -0.0157  0.3997
 2387SOL    HW118620   2.116   2.089   3.893 -0.0211 -1.3344 -0.7205
 2387SOL    HW218621   1.969   2.107   3.898  0.9877 -0.7333  1.8525
 2388SOL     OW18622   1.968   0.475   4.443 -0.3352 -0.0143  0.3451
 2388SOL    HW118623   1.915   0.554   4.433 -1.9754 -0.8249  2.5629
 2388SOL    HW218624   1.907   0.425   4.498 -0.2310 -0.9364 -0.3946
 2389SOL     OW18625   3.253   2.930   9.298 -0.4099  0.3862  0.3976
 2389SOL    HW118626   3.202   2.849   9.297  0.7168 -0.3559  3.2717
 2389SOL    HW218627   3.287   2.943   9.386  1.6540  1.5261 -0.5589
 2390SOL     OW18628   2.127   1.700   5.953  0.8519  0.2796 -0.3189
 2390SOL    HW118629   2.100   1.792   5.958 -1.1711 -0.2800 -1.1512
 2390SOL    HW218630   2.043   1.657   5.970  1.5142  0.1170  2.6031
 2391SOL     OW18631   1.429   0.044  14.207  0.5498 -0.0515 -0.3116
 2391SOL    HW118632   1.483   0.036  14.286 -0.3189 -0.7897  0.2212
 2391SOL    HW218633   1.492   0.003  14.148  0.9749  1.8140 -1.1545
 2392SOL     OW18634   3.265   3.192   9.287  0.0826  0.4470  0.5485
 2392SOL    HW118635   3.321   3.205   9.364  1.3689  2.2659 -0.6844
 2392SOL    HW218636   3.256   3.097   9.277 -0.9801  0.4696  1.3322
 2393SOL     OW18637   0.837   4.659   6.419 -0.0245  0.2347  0.1857
 2393SOL    HW118638   0.758   4.609   6.439 -0.0230  0.4952  0.8523
 2393SOL    HW218639   0.873   4.674   6.506 -0.2421 -2.5080  0.7477
 2394SOL     OW18640   3.035   0.590   2.604  0.1357 -0.2821 -0.1156
 2394SOL    HW118641   3.066   0.653   2.669  3.9840  0.1404 -2.3240
 2394SOL    HW218642   3.113   0.577   2.550  1.9369  0.3382  2.3214
 2395SOL     OW18643   4.709   0.603   6.941  0.8990  0.2698 -0.1462
 2395SOL    HW118644   4.690   0.511   6.926 -0.3554  0.7716 -1.6977
 2395SOL    HW218645   0.047   0.635   6.877  1.1079 -0.5720 -0.3524
 2396SOL     OW18646   2.037   2.979  15.315  0.5207 -0.6604  0.4167
 2396SOL    HW118647   2.004   2.980  15.405  1.0248 -3.1927  0.6245
 2396SOL    HW218648   2.015   3.070  15.299  0.5158 -1.0324 -1.6962
 2397SOL     OW18649   4.594   3.824   8.511 -0.5092  0.6742  0.6753
 2397SOL    HW118650   4.592   3.834   8.606  1.1913 -2.3596  1.0069
 2397SOL    HW218651   4.520   3.881   8.487 -2.1011 -0.8345  1.9423
 2398SOL     OW18652   4.169   2.223   1.444 -0.5710  0.3580  0.5731
 2398SOL    HW118653   4.170   2.285   1.517 -1.6327  1.0150  0.0216
 2398SOL    HW218654   4.073   2.213   1.449 -0.7293  0.3709 -2.4351
 2399SOL     OW18655   3.940   1.997   3.292 -0.5003  0.2154 -0.4611
 2399SOL    HW118656   4.011   1.981   3.355 -1.5010  2.2109  1.1551
 2399SOL    HW218657   3.953   2.088   3.266 -2.9035  0.7253  0.2173
 2400SOL     OW18658   4.233   0.481   8.168  0.3781 -0.3431 -0.2843
 2400SOL    HW118659   4.177   0.558   8.156  0.0068 -0.8224 -1.6342
 2400SOL    HW218660   4.311   0.524   8.201 -0.5274  0.8063  0.3613
 2401SOL     OW18661   3.845   0.825   7.105  0.8919  0.0746 -0.4889
 2401SOL    HW118662   3.751   0.811   7.093  0.8595  0.4552 -0.6566
 2401SOL    HW218663   3.857   0.917   7.082  1.8639 -0.0740 -0.5717
 2402SOL     OW18664   0.501   2.424   5.802  0.1490 -0.8409 -0.2940
 2402SOL    HW118665   0.476   2.495   5.743 -1.3973 -0.0112  1.3574
 2402SOL    HW218666   0.475   2.461   5.886 -1.3148 -1.6623 -0.3859
 2403SOL     OW18667   0.753   2.406   0.251  0.9172  0.2324 -0.6373
 2403SOL    HW118668   0.698   2.374   0.322  3.7814 -0.1046  1.4593
 2403SOL    HW218669   0.779   2.325   0.208  1.1562 -0.7301  1.3040
 2404SOL     OW18670   0.643   1.343   9.052  0.0214  0.3107 -0.0710
 2404SOL    HW118671   0.721   1.288   9.043 -0.6459 -1.1877  3.3633
 2404SOL    HW218672   0.619   1.313   9.139  1.2402  0.1891  0.2193
 2405SOL     OW18673   0.948   4.051   7.653 -0.4551 -0.0082  0.4619
 2405SOL    HW118674   1.001   3.975   7.672  1.5729  0.9045 -1.5704
 2405SOL    HW218675   1.006   4.127   7.663 -1.3498  0.8969 -1.0999
 2406SOL     OW18676   1.597   1.200  17.482  0.4289  0.0772 -0.0710
 2406SOL    HW118677   1.508   1.194  17.449  0.4072  1.3551 -0.2317
 2406SOL    HW218678   1.627   1.268  17.422 -1.3945  2.9865  2.3195
 2407SOL     OW18679   1.007   0.008   3.822  0.2946  0.5494  0.6951
 2407SOL    HW118680   1.062   4.714   3.897  0.4261 -2.8245 -0.2719
 2407SOL    HW218681   0.920   4.712   3.855 -0.3278  2.4227  0.2926
 2408SOL     OW18682   3.132   4.592   4.620 -0.1395  0.2898 -0.1918
 2408SOL    HW118683   3.073   4.652   4.665  0.1828 -0.9352  1.8425
 2408SOL    HW218684   3.160   4.554   4.703  1.7736 -0.6878 -1.2804
 2409SOL     OW18685   4.168   4.497   0.065  0.0193 -0.0522 -0.5080
 2409SOL    HW118686   4.106   4.554   0.020  0.5842  1.2474  0.3669
 2409SOL    HW218687   4.214   4.462  17.694  0.1556  2.6548 -1.6781
 2410SOL     OW18688   1.644   1.040  12.166 -0.2602  0.4907 -0.0861
 2410SOL    HW118689   1.658   0.965  12.225  1.2800  1.5566  0.8968
 2410SOL    HW218690   1.580   0.997  12.109  0.7591 -0.3748 -0.6036
 2411SOL     OW18691   2.917   3.946   1.624 -0.0548  0.1810 -0.4120
 2411SOL    HW118692   2.917   3.913   1.714  0.7257  0.2854 -0.3779
 2411SOL    HW218693   2.952   4.035   1.625  0.7124 -0.1058 -3.2474
 2412SOL     OW18694   1.160   3.570  13.554  0.6197  0.5444  0.3130
 2412SOL    HW118695   1.069   3.594  13.536 -0.0192 -0.0095  2.8992
 2412SOL    HW218696   1.162   3.476  13.538  0.8743  0.3999  1.2462
 2413SOL     OW18697   2.431   3.914   5.604  0.5548  0.4781  0.0639
 2413SOL    HW118698   2.430   3.824   5.638  0.2749 -0.1000 -1.4313
 2413SOL    HW218699   2.339   3.938   5.616  0.7388  1.2144 -0.0281
 2414SOL     OW18700   3.493   3.675   6.070 -0.2723  0.1485 -0.2139
 2414SOL    HW118701   3.445   3.659   5.988 -2.1609 -1.8021  1.2537
 2414SOL    HW218702   3.513   3.769   6.064 -0.7830  0.3791  1.7582
 2415SOL     OW18703   4.366   3.810   4.422 -0.4635 -0.3775  0.5511
 2415SOL    HW118704   4.450   3.800   4.467  0.3995  0.0393 -0.9582
 2415SOL    HW218705   4.351   3.904   4.427  1.4362 -0.1412  1.6935
 2416SOL     OW18706   3.389   0.716   5.401  0.3679 -0.2768  0.2873
 2416SOL    HW118707   3.361   0.805   5.379  0.4848 -0.1908  0.4930
 2416SOL    HW218708   3.465   0.726   5.459  0.9881 -0.7200 -0.4438
 2417SOL     OW18709   0.992   1.349   6.749  0.8994  0.3573  0.4053
 2417SOL    HW118710   0.957   1.352   6.838  0.3880 -1.5119  0.2529
 2417SOL    HW218711   0.979   1.438   6.715 -1.3445 -0.5311 -1.0770
 2418SOL     OW18712   1.937   0.694   2.300  0.3770  0.4117 -0.2554
 2418SOL    HW118713   1.858   0.648   2.331  1.8977  0.1515  3.1878
 2418SOL    HW218714   1.992   0.626   2.340  0.2896 -0.8808 -2.3626
 2419SOL     OW18715   1.072   2.963   7.616  0.6810  0.0362 -0.2757
 2419SOL    HW118716   1.104   3.050   7.593  0.6182 -0.1716 -1.1510
 2419SOL    HW218717   1.062   2.968   7.711  0.3712  0.7565 -0.3444
 2420SOL     OW18718   1.795   0.491   2.890 -0.5823  0.5534 -0.2361
 2420SOL    HW118719   1.706   0.494   2.856 -0.9942  2.5467  1.0236
 2420SOL    HW218720   1.781   0.541   2.970 -1.0376 -2.7263  1.6912
 2421SOL     OW18721   0.122   0.984   1.600  0.1718 -0.6938  0.2083
 2421SOL    HW118722   0.091   0.894   1.588 -0.4561 -0.3052 -1.0900
 2421SOL    HW218723   0.189   0.961   1.665  1.2195  0.1491 -0.5752
 2422SOL     OW18724   4.392   0.461   2.111  0.1234  0.5861 -0.2465
 2422SOL    HW118725   4.468   0.507   2.148  0.3649 -0.0020 -0.0078
 2422SOL    HW218726   4.403   0.368   2.127  0.9761  0.5649 -0.9273
 2423SOL     OW18727   4.586   2.189   0.870  0.5883 -0.0670  0.2921
 2423SOL    HW118728   4.648   2.260   0.883  0.7109 -0.1627  0.2284
 2423SOL    HW218729   4.627   2.109   0.904  0.0053 -0.6457 -0.3549
 2424SOL     OW18730   2.021   0.531  14.831 -0.2956 -0.0687 -0.1941
 2424SOL    HW118731   2.066   0.534  14.747  0.8535  0.6956  0.4480
 2424SOL    HW218732   2.070   0.596  14.881  0.8620 -0.7636 -0.4490
 2425SOL     OW18733   3.231   1.608  11.049 -0.0173 -0.2120 -0.2924
 2425SOL    HW118734   3.152   1.661  11.042 -0.6360 -1.3209 -1.7128
 2425SOL    HW218735   3.300   1.653  11.001  0.8740 -2.1247 -0.7975
 2426SOL     OW18736   2.682   3.378   3.683 -0.4103  0.0695 -0.2115
 2426SOL    HW118737   2.690   3.415   3.595 -1.6037  0.9336  0.0458
 2426SOL    HW218738   2.612   3.429   3.724 -0.3439  0.6626 -0.8161
 2427SOL     OW18739   0.925   0.037   2.726 -0.0104 -0.8237 -0.4934
 2427SOL    HW118740   1.013   0.010   2.699  1.0536  0.5420  1.6939
 2427SOL    HW218741   0.906   0.105   2.661  1.0723  0.6506  0.7219
 2428SOL     OW18742   1.508   0.870  17.703  0.4171 -0.0760  0.0778
 2428SOL    HW118743   1.602   0.878  17.693  0.1234  0.5418 -2.1268
 2428SOL    HW218744   1.513   0.835   0.088 -0.7287  2.0802  0.9716
 2429SOL     OW18745   1.740   2.578  10.644 -0.5901  0.6232  0.1441
 2429SOL    HW118746   1.702   2.592  10.731  0.9787 -1.2679  1.1358
 2429SOL    HW218747   1.741   2.667  10.609 -1.3840  1.1252  1.3991
 2430SOL     OW18748   1.775   4.672   6.410  0.1546 -0.1885  0.0395
 2430SOL    HW118749   1.786   4.609   6.481 -3.6061 -1.7259 -0.7416
 2430SOL    HW218750   1.681   4.689   6.415  0.3751  1.3084 -0.9756
 2431SOL     OW18751   3.679   0.797  16.233 -0.1594 -0.7830 -0.3998
 2431SOL    HW118752   3.740   0.856  16.189 -3.7088  1.6193 -2.1324
 2431SOL    HW218753   3.634   0.749  16.164 -2.4565  0.4002  0.2803
 2432SOL     OW18754   2.432   3.310   6.624 -0.1878 -0.1844  0.3596
 2432SOL    HW118755   2.339   3.329   6.637 -0.9612 -1.6922 -2.8741
 2432SOL    HW218756   2.435   3.221   6.658  1.3613 -0.7884 -1.3261
 2433SOL     OW18757   2.189   3.450  10.265 -0.3883 -0.3848 -0.8153
 2433SOL    HW118758   2.193   3.356  10.248 -0.1686 -0.9035  2.0765
 2433SOL    HW218759   2.098   3.467  10.290  0.4259  0.8235  1.3892
 2434SOL     OW18760   1.305   0.508   7.676  0.7031  0.2662 -0.0351
 2434SOL    HW118761   1.255   0.565   7.618  0.3448  1.0496  1.0501
 2434SOL    HW218762   1.382   0.563   7.688  2.0728 -1.3486 -1.3615
 2435SOL     OW18763   3.895   2.825   7.576 -0.0884 -0.0065  0.3441
 2435SOL    HW118764   3.818   2.780   7.612  0.5001  0.1864  1.8641
 2435SOL    HW218765   3.913   2.778   7.495  0.0755  1.5463 -0.5191
 2436SOL     OW18766   0.052   0.005   4.643 -0.2233  0.2156 -0.5741
 2436SOL    HW118767   0.089   0.061   4.575  0.2874  0.9437  0.2997
 2436SOL    HW218768   0.038   0.076   4.705  0.4988 -0.3037  0.1794
 2437SOL     OW18769   3.657   0.721   5.125 -0.2789 -0.6784 -0.1444
 2437SOL    HW118770   3.580   0.763   5.087 -1.1472 -0.9268  1.3597
 2437SOL    HW218771   3.678   0.768   5.206 -2.0762  1.1323 -0.7348
 2438SOL     OW18772   2.534   0.885  13.340  0.3031 -0.6023  0.2994
 2438SOL    HW118773   2.569   0.967  13.306 -1.1272 -0.1686 -0.1172
 2438SOL    HW218774   2.617   0.850  13.374  0.5560  2.0234  2.3452
 2439SOL     OW18775   0.829   2.578  10.577  0.1407 -0.0599  0.7068
 2439SOL    HW118776   0.902   2.520  10.556  0.4489  0.4628  0.3303
 2439SOL    HW218777   0.748   2.536  10.548 -0.4244  1.0024  0.7357
 2440SOL     OW18778   1.921   3.718  12.176  0.4626  0.1276 -0.5458
 2440SOL    HW118779   1.940   3.749  12.264 -1.0299  1.3200 -0.6327
 2440SOL    HW218780   1.922   3.798  12.123 -0.2810  0.5869  0.1282
 2441SOL     OW18781   2.806   2.854   6.431  0.0176 -0.3085 -0.8969
 2441SOL    HW118782   2.824   2.772   6.385 -0.4451  0.1970 -1.9858
 2441SOL    HW218783   2.854   2.920   6.381  1.0092  0.1800  0.7233
 2442SOL     OW18784   1.425   0.525   9.245 -0.0180 -0.1150 -0.2791
 2442SOL    HW118785   1.429   0.466   9.170 -1.2362  0.9261 -1.1635
 2442SOL    HW218786   1.449   0.612   9.213 -2.5146  0.9495  0.7134
 2443SOL     OW18787   2.843   4.047   6.885 -0.1638  0.0798 -0.3108
 2443SOL    HW118788   2.845   4.110   6.957 -1.6220 -0.1169 -0.0917
 2443SOL    HW218789   2.934   4.026   6.867 -0.1451 -0.3190  0.2775
 2444SOL     OW18790   4.682   0.991   5.488 -0.0237 -0.0530  0.0490
 2444SOL    HW118791   0.027   0.969   5.427 -0.0204  1.3099 -0.4256
 2444SOL    HW218792   4.704   1.081   5.509  1.6077 -0.6353  0.7899
 2445SOL     OW18793   2.256   3.179   1.000  0.6193 -0.5494  0.4685
 2445SOL    HW118794   2.218   3.238   1.066  1.7917  0.0871  0.5733
 2445SOL    HW218795   2.197   3.194   0.926  1.2619 -2.4091 -0.3959
 2446SOL     OW18796   2.572   4.413   5.562 -0.0278  0.5988 -0.2057
 2446SOL    HW118797   2.659   4.374   5.552 -0.6161 -0.6161 -0.5543
 2446SOL    HW218798   2.582   4.507   5.575  1.4497  0.5676 -1.1023
 2447SOL     OW18799   0.972   4.368   6.606  0.6680  0.1240  0.5021
 2447SOL    HW118800   0.897   4.323   6.569  0.2376  0.4820  0.9352
 2447SOL    HW218801   0.935   4.455   6.622 -0.1662  0.0015 -0.7396
 2448SOL     OW18802   3.496   3.972  10.158  0.3398 -0.1917  0.2533
 2448SOL    HW118803   3.406   4.005  10.151 -0.1543 -1.1439  2.0247
 2448SOL    HW218804   3.518   4.002  10.246 -0.6448 -1.1544  0.8370
 2449SOL     OW18805   3.267   2.695   2.278 -0.0551 -1.0585 -0.2794
 2449SOL    HW118806   3.249   2.643   2.200  3.8499 -0.6013 -1.4991
 2449SOL    HW218807   3.286   2.624   2.339  0.3539  0.8208  1.7944
 2450SOL     OW18808   3.614   2.826   8.308  0.1255  0.6868  0.1015
 2450SOL    HW118809   3.533   2.786   8.276  0.3807 -0.4799  0.9441
 2450SOL    HW218810   3.578   2.883   8.377  0.7198 -1.9777  2.6322
 2451SOL     OW18811   2.090   3.808  10.117 -0.0488  0.1412  0.5844
 2451SOL    HW118812   1.999   3.791  10.094 -0.1252  0.3984  0.7022
 2451SOL    HW218813   2.094   3.781  10.209  1.1132  0.7187  0.6986
 2452SOL     OW18814   3.392   3.449  11.904 -0.0888 -0.2282 -0.4580
 2452SOL    HW118815   3.483   3.454  11.873  0.5608 -0.5870  1.3874
 2452SOL    HW218816   3.409   3.440  11.998 -0.1031 -2.6267 -0.6784
 2453SOL     OW18817   3.339   1.629   7.890 -0.4205 -0.5786 -0.3506
 2453SOL    HW118818   3.405   1.698   7.900  2.0236 -2.9879  0.1137
 2453SOL    HW218819   3.277   1.663   7.955  0.5012  0.2765  0.0783
 2454SOL     OW18820   3.660   4.490   2.828  0.8713  0.0058  0.0724
 2454SOL    HW118821   3.696   4.499   2.739  2.3490  2.2357  0.9054
 2454SOL    HW218822   3.571   4.524   2.822  0.8943 -0.0928 -0.9369
 2455SOL     OW18823   4.040   3.779   4.867 -0.2248  0.2461  0.5788
 2455SOL    HW118824   4.026   3.784   4.961  0.1734 -0.2415  0.6646
 2455SOL    HW218825   4.005   3.864   4.840 -0.6531 -0.6806 -1.8139
 2456SOL     OW18826   1.672   0.825   2.741 -0.2890  0.3839 -0.0700
 2456SOL    HW118827   1.734   0.885   2.700 -2.2085  3.5885  1.7157
 2456SOL    HW218828   1.693   0.831   2.834 -0.9202 -0.6968  0.1403
 2457SOL     OW18829   2.706   3.445  11.708  0.2668  0.3296 -0.3379
 2457SOL    HW118830   2.767   3.444  11.782 -0.7549 -1.1275  0.4875
 2457SOL    HW218831   2.660   3.364  11.729 -0.5454 -0.4955 -5.4399
 2458SOL     OW18832   2.045   4.437   5.897 -0.4807  0.3553 -0.0729
 2458SOL    HW118833   2.108   4.406   5.832 -1.5475 -0.5940 -0.6596
 2458SOL    HW218834   2.106   4.465   5.965 -1.3766  0.0370  0.8455
 2459SOL     OW18835   1.024   0.510  15.823  0.0515 -0.5784  0.1716
 2459SOL    HW118836   1.071   0.515  15.739 -1.8351 -0.7225 -0.8918
 2459SOL    HW218837   1.045   0.596  15.858  0.5070 -0.2095 -1.0071
 2460SOL     OW18838   3.712   1.420   4.781  0.2929  0.2181 -0.1843
 2460SOL    HW118839   3.766   1.373   4.718  0.5611  0.4680 -0.1424
 2460SOL    HW218840   3.712   1.510   4.746  2.3656 -0.5085 -2.0369
 2461SOL     OW18841   1.893   3.542   4.412  0.1508 -0.0668 -0.1076
 2461SOL    HW118842   1.898   3.590   4.495 -1.2858 -0.8053  0.4142
 2461SOL    HW218843   1.851   3.459   4.436 -2.0519  0.3889 -2.3477
 2462SOL     OW18844   2.530   0.048   4.744  0.1269  0.8501 -0.7399
 2462SOL    HW118845   2.451   4.723   4.727 -0.4693  1.6943 -0.4774
 2462SOL    HW218846   2.563   0.019   4.829  0.5310  1.6431 -0.6264
 2463SOL     OW18847   2.765   3.237   2.208  0.2006  0.0752 -0.4277
 2463SOL    HW118848   2.673   3.232   2.183 -0.2791 -0.1098  1.3802
 2463SOL    HW218849   2.773   3.149   2.246  1.8285 -1.1126 -3.4795
 2464SOL     OW18850   2.107   3.530   6.399 -0.1101  0.1238 -0.3440
 2464SOL    HW118851   2.128   3.621   6.379 -0.9668  0.2017 -0.8860
 2464SOL    HW218852   2.015   3.523   6.375 -0.2805 -0.0809  0.3815
 2465SOL     OW18853   3.478   1.391  11.296  0.0068  0.1889 -0.1520
 2465SOL    HW118854   3.442   1.475  11.327 -0.2131  0.8649 -2.2658
 2465SOL    HW218855   3.422   1.383  11.219 -0.8733  0.0596  0.4993
 2466SOL     OW18856   1.350   1.164   2.448 -0.1901 -0.2712 -0.3102
 2466SOL    HW118857   1.307   1.152   2.532 -0.5936  2.4637 -0.1254
 2466SOL    HW218858   1.335   1.257   2.430  0.4217  0.0231  0.6931
 2467SOL     OW18859   0.704   0.819   1.623  0.0868 -0.3128  0.5903
 2467SOL    HW118860   0.647   0.784   1.691 -1.3773 -1.2895 -1.1262
 2467SOL    HW218861   0.637   0.864   1.570  1.0259  1.8345  1.2092
 2468SOL     OW18862   0.328   2.658  12.712 -0.4066 -0.0588  0.2647
 2468SOL    HW118863   0.257   2.660  12.648  0.7994  1.2788 -1.0288
 2468SOL    HW218864   0.314   2.731  12.773  0.4703  0.0873  0.2921
 2469SOL     OW18865   4.474   4.346  10.411 -0.9119 -0.0871  0.0451
 2469SOL    HW118866   4.561   4.305  10.407 -0.1982  1.2216  2.0524
 2469SOL    HW218867   4.428   4.265  10.436 -0.3235 -0.9953 -1.8233
 2470SOL     OW18868   2.618   3.036   5.959 -0.9271 -0.1982  0.3016
 2470SOL    HW118869   2.605   2.977   5.885 -2.6518 -0.2257  0.6384
 2470SOL    HW218870   2.533   3.079   5.970 -1.5905 -1.1329 -1.2452
 2471SOL     OW18871   1.458   3.742   6.515 -0.1004  0.3683  0.0113
 2471SOL    HW118872   1.386   3.704   6.566  0.0280 -0.1068 -0.1643
 2471SOL    HW218873   1.530   3.726   6.575  0.1092  0.5291 -0.1993
 2472SOL     OW18874   1.405   1.604   3.777 -0.4215  0.3284  0.7045
 2472SOL    HW118875   1.484   1.572   3.733 -1.2303  0.9622 -1.2380
 2472SOL    HW218876   1.410   1.690   3.734 -0.2273  0.5283  1.1251
 2473SOL     OW18877   4.108   2.596   5.227  0.1852 -0.4876 -0.4428
 2473SOL    HW118878   4.068   2.649   5.296  1.0775 -0.0064 -0.2961
 2473SOL    HW218879   4.093   2.637   5.142  3.6253  0.1828 -0.7474
 2474SOL     OW18880   1.936   1.397   2.267  0.0024 -0.2653  0.7498
 2474SOL    HW118881   1.850   1.437   2.255 -0.5030 -1.2196  1.1346
 2474SOL    HW218882   1.914   1.320   2.320 -0.3616 -2.1539 -2.1085
 2475SOL     OW18883   4.543   4.542   5.519 -0.4876 -0.0939 -0.3952
 2475SOL    HW118884   4.595   4.603   5.468 -2.3774 -0.1341 -2.3903
 2475SOL    HW218885   4.507   4.480   5.455 -2.9806  0.3616  0.5376
 2476SOL     OW18886   2.915   1.440   1.780  0.7841 -0.2440  0.1156
 2476SOL    HW118887   2.999   1.452   1.824  0.9964 -0.4425 -0.2317
 2476SOL    HW218888   2.943   1.422   1.690  0.3954  0.2101 -0.0977
 2477SOL     OW18889   4.710   2.939   3.831 -0.2701  0.4147 -0.1198
 2477SOL    HW118890   0.009   3.010   3.890 -0.3969  0.6141 -0.3064
 2477SOL    HW218891   4.663   2.985   3.761  1.1580  1.5880 -0.2963
 2478SOL     OW18892   2.769   2.293   3.882 -0.0226  0.3554  0.3413
 2478SOL    HW118893   2.818   2.274   3.803 -0.5067 -3.1036  0.8966
 2478SOL    HW218894   2.817   2.240   3.945 -0.0756  0.9742  0.9132
 2479SOL     OW18895   2.471   0.458   8.011 -0.0206 -0.1604 -0.4451
 2479SOL    HW118896   2.535   0.525   8.031 -0.3875 -0.0401  0.3547
 2479SOL    HW218897   2.490   0.395   8.081  0.2465  0.7720  0.3161
 2480SOL     OW18898   3.230   4.359   5.400 -0.2537  0.1869 -0.1547
 2480SOL    HW118899   3.307   4.364   5.342 -1.4197  0.8201 -1.6530
 2480SOL    HW218900   3.170   4.310   5.344  1.3940 -0.2285 -1.5980
 2481SOL     OW18901   1.034   3.471   4.889 -0.2620 -0.0545  0.4912
 2481SOL    HW118902   1.086   3.476   4.969 -0.2453  1.7293  0.3644
 2481SOL    HW218903   0.989   3.388   4.906 -1.9625  0.7747  0.0311
 2482SOL     OW18904   4.143   1.003   1.779 -0.3091 -0.0163 -0.2685
 2482SOL    HW118905   4.120   0.911   1.764  1.2123 -0.2793 -0.8968
 2482SOL    HW218906   4.190   1.031   1.701 -0.9894 -0.9837 -1.0331
 2483SOL     OW18907   4.465   2.336   2.207 -0.2457  0.6474  0.2316
 2483SOL    HW118908   4.370   2.344   2.215 -0.1182  1.9371  0.4460
 2483SOL    HW218909   4.491   2.406   2.147  0.4559  0.7510  0.6516
 2484SOL     OW18910   1.780   0.912   2.978 -0.1526 -0.2579  0.5573
 2484SOL    HW118911   1.809   0.965   3.052 -0.7455  1.2840 -0.3110
 2484SOL    HW218912   1.712   0.866   3.026 -2.5716  4.3768  1.6349
 2485SOL     OW18913   0.695   1.167   0.069 -1.0154  0.3190 -0.6934
 2485SOL    HW118914   0.682   1.099   0.135  1.0063 -0.0945 -0.7268
 2485SOL    HW218915   0.686   1.122  17.690 -5.2564  0.7596 -0.4802
 2486SOL     OW18916   1.149   1.503   4.903 -0.4340 -0.5492 -0.0305
 2486SOL    HW118917   1.208   1.576   4.888 -0.9333 -0.2094 -0.3339
 2486SOL    HW218918   1.133   1.497   4.998  1.4646 -1.1830  0.2414
 2487SOL     OW18919   3.936   3.189   0.745 -0.0482 -0.2735 -0.0982
 2487SOL    HW118920   4.002   3.252   0.776  1.0937 -1.8301  0.6454
 2487SOL    HW218921   3.923   3.197   0.651  4.1465  0.3544 -0.6295
 2488SOL     OW18922   4.170   1.060   4.197 -0.3333 -0.8778 -0.0306
 2488SOL    HW118923   4.111   0.999   4.242  0.0620 -0.5281  0.9727
 2488SOL    HW218924   4.170   1.032   4.106 -3.0778 -0.2754 -0.2148
 2489SOL     OW18925   4.190   0.570  17.459  0.6476  0.5114 -0.0219
 2489SOL    HW118926   4.161   0.518  17.384  0.3829 -1.4406  1.4246
 2489SOL    HW218927   4.283   0.553  17.446  0.2545 -1.7138  0.0778
 2490SOL     OW18928   2.936   3.815   6.665 -0.1971  0.1135  0.3276
 2490SOL    HW118929   2.974   3.766   6.738 -1.4186  0.4793  1.2203
 2490SOL    HW218930   2.986   3.766   6.600 -0.9317 -1.6637  1.1028
 2491SOL     OW18931   0.836   4.370   4.413  0.0670 -0.4974 -0.3379
 2491SOL    HW118932   0.830   4.275   4.426  0.0169 -0.3970  0.3539
 2491SOL    HW218933   0.750   4.387   4.376  0.0800 -1.2695 -0.7268
 2492SOL     OW18934   0.138   4.336  17.353 -1.1054 -0.0241  0.3358
 2492SOL    HW118935   0.099   4.356  17.268  1.1503 -0.9030 -0.8953
 2492SOL    HW218936   0.177   4.422  17.368 -0.1777 -0.3002 -0.5705
 2493SOL     OW18937   3.969   0.870  13.111 -0.0392  0.3443  0.3053
 2493SOL    HW118938   3.957   0.781  13.079 -1.3381  0.5534  0.2050
 2493SOL    HW218939   4.057   0.872  13.150 -0.2235 -2.0837  0.8364
 2494SOL     OW18940   4.165   0.009  16.642  0.0743  0.0823  0.0882
 2494SOL    HW118941   4.090   4.678  16.626  1.2546 -1.8553  1.5448
 2494SOL    HW218942   4.141   0.087  16.591  0.0732  1.1081  1.6731
 2495SOL     OW18943   0.523   1.028   6.890  0.2272  0.4645 -0.3730
 2495SOL    HW118944   0.554   0.956   6.944  2.8420  1.2617 -0.7953
 2495SOL    HW218945   0.437   0.988   6.881  0.7410 -1.3927  3.1903
 2496SOL     OW18946   1.541   2.978   6.079 -0.4247 -0.3853  0.6234
 2496SOL    HW118947   1.503   3.066   6.075  0.4683  0.1005  2.7473
 2496SOL    HW218948   1.465   2.923   6.058  0.7165 -2.0246  0.8003
 2497SOL     OW18949   0.651   0.862   4.941  0.4652  0.4032  0.0124
 2497SOL    HW118950   0.728   0.835   4.991 -0.0973  2.3265  1.9171
 2497SOL    HW218951   0.637   0.779   4.896  0.5640  0.9420 -1.0263
 2498SOL     OW18952   2.648   2.973   3.992  0.4106  0.6676  0.4659
 2498SOL    HW118953   2.644   2.886   3.952 -0.6975  1.6278 -1.4945
 2498SOL    HW218954   2.557   3.003   3.985  0.9152  2.0537 -0.2456
 2499SOL     OW18955   2.328   4.182   9.496  0.8780 -0.3273  0.2716
 2499SOL    HW118956   2.246   4.136   9.478  1.5500 -0.4848 -2.3587
 2499SOL    HW218957   2.343   4.171   9.590  0.6475 -2.0863  0.1014
 2500SOL     OW18958   4.456   0.579  13.716 -0.1365  0.2072 -0.1731
 2500SOL    HW118959   4.538   0.536  13.690 -0.0500 -0.5157  1.2493
 2500SOL    HW218960   4.393   0.509  13.733  2.6787 -1.7131  2.3526
 2501SOL     OW18961   2.817   4.195   6.183 -0.1703 -0.1666 -0.3672
 2501SOL    HW118962   2.741   4.137   6.196  0.5993 -0.8198  1.2317
 2501SOL    HW218963   2.780   4.283   6.177 -1.8690 -0.9478 -1.4939
 2502SOL     OW18964   2.367   3.601   0.959  0.1127  0.8221  0.1568
 2502SOL    HW118965   2.404   3.566   1.040  2.0876 -0.0266 -1.1105
 2502SOL    HW218966   2.433   3.669   0.950  1.6297 -0.4773  1.4991
 2503SOL     OW18967   0.263   4.256   4.714  0.0475  0.5979 -0.3340
 2503SOL    HW118968   0.240   4.340   4.755  2.4428  1.5328 -0.8347
 2503SOL    HW218969   0.264   4.200   4.791  1.4593  2.8037  1.2855
 2504SOL     OW18970   3.473   1.878   4.916  0.0493 -0.0772 -0.1865
 2504SOL    HW118971   3.416   1.953   4.935 -1.8231 -1.9935  1.9211
 2504SOL    HW218972   3.469   1.854   4.824  1.5286  1.9805 -0.7782
 2505SOL     OW18973   1.523   4.124   7.584 -0.0074 -0.1932 -0.0603
 2505SOL    HW118974   1.494   4.202   7.536  0.9854  0.6603  0.7093
 2505SOL    HW218975   1.617   4.123   7.563 -0.3616  0.0331 -1.6503
 2506SOL     OW18976   2.561   2.613   9.500  0.2316 -0.6365  0.2313
 2506SOL    HW118977   2.471   2.646   9.504  0.9862  1.6107 -1.4160
 2506SOL    HW218978   2.552   2.552   9.428 -3.5469  0.7602 -0.5094
 2507SOL     OW18979   2.856   4.444   5.846  0.0399 -0.0353 -0.4550
 2507SOL    HW118980   2.849   4.510   5.777  1.5485  1.9847  1.3154
 2507SOL    HW218981   2.905   4.491   5.913 -0.1570  1.5709 -1.4313
 2508SOL     OW18982   1.210   1.620  16.034  0.2887 -0.1547 -0.0935
 2508SOL    HW118983   1.195   1.563  16.109  1.7277 -1.0344 -0.4802
 2508SOL    HW218984   1.146   1.691  16.046 -1.7365 -1.6418 -2.2112
 2509SOL     OW18985   1.068   0.238   3.671  0.3086  0.0496 -0.1597
 2509SOL    HW118986   1.004   0.212   3.604 -0.9714  1.9286  0.3363
 2509SOL    HW218987   1.069   0.162   3.730  0.4151 -0.2228 -0.5109
 2510SOL     OW18988   3.685   3.198   6.734 -0.4212 -0.4075  0.1172
 2510SOL    HW118989   3.757   3.228   6.789 -1.7813 -0.0450  1.6883
 2510SOL    HW218990   3.714   3.109   6.715  0.7252 -0.2730  1.2727
 2511SOL     OW18991   2.862   2.180  16.748 -0.2858 -0.5750  0.4600
 2511SOL    HW118992   2.938   2.202  16.694 -0.7520  1.6583  0.7034
 2511SOL    HW218993   2.887   2.230  16.825  0.3323  0.0315 -0.1321
 2512SOL     OW18994   1.841   0.659   7.629  0.2658 -0.0941  0.2512
 2512SOL    HW118995   1.933   0.680   7.615 -0.1695  0.8219 -1.2721
 2512SOL    HW218996   1.849   0.564   7.634 -1.5188 -0.1986  0.9908
 2513SOL     OW18997   4.663   1.026   1.849  0.3729  0.1286 -0.0141
 2513SOL    HW118998   4.708   0.949   1.815  0.3142 -0.3724  1.0168
 2513SOL    HW218999   4.634   0.985   1.931 -1.8251 -1.1902 -1.4585
 2514SOL     OW19000   1.037   0.620   4.108 -0.0262  0.1246 -0.3174
 2514SOL    HW119001   1.052   0.541   4.057  0.6531 -0.1236  0.2764
 2514SOL    HW219002   1.076   0.690   4.055  1.2773 -0.6373 -0.3468
 2515SOL     OW19003   1.274   1.165   7.863  0.2869  0.2258  0.2525
 2515SOL    HW119004   1.288   1.149   7.956 -1.2578  0.4047  0.5113
 2515SOL    HW219005   1.286   1.259   7.855 -2.2704  0.6215  1.1603
 2516SOL     OW19006   1.640   0.129   6.998  0.0591  0.2447  0.0982
 2516SOL    HW119007   1.674   0.219   7.001  0.1053  0.2856 -1.7811
 2516SOL    HW219008   1.582   0.152   6.925  0.2434 -1.0329 -0.4411
 2517SOL     OW19009   0.955   0.073   6.223 -0.1439 -0.1168  0.2711
 2517SOL    HW119010   0.876   0.061   6.171  0.5791  0.8440 -1.0767
 2517SOL    HW219011   0.934   0.017   6.297  0.0759  1.3205  1.4274
 2518SOL     OW19012   1.171   3.969  16.545  0.3642  0.2500  0.8927
 2518SOL    HW119013   1.253   4.002  16.510  1.5046 -1.4586  1.9772
 2518SOL    HW219014   1.134   4.052  16.576  0.1110  1.2731 -2.1543
 2519SOL     OW19015   3.547   3.391  16.757  0.3305 -0.3059  0.6643
 2519SOL    HW119016   3.457   3.407  16.785 -0.3294 -0.1479 -1.5768
 2519SOL    HW219017   3.524   3.365  16.668  1.1116 -0.4362  0.5025
 2520SOL     OW19018   2.906   0.391   2.746 -0.0729 -0.0148 -0.9499
 2520SOL    HW119019   2.850   0.427   2.814 -0.4188  0.1309 -1.3105
 2520SOL    HW219020   2.922   0.463   2.685 -2.3229  0.7453 -0.6224
 2521SOL     OW19021   4.465   0.333   4.784 -0.0653 -0.0855  0.2260
 2521SOL    HW119022   4.374   0.347   4.760  0.2231  1.6618  0.1575
 2521SOL    HW219023   4.483   0.408   4.840  1.4403  0.5425 -1.1058
 2522SOL     OW19024   2.165   1.336   5.677  0.0989 -0.6510  0.4649
 2522SOL    HW119025   2.259   1.328   5.663 -0.0373 -1.1431 -0.1622
 2522SOL    HW219026   2.145   1.422   5.640 -0.8286 -0.1703  2.0573
 2523SOL     OW19027   2.551   4.200   6.983  0.1757  0.1932 -0.4460
 2523SOL    HW119028   2.523   4.219   7.072  0.6520 -1.1302 -0.0049
 2523SOL    HW219029   2.624   4.141   7.005 -0.8357 -1.1342 -0.6278
 2524SOL     OW19030   1.099   4.332  15.618  0.3880  0.1420 -0.4523
 2524SOL    HW119031   1.179   4.281  15.621  2.0466  2.9284  3.2157
 2524SOL    HW219032   1.025   4.272  15.612  0.2933 -0.0907  3.1204
 2525SOL     OW19033   0.599   3.438  11.279 -0.1987 -0.3339 -0.3663
 2525SOL    HW119034   0.513   3.480  11.286  0.5555  0.6191  3.2904
 2525SOL    HW219035   0.671   3.500  11.292  1.1197 -2.0363  0.3953
 2526SOL     OW19036   0.138   3.594   2.536 -0.1690  0.1083 -0.4838
 2526SOL    HW119037   0.160   3.681   2.568 -4.3679  0.6842  0.7825
 2526SOL    HW219038   0.220   3.562   2.496  0.3210 -1.7421  1.9432
 2527SOL     OW19039   1.291   0.847   8.431  0.1614 -0.4551 -0.0753
 2527SOL    HW119040   1.314   0.817   8.343  0.5710  1.7935 -0.7146
 2527SOL    HW219041   1.210   0.797   8.435  0.2030 -0.5721 -0.7053
 2528SOL     OW19042   3.696   2.375  10.195  0.4597 -0.2505  0.6896
 2528SOL    HW119043   3.740   2.297  10.230 -0.1547  0.8012  3.7940
 2528SOL    HW219044   3.764   2.436  10.166  1.0291 -0.7975  0.8823
 2529SOL     OW19045   1.116   0.257   7.465  0.0914  0.1214  0.1777
 2529SOL    HW119046   1.090   0.266   7.373 -2.5707  0.0829  0.9274
 2529SOL    HW219047   1.125   0.161   7.468  1.7019  0.2192 -1.1960
 2530SOL     OW19048   3.116   0.005   6.629  0.1854 -0.4695  0.0650
 2530SOL    HW119049   3.185   0.047   6.578 -1.4017  0.4084 -1.3771
 2530SOL    HW219050   3.121   4.644   6.589  0.0511 -0.2341 -0.4690
 2531SOL     OW19051   2.421   3.536   6.858  0.3005 -0.6103 -0.3914
 2531SOL    HW119052   2.409   3.450   6.898  0.7392 -0.6123 -0.2672
 2531SOL    HW219053   2.331   3.549   6.829  0.6848 -0.0831 -1.3681
 2532SOL     OW19054   2.673   0.879  16.726 -0.0154  0.4305 -0.4865
 2532SOL    HW119055   2.765   0.883  16.699 -0.6373  0.5428 -2.6329
 2532SOL    HW219056   2.636   0.957  16.684 -3.9505 -0.5416  1.2222
 2533SOL     OW19057   2.776   4.341   4.858  0.4770 -0.2476  0.2667
 2533SOL    HW119058   2.808   4.414   4.805  1.2471 -0.5286  0.3410
 2533SOL    HW219059   2.811   4.359   4.946  0.6637 -1.5853  0.4603
 2534SOL     OW19060   2.321   4.388  17.117  0.2394  0.3375 -0.4635
 2534SOL    HW119061   2.248   4.331  17.092  0.1554  0.5567 -0.7297
 2534SOL    HW219062   2.396   4.337  17.087  1.0465  1.0602  0.3573
 2535SOL     OW19063   2.614   4.426   3.069 -0.3230  0.1712 -0.1091
 2535SOL    HW119064   2.700   4.400   3.035 -0.6739  1.8227 -2.2669
 2535SOL    HW219065   2.589   4.502   3.017  0.4947 -1.0937 -2.3697
 2536SOL     OW19066   4.281   1.414   5.885 -0.1469 -0.1323  0.0064
 2536SOL    HW119067   4.331   1.484   5.926  1.4686 -1.5611  0.5110
 2536SOL    HW219068   4.264   1.361   5.963 -2.0842  0.9434  0.3164
 2537SOL     OW19069   2.732   2.424   5.801  0.2263  0.5980  0.0416
 2537SOL    HW119070   2.637   2.422   5.785  0.2997 -2.6948 -0.0305
 2537SOL    HW219071   2.772   2.366   5.737 -1.1674  0.3006 -0.5694
 2538SOL     OW19072   2.673   1.038  13.170  0.3377  0.4099 -0.0427
 2538SOL    HW119073   2.608   1.076  13.111  0.0714  2.1808  1.3808
 2538SOL    HW219074   2.742   1.103  13.157 -1.6317  2.3141 -0.8680
 2539SOL     OW19075   4.275   4.534  16.419 -0.0705 -0.3506  0.0761
 2539SOL    HW119076   4.298   4.581  16.499  1.2609  0.9289 -1.0530
 2539SOL    HW219077   4.349   4.557  16.362 -0.3878  1.7652  0.5105
 2540SOL     OW19078   0.190   0.749   6.048 -0.2776 -0.4068 -0.0626
 2540SOL    HW119079   0.096   0.769   6.047 -0.5147 -1.5934 -1.2510
 2540SOL    HW219080   0.238   0.829   6.070 -0.1798 -0.4735 -0.0366
 2541SOL     OW19081   0.201   3.345  16.347 -0.4206 -0.5353 -0.2974
 2541SOL    HW119082   0.167   3.388  16.426  0.2095 -2.2455  0.8886
 2541SOL    HW219083   0.144   3.379  16.277 -2.0624  2.2229  2.3739
 2542SOL     OW19084   0.305   0.832   5.375 -0.3226 -0.3117  0.1462
 2542SOL    HW119085   0.389   0.844   5.331  0.7464  0.1501  2.3229
 2542SOL    HW219086   0.260   0.914   5.354  1.2710  1.2147  2.6720
 2543SOL     OW19087   4.713   1.286   5.580  0.6615  0.0278 -0.5351
 2543SOL    HW119088   4.680   1.240   5.656 -2.1366  0.2026 -1.6371
 2543SOL    HW219089   4.687   1.376   5.599  0.2522  0.2060 -1.8769
 2544SOL     OW19090   2.311   4.395   4.435  0.6891 -0.3169 -0.3889
 2544SOL    HW119091   2.218   4.412   4.419  0.6672 -1.2433 -1.1971
 2544SOL    HW219092   2.312   4.301   4.454  2.3998 -0.3854 -0.8132
 2545SOL     OW19093   0.085   3.803   1.311 -0.4241  0.1158 -0.4609
 2545SOL    HW119094   0.115   3.889   1.282 -0.3125  0.6063  1.1281
 2545SOL    HW219095   0.077   3.814   1.405 -2.5778 -2.4706 -0.3206
 2546SOL     OW19096   3.447   3.897  17.038 -0.5071  0.7188  0.4560
 2546SOL    HW119097   3.456   3.816  16.987 -1.5234  1.2591 -0.5681
 2546SOL    HW219098   3.379   3.874  17.101 -1.4635  0.1377 -0.7772
 2547SOL     OW19099   3.698   1.489   6.036  0.2476 -0.6022 -0.1457
 2547SOL    HW119100   3.721   1.396   6.036 -1.5523 -1.0423 -0.0536
 2547SOL    HW219101   3.764   1.536   6.087 -1.4864 -2.4455  3.8013
 2548SOL     OW19102   3.383   3.603   5.780 -0.2501  0.0656 -0.1350
 2548SOL    HW119103   3.371   3.536   5.712  1.1216  0.9603 -1.2511
 2548SOL    HW219104   3.292   3.608   5.810  0.0662 -1.1499  1.0573
 2549SOL     OW19105   3.662   4.715   6.232 -0.1257 -0.0494 -1.2060
 2549SOL    HW119106   3.567   4.723   6.235 -0.1608 -1.0218  0.2767
 2549SOL    HW219107   3.673   4.716   6.137 -1.1425 -0.3085 -1.3239
 2550SOL     OW19108   3.489   4.274   8.473 -0.5747 -0.1570 -0.4487
 2550SOL    HW119109   3.552   4.281   8.545 -1.8594  1.5763  0.5078
 2550SOL    HW219110   3.492   4.363   8.438 -1.2506  0.6935  1.6605
 2551SOL     OW19111   1.760   1.199   7.464  0.4936  0.2183  0.5606
 2551SOL    HW119112   1.742   1.278   7.412  1.2673 -0.2078 -0.3492
 2551SOL    HW219113   1.672   1.162   7.469  0.1950  0.8674  0.1888
 2552SOL     OW19114   0.730   2.071   6.175 -0.2513  0.3196  0.4880
 2552SOL    HW119115   0.746   1.990   6.127  1.1739  1.8274 -1.5884
 2552SOL    HW219116   0.789   2.059   6.249 -1.1125 -1.0832  0.9357
 2553SOL     OW19117   0.903   0.265   6.907 -0.0930  0.2158 -0.1561
 2553SOL    HW119118   0.814   0.282   6.941  0.5681  0.0358  1.6994
 2553SOL    HW219119   0.934   0.191   6.959 -0.5274  0.6211  0.6829
 2554SOL     OW19120   2.492   2.996   4.491  0.3506  0.0779 -0.2231
 2554SOL    HW119121   2.499   3.061   4.562  0.0260 -1.4703  1.2138
 2554SOL    HW219122   2.493   3.059   4.419  1.4909  0.5745  0.2310
 2555SOL     OW19123   2.109   1.838   3.435  0.0673 -0.3402  0.8314
 2555SOL    HW119124   2.079   1.893   3.361  0.4396 -0.6013  0.4875
 2555SOL    HW219125   2.053   1.761   3.428  0.7685 -0.6613 -1.3128
 2556SOL     OW19126   3.364   2.776   8.894 -0.1193 -0.1951  0.2352
 2556SOL    HW119127   3.413   2.839   8.946 -1.3296  0.7972  0.1718
 2556SOL    HW219128   3.278   2.818   8.893  0.1239  0.2319 -2.8896
 2557SOL     OW19129   3.229   2.261  12.405  0.5020 -0.0194  0.5034
 2557SOL    HW119130   3.192   2.349  12.395  3.6586  1.4187  1.2903
 2557SOL    HW219131   3.180   2.247  12.486 -0.2433 -1.6863 -0.2393
 2558SOL     OW19132   1.584   3.883  16.567  0.2355  0.6436  0.4529
 2558SOL    HW119133   1.595   3.810  16.628  0.0114 -1.5688 -2.1116
 2558SOL    HW219134   1.671   3.873  16.527 -0.6391 -3.2479 -0.5344
 2559SOL     OW19135   4.201   2.749   5.855  0.1673 -0.0538  0.3767
 2559SOL    HW119136   4.271   2.701   5.898  1.2893 -0.0436 -1.4635
 2559SOL    HW219137   4.231   2.840   5.863  1.1982 -0.3465 -0.2145
 2560SOL     OW19138   1.195   3.024   3.524  0.8993 -0.1899  0.0281
 2560SOL    HW119139   1.214   3.088   3.456 -0.9678 -0.7672 -1.0132
 2560SOL    HW219140   1.222   3.069   3.605 -0.2385 -0.5566  0.6061
 2561SOL     OW19141   0.147   4.061  14.806  0.0864 -0.0456 -0.3749
 2561SOL    HW119142   0.216   4.046  14.741  0.9667 -1.4313  0.8596
 2561SOL    HW219143   0.101   4.140  14.779 -0.7677 -0.4226 -0.0207
 2562SOL     OW19144   3.128   4.524  15.695 -0.5785 -0.1222 -0.0227
 2562SOL    HW119145   3.138   4.459  15.766  0.7955 -2.5213 -2.4159
 2562SOL    HW219146   3.204   4.504  15.640 -0.2942  0.6932  0.0768
 2563SOL     OW19147   2.037   0.301  17.431  0.0657  0.1348 -0.2713
 2563SOL    HW119148   2.096   0.237  17.392  0.0672 -1.0659  1.6947
 2563SOL    HW219149   1.975   0.309  17.359  2.0210 -1.3039 -2.1064
 2564SOL     OW19150   0.038   1.540   1.591 -0.7293 -0.1223 -0.2261
 2564SOL    HW119151   0.094   1.491   1.650 -0.0034  1.7488  0.6304
 2564SOL    HW219152   0.089   1.621   1.587 -0.8564  0.0523  1.7323
 2565SOL     OW19153   3.321   3.054  14.937  0.2521  0.4506  0.4528
 2565SOL    HW119154   3.401   3.020  14.898 -0.6089 -0.3197 -0.6661
 2565SOL    HW219155   3.307   2.979  14.995 -0.9136  0.7731  0.5956
 2566SOL     OW19156   0.646   1.329   6.024 -0.1385 -0.0126  0.2564
 2566SOL    HW119157   0.646   1.359   5.934  1.1952  0.6462  0.4896
 2566SOL    HW219158   0.736   1.329   6.057 -1.1130 -0.9589  2.9652
 2567SOL     OW19159   3.650   3.484   4.306  0.5447  0.4867 -0.2993
 2567SOL    HW119160   3.616   3.531   4.382 -0.1086  1.0634 -0.9497
 2567SOL    HW219161   3.639   3.394   4.335 -1.3800  0.6447 -0.5581
 2568SOL     OW19162   1.478   2.922   6.698 -0.4188 -0.7324 -0.0950
 2568SOL    HW119163   1.522   2.941   6.780 -0.2324  0.5661 -0.5017
 2568SOL    HW219164   1.386   2.931   6.723 -0.4647  1.3437 -1.0774
 2569SOL     OW19165   2.521   4.240   7.268 -0.7155  0.2882  0.2910
 2569SOL    HW119166   2.547   4.165   7.323 -2.0960 -1.8502 -1.9741
 2569SOL    HW219167   2.484   4.302   7.330 -1.2886 -0.7921  1.0434
 2570SOL     OW19168   3.325   3.004  12.067  0.3134 -0.0012  0.2047
 2570SOL    HW119169   3.412   2.965  12.062  0.8564  1.3060 -0.4330
 2570SOL    HW219170   3.274   2.937  12.113 -0.3844 -1.0047 -2.0034
 2571SOL     OW19171   4.310   1.568   1.095  0.5554 -0.2124 -0.2159
 2571SOL    HW119172   4.265   1.484   1.104 -0.5092  0.3444 -0.3855
 2571SOL    HW219173   4.393   1.539   1.131 -0.5751 -0.4056  2.2484
 2572SOL     OW19174   0.806   3.541   3.293  0.3316 -0.3899 -0.2963
 2572SOL    HW119175   0.823   3.506   3.380  2.6198 -1.2988 -1.0967
 2572SOL    HW219176   0.717   3.512   3.269  0.5471 -3.0331  2.0357
 2573SOL     OW19177   0.166   3.880  15.119 -0.0314  0.2613  0.7872
 2573SOL    HW119178   0.213   3.927  15.188 -0.3922  1.8724 -0.0663
 2573SOL    HW219179   0.194   3.793  15.150  0.5507  1.5279  3.8089
 2574SOL     OW19180   3.207   2.366   6.940  0.7730 -0.1266  0.4387
 2574SOL    HW119181   3.205   2.461   6.932 -2.0308 -0.2565 -0.2333
 2574SOL    HW219182   3.286   2.356   6.993  0.3107  0.2694  1.2156
 2575SOL     OW19183   1.001   0.499   0.803  0.3632  0.1366 -0.6451
 2575SOL    HW119184   1.022   0.546   0.884 -0.9643 -0.7194  0.1812
 2575SOL    HW219185   0.966   0.416   0.833 -0.2979  0.5928 -0.1665
 2576SOL     OW19186   1.177   1.262   6.351  0.2475  0.1509  0.1580
 2576SOL    HW119187   1.141   1.180   6.385 -0.8648  0.2744 -0.7094
 2576SOL    HW219188   1.266   1.267   6.385 -0.5926 -1.3099  2.6531
 2577SOL     OW19189   0.531   3.561   2.397 -0.3918  0.4674 -0.4164
 2577SOL    HW119190   0.556   3.638   2.447  0.4730  1.0956 -1.8143
 2577SOL    HW219191   0.614   3.553   2.349 -0.9535  0.3463 -1.3705
 2578SOL     OW19192   4.462   0.570   4.918 -0.2270  0.1821 -0.8548
 2578SOL    HW119193   4.413   0.614   4.987 -1.3531  0.1552 -1.6385
 2578SOL    HW219194   4.431   0.620   4.842 -0.5071  0.2955 -0.6655
 2579SOL     OW19195   0.905   2.317   9.603  0.0267  0.6263  0.5158
 2579SOL    HW119196   0.995   2.286   9.611 -0.5826 -1.8724 -1.9873
 2579SOL    HW219197   0.885   2.316   9.509  0.1184 -0.0224  0.4970
 2580SOL     OW19198   4.573   2.141   1.459 -0.2682  0.3205  0.4791
 2580SOL    HW119199   4.634   2.095   1.401 -0.8727 -0.2741  0.3250
 2580SOL    HW219200   4.604   2.103   1.542  2.3042 -0.9883 -1.0532
 2581SOL     OW19201   4.067   1.793   2.644 -0.1815 -0.5617  0.1839
 2581SOL    HW119202   4.001   1.723   2.643 -0.4857 -0.2858  0.7827
 2581SOL    HW219203   4.136   1.748   2.692 -1.8736 -3.1192  0.2408
 2582SOL     OW19204   3.599   0.858   8.258  0.0357 -0.6275  0.6817
 2582SOL    HW119205   3.663   0.849   8.187 -0.5685  1.6625 -0.1373
 2582SOL    HW219206   3.657   0.863   8.334  1.7480  0.7756 -0.7160
 2583SOL     OW19207   3.303   0.639   5.132  0.3414 -0.0677  0.0166
 2583SOL    HW119208   3.349   0.556   5.142  1.1669  0.3418 -0.4135
 2583SOL    HW219209   3.275   0.665   5.220 -2.9256  0.5883 -1.2084
 2584SOL     OW19210   2.603   3.817   8.104  0.0237 -0.2716 -0.8229
 2584SOL    HW119211   2.532   3.793   8.163  0.2045 -1.3200 -1.0369
 2584SOL    HW219212   2.639   3.729   8.096  0.9665  0.0554 -0.2207
 2585SOL     OW19213   2.010   3.781   2.790  0.2849  0.0318  0.2777
 2585SOL    HW119214   1.945   3.756   2.855  1.5589  0.3812  1.6702
 2585SOL    HW219215   2.081   3.730   2.829  1.8412  0.7753 -1.5653
 2586SOL     OW19216   2.252   3.403  12.338 -0.2000  0.0745 -0.1905
 2586SOL    HW119217   2.276   3.488  12.373 -0.9626  0.3203 -0.2561
 2586SOL    HW219218   2.235   3.429  12.248 -2.5086 -1.8218 -0.3272
 2587SOL     OW19219   1.568   3.224   2.843  0.0914 -0.0135  0.1633
 2587SOL    HW119220   1.555   3.163   2.915 -0.3454 -0.6202 -0.4375
 2587SOL    HW219221   1.609   3.167   2.778  1.6240  0.0367  1.0841
 2588SOL     OW19222   1.517   3.505  17.251 -0.5571 -0.5245 -0.6724
 2588SOL    HW119223   1.425   3.498  17.278 -0.7002  2.0296 -0.4475
 2588SOL    HW219224   1.564   3.498  17.334 -2.0398 -1.4593  0.0979
 2589SOL     OW19225   3.263   2.933   5.318  0.3287  0.0146 -0.0791
 2589SOL    HW119226   3.208   2.864   5.356  2.2233  0.2091  3.0795
 2589SOL    HW219227   3.202   3.007   5.326  1.6680  0.9752  1.2439
 2590SOL     OW19228   3.133   2.864  14.806 -0.3832  0.1555 -0.3491
 2590SOL    HW119229   3.163   2.908  14.886  0.3644  0.4498 -0.7955
 2590SOL    HW219230   3.145   2.937  14.745 -1.3471  1.1268  0.6252
 2591SOL     OW19231   3.111   3.279  17.696  0.1459  0.3169  0.5950
 2591SOL    HW119232   3.105   3.215   0.062  2.9810 -1.4643 -0.7649
 2591SOL    HW219233   3.088   3.353   0.048 -0.1682 -0.2279  1.1794
 2592SOL     OW19234   1.348   0.879  13.912  0.3366  0.1697  0.3139
 2592SOL    HW119235   1.355   0.807  13.850  0.7843 -0.6836  1.3556
 2592SOL    HW219236   1.397   0.947  13.867  0.3259 -0.8992 -1.2873
 2593SOL     OW19237   4.699   1.847   4.423  0.6060  0.4628  0.3928
 2593SOL    HW119238   0.029   1.913   4.380  2.1594 -0.9147  0.3114
 2593SOL    HW219239   4.709   1.775   4.362  0.2069  0.1592  0.6871
 2594SOL     OW19240   0.433   2.402   6.940  0.1164 -0.3514 -0.3144
 2594SOL    HW119241   0.432   2.391   6.845 -2.7938  1.9825 -0.5538
 2594SOL    HW219242   0.506   2.346   6.965  0.2252 -0.1293 -0.1304
 2595SOL     OW19243   2.066   1.233   7.441  0.4948  0.3197 -0.2785
 2595SOL    HW119244   1.981   1.202   7.473  0.8694 -2.8921 -2.4286
 2595SOL    HW219245   2.121   1.155   7.438  0.4162  0.2937 -1.0100
 2596SOL     OW19246   1.732   3.107  11.663  0.4661 -0.6336 -0.2696
 2596SOL    HW119247   1.646   3.141  11.686  0.9567  0.2940  0.1904
 2596SOL    HW219248   1.736   3.023  11.707  1.1080  0.1493  1.1675
 2597SOL     OW19249   4.199   4.010  15.073  0.2561 -0.6339  0.0238
 2597SOL    HW119250   4.254   3.986  14.999  1.6915  1.3174  0.4562
 2597SOL    HW219251   4.115   4.041  15.041  0.3614 -1.3553 -0.9338
 2598SOL     OW19252   0.830   1.576   9.055  0.2364 -0.3366  0.0512
 2598SOL    HW119253   0.793   1.492   9.027 -0.0973 -0.5626  1.1602
 2598SOL    HW219254   0.850   1.551   9.146  1.1007 -0.4761 -0.1822
 2599SOL     OW19255   0.668   3.407   6.473 -0.6050  0.5174 -0.2305
 2599SOL    HW119256   0.762   3.416   6.485 -0.5002 -1.0127  0.1411
 2599SOL    HW219257   0.637   3.392   6.562  1.0146  1.2453  0.4377
 2600SOL     OW19258   2.512   2.986   1.980  0.3973 -0.8297  0.2162
 2600SOL    HW119259   2.513   2.904   2.030 -2.4950  0.7439  2.8787
 2600SOL    HW219260   2.488   2.965   1.890  1.7725 -2.2318  0.1785
 2601SOL     OW19261   0.721   1.310   9.638 -0.3416  0.7632  0.2644
 2601SOL    HW119262   0.811   1.288   9.659 -0.6822  1.7102  2.6890
 2601SOL    HW219263   0.691   1.220   9.643  2.0776 -0.1017 -0.9017
 2602SOL     OW19264   0.071   2.854   8.602 -0.9373 -0.2951 -0.5386
 2602SOL    HW119265   0.097   2.937   8.642  1.4235 -0.9921 -0.6724
 2602SOL    HW219266   4.704   2.853   8.626 -0.3638 -2.3434  1.6264
 2603SOL     OW19267   3.905   4.258   2.124 -0.2571  0.6013 -0.5281
 2603SOL    HW119268   3.975   4.237   2.061  2.9930 -0.4138  3.4297
 2603SOL    HW219269   3.844   4.191   2.093  0.5528  0.1700 -1.1988
 2604SOL     OW19270   1.122   0.650  11.049 -0.1369 -0.4614 -0.0985
 2604SOL    HW119271   1.044   0.637  10.994 -0.9350 -0.3982  1.0097
 2604SOL    HW219272   1.174   0.695  10.983  0.6804 -1.2947 -0.0174
 2605SOL     OW19273   4.594   4.039   6.749  0.0369 -0.5975  0.1831
 2605SOL    HW119274   4.675   4.021   6.701  1.4061 -0.5798  2.4770
 2605SOL    HW219275   4.564   4.111   6.693 -0.7630 -0.7635  0.4006
 2606SOL     OW19276   0.645   4.655  12.045  0.1680  0.3654  0.0655
 2606SOL    HW119277   0.598   4.581  12.006  0.2431 -0.4709  1.5541
 2606SOL    HW219278   0.729   4.640  12.001  0.4192 -1.0469  1.0342
 2607SOL     OW19279   3.555   1.858   1.471  0.1524 -0.0268 -0.1809
 2607SOL    HW119280   3.468   1.895   1.488  0.2952  0.4069 -0.3947
 2607SOL    HW219281   3.536   1.766   1.453 -0.4914  0.6188 -2.8173
 2608SOL     OW19282   0.404   2.928   5.869  0.0958  0.0164 -0.5047
 2608SOL    HW119283   0.499   2.920   5.875  0.0462  1.5147  2.3979
 2608SOL    HW219284   0.388   2.968   5.784  0.9474 -1.1378 -1.2110
 2609SOL     OW19285   0.735   2.994   6.253 -0.2348  0.1065 -0.1867
 2609SOL    HW119286   0.670   2.927   6.272  0.5583 -0.2367  1.2984
 2609SOL    HW219287   0.793   2.939   6.200  0.2000 -0.8201  1.2579
 2610SOL     OW19288   2.527   4.377   4.751  0.0794 -0.2115  0.0372
 2610SOL    HW119289   2.565   4.339   4.672 -0.2606 -1.4391  0.4642
 2610SOL    HW219290   2.603   4.364   4.808 -0.1615  0.4239  0.4984
 2611SOL     OW19291   2.826   1.376   9.069 -0.5149 -0.1448 -0.2493
 2611SOL    HW119292   2.753   1.350   9.125  2.9604 -0.3734  4.1849
 2611SOL    HW219293   2.776   1.431   9.010 -0.1916  0.4361  0.0172
 2612SOL     OW19294   2.278   2.936  16.251 -0.2979 -0.5447 -0.4727
 2612SOL    HW119295   2.213   2.868  16.235 -0.5237 -0.6816  1.0379
 2612SOL    HW219296   2.362   2.891  16.256 -0.5315 -0.8287  0.9056
 2613SOL     OW19297   3.399   3.583   7.025 -0.1813  0.3009  0.0203
 2613SOL    HW119298   3.472   3.567   7.085 -0.3594  0.8723  0.3909
 2613SOL    HW219299   3.407   3.497   6.984  0.4098 -0.3089  1.4005
 2614SOL     OW19300   2.400   1.215  15.559  0.5882  0.2727  0.1461
 2614SOL    HW119301   2.474   1.274  15.568 -1.4530  2.6620  1.1994
 2614SOL    HW219302   2.366   1.252  15.477 -0.2249 -1.8841 -0.4975
 2615SOL     OW19303   3.280   3.736   4.685 -0.2258  0.0254 -0.2752
 2615SOL    HW119304   3.297   3.725   4.591  4.2796 -0.4577  0.6005
 2615SOL    HW219305   3.283   3.831   4.694  0.2156 -0.1941  1.7847
 2616SOL     OW19306   4.667   2.528   6.602 -0.0372 -0.6457  0.3054
 2616SOL    HW119307   0.002   2.542   6.675 -1.7598  1.3189  1.3862
 2616SOL    HW219308   4.595   2.482   6.644 -1.1286  1.2681  0.5597
 2617SOL     OW19309   3.185   2.067   4.429 -0.0569 -0.6071  0.2568
 2617SOL    HW119310   3.232   2.016   4.362  0.5134 -1.8054  1.5570
 2617SOL    HW219311   3.143   2.132   4.373 -0.0767 -0.5784  0.3052
 2618SOL     OW19312   0.551   4.342   8.218 -0.1264 -0.3141 -0.4510
 2618SOL    HW119313   0.536   4.431   8.249  2.9609  0.3522 -0.8595
 2618SOL    HW219314   0.494   4.303   8.284 -0.5242 -1.8288 -1.6813
 2619SOL     OW19315   3.354   2.100   8.421  0.6671 -0.3107  0.3357
 2619SOL    HW119316   3.263   2.112   8.450  0.8402 -1.3959  1.3294
 2619SOL    HW219317   3.388   2.177   8.466  2.4119 -0.0019 -1.5362
 2620SOL     OW19318   3.846   1.463  15.982 -0.1427  0.4152 -0.6369
 2620SOL    HW119319   3.886   1.530  16.038 -2.4539  0.7977  0.5563
 2620SOL    HW219320   3.906   1.463  15.908  0.8304  0.2968  0.1615
 2621SOL     OW19321   4.340   0.266   8.435 -0.1174 -0.2446  0.0084
 2621SOL    HW119322   4.384   0.217   8.504 -2.0761 -1.8919  0.0796
 2621SOL    HW219323   4.408   0.270   8.367 -0.5680 -2.4619 -0.5742
 2622SOL     OW19324   4.405   2.492   9.062 -0.0103 -0.1512  0.5022
 2622SOL    HW119325   4.346   2.567   9.050 -0.7134 -0.7099  0.5219
 2622SOL    HW219326   4.478   2.545   9.096  2.2445 -3.3061  0.5403
 2623SOL     OW19327   2.316   0.044   2.569  0.2108  0.4032 -0.8352
 2623SOL    HW119328   2.224   0.062   2.551  0.3690  1.0216 -1.0286
 2623SOL    HW219329   2.349   0.126   2.607  0.5705  0.1223 -0.5439
 2624SOL     OW19330   2.901   4.450  17.695  0.5879  0.5550 -0.0762
 2624SOL    HW119331   2.853   4.480   0.068  2.9541  1.5770  1.0311
 2624SOL    HW219332   2.838   4.418  17.631  0.0402  4.0763 -1.3190
 2625SOL     OW19333   3.065   0.705   7.869 -0.1200  0.0911  0.0413
 2625SOL    HW119334   3.005   0.746   7.931 -0.8363 -0.3469 -0.3574
 2625SOL    HW219335   3.030   0.750   7.792 -0.2307  0.1342  0.1182
 2626SOL     OW19336   3.575   4.614  16.395 -0.2681 -0.2440 -0.1172
 2626SOL    HW119337   3.563   4.522  16.418 -1.9005 -0.1648 -0.6562
 2626SOL    HW219338   3.485   4.645  16.386 -0.1709  0.0777  0.0200
 2627SOL     OW19339   2.074   2.812  15.103 -0.1008  0.5140  1.0518
 2627SOL    HW119340   2.036   2.878  15.047  1.5343 -0.2401 -0.9481
 2627SOL    HW219341   2.060   2.859  15.186 -1.1663  1.2935  0.4138
 2628SOL     OW19342   1.366   2.785   6.042 -0.3443 -0.1810 -0.6472
 2628SOL    HW119343   1.272   2.779   6.024 -0.6588 -0.5153  1.0220
 2628SOL    HW219344   1.394   2.699   6.011 -1.6042 -1.1562  0.8677
 2629SOL     OW19345   3.861   1.872   4.929  0.5222  0.5754 -0.1950
 2629SOL    HW119346   3.791   1.812   4.954 -0.8728  2.4999  0.4877
 2629SOL    HW219347   3.937   1.849   4.983  1.0493  1.3824 -0.5812
 2630SOL     OW19348   4.620   1.198   9.344 -0.1114  0.6809 -0.6199
 2630SOL    HW119349   4.559   1.254   9.392  0.7206  2.3513 -1.5529
 2630SOL    HW219350   4.617   1.119   9.399 -0.2265  1.8940  1.1107
 2631SOL     OW19351   1.374   1.533   6.223 -0.1162 -0.2343  0.0388
 2631SOL    HW119352   1.401   1.472   6.292 -1.2519 -1.1178 -0.2798
 2631SOL    HW219353   1.395   1.474   6.150  0.8229 -0.1671  0.2561
 2632SOL     OW19354   2.098   3.832   4.263  0.0727 -0.5942  0.1710
 2632SOL    HW119355   2.179   3.864   4.302 -0.7236  0.3511  1.0592
 2632SOL    HW219356   2.134   3.804   4.179  1.6440  0.5291  0.4865
 2633SOL     OW19357   3.695   3.899  17.199 -0.2840  0.1400  0.1032
 2633SOL    HW119358   3.675   3.840  17.271  2.4773 -0.6375  0.2255
 2633SOL    HW219359   3.608   3.930  17.173 -0.1581 -0.2746 -0.8189
 2634SOL     OW19360   4.397   3.128   4.627  0.2517  0.6892  0.3142
 2634SOL    HW119361   4.450   3.205   4.606  0.5155  0.6629  0.8771
 2634SOL    HW219362   4.468   3.068   4.649  0.5397  0.8213 -0.2774
 2635SOL     OW19363   3.824   3.275   3.121 -0.3523 -0.4929 -0.0979
 2635SOL    HW119364   3.828   3.289   3.026  0.8220 -0.0587  0.0136
 2635SOL    HW219365   3.744   3.317   3.150  1.2897  3.3971 -1.2339
 2636SOL     OW19366   3.781   0.097   8.042 -0.0265 -0.0236  0.1672
 2636SOL    HW119367   3.830   0.176   8.022  1.1461 -0.1219  2.7246
 2636SOL    HW219368   3.690   0.127   8.048  0.5658  1.6570  0.6308
 2637SOL     OW19369   4.623   0.869   2.058  0.4425 -0.4988 -0.5325
 2637SOL    HW119370   4.575   0.787   2.070  1.2729 -1.1664 -1.7426
 2637SOL    HW219371   4.585   0.920   2.129  3.8693  0.5130  0.5701
 2638SOL     OW19372   3.693   4.351   6.117  0.3026 -0.0208  0.6560
 2638SOL    HW119373   3.750   4.408   6.169  0.0598 -0.5326  1.4799
 2638SOL    HW219374   3.641   4.419   6.074  1.5198  0.5673  0.0873
 2639SOL     OW19375   4.027   1.005   2.133 -0.0607  0.0915  0.4735
 2639SOL    HW119376   4.045   0.944   2.061 -1.8225  1.2764 -0.9703
 2639SOL    HW219377   3.940   0.977   2.162 -0.1975 -1.4040 -1.3624
 2640SOL     OW19378   3.142   3.876  13.252 -0.8219 -0.5032  0.4059
 2640SOL    HW119379   3.130   3.796  13.304  0.4903 -0.7391  0.3355
 2640SOL    HW219380   3.096   3.949  13.293  0.8395  1.1555 -0.7522
 2641SOL     OW19381   0.218   3.078   8.880  0.9801  0.1531  0.0986
 2641SOL    HW119382   0.220   3.022   8.958  3.3331 -0.1404 -0.1915
 2641SOL    HW219383   0.126   3.077   8.852  0.8532  1.5243  0.4775
 2642SOL     OW19384   2.434   4.118   4.293 -0.1527  0.3442  0.4427
 2642SOL    HW119385   2.393   4.034   4.313 -1.8527  0.3631 -2.9374
 2642SOL    HW219386   2.521   4.087   4.269 -0.2237 -0.5566  1.3773
 2643SOL     OW19387   3.696   0.141   7.638  0.1616  0.0255  0.1996
 2643SOL    HW119388   3.626   0.137   7.573  0.6081 -1.3416 -0.2009
 2643SOL    HW219389   3.643   0.171   7.712  0.0794 -0.3316  0.2876
 2644SOL     OW19390   3.491   2.849   2.102  0.2368 -0.6657  0.3634
 2644SOL    HW119391   3.554   2.897   2.156 -0.6517  0.7085  0.1676
 2644SOL    HW219392   3.465   2.776   2.158 -0.7700  0.8382  1.8500
 2645SOL     OW19393   0.178   3.923   2.366  0.7139 -0.3105 -0.2068
 2645SOL    HW119394   0.184   4.006   2.320 -1.3988  0.0570  0.2154
 2645SOL    HW219395   0.132   3.947   2.446 -1.3096 -0.1425 -1.4342
 2646SOL     OW19396   2.849   4.318   4.001 -0.3491  0.3828  0.1453
 2646SOL    HW119397   2.878   4.374   4.073 -1.3035  1.5046 -0.3420
 2646SOL    HW219398   2.900   4.356   3.929 -1.4458  2.5055  0.4811
 2647SOL     OW19399   3.611   4.447  11.937  0.2422 -0.0890  0.5866
 2647SOL    HW119400   3.686   4.465  11.993 -0.0001  1.3107  0.4461
 2647SOL    HW219401   3.640   4.490  11.857  2.0529 -1.6877  0.3841
 2648SOL     OW19402   2.279   4.003   8.306 -0.0763 -0.1594 -0.3164
 2648SOL    HW119403   2.238   4.074   8.353  0.8956  0.5024 -0.4658
 2648SOL    HW219404   2.210   3.978   8.245 -1.3054 -1.7711  1.7348
 2649SOL     OW19405   0.485   4.061  15.177  0.1562 -0.0760 -0.0109
 2649SOL    HW119406   0.506   4.149  15.210  0.8661  1.2288 -3.9556
 2649SOL    HW219407   0.408   4.083  15.125 -0.3541 -0.1000  0.7331
 2650SOL     OW19408   2.605   3.714   6.178  0.0145 -0.1668  0.3886
 2650SOL    HW119409   2.620   3.693   6.270  2.1083  2.2688  0.6031
 2650SOL    HW219410   2.593   3.809   6.190  0.3790 -0.2747  1.6389
 2651SOL     OW19411   0.385   1.792   5.154  0.5565  0.2249 -0.4748
 2651SOL    HW119412   0.462   1.736   5.160 -1.1623 -1.9705  1.0230
 2651SOL    HW219413   0.393   1.814   5.061 -2.2628  2.7113 -0.1027
 2652SOL     OW19414   3.520   0.306  12.506 -0.2016 -0.3700 -0.1304
 2652SOL    HW119415   3.496   0.327  12.416 -2.9442 -0.2588  0.6262
 2652SOL    HW219416   3.568   0.386  12.526  0.4301 -1.3018  2.1283
 2653SOL     OW19417   0.019   0.709   7.225  0.0765 -0.4812 -0.1705
 2653SOL    HW119418   0.023   0.663   7.141 -2.1448  0.0993 -0.5797
 2653SOL    HW219419   0.010   0.799   7.192  1.6638 -0.9500 -1.9182
 2654SOL     OW19420   0.970   1.459  10.472 -0.3747  0.1052  0.7087
 2654SOL    HW119421   1.028   1.502  10.410  0.7241 -0.4396  1.3584
 2654SOL    HW219422   1.017   1.464  10.555  0.2626 -0.8243  0.3944
 2655SOL     OW19423   3.830   4.625   5.815 -0.6924 -0.1283  0.0969
 2655SOL    HW119424   3.896   4.593   5.876 -0.6683 -1.0001 -0.3900
 2655SOL    HW219425   3.892   4.669   5.757  0.0180 -2.0584 -0.5806
 2656SOL     OW19426   3.890   4.423  11.534  0.3142  0.6114 -0.0749
 2656SOL    HW119427   3.843   4.390  11.610  1.4715 -0.5059  0.1562
 2656SOL    HW219428   3.829   4.495  11.519  0.4375  0.6923 -0.1859
 2657SOL     OW19429   2.051   2.052   3.236  0.5036 -0.3708 -0.2191
 2657SOL    HW119430   2.023   2.140   3.210  1.9547  0.2249  0.2101
 2657SOL    HW219431   2.118   2.025   3.173  3.5620  1.1758  2.3406
 2658SOL     OW19432   3.149   2.327   9.848 -0.0399 -0.1647 -0.0725
 2658SOL    HW119433   3.114   2.337   9.937 -0.1933 -3.7022  0.2613
 2658SOL    HW219434   3.079   2.378   9.809 -0.2874  0.0171  0.6024
 2659SOL     OW19435   1.181   0.119   2.013  0.8047  0.8653  0.5705
 2659SOL    HW119436   1.249   0.078   1.958  0.6006  1.5284 -0.1775
 2659SOL    HW219437   1.178   0.072   2.096 -1.4614 -1.4143 -0.8010
 2660SOL     OW19438   4.260   2.339   5.724  0.1863  0.6579 -0.0787
 2660SOL    HW119439   4.184   2.382   5.685 -0.3377 -0.6184 -0.4489
 2660SOL    HW219440   4.298   2.290   5.651  1.2104  1.1773  0.1047
 2661SOL     OW19441   1.826   1.541   7.873  0.1024  0.2527 -0.3358
 2661SOL    HW119442   1.810   1.630   7.840  0.8952  0.3625 -0.4112
 2661SOL    HW219443   1.762   1.479   7.838  1.8490 -1.5868 -0.2566
 2662SOL     OW19444   2.851   4.490   1.981 -0.2636  0.0953  0.4919
 2662SOL    HW119445   2.864   4.404   1.941  2.2594  0.6835 -0.0030
 2662SOL    HW219446   2.794   4.455   2.049  0.4389 -3.0312 -0.5184
 2663SOL     OW19447   3.063   3.966  14.991 -0.4427 -0.1290  0.4248
 2663SOL    HW119448   3.158   3.969  14.978 -0.6105 -0.1860 -0.7937
 2663SOL    HW219449   3.028   3.956  14.902  0.3859  1.7659 -0.1176
 2664SOL     OW19450   4.539   3.972   3.428 -0.6932 -0.5453  0.2735
 2664SOL    HW119451   4.614   3.928   3.387  1.2819  1.5736  1.6027
 2664SOL    HW219452   4.479   3.960   3.355 -1.1427  1.0673  0.3755
 2665SOL     OW19453   2.139   0.628   8.294  0.6562 -0.4340  0.1528
 2665SOL    HW119454   2.120   0.699   8.233 -2.1512  0.7468  2.3845
 2665SOL    HW219455   2.231   0.649   8.310  0.4628 -0.8708  1.8315
 2666SOL     OW19456   1.574   2.592   8.026 -0.4719  0.9769  0.0957
 2666SOL    HW119457   1.558   2.572   7.934  0.7946  0.7322 -0.0783
 2666SOL    HW219458   1.490   2.633   8.045 -1.4477 -0.2558 -1.5752
 2667SOL     OW19459   1.042   1.135   9.270 -0.1580  0.4213  1.2208
 2667SOL    HW119460   1.113   1.198   9.284 -1.0113  1.4213  0.9970
 2667SOL    HW219461   1.094   1.071   9.221 -0.7573  0.8133  0.0720
 2668SOL     OW19462   0.588   4.376  13.929 -0.6729 -0.4262 -0.6373
 2668SOL    HW119463   0.520   4.311  13.949 -0.7283 -0.8640 -2.2374
 2668SOL    HW219464   0.542   4.441  13.876  0.0000 -0.1807 -0.9176
 2669SOL     OW19465   1.377   2.041   2.379  0.1834 -0.0823 -0.2226
 2669SOL    HW119466   1.355   2.120   2.331 -1.3604 -1.9377 -2.5799
 2669SOL    HW219467   1.394   1.976   2.310  2.5226  0.3893 -0.0689
 2670SOL     OW19468   2.391   2.196  11.096  0.3478  0.6418 -0.0821
 2670SOL    HW119469   2.458   2.262  11.114 -0.0606  1.7524 -2.7218
 2670SOL    HW219470   2.415   2.161  11.010 -3.4144 -1.1935 -0.3874
 2671SOL     OW19471   3.214   0.525   4.432  0.0397 -0.1607  0.5097
 2671SOL    HW119472   3.200   0.583   4.357 -0.2874 -0.3847  0.3964
 2671SOL    HW219473   3.152   0.457   4.403 -1.6951  1.6976 -0.1919
 2672SOL     OW19474   1.035   1.703   2.558 -0.1120 -0.1883 -0.1502
 2672SOL    HW119475   1.079   1.786   2.577  2.6715 -1.3827 -1.4690
 2672SOL    HW219476   0.947   1.727   2.587  0.0481 -0.5067  0.5936
 2673SOL     OW19477   2.378   2.063  12.730 -0.5633  0.0659  0.1274
 2673SOL    HW119478   2.448   2.062  12.796  1.9749  1.6212 -2.5621
 2673SOL    HW219479   2.306   2.071  12.793 -1.5861 -2.7128 -0.6911
 2674SOL     OW19480   2.124   2.872  17.169  0.8231 -0.3415 -0.2346
 2674SOL    HW119481   2.206   2.878  17.218  0.7379 -0.2546 -0.1027
 2674SOL    HW219482   2.061   2.894  17.238  1.5483 -0.1389  0.3575
 2675SOL     OW19483   3.101   2.482  12.409  0.3727 -0.9391  0.3495
 2675SOL    HW119484   3.162   2.538  12.361 -1.6825  0.8474 -0.1886
 2675SOL    HW219485   3.025   2.466  12.354  0.2561  0.6009  0.0469
 2676SOL     OW19486   3.743   2.306   3.803  0.1833  0.0560 -0.0090
 2676SOL    HW119487   3.770   2.396   3.821  0.9770 -0.0005 -0.9295
 2676SOL    HW219488   3.672   2.324   3.742  0.6142 -0.7463 -0.7385
 2677SOL     OW19489   3.160   1.887  15.431 -0.2852  0.1178  0.7794
 2677SOL    HW119490   3.249   1.860  15.406 -0.9047 -1.7905  0.6503
 2677SOL    HW219491   3.164   1.916  15.522  1.9623  0.6826  0.4977
 2678SOL     OW19492   1.486   1.298   2.097  0.4717  0.1537  0.1837
 2678SOL    HW119493   1.439   1.223   2.061 -1.6826  1.6089 -0.0020
 2678SOL    HW219494   1.574   1.280   2.063 -0.4485 -2.0114 -1.0430
 2679SOL     OW19495   3.354   1.423   6.347 -0.3914 -0.3119  0.2011
 2679SOL    HW119496   3.327   1.388   6.432 -0.1982  0.7848  0.7182
 2679SOL    HW219497   3.343   1.516   6.367 -0.7540 -0.3053 -0.0290
 2680SOL     OW19498   2.916   2.159   4.081 -0.2300 -0.3865 -0.3224
 2680SOL    HW119499   3.010   2.176   4.083 -0.5523  1.2874  1.3221
 2680SOL    HW219500   2.916   2.064   4.093  0.2271 -0.4293 -0.6665
 2681SOL     OW19501   2.638   1.564   2.277  0.0129  0.3121  0.0496
 2681SOL    HW119502   2.640   1.522   2.191 -0.6486  0.9682 -0.2876
 2681SOL    HW219503   2.658   1.657   2.262 -0.6084  0.3522 -0.5088
 2682SOL     OW19504   0.563   3.658  12.554 -0.6737 -0.4752  0.0301
 2682SOL    HW119505   0.611   3.641  12.635 -3.5102  0.4866  1.8883
 2682SOL    HW219506   0.507   3.581  12.542 -2.0233  0.5173  0.0058
 2683SOL     OW19507   0.086   4.592  10.137  0.2505 -0.0663  0.4358
 2683SOL    HW119508   0.022   4.663  10.142 -1.3962 -1.3445 -2.3064
 2683SOL    HW219509   0.079   4.559  10.226 -1.7958  1.7064  0.9430
 2684SOL     OW19510   4.407   1.742   3.493  0.3894  0.2845 -0.9576
 2684SOL    HW119511   4.390   1.712   3.404 -0.8707  1.0255 -0.9681
 2684SOL    HW219512   4.445   1.827   3.471  0.7807  0.2881 -0.2764
 2685SOL     OW19513   3.173   2.810  10.737 -0.2686  0.1532 -0.3006
 2685SOL    HW119514   3.200   2.722  10.709 -0.0986  0.1848 -0.2346
 2685SOL    HW219515   3.080   2.793  10.756 -0.1075 -0.3372  0.0373
 2686SOL     OW19516   1.407   4.581   7.870 -0.1077  0.1378  0.4540
 2686SOL    HW119517   1.322   4.586   7.826  0.2504  1.1110 -0.1108
 2686SOL    HW219518   1.415   4.669   7.907 -0.6344  0.7966 -0.9873
 2687SOL     OW19519   2.260   0.054  16.332  0.1448  0.2061  0.3877
 2687SOL    HW119520   2.289   0.002  16.257 -1.4949  0.2510 -0.2692
 2687SOL    HW219521   2.264   4.719  16.406  2.0145  0.2046  0.2833
 2688SOL     OW19522   0.105   0.479  10.244  0.6121 -0.2113 -0.8866
 2688SOL    HW119523   0.056   0.446  10.320 -2.2857  0.3051 -2.5334
 2688SOL    HW219524   0.123   0.571  10.259 -0.8117 -0.3115  1.3811
 2689SOL     OW19525   0.946   2.215   8.749 -0.0216  0.4268 -0.4334
 2689SOL    HW119526   0.859   2.251   8.767 -0.2299 -0.8452  1.0707
 2689SOL    HW219527   1.000   2.276   8.799 -1.9458  0.7707  1.2128
 2690SOL     OW19528   3.929   2.182  15.064 -0.2837 -0.2184  0.5029
 2690SOL    HW119529   3.880   2.265  15.061  0.7683  0.4551  2.3440
 2690SOL    HW219530   3.920   2.144  14.976 -1.9917  0.7012  0.2808
 2691SOL     OW19531   4.027   4.530   3.444  0.0255  0.0644  0.1977
 2691SOL    HW119532   3.990   4.528   3.532 -0.6686 -0.7507 -0.1165
 2691SOL    HW219533   4.119   4.542   3.470 -0.3577  0.9391  1.1619
 2692SOL     OW19534   3.156   0.858   2.054 -0.7495 -0.1527  0.4612
 2692SOL    HW119535   3.184   0.804   1.981 -2.6988 -0.6737  0.0999
 2692SOL    HW219536   3.141   0.801   2.129  1.9483 -0.6788  0.6000
 2693SOL     OW19537   1.394   1.006  11.001 -0.0061 -0.4078 -0.4215
 2693SOL    HW119538   1.346   1.084  11.028 -0.1333 -0.1132 -1.5268
 2693SOL    HW219539   1.450   0.984  11.076 -1.7211  0.2147  1.0265
 2694SOL     OW19540   0.298   4.285   8.680  0.4018 -0.4235  0.1556
 2694SOL    HW119541   0.224   4.315   8.627  0.1581 -2.4255 -0.6321
 2694SOL    HW219542   0.260   4.218   8.736  1.6470 -2.0797 -0.9860
 2695SOL     OW19543   3.672   0.080   4.466  0.8453 -0.4923  0.6708
 2695SOL    HW119544   3.687   0.077   4.371 -1.7303  1.3277  0.1789
 2695SOL    HW219545   3.716   0.163   4.482  2.5853 -0.9635 -1.5933
 2696SOL     OW19546   3.634   0.114   6.711 -0.0608 -0.6640 -0.2519
 2696SOL    HW119547   3.634   0.210   6.705 -0.2274 -0.7032 -0.9487
 2696SOL    HW219548   3.554   0.100   6.762  0.8761 -2.0254  0.8371
 2697SOL     OW19549   2.953   3.696   0.588 -0.5408 -0.2492  0.3158
 2697SOL    HW119550   2.861   3.722   0.584 -0.4893  0.1721  1.8973
 2697SOL    HW219551   2.983   3.780   0.623 -0.0709 -0.0095 -0.6472
 2698SOL     OW19552   2.879   0.083  12.961  0.2458 -0.2841  0.0603
 2698SOL    HW119553   2.951   0.123  12.911 -0.9329  1.3732 -0.3254
 2698SOL    HW219554   2.909   0.095  13.051 -0.5170 -2.0914  0.5587
 2699SOL     OW19555   2.068   2.220   3.491 -0.4107  0.1931  0.2468
 2699SOL    HW119556   2.137   2.283   3.470 -1.2636  1.3768  1.0238
 2699SOL    HW219557   2.074   2.154   3.421 -0.1820  0.6943 -0.2027
 2700SOL     OW19558   0.617   4.270   3.529  0.1578  0.2043  0.0360
 2700SOL    HW119559   0.653   4.347   3.573  0.9395 -0.1656  0.0538
 2700SOL    HW219560   0.697   4.243   3.483 -0.4688 -0.6842 -0.5346
 2701SOL     OW19561   1.396   2.237  12.598 -0.0624  0.8012  0.6927
 2701SOL    HW119562   1.379   2.247  12.504 -0.9841  1.6707  0.9583
 2701SOL    HW219563   1.379   2.144  12.612 -0.6789  0.2863 -3.3577
 2702SOL     OW19564   2.416   1.160   6.699 -0.3072 -0.0922  0.0800
 2702SOL    HW119565   2.447   1.125   6.616 -0.3041  3.4825 -1.4162
 2702SOL    HW219566   2.465   1.241   6.689  0.3120 -0.5611 -0.6609
 2703SOL     OW19567   2.138   2.962   9.871  0.4673 -0.2337 -0.1260
 2703SOL    HW119568   2.220   3.009   9.858  1.1067 -1.0983  0.7577
 2703SOL    HW219569   2.155   2.929   9.960 -1.1240  4.0236  1.7611
 2704SOL     OW19570   3.900   2.168   1.393 -0.0134  0.3421  0.9600
 2704SOL    HW119571   3.807   2.166   1.415 -0.3144 -2.0434 -0.5988
 2704SOL    HW219572   3.890   2.188   1.300  1.4741  0.7617  0.8854
 2705SOL     OW19573   1.758   3.503   9.914  0.3743  0.3639  0.1998
 2705SOL    HW119574   1.809   3.466   9.986  1.0062 -1.2526 -1.0996
 2705SOL    HW219575   1.686   3.441   9.903  0.0892  0.7666 -0.2346
 2706SOL     OW19576   2.923   1.493  10.992  0.0775 -0.4916 -0.0560
 2706SOL    HW119577   2.949   1.450  11.074  0.8772 -0.1633 -0.1345
 2706SOL    HW219578   2.962   1.444  10.921  1.4122 -1.3866  1.3014
 2707SOL     OW19579   2.447   2.856  15.628 -0.0664  0.0701 -0.3869
 2707SOL    HW119580   2.454   2.792  15.558  1.0904  0.1001 -0.2876
 2707SOL    HW219581   2.484   2.808  15.701 -1.6581 -0.2229  0.2317
 2708SOL     OW19582   1.401   1.641  15.835 -0.0912  0.4520 -0.1177
 2708SOL    HW119583   1.337   1.607  15.773  0.4041 -1.3525  0.3710
 2708SOL    HW219584   1.339   1.655  15.906  1.1415  0.8323  0.8809
 2709SOL     OW19585   4.672   2.677   3.962 -0.4259 -0.5927  0.3585
 2709SOL    HW119586   4.716   2.760   3.943 -0.8555 -0.2319  0.9602
 2709SOL    HW219587   4.581   2.706   3.953  0.8695  3.8039  1.4756
 2710SOL     OW19588   3.018   4.516   3.208  0.4011  0.1902  0.2591
 2710SOL    HW119589   2.963   4.588   3.175  0.7727  0.7757  0.9092
 2710SOL    HW219590   2.980   4.440   3.164  1.7136 -0.3184  0.0153
 2711SOL     OW19591   1.178   3.354   9.793  0.4784 -0.0259 -0.1207
 2711SOL    HW119592   1.262   3.374   9.750  1.4687 -2.3817  0.6773
 2711SOL    HW219593   1.197   3.266   9.826  0.0844  0.1911  0.6744
 2712SOL     OW19594   3.635   2.151   1.459 -0.3018  0.2206  0.1194
 2712SOL    HW119595   3.608   2.059   1.457  0.9335 -0.1271 -1.1278
 2712SOL    HW219596   3.555   2.194   1.488 -1.0615  0.0721 -1.7731
 2713SOL     OW19597   3.237   0.709   1.859 -0.0295 -0.2561  0.1776
 2713SOL    HW119598   3.194   0.647   1.800  1.0403  0.3484 -1.2383
 2713SOL    HW219599   3.304   0.650   1.893  0.4427 -0.1846 -0.6234
 2714SOL     OW19600   1.879   0.088   1.696 -0.0070  0.0769  0.1976
 2714SOL    HW119601   1.899   0.001   1.661 -0.0478 -0.1164  0.6593
 2714SOL    HW219602   1.957   0.116   1.743  1.0830  0.5762 -1.9114
 2715SOL     OW19603   4.707   2.180  15.739  0.0811  0.6069  0.1118
 2715SOL    HW119604   0.046   2.112  15.718 -0.6636  0.1687 -0.7718
 2715SOL    HW219605   4.659   2.177  15.656 -1.5952 -2.3042  1.1785
 2716SOL     OW19606   3.773   4.073  17.400 -0.0751  0.2883  0.0971
 2716SOL    HW119607   3.679   4.092  17.404 -0.5131 -2.1568  1.6249
 2716SOL    HW219608   3.763   4.025  17.318  1.3767  0.0936  0.0262
 2717SOL     OW19609   3.730   2.193   3.014 -0.0569  0.3225 -0.0455
 2717SOL    HW119610   3.709   2.101   3.002  1.5900 -0.0227 -0.3052
 2717SOL    HW219611   3.754   2.203   3.106 -0.5859  1.2420 -0.0049
 2718SOL     OW19612   0.938   0.689   2.517  0.0157 -0.4743 -0.2248
 2718SOL    HW119613   0.925   0.768   2.464  2.7785 -0.0619 -0.2690
 2718SOL    HW219614   0.973   0.628   2.452 -0.1567 -0.0019 -0.7611
 2719SOL     OW19615   0.496   2.720   6.521 -0.0219 -0.0245 -0.0610
 2719SOL    HW119616   0.499   2.765   6.436  2.7193  0.3111  0.2164
 2719SOL    HW219617   0.539   2.785   6.576  3.1043 -1.3167 -0.9803
 2720SOL     OW19618   3.167   3.273  13.773 -0.1479 -0.2954 -0.3341
 2720SOL    HW119619   3.109   3.258  13.699  1.8533  0.7546 -2.1239
 2720SOL    HW219620   3.117   3.231  13.843 -1.4274 -0.5948 -1.4366
 2721SOL     OW19621   2.474   1.724  12.781 -0.0360  0.6334  0.0986
 2721SOL    HW119622   2.461   1.748  12.689  2.1221  2.3442  0.2464
 2721SOL    HW219623   2.414   1.652  12.802  0.7613 -0.0457  0.0157
 2722SOL     OW19624   4.275   4.197   6.782  0.2029 -0.8085  0.0432
 2722SOL    HW119625   4.304   4.218   6.870 -0.7659 -0.3479  0.2524
 2722SOL    HW219626   4.350   4.231   6.733 -1.0447  1.4979 -0.2388
 2723SOL     OW19627   4.089   1.198  10.522  0.0749  0.1429  0.2929
 2723SOL    HW119628   4.083   1.270  10.585  0.2268  0.4320 -0.0271
 2723SOL    HW219629   4.178   1.166  10.532 -0.6392 -2.0089 -0.3894
 2724SOL     OW19630   1.701   3.977   6.157  0.1240 -0.2526 -0.4998
 2724SOL    HW119631   1.748   4.060   6.161  0.3144 -0.4000  0.4768
 2724SOL    HW219632   1.638   3.995   6.226  0.2360  0.8538 -0.6953
 2725SOL     OW19633   0.615   0.885   3.598  0.1040  0.2192  0.4579
 2725SOL    HW119634   0.528   0.862   3.631 -0.1138  1.2998  0.6330
 2725SOL    HW219635   0.676   0.827   3.644 -2.2031 -1.4153  1.5069
 2726SOL     OW19636   1.444   3.434   1.050  0.0132 -0.0326  0.2276
 2726SOL    HW119637   1.412   3.366   1.109  2.0875 -0.7159  0.5712
 2726SOL    HW219638   1.412   3.512   1.095 -0.2896 -0.0176 -0.0129
 2727SOL     OW19639   3.018   3.647   6.883  0.4819 -0.2021  0.3712
 2727SOL    HW119640   3.111   3.629   6.894  0.6388 -1.1795 -2.4098
 2727SOL    HW219641   2.997   3.691   6.965 -0.3311 -0.1277  0.1317
 2728SOL     OW19642   4.673   0.996   9.511 -0.7073  0.2416  0.0570
 2728SOL    HW119643   4.650   1.037   9.595 -0.3960  1.5887 -0.5202
 2728SOL    HW219644   4.622   0.915   9.519  0.0017 -0.1879  0.1721
 2729SOL     OW19645   1.999   3.682   8.309 -0.0050  0.3325  0.5668
 2729SOL    HW119646   2.090   3.671   8.333 -0.1303 -0.7343  0.5700
 2729SOL    HW219647   1.964   3.599   8.341 -1.6934  1.3002  1.2489
 2730SOL     OW19648   4.276   1.505   8.040  0.4980 -0.5641 -0.3982
 2730SOL    HW119649   4.188   1.519   8.076  0.3075 -1.2660 -0.6008
 2730SOL    HW219650   4.260   1.438   7.974  1.0463 -0.5488 -0.5509
 2731SOL     OW19651   2.913   4.009   5.610  0.4208 -0.0719 -0.0855
 2731SOL    HW119652   2.909   4.100   5.640  1.4327 -0.6081  1.6527
 2731SOL    HW219653   3.007   4.000   5.621  0.5515  1.5763  0.1636
 2732SOL     OW19654   0.279   3.317  10.285 -0.5482 -0.6779 -0.0957
 2732SOL    HW119655   0.229   3.354  10.212  0.1675 -1.4395 -0.9771
 2732SOL    HW219656   0.236   3.233  10.302 -1.4399 -0.4544 -1.2653
 2733SOL     OW19657   0.166   1.375   1.759 -0.1811 -0.0369  0.5791
 2733SOL    HW119658   0.251   1.338   1.782 -0.8967 -2.4453 -0.5517
 2733SOL    HW219659   0.101   1.327   1.810  0.3483  0.1383  1.4109
 2734SOL     OW19660   1.946   3.929  16.871 -0.6659 -0.2339  0.2146
 2734SOL    HW119661   1.980   4.000  16.816 -0.3963  0.0238  0.7175
 2734SOL    HW219662   1.965   3.851  16.819  0.5883  0.3324 -0.1769
 2735SOL     OW19663   4.518   2.576  10.912  0.0577  0.2622 -0.5005
 2735SOL    HW119664   4.549   2.538  10.830 -0.4380  1.5946 -1.3141
 2735SOL    HW219665   4.476   2.495  10.940 -0.4792  1.2809  1.5815
 2736SOL     OW19666   0.522   1.074   4.204 -0.0155  0.1265  0.2447
 2736SOL    HW119667   0.584   1.011   4.240 -1.3014 -0.7415  0.9530
 2736SOL    HW219668   0.587   1.141   4.185 -0.6086  0.9878  1.2761
 2737SOL     OW19669   2.196   1.353   0.338 -0.3926 -0.2113  0.5501
 2737SOL    HW119670   2.289   1.332   0.344  0.1693  1.5476 -1.9696
 2737SOL    HW219671   2.167   1.283   0.397  3.2410 -1.4965  0.7908
 2738SOL     OW19672   3.690   1.789   6.507  0.5646 -0.0066  0.1266
 2738SOL    HW119673   3.603   1.813   6.537 -0.5331 -1.7031 -1.7277
 2738SOL    HW219674   3.707   1.859   6.444 -3.1665  0.1013 -0.7477
 2739SOL     OW19675   2.895   2.345   8.365  0.2245 -0.2740 -0.6315
 2739SOL    HW119676   2.832   2.335   8.293  3.4897 -0.1639 -3.5115
 2739SOL    HW219677   2.883   2.256   8.397 -1.0077  0.0428 -0.2009
 2740SOL     OW19678   1.598   1.154  16.316 -0.6546 -0.9730 -0.0214
 2740SOL    HW119679   1.589   1.240  16.359  0.2989 -1.2783  0.7856
 2740SOL    HW219680   1.682   1.140  16.361  0.4663  1.6948 -1.2794
 2741SOL     OW19681   0.762   2.162   8.228  0.1285  0.1292  0.4152
 2741SOL    HW119682   0.733   2.246   8.193  0.1634  0.6835  1.7528
 2741SOL    HW219683   0.851   2.193   8.243  0.7892 -1.0233 -1.0690
 2742SOL     OW19684   1.327   3.009   7.864  0.1810 -0.3477  0.2848
 2742SOL    HW119685   1.404   3.044   7.909 -0.5399  1.3394  0.2029
 2742SOL    HW219686   1.346   2.915   7.853  0.3346 -0.3247  0.3461
 2743SOL     OW19687   3.614   4.093   4.345 -0.7332  0.3627  0.1501
 2743SOL    HW119688   3.529   4.049   4.351 -0.4756 -0.2662 -0.7744
 2743SOL    HW219689   3.650   4.056   4.265  0.2210  0.7298  0.4054
 2744SOL     OW19690   0.835   1.743  13.002 -0.1443 -0.2692  0.0701
 2744SOL    HW119691   0.783   1.662  13.004 -1.5189  0.6270  1.0408
 2744SOL    HW219692   0.785   1.796  13.065 -0.0717  0.7634 -0.7469
 2745SOL     OW19693   4.490   3.485   7.826  0.1264 -0.0021 -0.6319
 2745SOL    HW119694   4.548   3.496   7.901  0.2184 -0.4662 -0.6323
 2745SOL    HW219695   4.415   3.452   7.876  1.7574 -0.3223  1.6132
 2746SOL     OW19696   0.280   1.219  10.321 -0.0045  0.9290 -0.4016
 2746SOL    HW119697   0.360   1.271  10.317 -0.5090  1.7005 -0.3744
 2746SOL    HW219698   0.202   1.270  10.301 -1.1978 -0.2526  1.2442
 2747SOL     OW19699   3.057   0.641   5.586 -0.1831  0.2485  0.5012
 2747SOL    HW119700   3.087   0.696   5.514 -1.4957  0.8383  0.3971
 2747SOL    HW219701   3.025   0.704   5.651 -0.9887  0.0290  0.3275
 2748SOL     OW19702   4.050   1.362  17.519 -0.0104 -0.1608 -0.0397
 2748SOL    HW119703   4.037   1.293  17.454 -1.6072  0.7907 -0.7081
 2748SOL    HW219704   4.067   1.438  17.464  2.0555 -1.4196 -1.1579
 2749SOL     OW19705   4.428   0.839  10.289  0.6467 -0.0171  0.1617
 2749SOL    HW119706   4.362   0.791  10.239  0.2361  0.4982  0.2061
 2749SOL    HW219707   4.462   0.768  10.343  0.7627  0.1385  0.2941
 2750SOL     OW19708   1.587   2.765   4.234 -0.4961 -0.1218  0.0319
 2750SOL    HW119709   1.612   2.684   4.190 -1.3257 -0.2469 -0.2212
 2750SOL    HW219710   1.559   2.815   4.157  0.1955 -1.1138 -0.8601
 2751SOL     OW19711   1.718   3.246  12.254  0.5067 -0.3409 -0.7550
 2751SOL    HW119712   1.778   3.315  12.281  1.1217 -1.4524  0.7430
 2751SOL    HW219713   1.637   3.272  12.299  0.3748 -1.6725 -0.2284
 2752SOL     OW19714   0.410   4.545   8.886 -0.3674  0.3543  0.0422
 2752SOL    HW119715   0.446   4.588   8.809  2.5984 -0.2183  1.0901
 2752SOL    HW219716   0.323   4.583   8.892 -0.5209 -0.2690  1.9588
 2753SOL     OW19717   2.646   4.366  13.950 -0.1049  0.0981 -0.4634
 2753SOL    HW119718   2.726   4.418  13.944  1.4675 -2.2647  0.2434
 2753SOL    HW219719   2.679   4.290  13.998 -0.4058  0.0385 -0.3513
 2754SOL     OW19720   3.496   0.500   3.577  0.5630 -0.6051  0.0916
 2754SOL    HW119721   3.554   0.456   3.639  1.3534  1.2677  0.6801
 2754SOL    HW219722   3.481   0.585   3.619 -0.9917 -1.2854  0.9139
 2755SOL     OW19723   4.563   0.126   7.189  0.5515 -0.6856  0.1045
 2755SOL    HW119724   4.530   0.215   7.201  0.0853 -0.6175 -1.6353
 2755SOL    HW219725   4.656   0.149   7.190 -0.1255  2.1551 -0.6430
 2756SOL     OW19726   4.285   0.879   2.005 -0.3452 -0.3353  0.0681
 2756SOL    HW119727   4.205   0.826   2.006  0.2632 -1.2326  0.8166
 2756SOL    HW219728   4.242   0.955   1.966 -0.3539  0.4850  1.6984
 2757SOL     OW19729   0.033   2.485   8.319 -0.2588 -0.2446 -0.1323
 2757SOL    HW119730   0.002   2.506   8.407 -0.7558 -2.6861  0.2710
 2757SOL    HW219731   0.069   2.397   8.329 -0.6363 -0.4656 -0.6916
 2758SOL     OW19732   3.260   4.639  10.447 -0.3874 -0.0548 -0.1590
 2758SOL    HW119733   3.207   4.680  10.516 -1.1869 -0.2134 -0.6732
 2758SOL    HW219734   3.311   4.712  10.413  1.5594 -1.8057 -0.9609
 2759SOL     OW19735   3.753   4.657   8.954  0.1241  0.6331  0.3528
 2759SOL    HW119736   3.816   4.599   8.912  1.3902  3.1515 -1.2857
 2759SOL    HW219737   3.679   4.620   8.906 -0.9379  2.1512  0.7981
 2760SOL     OW19738   1.392   3.328   7.696  0.0428  0.1080  0.7813
 2760SOL    HW119739   1.435   3.291   7.774 -0.2043  2.2982  1.9571
 2760SOL    HW219740   1.454   3.314   7.624 -2.4108 -1.1713 -1.0977
 2761SOL     OW19741   4.560   3.344  15.270  0.3530 -1.0410 -0.0077
 2761SOL    HW119742   4.482   3.299  15.238 -0.2467  1.4577 -2.1720
 2761SOL    HW219743   4.584   3.402  15.197 -1.2909  0.5977  0.7727
 2762SOL     OW19744   0.805   0.545   6.516  0.2730  0.2443  0.1364
 2762SOL    HW119745   0.713   0.571   6.516 -0.1065 -1.1024 -2.1232
 2762SOL    HW219746   0.817   0.505   6.430  4.0788  0.0969  0.7375
 2763SOL     OW19747   0.084   2.263   8.671  0.0961  0.5780 -0.2312
 2763SOL    HW119748   0.163   2.214   8.691 -0.1384 -0.0854 -0.9005
 2763SOL    HW219749   0.026   2.194   8.705  2.6917 -1.4800 -0.0213
 2764SOL     OW19750   0.650   1.322   1.812  0.2137  0.3179  0.4614
 2764SOL    HW119751   0.561   1.292   1.831  0.3736 -0.7249 -0.4899
 2764SOL    HW219752   0.689   1.302   1.897  0.8570  2.2617  0.6157
 2765SOL     OW19753   4.343   2.611   8.223 -0.0382  0.2971 -0.0091
 2765SOL    HW119754   4.422   2.564   8.196 -0.2679  1.3778 -2.5740
 2765SOL    HW219755   4.279   2.582   8.159  0.2646  0.6194 -0.4557
 2766SOL     OW19756   1.528   3.357   5.333 -0.8090  0.7228  0.2796
 2766SOL    HW119757   1.506   3.414   5.259  1.4439 -1.2424 -1.9201
 2766SOL    HW219758   1.577   3.426   5.378 -1.0036 -1.0076  3.1801
 2767SOL     OW19759   0.105   1.923   3.278  0.3963  0.1401 -0.7539
 2767SOL    HW119760   0.129   1.862   3.348  0.3255 -2.1874 -2.7572
 2767SOL    HW219761   0.100   2.005   3.328  1.8758 -0.6432  0.6688
 2768SOL     OW19762   0.036   1.014   7.878  0.2861  0.2519 -0.1512
 2768SOL    HW119763   4.711   1.049   7.805 -0.0217 -1.9229 -0.9706
 2768SOL    HW219764   4.718   1.061   7.949  1.8609 -0.7565  1.4650
 2769SOL     OW19765   3.609   1.949   4.264  0.2819  0.5357  0.1035
 2769SOL    HW119766   3.663   1.912   4.334  0.0138  1.6208  0.8854
 2769SOL    HW219767   3.673   1.936   4.194 -1.4195 -0.5269 -1.2609
 2770SOL     OW19768   1.016   0.937   2.414 -0.4941  0.0855 -1.0200
 2770SOL    HW119769   1.089   0.984   2.374 -1.1260  1.5184 -0.5272
 2770SOL    HW219770   0.969   1.005   2.463 -2.0762 -1.5411 -0.2685
 2771SOL     OW19771   1.452   0.845  16.698  0.4475 -0.9463 -0.1798
 2771SOL    HW119772   1.492   0.834  16.784  0.3947 -0.8525 -0.1432
 2771SOL    HW219773   1.498   0.923  16.665  1.0779 -2.0434 -1.8557
 2772SOL     OW19774   3.261   3.877   6.975 -0.1957 -0.0725  0.3668
 2772SOL    HW119775   3.332   3.908   6.918 -1.9092  0.1488 -1.6280
 2772SOL    HW219776   3.297   3.790   6.995 -0.2006 -0.0507  0.4700
 2773SOL     OW19777   3.273   1.267   8.304 -0.6392  0.4290 -0.3764
 2773SOL    HW119778   3.321   1.349   8.315  2.2359 -1.2410 -0.6748
 2773SOL    HW219779   3.335   1.197   8.323  0.2254  1.3046 -0.0109
 2774SOL     OW19780   2.324   3.764   9.005 -0.1592  0.2275  0.3610
 2774SOL    HW119781   2.329   3.740   8.912  0.1548 -0.0577  0.4538
 2774SOL    HW219782   2.412   3.743   9.035 -1.1496 -3.7842  0.4715
 2775SOL     OW19783   3.877   0.571  16.151 -0.7494  0.3890 -0.3653
 2775SOL    HW119784   3.948   0.632  16.171 -0.1013 -0.6935  0.6364
 2775SOL    HW219785   3.821   0.575  16.228  0.5222  2.3608  0.4527
 2776SOL     OW19786   2.335   2.905   3.270 -1.2212 -0.0474 -0.4162
 2776SOL    HW119787   2.406   2.845   3.248  0.1922  2.1465 -1.9092
 2776SOL    HW219788   2.379   2.980   3.310 -1.1285 -1.1198  1.4884
 2777SOL     OW19789   2.700   2.808   4.476  0.0386 -0.0780  0.4460
 2777SOL    HW119790   2.615   2.852   4.476 -1.1106 -2.2987 -0.3642
 2777SOL    HW219791   2.715   2.816   4.382  1.8950  0.1759  0.7662
 2778SOL     OW19792   2.453   1.485   3.707  0.2081 -0.2319 -0.2262
 2778SOL    HW119793   2.406   1.436   3.775  2.7024 -1.7426  0.4457
 2778SOL    HW219794   2.500   1.416   3.659  0.4930  0.2521 -0.6460
 2779SOL     OW19795   1.415   3.856   8.696  0.1818 -0.4537  0.7571
 2779SOL    HW119796   1.450   3.926   8.751  0.5368  1.1654 -1.5480
 2779SOL    HW219797   1.492   3.807   8.668  0.4146 -0.3317  1.1848
 2780SOL     OW19798   0.264   1.279   0.837 -0.6111 -0.6173  0.2791
 2780SOL    HW119799   0.235   1.311   0.922 -1.9134 -2.8606  0.6719
 2780SOL    HW219800   0.315   1.202   0.863  1.8936  0.8737 -0.1699
 2781SOL     OW19801   3.246   2.280  14.467 -0.4492 -0.6473 -0.2343
 2781SOL    HW119802   3.209   2.238  14.390  1.0337  0.0801 -1.3298
 2781SOL    HW219803   3.330   2.317  14.440  0.0119 -2.0657 -0.7576
 2782SOL     OW19804   4.018   0.141   7.441  0.0972 -0.4476 -0.6165
 2782SOL    HW119805   3.957   0.205   7.406  3.3016  2.0932 -1.6062
 2782SOL    HW219806   4.097   0.155   7.388  0.6917 -1.1621  0.0713
 2783SOL     OW19807   4.066   3.713   6.731  0.2987 -0.3476 -0.1011
 2783SOL    HW119808   4.113   3.691   6.651  1.7554  0.4159  0.5437
 2783SOL    HW219809   4.139   3.712   6.792  0.5217 -1.8307 -0.3944
 2784SOL     OW19810   3.287   0.625   8.216  0.3169  0.3343 -0.2193
 2784SOL    HW119811   3.287   0.573   8.136  0.5283 -1.2514  0.8222
 2784SOL    HW219812   3.296   0.716   8.185  0.1276  0.6858  0.7562
 2785SOL     OW19813   1.080   3.499   1.333 -0.2867  0.3841 -0.0749
 2785SOL    HW119814   1.095   3.593   1.345  0.5233  0.1896  0.4345
 2785SOL    HW219815   1.165   3.455   1.339  0.9313  2.7250 -0.2788
 2786SOL     OW19816   1.232   4.026   3.579  0.3028  0.0841  0.1289
 2786SOL    HW119817   1.323   4.025   3.611  0.0552  2.6130  0.9609
 2786SOL    HW219818   1.247   4.077   3.500  1.2693 -0.7829 -0.2477
 2787SOL     OW19819   2.544   1.313   8.177 -0.4468  0.3668  0.1354
 2787SOL    HW119820   2.635   1.334   8.153 -0.1757  0.0961  0.9115
 2787SOL    HW219821   2.526   1.242   8.116  0.8530 -0.8919  1.1968
 2788SOL     OW19822   4.099   2.430   6.987  0.2801  0.0793 -0.2657
 2788SOL    HW119823   4.125   2.461   7.074 -0.8479 -1.5528  0.6641
 2788SOL    HW219824   4.177   2.393   6.946 -0.7131 -2.3802  0.0313
 2789SOL     OW19825   0.009   0.163   5.761  0.3444  0.2081 -0.0035
 2789SOL    HW119826   0.046   0.193   5.678 -1.1588  0.7739 -0.4834
 2789SOL    HW219827   4.642   0.178   5.740 -0.3060 -1.9701  1.3468
 2790SOL     OW19828   4.010   4.618   1.083 -0.0643  0.1620  0.1068
 2790SOL    HW119829   4.072   4.571   1.027 -0.5910  1.7686 -1.8156
 2790SOL    HW219830   4.013   4.556   1.156 -0.0608  0.4975  0.3900
 2791SOL     OW19831   4.575   0.451   5.903  0.3448 -0.8913 -0.5334
 2791SOL    HW119832   4.589   0.510   5.829 -0.7637  2.8210  2.2146
 2791SOL    HW219833   4.486   0.415   5.899 -0.7905  1.9846 -1.7531
 2792SOL     OW19834   4.331   3.776   7.459 -0.9356  0.1093 -0.1059
 2792SOL    HW119835   4.384   3.716   7.510 -1.3161 -0.6752 -0.6375
 2792SOL    HW219836   4.400   3.824   7.413 -2.4565  1.8146 -0.6232
 2793SOL     OW19837   0.327   3.803   2.619 -0.2677  0.4956  0.3549
 2793SOL    HW119838   0.314   3.897   2.613 -3.1503  0.0340 -0.8293
 2793SOL    HW219839   0.377   3.799   2.701  0.0964  1.4322  0.1714
 2794SOL     OW19840   0.673   2.634   5.536  0.2359 -0.3754  0.5160
 2794SOL    HW119841   0.669   2.694   5.461 -0.1321  0.8420  1.5068
 2794SOL    HW219842   0.765   2.606   5.534  0.3403  0.0616 -1.4655
 2795SOL     OW19843   2.426   4.567  13.964  0.2400 -0.0685  0.3703
 2795SOL    HW119844   2.349   4.515  13.943  1.9824 -1.4659 -2.5204
 2795SOL    HW219845   2.497   4.504  13.978 -0.0322 -0.6330 -0.7263
 2796SOL     OW19846   1.682   4.422   6.274 -0.2470 -0.3979 -0.1906
 2796SOL    HW119847   1.675   4.518   6.280 -2.4986 -0.5469 -0.7316
 2796SOL    HW219848   1.624   4.405   6.348 -1.7050 -0.3204 -1.3219
 2797SOL     OW19849   4.509   2.169   2.810  0.0771 -0.0175 -0.2661
 2797SOL    HW119850   4.549   2.223   2.742 -0.0712  1.8522  1.1259
 2797SOL    HW219851   4.456   2.230   2.861 -0.2201  0.7699 -1.5067
 2798SOL     OW19852   1.973   1.549  17.037  0.4487 -0.6329  0.3951
 2798SOL    HW119853   1.977   1.456  17.015 -0.8563 -0.6675  0.3068
 2798SOL    HW219854   1.919   1.574  16.962 -1.6159 -6.5498 -0.0689
 2799SOL     OW19855   3.322   4.695  13.451  0.1138 -0.4155  0.1321
 2799SOL    HW119856   3.348   4.615  13.498 -3.3367 -0.9593  1.1837
 2799SOL    HW219857   3.408   0.007  13.435  1.2059 -2.4517  1.1032
 2800SOL     OW19858   1.454   4.690  13.669 -0.0721  0.7515  0.4956
 2800SOL    HW119859   1.424   0.049  13.701  2.2453  2.2269 -1.2600
 2800SOL    HW219860   1.443   4.631  13.743  0.1165 -0.2221 -0.2502
 2801SOL     OW19861   4.388   2.217  13.217  0.4179  0.4238  0.6829
 2801SOL    HW119862   4.444   2.223  13.139  1.1916 -1.0778  1.1162
 2801SOL    HW219863   4.313   2.158  13.209  0.4740  0.6227 -1.3924
 2802SOL     OW19864   2.483   4.157   8.175 -0.0184  0.1508  0.5216
 2802SOL    HW119865   2.414   4.202   8.126  0.8378  2.6836  1.6813
 2802SOL    HW219866   2.439   4.112   8.247 -0.5555  2.2683  1.5077
 2803SOL     OW19867   1.278   4.687   5.808 -0.1473  0.3626 -0.3810
 2803SOL    HW119868   1.295   4.677   5.902  1.1563 -0.4344 -0.6973
 2803SOL    HW219869   1.286   4.599   5.771  0.7522  1.3888 -2.6485
 2804SOL     OW19870   2.997   2.696  12.216  0.4549 -0.1968  0.2826
 2804SOL    HW119871   3.081   2.715  12.174 -0.2952  1.6971 -0.3605
 2804SOL    HW219872   3.009   2.716  12.309 -1.8888 -0.1673  0.5670
 2805SOL     OW19873   3.384   3.721   4.392  0.0352  0.2001 -0.0721
 2805SOL    HW119874   3.403   3.689   4.304 -0.9037  2.8049 -1.2401
 2805SOL    HW219875   3.462   3.683   4.432 -0.8157 -1.0814  0.3531
 2806SOL     OW19876   1.550   3.059   4.264  0.0703  0.1598  0.7731
 2806SOL    HW119877   1.543   3.124   4.335 -1.3560  1.7726 -0.8606
 2806SOL    HW219878   1.565   2.974   4.305  0.2607  0.0870  0.5512
 2807SOL     OW19879   3.813   0.015   0.954  0.5440  0.6764 -0.3867
 2807SOL    HW119880   3.737   4.684   0.945  0.2731  0.6568  1.9982
 2807SOL    HW219881   3.875   4.684   1.000  2.5978  2.4148 -1.0030
 2808SOL     OW19882   2.590   4.338   9.647  0.5050  0.2563  0.0786
 2808SOL    HW119883   2.569   4.287   9.725  0.7347 -1.0399 -0.7083
 2808SOL    HW219884   2.663   4.388   9.684  0.7833 -0.4010  0.4324
 2809SOL     OW19885   0.495   2.867   8.746 -0.3008  0.2727 -0.1291
 2809SOL    HW119886   0.420   2.808   8.744  0.3941 -0.6333  0.8141
 2809SOL    HW219887   0.505   2.875   8.651  0.4295  2.1360  0.1018
 2810SOL     OW19888   3.298   0.082  13.712  0.1331 -0.1335  0.4089
 2810SOL    HW119889   3.367   0.148  13.707 -1.3953  1.5165  1.3577
 2810SOL    HW219890   3.280   0.076  13.618 -0.2847  0.0516  0.4830
 2811SOL     OW19891   4.266   4.124   2.522 -0.1677  0.2006  0.1652
 2811SOL    HW119892   4.199   4.091   2.582 -1.8209 -0.5828 -2.1189
 2811SOL    HW219893   4.347   4.099   2.567 -1.5950 -1.8652  1.5696
 2812SOL     OW19894   3.383   2.625   6.000 -0.0090  0.2894  0.6207
 2812SOL    HW119895   3.354   2.676   6.075  0.1351  0.7353  0.3769
 2812SOL    HW219896   3.442   2.566   6.047  0.5232  0.7769  0.5643
 2813SOL     OW19897   4.550   1.551   3.619 -0.0992 -0.2704  0.0819
 2813SOL    HW119898   4.505   1.629   3.586 -0.9588 -0.1281  1.6033
 2813SOL    HW219899   4.604   1.593   3.687 -1.2538 -0.4479  1.1108
 2814SOL     OW19900   4.602   4.389   3.494 -0.1714  0.3957  0.0783
 2814SOL    HW119901   4.590   4.480   3.468 -1.1339  0.8345  2.0210
 2814SOL    HW219902   4.652   4.362   3.417  0.4814 -1.4255  1.1367
 2815SOL     OW19903   1.657   2.950   5.421  0.2666 -0.2070  0.1029
 2815SOL    HW119904   1.648   3.009   5.495  1.6922  1.9277 -1.4096
 2815SOL    HW219905   1.649   3.005   5.343 -2.2235 -1.4311 -0.4900
 2816SOL     OW19906   0.374   2.444  12.867  0.2022 -0.7230  0.4253
 2816SOL    HW119907   0.373   2.502  12.791 -1.0908 -0.9564  0.2728
 2816SOL    HW219908   0.279   2.444  12.872  0.1217 -2.0886 -1.2841
 2817SOL     OW19909   2.799   4.039  11.828  0.4926  0.2811 -0.1698
 2817SOL    HW119910   2.729   3.976  11.808 -1.4863  2.1792  0.8120
 2817SOL    HW219911   2.737   4.111  11.836  0.8644  0.6280 -0.4462
 2818SOL     OW19912   0.305   4.723   3.356 -0.5719 -0.0106 -0.1060
 2818SOL    HW119913   0.297   0.032   3.267  1.3671  0.3366 -0.1523
 2818SOL    HW219914   0.293   0.077   3.406  0.4203  0.1053 -0.0502
 2819SOL     OW19915   1.571   2.012  13.787 -0.1403  0.0209  0.3962
 2819SOL    HW119916   1.517   1.932  13.784  0.2413 -0.2212 -0.1099
 2819SOL    HW219917   1.554   2.047  13.874 -0.0471  1.3524 -0.1256
 2820SOL     OW19918   0.447   1.341   7.280 -0.0797  0.3460 -0.6925
 2820SOL    HW119919   0.402   1.415   7.240 -0.6043  0.1573 -0.4573
 2820SOL    HW219920   0.503   1.311   7.208 -1.5789 -3.1679 -0.3749
 2821SOL     OW19921   1.622   0.844   7.096 -0.5447 -0.0794  0.3853
 2821SOL    HW119922   1.626   0.803   7.009 -0.6109 -1.1707  0.9072
 2821SOL    HW219923   1.539   0.891   7.084 -0.6633 -0.5889 -0.8589
 2822SOL     OW19924   2.427   1.936   5.878 -0.3586 -0.1668  0.3754
 2822SOL    HW119925   2.518   1.967   5.885  0.6234 -2.5617 -1.7499
 2822SOL    HW219926   2.427   1.861   5.938  1.8849 -0.6266 -0.1831
 2823SOL     OW19927   2.929   4.483   9.387 -0.0349 -0.5275 -0.1634
 2823SOL    HW119928   2.914   4.550   9.454 -0.2815  1.0673 -1.8342
 2823SOL    HW219929   3.016   4.508   9.357 -0.4057 -0.7046 -1.3685
 2824SOL     OW19930   3.438   0.871   5.079 -0.2080 -0.6481  0.4918
 2824SOL    HW119931   3.385   0.793   5.099  0.2113 -0.9686  0.3704
 2824SOL    HW219932   3.406   0.899   4.993  3.7618  2.8729  0.1577
 2825SOL     OW19933   1.700   2.363   9.039  0.3244 -0.1840  0.0196
 2825SOL    HW119934   1.789   2.354   9.004  0.1940  0.1835 -0.3871
 2825SOL    HW219935   1.732   2.350   9.129  0.4171 -0.2870 -0.0266
 2826SOL     OW19936   4.614   0.843   5.251  0.5695 -0.3924  0.6834
 2826SOL    HW119937   4.542   0.886   5.204 -0.3932 -2.5446  0.2157
 2826SOL    HW219938   4.678   0.836   5.180 -0.6669 -2.6367 -0.2007
 2827SOL     OW19939   4.663   1.460  14.215 -0.4722  0.7950 -0.6784
 2827SOL    HW119940   4.587   1.428  14.167 -1.6171  2.5115 -0.0027
 2827SOL    HW219941   4.625   1.503  14.291  1.5952 -0.0108  0.7964
 2828SOL     OW19942   2.582   0.838  15.130 -0.1352  0.2790  0.5921
 2828SOL    HW119943   2.527   0.808  15.202 -0.5624  1.9252  0.9602
 2828SOL    HW219944   2.667   0.823  15.171 -0.9434  0.7325  2.4391
 2829SOL     OW19945   1.222   2.702   7.728  0.6307 -0.0635 -0.0393
 2829SOL    HW119946   1.241   2.718   7.636  0.2028  1.8826  0.2140
 2829SOL    HW219947   1.139   2.654   7.733 -0.0241  1.0329 -0.2281
 2830SOL     OW19948   4.438   2.876  15.703  0.4476 -0.1370  0.0209
 2830SOL    HW119949   4.408   2.900  15.616 -2.0436  0.4323  1.0469
 2830SOL    HW219950   4.357   2.848  15.746 -1.6432  2.0724 -2.4938
 2831SOL     OW19951   0.329   4.352  14.160 -0.1466  0.5722  0.3069
 2831SOL    HW119952   0.334   4.390  14.247  0.2459 -0.8500  0.9074
 2831SOL    HW219953   0.270   4.413  14.116 -0.4488  0.6150  0.7761
 2832SOL     OW19954   0.237   0.977   7.351  0.1585 -0.4180  0.0710
 2832SOL    HW119955   0.211   1.067   7.330 -0.2140 -0.6619 -0.5047
 2832SOL    HW219956   0.259   0.994   7.443  3.8662  0.3092 -0.9889
 2833SOL     OW19957   4.698   3.545   5.586 -0.2100 -0.7296  0.1831
 2833SOL    HW119958   4.666   3.466   5.630 -1.3108 -1.1671 -1.4012
 2833SOL    HW219959   4.675   3.520   5.496  2.3649 -0.2908 -0.6006
 2834SOL     OW19960   0.873   3.680   4.287  0.3268  0.0616 -0.6748
 2834SOL    HW119961   0.965   3.652   4.288  0.9013  1.9605 -2.7162
 2834SOL    HW219962   0.863   3.690   4.193 -1.2542 -1.6180 -0.6812
 2835SOL     OW19963   0.276   1.131   2.101 -0.5438  0.1137  0.0877
 2835SOL    HW119964   0.304   1.181   2.177 -2.9177  0.3133  0.8364
 2835SOL    HW219965   0.189   1.103   2.130 -0.2038 -2.4625 -1.3907
 2836SOL     OW19966   0.671   2.326   8.701 -0.4312 -0.1735  0.3034
 2836SOL    HW119967   0.608   2.327   8.773  0.3498 -2.0171  1.0125
 2836SOL    HW219968   0.654   2.411   8.661  2.2961  1.1669  1.9366
 2837SOL     OW19969   0.726   3.446   3.022 -0.2126  0.8210 -0.1814
 2837SOL    HW119970   0.659   3.436   3.090  0.3928 -0.5089  0.2181
 2837SOL    HW219971   0.802   3.462   3.077  0.1549 -3.0183  0.4677
 2838SOL     OW19972   4.240   3.342   8.517 -0.1001 -0.0907  0.0984
 2838SOL    HW119973   4.272   3.255   8.541 -0.4293  0.0450  1.0322
 2838SOL    HW219974   4.150   3.328   8.546 -0.8107  1.6948 -1.2367
 2839SOL     OW19975   0.587   2.449   3.012 -0.0911  0.0513  0.3063
 2839SOL    HW119976   0.512   2.394   3.036 -2.0571  1.7400 -1.9571
 2839SOL    HW219977   0.540   2.515   2.961  0.0368  0.6405  0.9500
 2840SOL     OW19978   2.358   0.970  16.660 -0.5717 -0.2048 -0.5958
 2840SOL    HW119979   2.439   1.022  16.655  1.2422 -2.7653  2.1246
 2840SOL    HW219980   2.372   0.934  16.748  0.0376 -0.8732 -0.9618
 2841SOL     OW19981   1.735   1.149   3.974 -0.3848  0.1437  1.0822
 2841SOL    HW119982   1.825   1.159   4.004  0.3766 -1.9946 -0.5048
 2841SOL    HW219983   1.722   1.232   3.929  1.5332  0.4472  1.0857
 2842SOL     OW19984   1.143   2.221  11.287  0.0602  0.3038  0.2721
 2842SOL    HW119985   1.085   2.153  11.323  2.3465 -1.2213  1.0506
 2842SOL    HW219986   1.219   2.180  11.329 -1.6471 -2.3276  0.8371
 2843SOL     OW19987   1.599   2.329   5.012  0.3794 -0.4295 -0.0721
 2843SOL    HW119988   1.508   2.346   4.989  0.0098 -2.8479 -0.4502
 2843SOL    HW219989   1.641   2.355   4.930 -0.3785  0.6104 -0.1227
 2844SOL     OW19990   0.297   3.796   6.806 -0.0318 -0.0480 -0.1461
 2844SOL    HW119991   0.206   3.795   6.835  0.2154 -0.2208  0.6066
 2844SOL    HW219992   0.343   3.806   6.889  0.2691 -1.1534 -0.1787
 2845SOL     OW19993   4.492   0.027  15.218  0.1100 -0.0793 -0.1354
 2845SOL    HW119994   4.491   0.054  15.309 -5.0873  0.1039 -0.2484
 2845SOL    HW219995   4.464   0.110  15.178 -0.5275 -0.1543  0.1469
 2846SOL     OW19996   0.110   2.775   0.215  0.0550 -0.6517  0.2210
 2846SOL    HW119997   0.186   2.717   0.223 -0.2836 -1.1795 -0.4222
 2846SOL    HW219998   0.148   2.856   0.248 -0.3120 -0.2322 -0.3700
 2847SOL     OW19999   0.311   3.354   3.920  0.0423  0.3097 -0.1498
 2847SOL    HW120000   0.401   3.361   3.888  0.1317  0.4020  0.1284
 2847SOL    HW220001   0.329   3.315   4.005  0.4638 -1.4957 -1.0788
 2848SOL     OW20002   3.318   3.931  13.046  0.2980 -0.1733 -0.3839
 2848SOL    HW120003   3.266   3.966  12.974  0.6307  1.6058  0.2451
 2848SOL    HW220004   3.253   3.915  13.114 -1.3455 -1.1280 -2.1887
 2849SOL     OW20005   3.341   0.721   0.935  0.0986 -0.7945 -1.0782
 2849SOL    HW120006   3.308   0.631   0.935  1.2607 -1.2293 -2.0882
 2849SOL    HW220007   3.378   0.725   0.846  0.7392  1.3282 -0.7277
 2850SOL     OW20008   3.765   3.912   6.574  0.3627  0.0018 -0.0061
 2850SOL    HW120009   3.805   3.826   6.586 -0.9980 -1.1951 -4.1015
 2850SOL    HW220010   3.709   3.888   6.500  1.4323 -0.7512 -0.5735
 2851SOL     OW20011   3.755   2.140   8.675 -0.2499  0.5907  0.5913
 2851SOL    HW120012   3.794   2.059   8.707  1.4842  0.1900 -2.5211
 2851SOL    HW220013   3.781   2.137   8.582 -0.0461  1.1491  0.6332
 2852SOL     OW20014   3.355   4.328   4.400 -0.1498  0.4354 -0.7628
 2852SOL    HW120015   3.343   4.259   4.464  0.9566  1.6613  0.7638
 2852SOL    HW220016   3.292   4.310   4.330 -0.1384 -0.9540 -0.3966
 2853SOL     OW20017   0.529   2.245  10.041  0.2116 -0.0239  0.1446
 2853SOL    HW120018   0.612   2.289  10.057  0.6802 -1.0322  0.5363
 2853SOL    HW220019   0.534   2.218   9.949 -2.8345  0.3333 -0.1166
 2854SOL     OW20020   2.274   3.089   3.569  0.4494  0.5293 -0.4260
 2854SOL    HW120021   2.200   3.048   3.523  0.7713 -0.7778  0.2098
 2854SOL    HW220022   2.302   3.159   3.510  0.3736 -0.1911 -1.3220
 2855SOL     OW20023   0.304   3.589   7.464  0.2837  0.3319  0.1886
 2855SOL    HW120024   0.289   3.637   7.545 -1.8466  0.0055 -0.0059
 2855SOL    HW220025   0.221   3.601   7.419 -0.0616 -0.1578  0.6824
 2856SOL     OW20026   3.338   0.282   0.496 -0.5708 -0.3497  0.1186
 2856SOL    HW120027   3.375   0.367   0.472 -3.1626  0.9010  0.5343
 2856SOL    HW220028   3.333   0.236   0.413  0.7282 -0.8586  0.3268
 2857SOL     OW20029   0.751   3.670   5.763 -0.4075 -0.1687 -0.2518
 2857SOL    HW120030   0.705   3.625   5.692  0.2432 -0.4074 -0.5276
 2857SOL    HW220031   0.700   3.750   5.769  2.6785  1.8794 -1.2585
 2858SOL     OW20032   1.789   0.514   5.180  0.0749  0.0157 -0.9322
 2858SOL    HW120033   1.860   0.487   5.238 -0.3640 -0.7790 -0.7676
 2858SOL    HW220034   1.796   0.603   5.215  3.4255  0.1115 -1.8890
 2859SOL     OW20035   2.588   1.835  11.235 -0.2719  0.7560 -0.3606
 2859SOL    HW120036   2.515   1.778  11.211 -0.7917  1.0226  0.5850
 2859SOL    HW220037   2.580   1.841  11.330  0.8289 -1.0701 -0.1565
 2860SOL     OW20038   0.081   2.795   5.740  0.1621 -0.5026  0.6583
 2860SOL    HW120039   0.116   2.707   5.728  1.6993  0.3722 -1.2097
 2860SOL    HW220040   0.142   2.817   5.810  1.5059 -1.3378 -0.2654
 2861SOL     OW20041   1.948   0.655   6.976  0.1494 -0.4019 -0.0433
 2861SOL    HW120042   1.939   0.645   7.070 -0.8822  0.5147 -0.0482
 2861SOL    HW220043   2.007   0.581   6.960 -0.4766 -1.1940  1.2968
 2862SOL     OW20044   1.034   4.270   9.624  0.1345 -0.1923 -0.4000
 2862SOL    HW120045   1.077   4.355   9.633 -1.8751  0.5574  2.3069
 2862SOL    HW220046   0.943   4.292   9.606 -0.1153 -0.3974  0.5940
 2863SOL     OW20047   0.544   1.574   8.950  0.0226 -0.1600  0.3251
 2863SOL    HW120048   0.557   1.486   8.983 -0.8268 -0.3123  0.2602
 2863SOL    HW220049   0.636   1.599   8.948 -0.3343  1.0526 -0.9968
 2864SOL     OW20050   3.393   3.662  11.670 -0.5802 -0.2870 -0.5611
 2864SOL    HW120051   3.371   3.572  11.696 -1.5447 -0.3794 -1.7096
 2864SOL    HW220052   3.488   3.649  11.669 -0.4902  0.1331  1.5061
 2865SOL     OW20053   3.670   4.280   9.298 -0.1618 -0.0025  0.2985
 2865SOL    HW120054   3.603   4.349   9.297 -0.7639 -0.6419 -1.6099
 2865SOL    HW220055   3.636   4.219   9.364  0.5435 -0.9785 -0.2478
 2866SOL     OW20056   4.095   1.709   4.054  0.2687  0.5493 -0.2230
 2866SOL    HW120057   4.050   1.627   4.034 -0.8430  0.9663  0.5665
 2866SOL    HW220058   4.164   1.706   3.987  2.1242 -0.2818  1.7438
 2867SOL     OW20059   3.281   3.391   7.787  0.2373  0.3593 -0.0520
 2867SOL    HW120060   3.301   3.422   7.876  0.7894 -0.2063  0.0286
 2867SOL    HW220061   3.271   3.478   7.749  4.7543  0.7590 -0.3654
 2868SOL     OW20062   0.156   4.048   3.464  0.2979  0.9315 -0.2557
 2868SOL    HW120063   0.112   4.118   3.415 -0.1711 -1.1743 -2.8477
 2868SOL    HW220064   0.244   4.087   3.460  0.7884 -0.0282  1.3113
 2869SOL     OW20065   1.507   2.269   3.497 -0.1070 -0.1674 -0.2428
 2869SOL    HW120066   1.597   2.237   3.496 -0.5711 -1.4303 -1.1971
 2869SOL    HW220067   1.454   2.217   3.436  1.4937 -0.3557 -1.4592
 2870SOL     OW20068   0.071   1.531  15.192  0.0266  0.1561  0.0929
 2870SOL    HW120069   0.112   1.480  15.122 -2.3223 -1.9895  0.2858
 2870SOL    HW220070   4.703   1.535  15.172 -0.5432 -3.0983  1.9659
 2871SOL     OW20071   4.655   0.556  11.625 -0.0679 -0.6858 -0.5944
 2871SOL    HW120072   4.639   0.586  11.715  1.5025  1.2090 -0.9555
 2871SOL    HW220073   4.691   0.474  11.657  1.3600  0.1329 -0.1055
 2872SOL     OW20074   0.575   2.421   1.001 -0.0913  0.0543  0.2855
 2872SOL    HW120075   0.494   2.470   1.017 -1.2426 -0.9821 -2.1547
 2872SOL    HW220076   0.637   2.487   1.030 -0.2589  0.1404  0.4429
 2873SOL     OW20077   0.828   4.420   8.327 -0.3035  0.3776  0.1420
 2873SOL    HW120078   0.757   4.393   8.386 -0.9017  2.1407  0.2272
 2873SOL    HW220079   0.817   4.354   8.259  0.4544 -1.2262  1.5783
 2874SOL     OW20080   0.192   0.539  15.132  0.5553  0.0658 -0.4126
 2874SOL    HW120081   0.276   0.520  15.173 -0.4228 -1.4286  0.8853
 2874SOL    HW220082   0.147   0.454  15.125 -1.5321  1.3713 -2.8453
 2875SOL     OW20083   4.040   2.913  12.939 -0.0704  0.1633 -0.6455
 2875SOL    HW120084   3.996   2.880  12.861  0.0725  1.2213 -1.1794
 2875SOL    HW220085   4.041   3.004  12.909 -1.1282  0.3040 -0.2636
 2876SOL     OW20086   0.550   2.102   8.587 -0.7795 -0.2772 -0.2853
 2876SOL    HW120087   0.587   2.191   8.589  2.7346 -1.8089  2.6921
 2876SOL    HW220088   0.589   2.078   8.504  1.4766  0.1375  0.6432
 2877SOL     OW20089   4.160   3.030   7.953 -0.3108  0.0602 -0.6633
 2877SOL    HW120090   4.244   2.998   7.922 -0.5024  2.0585 -3.2764
 2877SOL    HW220091   4.100   3.000   7.884 -1.8905  1.2141  0.1903
 2878SOL     OW20092   4.543   3.674   6.376 -0.2813  0.0528 -0.2931
 2878SOL    HW120093   4.520   3.756   6.332  1.2374 -0.5487 -2.1945
 2878SOL    HW220094   4.500   3.601   6.332  1.4332 -1.3614  0.4167
 2879SOL     OW20095   4.524   1.535   6.008 -0.5938  0.0283 -0.0568
 2879SOL    HW120096   4.609   1.492   5.997 -0.3637  0.3445  0.4577
 2879SOL    HW220097   4.517   1.501   6.097 -2.0252 -1.4598 -0.7339
 2880SOL     OW20098   1.148   3.568   0.298  0.0505  0.2783  0.2556
 2880SOL    HW120099   1.165   3.486   0.343 -0.4767  0.5730  0.9903
 2880SOL    HW220100   1.228   3.614   0.324  0.6768 -0.4046 -0.4914
 2881SOL     OW20101   1.467   0.880   8.926 -0.0093 -0.2213  0.0543
 2881SOL    HW120102   1.547   0.890   8.875 -0.9336 -1.5977 -1.6635
 2881SOL    HW220103   1.506   0.843   9.006 -0.2541 -1.2281 -0.2992
 2882SOL     OW20104   2.867   0.854  15.140  0.4575  0.5133 -0.0806
 2882SOL    HW120105   2.878   0.937  15.095  2.6811 -0.4708 -1.3722
 2882SOL    HW220106   2.901   0.874  15.227  0.8055  0.7041 -0.2637
 2883SOL     OW20107   2.372   3.353   0.424  0.8642  0.1798 -0.2305
 2883SOL    HW120108   2.375   3.258   0.426 -2.2134  0.1158  0.7937
 2883SOL    HW220109   2.361   3.383   0.333 -0.4074 -1.8277 -0.7292
 2884SOL     OW20110   0.067   1.302   8.657 -0.5930  0.3020  0.7420
 2884SOL    HW120111   0.098   1.352   8.581  2.6918 -2.1930  0.4498
 2884SOL    HW220112   0.126   1.338   8.723  1.7381 -1.1196 -0.5520
 2885SOL     OW20113   1.366   3.693   4.678 -0.0702  0.2323  0.2450
 2885SOL    HW120114   1.341   3.634   4.608 -0.7307  0.4576  0.2959
 2885SOL    HW220115   1.348   3.777   4.636  1.1953 -0.5176 -1.7758
 2886SOL     OW20116   2.096   4.170   3.377  0.2515  0.5471 -0.2007
 2886SOL    HW120117   2.136   4.197   3.460  1.7249  0.1353 -0.7930
 2886SOL    HW220118   2.011   4.215   3.378 -1.3851 -2.5114 -0.8431
 2887SOL     OW20119   0.617   4.400   2.880  0.3754 -0.1021  0.3290
 2887SOL    HW120120   0.709   4.399   2.907  0.4314  4.2567  0.2841
 2887SOL    HW220121   0.601   4.308   2.859  1.6559  0.1241 -1.6189
 2888SOL     OW20122   2.270   2.170   8.499  0.1387 -0.0068  0.2436
 2888SOL    HW120123   2.192   2.202   8.454 -0.0634 -0.5309  0.2311
 2888SOL    HW220124   2.332   2.177   8.426  0.7726 -1.4132  0.6339
 2889SOL     OW20125   0.166   3.673   2.847  0.4954 -0.3005 -0.2813
 2889SOL    HW120126   0.247   3.674   2.797  0.7060 -2.1404  0.0311
 2889SOL    HW220127   0.102   3.611   2.813  1.1785 -0.2100 -1.7431
 2890SOL     OW20128   3.885   0.890  10.112  0.7336  0.7840 -0.1233
 2890SOL    HW120129   3.826   0.838  10.058  1.8435 -1.8661  1.2484
 2890SOL    HW220130   3.856   0.888  10.203 -1.1288  1.3447 -0.7110
 2891SOL     OW20131   4.338   1.135   3.477 -0.4334  0.5214  0.3509
 2891SOL    HW120132   4.383   1.052   3.483  1.5437  1.7930  2.8742
 2891SOL    HW220133   4.408   1.199   3.490 -0.9870  1.0601  0.7162
 2892SOL     OW20134   3.087   1.682  15.737 -0.2164 -0.4631  0.1753
 2892SOL    HW120135   3.133   1.676  15.821 -0.4590  2.2539  0.4844
 2892SOL    HW220136   3.158   1.666  15.675  0.1380 -2.3991  1.0715
 2893SOL     OW20137   0.518   1.326   8.785  0.3343  0.1333 -0.0664
 2893SOL    HW120138   0.427   1.353   8.797  0.4898  0.7806 -0.3487
 2893SOL    HW220139   0.529   1.280   8.869  0.9796 -0.9292 -0.7317
 2894SOL     OW20140   1.672   4.272  11.980 -0.8722  0.3087  0.6890
 2894SOL    HW120141   1.662   4.178  11.968  1.1087  0.1333  0.3995
 2894SOL    HW220142   1.616   4.297  11.906 -0.5554 -0.1760  0.2909
 2895SOL     OW20143   4.080   0.891   8.410 -0.0266  0.2134  1.0458
 2895SOL    HW120144   4.161   0.867   8.454 -0.0772 -1.6344  0.1402
 2895SOL    HW220145   4.090   0.839   8.330 -1.2223  2.0014 -0.2947
 2896SOL     OW20146   3.525   1.280   2.385  0.9973  0.1008  0.4715
 2896SOL    HW120147   3.608   1.235   2.370  0.1067 -0.9615 -1.3658
 2896SOL    HW220148   3.482   1.275   2.299  0.3127  1.3630  0.7322
 2897SOL     OW20149   2.693   2.482   5.251  0.0404  0.4676  0.2752
 2897SOL    HW120150   2.745   2.415   5.207 -0.5116 -0.0995  0.4825
 2897SOL    HW220151   2.713   2.557   5.194  2.5069 -0.3762  0.0298
 2898SOL     OW20152   4.546   2.396   1.327  0.3005 -0.0161 -0.4564
 2898SOL    HW120153   4.478   2.369   1.266  0.9834 -0.1445 -1.1756
 2898SOL    HW220154   4.567   2.313   1.370 -1.9436  0.3799  1.4000
 2899SOL     OW20155   4.626   2.063   1.723  0.6052 -1.0451 -0.1031
 2899SOL    HW120156   4.705   2.013   1.747  0.8185 -0.0580  1.2432
 2899SOL    HW220157   4.603   2.111   1.803 -1.1801 -1.8994 -0.1154
 2900SOL     OW20158   1.407   4.063  10.261  0.3473 -0.1253  0.9998
 2900SOL    HW120159   1.425   3.977  10.300  0.7881  0.3232  1.7570
 2900SOL    HW220160   1.466   4.059  10.186 -0.2703  0.1908  0.4930
 2901SOL     OW20161   3.866   2.049   4.712  0.5361  0.2935  0.3233
 2901SOL    HW120162   3.885   1.994   4.636  0.1532  1.1792 -0.4076
 2901SOL    HW220163   3.879   1.994   4.789 -0.9967  2.2162  1.9403
 2902SOL     OW20164   4.286   4.331   1.347  0.3588 -0.0077  0.2533
 2902SOL    HW120165   4.302   4.263   1.282  1.3775 -2.2018  2.8145
 2902SOL    HW220166   4.341   4.397   1.304 -0.2149 -0.7932 -1.6968
 2903SOL     OW20167   4.067   4.022   5.325 -0.4562 -0.0018 -0.5216
 2903SOL    HW120168   4.095   3.945   5.376 -0.1822  1.1749  1.1227
 2903SOL    HW220169   4.017   4.067   5.394 -0.7080 -1.2349  0.1032
 2904SOL     OW20170   1.687   1.938  12.491  0.0600  0.0704 -0.3915
 2904SOL    HW120171   1.633   1.889  12.429 -0.5595  3.3973 -2.5019
 2904SOL    HW220172   1.660   1.897  12.573  0.8219 -0.2460 -0.3047
 2905SOL     OW20173   0.356   0.789   2.833  0.0959 -0.5466  0.1520
 2905SOL    HW120174   0.313   0.758   2.913 -0.9255  0.0255 -0.1703
 2905SOL    HW220175   0.404   0.712   2.802 -0.7084 -1.7509  1.9082
 2906SOL     OW20176   1.470   3.784   6.001  0.6916 -0.2634 -0.1606
 2906SOL    HW120177   1.465   3.874   5.968 -2.6870 -0.5394 -0.4010
 2906SOL    HW220178   1.433   3.796   6.089  1.6385 -1.5589  0.4147
 2907SOL     OW20179   1.016   3.592   2.391  0.4666  0.4634  0.2922
 2907SOL    HW120180   1.007   3.516   2.449 -0.0771  0.2524 -0.0697
 2907SOL    HW220181   0.942   3.578   2.332  0.5710  0.1451  0.2346
 2908SOL     OW20182   2.333   4.546  16.511 -0.1380 -0.2975  0.6487
 2908SOL    HW120183   2.330   4.524  16.419 -4.0418  2.2495  0.1753
 2908SOL    HW220184   2.265   4.495  16.555 -0.3072  2.1122  3.2048
 2909SOL     OW20185   3.820   2.513   4.498  0.4465  0.1234 -0.0576
 2909SOL    HW120186   3.738   2.549   4.532 -0.5827 -1.1075 -1.2498
 2909SOL    HW220187   3.814   2.418   4.502  0.7122  0.1552  1.0033
 2910SOL     OW20188   3.894   1.545   5.744  0.1375 -0.0236  0.2904
 2910SOL    HW120189   3.963   1.593   5.698  0.3348  1.0528  1.7203
 2910SOL    HW220190   3.931   1.457   5.753 -0.2809 -0.1068  1.1948
 2911SOL     OW20191   1.861   4.402   7.306 -0.1132  0.1719 -0.5529
 2911SOL    HW120192   1.860   4.339   7.234 -0.2745 -0.0419 -0.3631
 2911SOL    HW220193   1.912   4.475   7.270  0.5125 -0.7151 -1.4607
 2912SOL     OW20194   4.503   1.355  14.784 -0.2697 -0.5146 -0.1673
 2912SOL    HW120195   4.566   1.422  14.757 -0.2987 -1.5033 -2.6501
 2912SOL    HW220196   4.554   1.275  14.775 -1.5843 -1.3976  0.1134
 2913SOL     OW20197   2.744   0.246  11.474 -0.0476  0.6825 -0.4927
 2913SOL    HW120198   2.759   0.305  11.400  0.8478 -0.0338 -0.8946
 2913SOL    HW220199   2.742   0.160  11.432  1.5779  1.0849 -1.4149
 2914SOL     OW20200   1.276   4.404   6.114 -0.4687  0.2176  0.1699
 2914SOL    HW120201   1.219   4.327   6.117 -0.2383  0.0236 -0.3330
 2914SOL    HW220202   1.275   4.424   6.020  1.7915 -1.3979 -0.2048
 2915SOL     OW20203   0.293   2.058   7.745 -0.9420 -0.2250 -0.4428
 2915SOL    HW120204   0.214   2.082   7.793 -0.7454 -1.0691  0.2971
 2915SOL    HW220205   0.314   1.973   7.783 -1.2194 -0.5558 -1.0231
 2916SOL     OW20206   1.163   4.278  14.014  0.3518 -0.1303 -0.4565
 2916SOL    HW120207   1.137   4.349  14.072 -0.9447 -1.7487  0.9285
 2916SOL    HW220208   1.087   4.252  13.962 -0.8761 -0.5491  1.5699
 2917SOL     OW20209   1.500   1.267   9.014 -0.1624 -0.3579 -0.6980
 2917SOL    HW120210   1.423   1.235   8.967 -0.1641 -0.8921 -0.3315
 2917SOL    HW220211   1.552   1.286   8.936  0.4529  0.0933 -0.1763
 2918SOL     OW20212   0.006   4.454   5.043  0.2722 -0.6883 -0.4306
 2918SOL    HW120213   0.046   4.458   4.956  1.8755 -0.1806  0.3284
 2918SOL    HW220214   0.083   4.455   5.099  0.9753  0.4556 -1.4124
 2919SOL     OW20215   3.756   0.240   0.321 -0.0856  0.0711 -0.1124
 2919SOL    HW120216   3.721   0.305   0.381 -0.0731  0.0636 -0.0969
 2919SOL    HW220217   3.715   0.157   0.346 -1.6141  1.4152  1.8037
 2920SOL     OW20218   1.455   0.384  13.331 -0.3538 -0.1332 -0.0100
 2920SOL    HW120219   1.440   0.477  13.347  0.7656  0.0578 -0.0320
 2920SOL    HW220220   1.454   0.385  13.235 -0.2092 -0.8641 -0.0201
 2921SOL     OW20221   3.415   1.723   5.817  0.2856 -0.1727  0.0956
 2921SOL    HW120222   3.442   1.812   5.797 -0.8570  0.6666  2.2282
 2921SOL    HW220223   3.498   1.676   5.813  1.1378  1.3658 -0.1583
 2922SOL     OW20224   3.736   0.905   5.314  1.0872 -0.0750 -0.6148
 2922SOL    HW120225   3.692   0.988   5.332  0.0878 -0.7104 -0.0946
 2922SOL    HW220226   3.732   0.858   5.397 -3.0101  2.6486  0.7379
 2923SOL     OW20227   2.353   1.384   6.927  0.4947 -0.2109  0.2279
 2923SOL    HW120228   2.436   1.337   6.932  0.0633 -1.0726 -0.7853
 2923SOL    HW220229   2.289   1.331   6.879 -1.4470 -1.0210  3.6848
 2924SOL     OW20230   1.847   1.643   5.965 -0.4691 -0.1656 -0.8849
 2924SOL    HW120231   1.765   1.605   5.932 -1.7095  2.1849 -0.5657
 2924SOL    HW220232   1.830   1.686   6.049  1.5950 -0.4042 -0.3605
 2925SOL     OW20233   3.007   2.552   3.524 -0.0572  0.1982 -0.2815
 2925SOL    HW120234   3.083   2.494   3.523  1.7088  2.5519 -3.6184
 2925SOL    HW220235   2.943   2.485   3.502 -0.0795  0.0773  0.1497
 2926SOL     OW20236   2.850   3.033   4.289  0.9824  0.4652  0.1645
 2926SOL    HW120237   2.782   3.079   4.239 -0.0839  2.0797  3.0655
 2926SOL    HW220238   2.919   3.099   4.292  1.8395 -0.3771 -0.9777
 2927SOL     OW20239   1.858   0.983   6.586  0.1278  0.1186 -0.1841
 2927SOL    HW120240   1.801   1.060   6.583 -1.4793 -1.0299  1.5320
 2927SOL    HW220241   1.820   0.939   6.510  1.2764  2.1447 -1.9576
 2928SOL     OW20242   3.296   2.958   2.609 -0.2111 -0.4378  0.2612
 2928SOL    HW120243   3.264   2.988   2.524 -1.9050 -0.9709  0.7050
 2928SOL    HW220244   3.268   3.037   2.656 -0.3976 -0.5845  0.3937
 2929SOL     OW20245   3.148   3.148  11.914 -0.3669 -0.0335 -0.2936
 2929SOL    HW120246   3.228   3.135  11.965 -0.3690  0.4573 -0.1652
 2929SOL    HW220247   3.122   3.058  11.898 -2.0917  0.8010 -2.0690
 2930SOL     OW20248   0.114   0.636   8.530  0.2325 -0.1391 -0.2074
 2930SOL    HW120249   0.191   0.597   8.489  0.8204  0.1415  0.6308
 2930SOL    HW220250   0.147   0.684   8.605 -0.9992  1.0779 -0.4430
 2931SOL     OW20251   3.758   0.386   3.710 -0.1468 -0.6860 -0.3050
 2931SOL    HW120252   3.689   0.332   3.747  0.7034 -2.5073 -1.3643
 2931SOL    HW220253   3.838   0.334   3.701 -0.5370 -0.6807 -3.6832
 2932SOL     OW20254   3.261   0.553   9.132  0.3220  0.3890  0.7896
 2932SOL    HW120255   3.179   0.514   9.161  0.6761 -0.9124  0.0123
 2932SOL    HW220256   3.231   0.610   9.061  1.0300 -0.7454 -0.4017
 2933SOL     OW20257   1.945   4.302   1.992 -0.1102  0.4132  0.9313
 2933SOL    HW120258   2.006   4.228   1.994 -2.2018 -1.3547 -0.2645
 2933SOL    HW220259   1.869   4.266   1.946  0.3844  0.9554 -0.3037
 2934SOL     OW20260   4.354   2.395   2.875 -0.3499 -0.0145 -0.2171
 2934SOL    HW120261   4.323   2.382   2.786 -0.3816  1.8868 -0.5014
 2934SOL    HW220262   4.293   2.460   2.910  0.1491 -1.4321  3.2511
 2935SOL     OW20263   0.782   1.050   3.469 -0.7156  0.1766  0.1626
 2935SOL    HW120264   0.747   1.032   3.382 -0.0020 -1.9936  0.3263
 2935SOL    HW220265   0.734   0.984   3.519 -0.5320 -0.9058 -1.1090
 2936SOL     OW20266   2.674   1.590   3.416 -0.2955 -0.6716 -0.5689
 2936SOL    HW120267   2.651   1.575   3.324  0.0897  0.3054 -0.8192
 2936SOL    HW220268   2.618   1.667   3.430  1.3963  0.4705 -0.1377
 2937SOL     OW20269   1.098   3.808   7.703  0.2431 -0.2790 -0.6299
 2937SOL    HW120270   1.028   3.752   7.735 -0.5320  0.8219 -0.4066
 2937SOL    HW220271   1.129   3.758   7.628 -0.0285 -3.1535  1.1928
 2938SOL     OW20272   0.729   1.849  13.212  0.3307  0.1241  0.3277
 2938SOL    HW120273   0.649   1.837  13.262  1.3091  1.2023  2.1666
 2938SOL    HW220274   0.781   1.910  13.265 -0.1926 -0.2736  1.2972
 2939SOL     OW20275   1.418   4.610  16.347  0.4078  0.2480 -0.5786
 2939SOL    HW120276   1.404   4.672  16.419 -2.6712 -0.1827 -0.8169
 2939SOL    HW220277   1.513   4.619  16.338  0.4778  0.7456  0.7069
 2940SOL     OW20278   0.865   2.213   9.266 -0.0767 -0.7109 -0.5418
 2940SOL    HW120279   0.870   2.307   9.282  0.5148 -0.8024 -0.1901
 2940SOL    HW220280   0.781   2.196   9.223  0.0515  0.5972 -1.3014
 2941SOL     OW20281   3.795   0.673   9.203 -0.2905  0.1066  0.2071
 2941SOL    HW120282   3.875   0.634   9.238 -0.4718  2.3863  3.1353
 2941SOL    HW220283   3.748   0.686   9.286 -1.3496  0.4284 -0.4355
 2942SOL     OW20284   3.429   3.106   7.118 -0.2827  0.7095 -0.9279
 2942SOL    HW120285   3.437   3.020   7.077  0.9873 -0.6665  2.1877
 2942SOL    HW220286   3.352   3.133   7.068  0.1888 -0.1226 -2.1011
 2943SOL     OW20287   3.433   0.793   4.356  0.5023 -0.3799  0.0372
 2943SOL    HW120288   3.487   0.818   4.431  0.1977 -1.1743  0.5312
 2943SOL    HW220289   3.417   0.700   4.374 -1.5933 -0.4838 -2.3658
 2944SOL     OW20290   4.092   2.759   7.121 -0.3742  0.3701 -1.1659
 2944SOL    HW120291   3.998   2.770   7.105 -0.5442 -2.4559 -2.0774
 2944SOL    HW220292   4.092   2.808   7.203  2.2392  0.0980 -1.0257
 2945SOL     OW20293   3.733   2.980   6.569  0.1120 -0.3641 -0.1661
 2945SOL    HW120294   3.693   2.904   6.612  4.6448 -2.4961  0.2999
 2945SOL    HW220295   3.667   2.998   6.501 -1.2635  1.0100  1.5209
 2946SOL     OW20296   3.659   4.017   7.471  0.2485  0.4861  0.1852
 2946SOL    HW120297   3.709   4.098   7.465 -0.8641  1.0451 -1.4474
 2946SOL    HW220298   3.648   3.986   7.381  0.6273  0.0546  0.2872
 2947SOL     OW20299   0.748   0.721  15.435 -0.4466 -0.0347 -0.2370
 2947SOL    HW120300   0.786   0.797  15.480  0.1469 -0.6501  0.2919
 2947SOL    HW220301   0.805   0.730  15.359  0.7135  0.0020  0.6419
 2948SOL     OW20302   3.616   2.920   6.068 -0.3953  0.4121  0.0545
 2948SOL    HW120303   3.690   2.963   6.025 -2.1528  2.0300 -1.3483
 2948SOL    HW220304   3.552   2.901   6.000  1.5040 -0.3672 -1.5127
 2949SOL     OW20305   3.081   3.375   3.407  0.2807 -0.2352 -0.4432
 2949SOL    HW120306   3.047   3.295   3.368  0.7926 -0.4114 -0.5293
 2949SOL    HW220307   3.057   3.358   3.498  0.9407  3.0370  0.3525
 2950SOL     OW20308   0.545   4.156   2.785 -0.1401  0.3810 -0.0671
 2950SOL    HW120309   0.489   4.166   2.708  2.7131 -1.1514 -2.3601
 2950SOL    HW220310   0.605   4.084   2.764 -2.4796 -1.3003 -1.0260
 2951SOL     OW20311   1.953   3.455   9.318 -0.7509  0.1340 -0.1157
 2951SOL    HW120312   1.926   3.495   9.401  1.1277 -2.2600  1.6569
 2951SOL    HW220313   2.009   3.515   9.270  0.2299  0.2282  1.1559
 2952SOL     OW20314   1.149   3.867   2.724  0.0603  0.0484 -0.5958
 2952SOL    HW120315   1.066   3.914   2.736  0.3549 -0.2135  2.4671
 2952SOL    HW220316   1.123   3.775   2.732 -0.1982  0.0372 -1.5366
 2953SOL     OW20317   1.879   3.358  10.139 -0.2840  0.6170 -0.3518
 2953SOL    HW120318   1.931   3.278  10.151 -0.2861  0.4345 -1.5805
 2953SOL    HW220319   1.903   3.403  10.220  0.3336  1.7170 -1.1522
 2954SOL     OW20320   4.597   3.545   2.440  0.0755  0.3706 -0.4304
 2954SOL    HW120321   4.560   3.594   2.513 -2.3380  0.6748 -1.8609
 2954SOL    HW220322   4.691   3.548   2.457  0.2004  0.3420 -1.1268
 2955SOL     OW20323   2.897   0.821   7.349 -0.1759  0.5903 -0.2942
 2955SOL    HW120324   2.982   0.845   7.314 -1.9892  1.1548 -4.2708
 2955SOL    HW220325   2.869   0.781   7.267 -1.6101 -0.4255  0.6766
 2956SOL     OW20326   0.517   1.768   1.236 -0.0376 -0.1591 -0.1226
 2956SOL    HW120327   0.600   1.756   1.283  0.5385  0.6687 -0.9214
 2956SOL    HW220328   0.498   1.684   1.195 -2.2192  0.2896 -0.0085
 2957SOL     OW20329   2.135   3.313   6.615  0.3793 -0.0081  0.0512
 2957SOL    HW120330   2.048   3.272   6.608  0.4617 -0.7035  3.0278
 2957SOL    HW220331   2.117   3.385   6.555 -0.7184  0.6968  1.2290
 2958SOL     OW20332   1.094   0.426  10.768  0.5423 -0.0622 -0.3356
 2958SOL    HW120333   1.059   0.498  10.820  2.5868  0.0412  0.9144
 2958SOL    HW220334   1.037   0.355  10.796  1.5669  0.3667  2.7843
 2959SOL     OW20335   1.754   0.507   6.721  0.0218  0.1537  0.1061
 2959SOL    HW120336   1.691   0.464   6.664 -0.5331  0.3238  0.5863
 2959SOL    HW220337   1.816   0.545   6.658  0.4432 -0.3877  0.2007
 2960SOL     OW20338   3.834   1.120   1.176 -0.0065 -0.4696  0.0102
 2960SOL    HW120339   3.750   1.094   1.215  0.2634  0.2742  1.0756
 2960SOL    HW220340   3.883   1.039   1.160  2.5039  0.6852  1.8487
 2961SOL     OW20341   2.281   3.415   0.174 -0.0578  0.1351 -0.9354
 2961SOL    HW120342   2.189   3.410   0.150 -0.8675 -0.4798  2.2930
 2961SOL    HW220343   2.306   3.503   0.145  3.3241 -0.7607 -0.7577
 2962SOL     OW20344   2.264   2.360   2.005  0.2073 -0.2663  0.1614
 2962SOL    HW120345   2.274   2.432   1.943 -2.5891  0.6372  0.7979
 2962SOL    HW220346   2.358   2.349   2.020  0.1726 -0.1097  0.4767
 2963SOL     OW20347   4.588   1.106   1.351 -0.1028  0.0749  0.1422
 2963SOL    HW120348   4.682   1.094   1.361 -0.2021  1.4052  2.7070
 2963SOL    HW220349   4.562   1.119   1.442 -0.4136  1.7007 -0.1759
 2964SOL     OW20350   4.023   0.541  10.476 -0.7912  0.2796 -0.8481
 2964SOL    HW120351   3.982   0.599  10.541  2.1364  1.3851  0.0279
 2964SOL    HW220352   3.952   0.482  10.451 -1.1134  0.1226  0.4472
 2965SOL     OW20353   1.716   3.807   1.528 -0.0788 -0.7967 -0.5395
 2965SOL    HW120354   1.667   3.805   1.610 -0.0180  1.7276 -0.4265
 2965SOL    HW220355   1.673   3.748   1.466 -1.5068  0.0613 -0.3644
 2966SOL     OW20356   3.512   2.905   5.215  0.5674  0.7330 -0.0873
 2966SOL    HW120357   3.428   2.920   5.258  0.2490 -3.8695  0.8902
 2966SOL    HW220358   3.478   2.919   5.127 -0.0062  0.8951  0.1618
 2967SOL     OW20359   2.369   3.091   9.847  0.3523  0.1053 -0.2707
 2967SOL    HW120360   2.408   3.147   9.914 -0.0688  2.5997 -2.0681
 2967SOL    HW220361   2.385   3.155   9.776 -0.1123  1.5048  0.8922
 2968SOL     OW20362   4.042   3.219   3.957 -0.3218 -0.0802 -0.3730
 2968SOL    HW120363   3.962   3.237   4.006 -1.2028 -1.3836 -1.3233
 2968SOL    HW220364   4.058   3.309   3.930  2.5339 -0.7603 -0.9849
 2969SOL     OW20365   0.052   3.897   8.950 -0.0471  0.1483 -0.3440
 2969SOL    HW120366   0.112   3.832   8.913 -0.1693 -1.0558  1.5883
 2969SOL    HW220367   4.691   3.862   8.930  1.7251 -3.3822 -1.7967
 2970SOL     OW20368   2.895   1.701   2.361 -0.4905 -0.0907 -0.1071
 2970SOL    HW120369   2.909   1.616   2.403 -2.8426 -0.8538 -0.8749
 2970SOL    HW220370   2.848   1.736   2.437 -1.9251 -1.5658 -0.3184
 2971SOL     OW20371   1.037   2.419  10.484  0.0217 -0.6110  0.3276
 2971SOL    HW120372   1.122   2.450  10.515  0.6546 -2.1764  0.1823
 2971SOL    HW220373   1.044   2.413  10.389  1.9076 -0.8474  0.4760
 2972SOL     OW20374   1.522   4.106   3.043 -0.2165  0.2314  0.1973
 2972SOL    HW120375   1.446   4.105   2.985 -1.0254 -0.0322  1.2610
 2972SOL    HW220376   1.595   4.081   2.988 -0.5439 -0.7854  0.2346
 2973SOL     OW20377   2.747   2.560   7.325  0.4846  0.0515  0.5097
 2973SOL    HW120378   2.722   2.468   7.329  0.1381  0.0229 -2.2851
 2973SOL    HW220379   2.676   2.608   7.366  0.7396  2.3913 -1.7482
 2974SOL     OW20380   0.321   0.237   7.043 -0.4821  0.0708  0.0655
 2974SOL    HW120381   0.370   0.277   7.114  0.3099 -2.3319  0.8797
 2974SOL    HW220382   0.358   0.251   6.956  0.2708  0.6546  0.4892
 2975SOL     OW20383   1.839   1.780   3.907  0.3315  0.3763 -0.4282
 2975SOL    HW120384   1.922   1.761   3.864  1.2452  1.0232  1.0543
 2975SOL    HW220385   1.865   1.845   3.973 -0.3738 -2.9193  3.0837
 2976SOL     OW20386   4.194   1.863  15.130 -0.2718 -0.3991  0.2039
 2976SOL    HW120387   4.277   1.822  15.155  0.0607  1.5839  2.3260
 2976SOL    HW220388   4.137   1.788  15.147 -2.1238  0.8739 -0.4606
 2977SOL     OW20389   3.144   1.540   6.872  0.2246  0.1621  0.0469
 2977SOL    HW120390   3.055   1.504   6.868  1.2079 -2.1487 -1.0023
 2977SOL    HW220391   3.125   1.619   6.923  1.4250 -0.5215  1.5663
 2978SOL     OW20392   4.432   4.545   2.486  0.7202  0.9279  0.6536
 2978SOL    HW120393   4.360   4.602   2.513 -0.4675 -0.3701  0.1836
 2978SOL    HW220394   4.435   4.497   2.569  0.7428  2.9088  1.7990
 2979SOL     OW20395   4.555   3.269   8.650  0.3428 -0.4873 -0.7093
 2979SOL    HW120396   4.550   3.201   8.583 -1.2248 -0.0493 -1.0259
 2979SOL    HW220397   4.520   3.343   8.599 -0.3856 -0.8265 -0.7012
 2980SOL     OW20398   4.553   1.292   8.509  0.2791  0.3075 -0.3669
 2980SOL    HW120399   4.480   1.237   8.536 -0.2488  1.5545  0.7172
 2980SOL    HW220400   4.612   1.274   8.583 -0.4174 -1.5313 -0.2586
 2981SOL     OW20401   3.255   3.067   9.752 -0.5241  0.1059 -0.7497
 2981SOL    HW120402   3.284   3.147   9.708  1.8809  0.4738  1.4616
 2981SOL    HW220403   3.170   3.052   9.712 -0.7543 -0.6605  0.0206
 2982SOL     OW20404   1.959   4.577   7.860 -0.0788  0.3742  0.0361
 2982SOL    HW120405   1.976   4.516   7.931  2.9357  0.7845 -0.3168
 2982SOL    HW220406   1.957   4.520   7.783  4.9447  1.6426 -1.0527
 2983SOL     OW20407   4.227   2.829   6.278  0.1826  0.7098  0.4868
 2983SOL    HW120408   4.279   2.750   6.263  2.4123  1.7365  2.7686
 2983SOL    HW220409   4.292   2.885   6.319 -0.5074  1.1381  0.9895
 2984SOL     OW20410   4.247   2.214  10.567 -0.3497  0.2088  0.1773
 2984SOL    HW120411   4.290   2.202  10.652 -0.1657 -1.0427 -0.0986
 2984SOL    HW220412   4.161   2.174  10.576 -0.6856  0.5392 -1.6294
 2985SOL     OW20413   1.174   1.753  12.154 -0.3222 -0.3129 -0.0795
 2985SOL    HW120414   1.228   1.800  12.217  0.2505  0.7592 -1.3619
 2985SOL    HW220415   1.154   1.828  12.097  0.2832 -0.9933 -1.1838
 2986SOL     OW20416   3.323   3.586   7.440 -0.5997 -0.2210  0.1721
 2986SOL    HW120417   3.381   3.661   7.457 -0.5307 -0.4749  1.0806
 2986SOL    HW220418   3.385   3.533   7.391  0.4259  0.3146  0.8754
 2987SOL     OW20419   3.035   0.111   1.295  0.6476  0.2800  0.3227
 2987SOL    HW120420   3.051   0.049   1.224 -0.3262  0.8447 -0.3883
 2987SOL    HW220421   3.125   0.112   1.328  0.1861 -0.0737  1.5937
 2988SOL     OW20422   3.695   1.392   3.311  0.0938 -0.1011  0.1224
 2988SOL    HW120423   3.648   1.347   3.241  2.9787  0.0556 -1.9145
 2988SOL    HW220424   3.721   1.470   3.262 -1.4172  0.8246  0.7878
 2989SOL     OW20425   0.107   1.157   3.366 -0.0048 -0.0953  0.1308
 2989SOL    HW120426   0.072   1.245   3.352  0.8033 -0.0079 -1.3942
 2989SOL    HW220427   0.197   1.153   3.334  0.5282  1.6390  1.3795
 2990SOL     OW20428   4.673   2.042   6.830 -0.1486  0.1089 -0.0682
 2990SOL    HW120429   0.035   2.078   6.818  0.0676 -0.2725  0.3652
 2990SOL    HW220430   4.681   2.000   6.916  1.7914  1.7274  0.5263
 2991SOL     OW20431   2.591   3.795   5.189  0.2237  0.5285  0.7735
 2991SOL    HW120432   2.564   3.871   5.240 -1.3282 -1.3494  2.7781
 2991SOL    HW220433   2.540   3.733   5.241  1.9712 -1.3815  0.2305
 2992SOL     OW20434   3.839   1.373   9.163 -0.5776  0.3142 -0.1688
 2992SOL    HW120435   3.886   1.374   9.247 -1.6825  2.4863  0.4250
 2992SOL    HW220436   3.767   1.436   9.171 -1.3767 -0.4204 -1.6715
 2993SOL     OW20437   0.382   1.485   9.607 -0.1512  0.1074 -0.0912
 2993SOL    HW120438   0.439   1.414   9.577  0.8146  1.0883 -0.5778
 2993SOL    HW220439   0.308   1.434   9.641 -0.8148  1.2856  0.2035
 2994SOL     OW20440   3.824   3.931   6.872 -0.5918  0.2126 -0.0936
 2994SOL    HW120441   3.785   3.855   6.913  2.1954 -1.7564 -1.0901
 2994SOL    HW220442   3.816   3.905   6.780 -3.9757  1.9463 -0.2943
 2995SOL     OW20443   2.904   3.247   5.706  0.7280  0.4706 -0.5847
 2995SOL    HW120444   2.948   3.207   5.631  0.5228  0.5140 -0.7272
 2995SOL    HW220445   2.964   3.321   5.716 -0.7159  1.5452  0.1822
 2996SOL     OW20446   0.720   0.715   6.808 -0.0801 -0.6953  0.5382
 2996SOL    HW120447   0.792   0.756   6.760  1.1118 -0.4904  2.4990
 2996SOL    HW220448   0.654   0.689   6.744 -0.2887 -2.2025  1.3425
 2997SOL     OW20449   1.234   2.903   6.812  0.1225  0.3421  0.3803
 2997SOL    HW120450   1.152   2.889   6.766  0.1980 -0.7746  0.5667
 2997SOL    HW220451   1.208   2.851   6.888 -0.4953  0.2468  0.0984
 2998SOL     OW20452   1.664   4.287   0.186 -0.5286 -0.3386 -0.0029
 2998SOL    HW120453   1.755   4.305   0.209 -0.6744  0.5084 -0.0891
 2998SOL    HW220454   1.636   4.374   0.157 -0.1886  0.0032  0.6843
 2999SOL     OW20455   3.766   2.062  17.558  0.2866  0.3876 -0.0045
 2999SOL    HW120456   3.805   2.137  17.602  1.3593 -1.4330  2.1738
 2999SOL    HW220457   3.680   2.097  17.535  0.4922  0.9212  0.0532
 3000SOL     OW20458   1.843   1.388   8.285  0.9311 -0.2163  0.1164
 3000SOL    HW120459   1.836   1.465   8.341 -1.0471 -1.0817  1.0898
 3000SOL    HW220460   1.886   1.417   8.205  1.8291 -1.3524  0.1909
 3001SOL     OW20461   4.243   4.059   3.706  0.4618  0.2861  0.1778
 3001SOL    HW120462   4.148   4.044   3.702  0.1572  2.1983 -0.0371
 3001SOL    HW220463   4.258   4.129   3.642 -1.1432  0.5508  0.0808
 3002SOL     OW20464   1.412   2.800  10.832  0.0224 -0.1218  0.0935
 3002SOL    HW120465   1.417   2.762  10.744  2.9443 -4.2140  2.0217
 3002SOL    HW220466   1.493   2.764  10.870 -0.7158 -2.7070 -0.7839
 3003SOL     OW20467   3.430   2.540  14.842 -0.2272 -0.4218 -0.6799
 3003SOL    HW120468   3.479   2.477  14.790 -1.9439 -1.2732 -1.2900
 3003SOL    HW220469   3.357   2.484  14.869 -0.4223  0.7748  1.2765
 3004SOL     OW20470   1.126   3.770   1.288 -0.0346  0.6688 -0.1251
 3004SOL    HW120471   1.077   3.825   1.349 -1.9444 -1.7647  0.5561
 3004SOL    HW220472   1.082   3.811   1.213 -0.5981  3.2816  1.6359
 3005SOL     OW20473   1.222   0.568  15.283  0.0111 -0.0571  0.4022
 3005SOL    HW120474   1.134   0.530  15.275 -0.1712  0.5177 -0.3568
 3005SOL    HW220475   1.218   0.629  15.210 -0.7138  0.6479  1.0277
 3006SOL     OW20476   4.704   3.899  14.932 -0.4925  0.2825  0.2673
 3006SOL    HW120477   0.027   3.958  14.874  0.0825 -0.3113  0.1409
 3006SOL    HW220478   0.044   3.896  15.000 -2.7617  0.3765  2.4583
 3007SOL     OW20479   2.679   0.431   1.783  0.2749  0.3124 -0.1965
 3007SOL    HW120480   2.696   0.477   1.701  0.6614  1.0471  0.2976
 3007SOL    HW220481   2.661   0.501   1.846 -0.7263 -0.8329  0.8019
 3008SOL     OW20482   3.719   3.074   0.870 -0.1234  0.1189  0.0842
 3008SOL    HW120483   3.769   3.135   0.816 -0.7281  2.0090  1.6831
 3008SOL    HW220484   3.662   3.135   0.917 -1.2065 -0.2812 -0.7085
 3009SOL     OW20485   4.103   3.900  10.551 -0.4253 -0.1952 -0.4718
 3009SOL    HW120486   4.167   3.836  10.579 -1.4575 -1.2595 -0.5703
 3009SOL    HW220487   4.114   3.981  10.600 -0.1951 -0.7950  0.4519
 3010SOL     OW20488   4.109   3.369   7.588  0.9982  0.5124  0.7874
 3010SOL    HW120489   4.154   3.399   7.667  1.4223 -0.0407  0.7629
 3010SOL    HW220490   4.033   3.330   7.632  0.0319 -0.7730 -1.9859
 3011SOL     OW20491   1.542   4.565   6.992 -0.0885 -0.9063 -1.0258
 3011SOL    HW120492   1.595   4.610   7.059 -0.0877 -1.9425 -0.3288
 3011SOL    HW220493   1.561   4.621   6.917 -1.5157  2.4300  1.0965
 3012SOL     OW20494   3.368   4.583   2.871 -0.3776 -0.0065 -0.3880
 3012SOL    HW120495   3.345   4.651   2.808 -3.4372 -1.1676 -0.5187
 3012SOL    HW220496   3.403   4.630   2.947 -0.6782 -1.3697  0.5887
 3013SOL     OW20497   0.753   1.536   0.336  0.1290  0.1115  0.2092
 3013SOL    HW120498   0.784   1.582   0.258 -0.9030 -0.2421 -0.4181
 3013SOL    HW220499   0.676   1.487   0.307 -0.1435 -0.4693  1.9306
 3014SOL     OW20500   0.509   3.112   5.015 -0.2417 -0.1971  0.0954
 3014SOL    HW120501   0.605   3.109   5.015 -0.2338 -0.0384 -0.2773
 3014SOL    HW220502   0.486   3.110   4.922  1.0457 -0.8845 -0.2129
 3015SOL     OW20503   1.507   0.013   6.423  0.0556 -0.3117 -0.1426
 3015SOL    HW120504   1.484   0.072   6.494  0.4565 -0.6719  0.2873
 3015SOL    HW220505   1.419   4.702   6.410  0.3768 -1.3787  0.7336
 3016SOL     OW20506   4.132   2.056   7.849  0.0853  0.4187  0.2806
 3016SOL    HW120507   4.158   2.130   7.905 -0.5540  0.7119  0.1919
 3016SOL    HW220508   4.223   2.033   7.828 -0.3644 -0.7053 -0.3964
 3017SOL     OW20509   4.492   0.907   4.814 -0.1289 -0.3378  0.2908
 3017SOL    HW120510   4.403   0.939   4.829  0.8623  1.6577  2.0988
 3017SOL    HW220511   4.478   0.848   4.740 -1.8804 -0.7259  0.9370
 3018SOL     OW20512   3.792   1.082   5.552 -0.3640 -0.4054  0.4235
 3018SOL    HW120513   3.804   1.165   5.505 -0.6677  0.0591  1.1726
 3018SOL    HW220514   3.877   1.037   5.545  0.0633  0.1826  1.7576
 3019SOL     OW20515   0.285   4.182  15.489  0.1370 -0.0906  0.1640
 3019SOL    HW120516   0.227   4.196  15.564  0.1658  0.3272  0.1115
 3019SOL    HW220517   0.261   4.254  15.430  0.3741  1.0418  1.4541
 3020SOL     OW20518   0.219   1.546   7.363  0.1532  0.3467 -0.0675
 3020SOL    HW120519   0.311   1.551   7.390  0.0983  3.1179 -0.3720
 3020SOL    HW220520   0.185   1.601   7.433 -0.4574  2.8071 -2.3181
 3021SOL     OW20521   0.016   3.587   9.250 -0.8672 -0.3627 -0.1323
 3021SOL    HW120522   4.714   3.675   9.224  1.2815  0.1373 -0.7079
 3021SOL    HW220523   4.675   3.542   9.198 -0.7301 -0.0173 -0.6038
 3022SOL     OW20524   2.074   3.946   3.044 -0.2617  0.3611 -0.4700
 3022SOL    HW120525   2.050   3.883   3.112 -0.5662 -0.2623 -1.1496
 3022SOL    HW220526   1.996   4.001   3.041 -2.5141 -2.7939 -0.4037
 3023SOL     OW20527   3.601   1.631   7.355  0.6856  0.3568  0.1072
 3023SOL    HW120528   3.635   1.708   7.308  0.1208  1.3085  1.2479
 3023SOL    HW220529   3.664   1.560   7.350 -0.5117 -0.8484  2.1736
 3024SOL     OW20530   4.049   0.835   5.951 -0.0795  0.4229 -0.3276
 3024SOL    HW120531   3.992   0.763   5.924 -0.6038  0.9227 -0.5662
 3024SOL    HW220532   4.035   0.834   6.046 -0.0129 -0.1932 -0.3246
 3025SOL     OW20533   0.473   0.863   8.191 -0.5237  0.5748  1.2254
 3025SOL    HW120534   0.434   0.940   8.232 -2.0469 -0.4782  1.7703
 3025SOL    HW220535   0.521   0.815   8.258 -1.7723  0.7806  2.2678
 3026SOL     OW20536   1.881   1.411   6.222  0.6392 -0.1757 -0.1970
 3026SOL    HW120537   1.836   1.455   6.294 -0.4933  0.9064 -1.5666
 3026SOL    HW220538   1.812   1.412   6.156 -0.6483 -0.6430  1.1484
 3027SOL     OW20539   0.488   4.368   5.382 -1.2378  0.0560 -0.1688
 3027SOL    HW120540   0.503   4.298   5.445 -0.1033 -0.2099 -0.7443
 3027SOL    HW220541   0.407   4.337   5.341 -0.8965  0.9474 -1.5510
 3028SOL     OW20542   3.909   2.405   5.895  0.0381 -0.0770 -0.8259
 3028SOL    HW120543   3.836   2.467   5.891 -0.2169 -0.2604  1.2538
 3028SOL    HW220544   3.976   2.449   5.842 -0.3096 -1.4921 -2.4311
 3029SOL     OW20545   1.294   1.422  15.163  0.5996  0.5137  0.1562
 3029SOL    HW120546   1.333   1.449  15.247  0.9477  1.6143 -0.3657
 3029SOL    HW220547   1.268   1.510  15.137 -1.0288  0.0055  0.0668
 3030SOL     OW20548   3.264   4.062   4.628  0.2517  0.1636  0.2114
 3030SOL    HW120549   3.174   4.091   4.642  0.5043  0.4569  1.2890
 3030SOL    HW220550   3.314   4.107   4.696  2.4954  0.8116 -1.8628
 3031SOL     OW20551   3.100   1.584  10.696  0.0423  0.2612  0.1719
 3031SOL    HW120552   3.062   1.648  10.637  0.2583  1.8732  1.7870
 3031SOL    HW220553   3.075   1.622  10.780 -0.7006  0.9178 -0.3448
 3032SOL     OW20554   2.317   4.184  11.233 -0.1934  0.4471 -0.8843
 3032SOL    HW120555   2.356   4.165  11.147  0.1627  2.8279 -1.2378
 3032SOL    HW220556   2.394   4.230  11.266 -0.3363  1.4074 -1.8934
 3033SOL     OW20557   0.109   0.641   8.145 -0.2241 -0.1070 -0.0843
 3033SOL    HW120558   0.076   0.699   8.213  1.6664  1.9087 -0.9129
 3033SOL    HW220559   0.202   0.661   8.138 -0.2657  0.4844  1.2056
 3034SOL     OW20560   0.460   2.420   3.575  0.2862  0.1624  0.1631
 3034SOL    HW120561   0.524   2.428   3.504  0.3818 -0.5344  0.1752
 3034SOL    HW220562   0.420   2.506   3.562 -0.8716 -0.4476 -0.2481
 3035SOL     OW20563   0.882   2.691  15.236  0.1194 -0.1037 -0.8844
 3035SOL    HW120564   0.847   2.627  15.173 -2.2173 -0.7886  1.0827
 3035SOL    HW220565   0.935   2.753  15.186  0.5282 -0.3954 -0.8102
 3036SOL     OW20566   3.703   0.326   4.350  0.7242  0.2741 -0.3572
 3036SOL    HW120567   3.762   0.291   4.284 -0.7426 -2.4886 -0.2202
 3036SOL    HW220568   3.623   0.349   4.302 -0.5488 -0.5178  1.3515
 3037SOL     OW20569   0.833   0.653   6.191 -0.3364 -0.7084  0.2771
 3037SOL    HW120570   0.846   0.562   6.217 -0.1071 -0.8750 -0.4247
 3037SOL    HW220571   0.927   0.674   6.193 -0.8148  1.3908  1.1738
 3038SOL     OW20572   2.791   1.377   9.479 -0.4284  0.7116 -0.1457
 3038SOL    HW120573   2.751   1.448   9.529 -0.8765 -2.1757  3.5209
 3038SOL    HW220574   2.767   1.392   9.387 -1.6084  0.3243  0.0988
 3039SOL     OW20575   0.332   2.596   0.254 -0.1118  0.6080  0.0817
 3039SOL    HW120576   0.332   2.502   0.237  0.2349 -0.0050  3.3521
 3039SOL    HW220577   0.396   2.598   0.326 -0.2098  1.0559  0.1592
 3040SOL     OW20578   1.471   2.142  13.998  0.8352 -0.2460 -0.5429
 3040SOL    HW120579   1.444   2.233  13.987 -0.6239 -0.5997  0.2173
 3040SOL    HW220580   1.415   2.127  14.073  0.8434 -2.8876 -1.0865
 3041SOL     OW20581   1.811   1.112  13.985 -0.6900 -0.9239 -0.4008
 3041SOL    HW120582   1.846   1.035  14.031  0.6673  0.4655  0.8811
 3041SOL    HW220583   1.829   1.095  13.892  0.3363  0.6581 -0.4858
 3042SOL     OW20584   0.303   0.322  11.276  0.5191 -0.6121  0.2636
 3042SOL    HW120585   0.319   0.322  11.182 -0.0946  1.1626  0.1564
 3042SOL    HW220586   0.258   0.406  11.287  0.2781 -0.2735 -3.4979
 3043SOL     OW20587   3.338   0.926   3.218  0.2593 -0.0846  0.0331
 3043SOL    HW120588   3.294   0.840   3.217  0.1321 -0.0419  2.1885
 3043SOL    HW220589   3.255   0.971   3.203  1.6185  2.7305  1.0684
 3044SOL     OW20590   0.606   0.179  14.908  0.3081 -0.1209  0.4198
 3044SOL    HW120591   0.634   0.257  14.860  1.5982 -0.3449  0.7967
 3044SOL    HW220592   0.549   0.138  14.844  1.2288  0.7130 -0.9372
 3045SOL     OW20593   3.287   1.032   5.710  0.0447 -0.3671  0.1655
 3045SOL    HW120594   3.318   1.079   5.787  0.9392 -0.3993 -0.1769
 3045SOL    HW220595   3.354   1.058   5.647  0.7008 -2.2424  0.0793
 3046SOL     OW20596   2.009   1.511   8.627 -0.6944  0.4662 -0.5120
 3046SOL    HW120597   1.983   1.423   8.657 -0.5694  1.0110  1.1781
 3046SOL    HW220598   2.103   1.501   8.637 -0.8624 -0.8893 -0.2317
 3047SOL     OW20599   0.119   3.723   5.177  0.3056 -0.0963 -0.5422
 3047SOL    HW120600   0.086   3.634   5.164 -1.5221  0.6959 -1.2989
 3047SOL    HW220601   0.043   3.762   5.221  1.2149 -1.9095  2.5881
 3048SOL     OW20602   3.199   2.996  10.407  0.4723 -0.5617 -0.0775
 3048SOL    HW120603   3.227   3.019  10.495  2.4808 -1.0274 -0.5939
 3048SOL    HW220604   3.247   3.067  10.365  1.1463 -0.7405  0.3823
 3049SOL     OW20605   2.610   3.808  17.151  0.4725 -0.5889  0.1220
 3049SOL    HW120606   2.515   3.798  17.148  0.3095  0.6522  1.2515
 3049SOL    HW220607   2.637   3.716  17.153  0.8104 -0.4977 -0.3639
 3050SOL     OW20608   1.929   2.728   6.210 -0.0152  0.0002  0.1762
 3050SOL    HW120609   2.022   2.752   6.215  0.3627 -1.5486  0.3798
 3050SOL    HW220610   1.878   2.809   6.214 -2.1543 -1.3636  0.4557
 3051SOL     OW20611   4.392   0.080  11.458  0.0783  0.1010 -0.1258
 3051SOL    HW120612   4.403   0.128  11.377 -3.3615  1.8572  0.4373
 3051SOL    HW220613   4.406   0.146  11.526  1.2589 -0.9506  0.6652
 3052SOL     OW20614   0.508   2.059  13.510 -0.3312 -0.0857  0.1242
 3052SOL    HW120615   0.435   2.030  13.456 -0.4996  0.7161 -0.0811
 3052SOL    HW220616   0.552   1.975  13.519 -1.3840 -0.4780  1.6728
 3053SOL     OW20617   4.295   0.142   3.746  0.2567 -0.0588  0.2281
 3053SOL    HW120618   4.378   0.168   3.707  0.3765 -1.4296 -0.4282
 3053SOL    HW220619   4.332   0.086   3.815 -1.4928  0.4016  1.5276
 3054SOL     OW20620   4.120   0.502   6.017 -0.2127  0.3794  0.3976
 3054SOL    HW120621   4.199   0.555   6.023 -0.5030  0.7901  0.6153
 3054SOL    HW220622   4.050   0.567   6.013  2.0930  2.8685  1.0553
 3055SOL     OW20623   3.728   1.120   1.727 -0.0963  0.3424 -0.4001
 3055SOL    HW120624   3.811   1.140   1.683 -0.6030 -0.2658 -1.6511
 3055SOL    HW220625   3.734   1.157   1.815  1.5548  1.1889 -0.8694
 3056SOL     OW20626   0.496   2.740   4.478 -0.1498 -0.2830  0.4101
 3056SOL    HW120627   0.537   2.654   4.489 -2.1857 -1.2754  0.1142
 3056SOL    HW220628   0.417   2.734   4.532 -2.4318  1.3980 -2.7217
 3057SOL     OW20629   0.861   2.803   3.029 -0.2024  0.2287  0.6466
 3057SOL    HW120630   0.852   2.723   2.978  0.3949  0.9101 -0.5240
 3057SOL    HW220631   0.778   2.844   3.009 -0.2388  0.1165  0.5656
 3058SOL     OW20632   1.137   2.093   1.798  0.0693 -0.6326  0.1307
 3058SOL    HW120633   1.176   2.077   1.884 -1.7115  1.3204  1.3157
 3058SOL    HW220634   1.182   2.172   1.768  0.5402 -0.1972  1.9397
 3059SOL     OW20635   3.132   1.875  13.915  0.0045 -0.1051  0.3348
 3059SOL    HW120636   3.200   1.893  13.981 -0.5264  0.1634  0.8121
 3059SOL    HW220637   3.050   1.882  13.965  0.7982 -0.3482  1.6721
 3060SOL     OW20638   1.342   2.264  10.454  0.6016  0.0459  0.5344
 3060SOL    HW120639   1.375   2.308  10.533  1.9522  1.5056 -0.8505
 3060SOL    HW220640   1.295   2.333  10.407  1.8855 -0.2684 -1.2317
 3061SOL     OW20641   3.041   4.131  14.713 -0.8251 -0.4239  0.0303
 3061SOL    HW120642   3.013   4.039  14.716  0.6546 -0.8458  1.2488
 3061SOL    HW220643   2.968   4.172  14.760  0.4708  0.0110  1.6604
 3062SOL     OW20644   1.599   0.988   5.174 -0.5300  0.1752  0.2022
 3062SOL    HW120645   1.675   1.034   5.138 -1.4442  0.4089 -1.4627
 3062SOL    HW220646   1.529   1.048   5.145 -0.4377 -0.2404 -0.8837
 3063SOL     OW20647   3.423   1.492   5.983  0.0902  0.0078  0.0090
 3063SOL    HW120648   3.499   1.538   6.017 -0.2066  0.1132  0.5349
 3063SOL    HW220649   3.361   1.560   5.955  2.6017  1.2432 -2.5604
 3064SOL     OW20650   1.681   1.998   3.808  0.1502 -0.3395  0.2260
 3064SOL    HW120651   1.696   1.918   3.857  2.0280  0.6783  1.3249
 3064SOL    HW220652   1.751   1.988   3.744 -0.1418 -0.7663 -0.0263
 3065SOL     OW20653   0.551   0.659   2.462 -0.6777  0.1843 -0.1452
 3065SOL    HW120654   0.582   0.606   2.388  0.7689  2.9162 -1.4979
 3065SOL    HW220655   0.615   0.730   2.468  0.4717 -1.0133  1.8174
 3066SOL     OW20656   1.727   2.993   9.999 -0.0174 -0.1471 -0.0314
 3066SOL    HW120657   1.743   2.899   9.997 -1.4790 -0.4219  1.4773
 3066SOL    HW220658   1.687   2.996   9.912  0.0349  0.4478 -0.0318
 3067SOL     OW20659   1.509   2.919   4.025 -0.2769  0.2311  0.4133
 3067SOL    HW120660   1.503   2.981   4.098 -2.1201  0.7497 -0.1682
 3067SOL    HW220661   1.416   2.902   4.007  0.6968 -2.4808 -1.9959
 3068SOL     OW20662   0.134   1.620   0.188 -0.7009 -0.1983 -0.1675
 3068SOL    HW120663   0.116   1.703   0.143  1.9108  0.1882 -0.5159
 3068SOL    HW220664   0.088   1.634   0.270  0.6606 -2.1643  0.9205
 3069SOL     OW20665   0.270   1.623  16.357 -0.0401 -0.4825 -0.4925
 3069SOL    HW120666   0.302   1.671  16.280 -0.5411  0.0408 -0.3809
 3069SOL    HW220667   0.240   1.539  16.322 -4.1496 -1.5512  5.5085
 3070SOL     OW20668   4.275   2.063   2.981 -0.1261  0.2814  0.1953
 3070SOL    HW120669   4.294   2.112   3.061  0.0221  0.5786 -0.0240
 3070SOL    HW220670   4.241   1.980   3.016  1.3830 -0.0923  0.7824
 3071SOL     OW20671   0.039   1.689   0.427  0.5997 -0.3819  0.3632
 3071SOL    HW120672   4.695   1.750   0.404 -1.2756 -2.1619  1.3106
 3071SOL    HW220673   4.714   1.631   0.484  0.5201  0.9324  1.6094
 3072SOL     OW20674   2.299   1.339   7.551 -0.1708 -0.0881 -0.2848
 3072SOL    HW120675   2.212   1.308   7.526  0.6570 -1.8870 -0.9482
 3072SOL    HW220676   2.288   1.434   7.546 -2.7728 -0.2986  1.8275
 3073SOL     OW20677   4.586   3.474   7.156  0.0125 -0.3393 -0.4716
 3073SOL    HW120678   4.603   3.384   7.186  0.5669 -0.0628  0.0514
 3073SOL    HW220679   4.505   3.482   7.207  2.8383  2.4359  3.5286
 3074SOL     OW20680   0.317   4.501   3.563 -0.1196 -0.4304  0.6866
 3074SOL    HW120681   0.298   4.413   3.531  0.5520  0.1924 -1.4210
 3074SOL    HW220682   0.328   4.552   3.483 -0.1419  0.5561  1.3055
 3075SOL     OW20683   3.047   4.278   6.678  0.1392 -0.7310 -0.3600
 3075SOL    HW120684   2.978   4.273   6.744 -1.5720 -1.4913 -2.2082
 3075SOL    HW220685   3.097   4.200   6.704  0.5222  0.0610  1.2644
 3076SOL     OW20686   0.577   0.053   7.310  0.5032  0.3771 -0.9303
 3076SOL    HW120687   0.508   0.118   7.299  1.0823  0.9328 -1.2867
 3076SOL    HW220688   0.532   4.699   7.281 -0.5069 -0.6621  3.5869
 3077SOL     OW20689   1.142   3.896   7.074  0.1875 -0.0058  0.1833
 3077SOL    HW120690   1.121   3.822   7.017 -0.6710 -0.3249  0.9095
 3077SOL    HW220691   1.068   3.954   7.061 -1.4804 -2.0036  0.7466
 3078SOL     OW20692   2.842   2.140   8.850 -0.6228 -0.3712  0.0637
 3078SOL    HW120693   2.887   2.064   8.887  0.5508 -0.1105 -0.8108
 3078SOL    HW220694   2.795   2.174   8.926  1.5287  2.4322  0.1429
 3079SOL     OW20695   2.541   1.687   2.972 -0.3733  0.1058  0.0481
 3079SOL    HW120696   2.474   1.626   3.000  0.7274  0.7177  4.0019
 3079SOL    HW220697   2.579   1.656   2.890  0.8081  0.3310  0.5097
 3080SOL     OW20698   2.985   1.868   9.880 -0.5930 -0.2025 -0.1102
 3080SOL    HW120699   2.992   1.855   9.786  1.0386  1.0798 -0.1803
 3080SOL    HW220700   3.048   1.808   9.921 -1.0520 -0.4612  0.2151
 3081SOL     OW20701   3.544   0.260   7.841 -0.0652 -0.2023 -0.3993
 3081SOL    HW120702   3.507   0.349   7.844  2.2622  0.7435 -0.3104
 3081SOL    HW220703   3.463   0.219   7.871 -0.0139  1.4151  2.0011
 3082SOL     OW20704   2.216   4.457   3.412 -0.5490  0.7633  0.7954
 3082SOL    HW120705   2.286   4.465   3.477 -1.5226 -0.9010  2.0324
 3082SOL    HW220706   2.214   4.546   3.375  1.0751 -1.0434 -3.6195
 3083SOL     OW20707   0.158   2.052   6.348 -0.0521  0.0375  0.0046
 3083SOL    HW120708   0.123   2.045   6.259 -0.3043 -1.7967  0.2363
 3083SOL    HW220709   0.107   1.994   6.404  1.3644  0.4725  1.7322
 3084SOL     OW20710   3.430   2.324   4.266 -0.0364 -0.3519 -0.0382
 3084SOL    HW120711   3.485   2.308   4.189  1.6389  1.1593  0.8327
 3084SOL    HW220712   3.345   2.322   4.223  0.4462 -0.0997 -0.9995
 3085SOL     OW20713   2.845   2.696   3.016  0.1882 -0.3423  0.2040
 3085SOL    HW120714   2.806   2.620   3.059  0.5979 -1.0370 -0.6654
 3085SOL    HW220715   2.761   2.730   2.984  0.7269 -1.4508 -2.4095
 3086SOL     OW20716   3.396   3.771   9.967  0.0865  0.5990 -0.4872
 3086SOL    HW120717   3.452   3.821  10.027  2.1632 -0.4151 -1.5793
 3086SOL    HW220718   3.328   3.835   9.949  0.7998  1.1848 -1.1139
 3087SOL     OW20719   0.092   3.777  15.518  0.5290  0.1005  0.1114
 3087SOL    HW120720   0.051   3.858  15.487 -0.1503 -0.9778 -1.7592
 3087SOL    HW220721   0.035   3.710  15.482 -2.5236  2.0659  1.2495
 3088SOL     OW20722   4.697   3.789  17.020 -0.1388 -0.3815  0.0967
 3088SOL    HW120723   4.638   3.862  17.001 -0.5714 -0.2381  2.0470
 3088SOL    HW220724   4.628   3.730  17.052 -0.8277  0.1981 -0.3153
 3089SOL     OW20725   4.280   4.093   4.409  0.7217 -0.5172  0.0052
 3089SOL    HW120726   4.270   4.132   4.322  0.4931 -2.6690 -0.9199
 3089SOL    HW220727   4.286   4.178   4.453  0.5262 -0.8896  0.7414
 3090SOL     OW20728   2.768   0.845   2.554 -0.3286 -0.0532  1.1437
 3090SOL    HW120729   2.789   0.791   2.630 -0.4058 -1.2376  0.3192
 3090SOL    HW220730   2.839   0.907   2.540 -0.4835 -0.2939 -0.8146
 3091SOL     OW20731   1.990   1.824   5.722 -0.3208  0.2658  0.1783
 3091SOL    HW120732   2.078   1.801   5.692  0.3861 -0.9918  3.2514
 3091SOL    HW220733   1.942   1.742   5.737  0.4872 -0.3760 -0.7213
 3092SOL     OW20734   4.356   4.590  15.053  0.4341  0.1053 -0.4738
 3092SOL    HW120735   4.273   4.638  15.048  0.7147  0.6673  0.2992
 3092SOL    HW220736   4.410   4.641  15.114 -1.7511 -0.2671  1.7859
 3093SOL     OW20737   3.258   4.037  10.450  0.1988  0.2610 -0.3322
 3093SOL    HW120738   3.247   4.036  10.355  1.6088  0.9258 -0.5021
 3093SOL    HW220739   3.226   4.125  10.467  1.6258  0.3220  2.1163
 3094SOL     OW20740   1.328   1.748   7.077 -0.2060  0.1002  0.5156
 3094SOL    HW120741   1.327   1.682   7.147 -0.3945 -0.4565 -0.0042
 3094SOL    HW220742   1.404   1.800   7.101  0.1725 -0.1791 -0.0565
 3095SOL     OW20743   0.350   0.728   1.126 -0.6273 -0.0602 -0.0857
 3095SOL    HW120744   0.306   0.745   1.209 -0.6608  0.5170 -0.2244
 3095SOL    HW220745   0.280   0.765   1.073 -0.2837  0.3747 -0.2373
 3096SOL     OW20746   1.323   4.167   4.609  0.3352 -0.2375  0.0856
 3096SOL    HW120747   1.300   4.074   4.607  0.5035 -0.2774  0.0060
 3096SOL    HW220748   1.389   4.162   4.678 -1.2109  1.0986  1.6523
 3097SOL     OW20749   3.135   2.184   5.271  0.1135  0.0846  0.5132
 3097SOL    HW120750   3.063   2.228   5.226  0.3481 -1.3972 -1.2863
 3097SOL    HW220751   3.182   2.137   5.202  0.0799  1.3943 -0.3932
 3098SOL     OW20752   0.806   3.830   6.763 -0.6330 -0.0423 -0.5195
 3098SOL    HW120753   0.844   3.875   6.839 -2.6022 -0.4369  0.7056
 3098SOL    HW220754   0.823   3.900   6.701  0.9988 -0.3184 -0.3945
 3099SOL     OW20755   1.543   2.553   2.474 -0.0679  0.1690  0.2458
 3099SOL    HW120756   1.493   2.633   2.490 -0.5902 -0.1608  0.2559
 3099SOL    HW220757   1.573   2.570   2.385 -0.5396  2.6936  0.5714
 3100SOL     OW20758   3.862   4.418   0.321 -0.4166  0.0529  0.5066
 3100SOL    HW120759   3.851   4.380   0.408 -0.7175  1.4962  1.0970
 3100SOL    HW220760   3.956   4.410   0.303 -0.8443 -0.1170 -1.6985
 3101SOL     OW20761   2.429   0.790   6.052 -0.7394  0.4164  0.2033
 3101SOL    HW120762   2.491   0.718   6.041 -1.2592 -0.3942  2.5994
 3101SOL    HW220763   2.473   0.839   6.121 -2.7439  0.3687  1.5180
 3102SOL     OW20764   0.174   4.379   8.231 -0.6620 -0.2038 -0.2074
 3102SOL    HW120765   0.132   4.295   8.246  0.5831 -0.4639  1.7424
 3102SOL    HW220766   0.216   4.390   8.316  1.5183  0.2525 -1.3476
 3103SOL     OW20767   3.172   0.865  12.242 -0.1344  0.2852 -0.6857
 3103SOL    HW120768   3.188   0.798  12.175 -0.5901  1.0138 -1.5215
 3103SOL    HW220769   3.079   0.860  12.264  0.1464 -0.3005  0.3695
 3104SOL     OW20770   3.959   1.833   1.815 -0.5104 -0.4834  0.2741
 3104SOL    HW120771   3.938   1.850   1.907  1.3007  2.3391  0.1545
 3104SOL    HW220772   3.934   1.913   1.770 -0.0790  0.3660  1.5458
 3105SOL     OW20773   3.760   4.643   1.462 -0.1542  0.7011 -0.1358
 3105SOL    HW120774   3.823   4.680   1.523 -1.6389 -1.2628  2.5894
 3105SOL    HW220775   3.812   4.581   1.412 -0.8625  0.2942 -0.3667
 3106SOL     OW20776   1.567   4.529   0.170 -0.0373  0.1365 -0.1345
 3106SOL    HW120777   1.555   4.606   0.115  1.5242  1.4763  1.3953
 3106SOL    HW220778   1.492   4.537   0.229  0.0713  2.4542 -0.3208
 3107SOL     OW20779   3.005   1.773  10.558  0.3252 -0.0354  0.4211
 3107SOL    HW120780   3.044   1.856  10.529  0.8812 -0.9784 -1.5638
 3107SOL    HW220781   2.925   1.801  10.602 -0.8734  0.5544 -2.1193
 3108SOL     OW20782   4.502   2.116   9.769  0.0274  0.6494 -0.4000
 3108SOL    HW120783   4.463   2.101   9.682 -2.0095  1.5369  0.3546
 3108SOL    HW220784   4.592   2.122   9.738  0.9127 -1.9274  1.6236
 3109SOL     OW20785   3.256   4.137   8.830 -0.0191  0.1594  0.1197
 3109SOL    HW120786   3.329   4.187   8.866  0.8272 -0.7717 -0.3007
 3109SOL    HW220787   3.192   4.135   8.902  0.6113  1.3583  0.7037
 3110SOL     OW20788   0.631   4.543   8.626 -0.0677  0.1290 -0.2864
 3110SOL    HW120789   0.720   4.573   8.647 -0.9954  0.6014  2.9176
 3110SOL    HW220790   0.623   4.463   8.677 -1.7051  1.0726  0.9234
 3111SOL     OW20791   1.948   4.097  14.540  0.1658 -0.2928  0.4213
 3111SOL    HW120792   2.032   4.070  14.503  0.5037 -1.6205  2.1781
 3111SOL    HW220793   1.964   4.192  14.540 -1.2398 -0.0540 -0.0184
 3112SOL     OW20794   1.743   1.959   8.060 -0.0933  0.1924  0.5842
 3112SOL    HW120795   1.752   2.005   7.977 -1.0202 -0.7976 -0.0686
 3112SOL    HW220796   1.647   1.962   8.056 -0.1434  1.0720  2.2433
 3113SOL     OW20797   2.281   1.459   6.502  0.0913  0.3281  0.3517
 3113SOL    HW120798   2.234   1.394   6.554  1.6772  0.2845  1.7399
 3113SOL    HW220799   2.223   1.470   6.427  0.2844 -1.6502 -0.0797
 3114SOL     OW20800   4.173   3.002  14.158 -0.2551  0.0700 -0.1323
 3114SOL    HW120801   4.260   2.963  14.151 -0.8382 -1.2876  0.2446
 3114SOL    HW220802   4.186   3.088  14.198 -2.6661  0.2351  0.2703
 3115SOL     OW20803   2.774   0.920   5.385  0.0396  0.8396 -0.5793
 3115SOL    HW120804   2.705   0.868   5.427  3.2034 -1.3253  1.8559
 3115SOL    HW220805   2.747   1.004   5.422  2.4991  0.5703  1.7606
 3116SOL     OW20806   2.693   3.968   3.506  0.4233  0.2463 -0.0684
 3116SOL    HW120807   2.783   3.955   3.477  0.5226 -0.1899  0.4264
 3116SOL    HW220808   2.694   4.063   3.512  1.4741  0.3768 -2.5584
 3117SOL     OW20809   1.466   1.287   5.265 -0.3333  0.5042  0.3674
 3117SOL    HW120810   1.461   1.246   5.179 -1.3108 -1.0085  1.1230
 3117SOL    HW220811   1.524   1.360   5.245 -0.0834  0.3800  0.6274
 3118SOL     OW20812   2.344   1.881  12.545 -0.4543 -0.0765  0.0558
 3118SOL    HW120813   2.339   1.937  12.623  2.2781 -1.7388  1.4356
 3118SOL    HW220814   2.416   1.920  12.496 -0.1660 -0.7664 -0.0675
 3119SOL     OW20815   3.201   1.874  14.384  0.4945  0.3823 -0.7712
 3119SOL    HW120816   3.170   1.964  14.386  0.4799  0.3470  0.7872
 3119SOL    HW220817   3.266   1.874  14.313  1.0721 -1.9423 -0.2435
 3120SOL     OW20818   0.173   2.339   7.017  0.6385 -0.1231  0.3240
 3120SOL    HW120819   0.168   2.257   6.966 -1.6975 -0.1722  0.6551
 3120SOL    HW220820   0.258   2.376   6.993  0.7148 -0.1921  0.4893
 3121SOL     OW20821   1.653   2.995   1.178 -0.3835 -0.0908  0.0769
 3121SOL    HW120822   1.704   3.012   1.099  2.2816 -0.3519  1.7754
 3121SOL    HW220823   1.600   2.918   1.159  1.0466 -1.0308 -0.0305
 3122SOL     OW20824   2.780   1.915  10.689 -0.4207  0.0630  0.6330
 3122SOL    HW120825   2.752   1.892  10.600 -3.3211 -0.4281  1.6767
 3122SOL    HW220826   2.758   2.008  10.689 -3.5007 -0.6930  2.6583
 3123SOL     OW20827   0.353   1.441   8.202 -0.2994  0.6993 -0.1361
 3123SOL    HW120828   0.394   1.504   8.261 -0.8665  0.3667  0.6133
 3123SOL    HW220829   0.259   1.460   8.200 -0.9237 -2.3317  0.0316
 3124SOL     OW20830   1.739   2.495   3.165  0.2987 -0.0746  0.2735
 3124SOL    HW120831   1.658   2.476   3.118 -0.0471  0.0784  0.8021
 3124SOL    HW220832   1.700   2.516   3.250 -0.9370  1.8519 -0.7702
 3125SOL     OW20833   4.527   3.887  15.650  0.3226 -0.7023 -0.4087
 3125SOL    HW120834   4.513   3.929  15.735 -0.2127  0.4702 -1.0742
 3125SOL    HW220835   4.534   3.793  15.663 -0.0841 -0.4079  1.8770
 3126SOL     OW20836   0.888   3.899   1.383  0.3120  0.5403  0.6707
 3126SOL    HW120837   0.835   3.978   1.391  0.2073  0.3473  1.9366
 3126SOL    HW220838   0.848   3.848   1.453 -1.2336  0.1552 -0.4907
 3127SOL     OW20839   4.666   1.798   7.446 -1.0183 -0.1755 -0.1707
 3127SOL    HW120840   4.652   1.705   7.468  1.0519 -0.7278 -1.2082
 3127SOL    HW220841   0.015   1.814   7.503 -1.6068  0.2958  0.4734
 3128SOL     OW20842   1.601   1.283   7.141 -0.3115  0.5694  0.4947
 3128SOL    HW120843   1.640   1.198   7.161  0.0697  0.5462 -0.3224
 3128SOL    HW220844   1.540   1.251   7.074  1.2524  1.9262 -1.5761
 3129SOL     OW20845   2.716   2.325   4.894 -0.0001 -1.0186 -0.3174
 3129SOL    HW120846   2.660   2.402   4.883  0.1762 -0.7412  0.7720
 3129SOL    HW220847   2.656   2.257   4.865 -1.3526 -0.2197  0.5959
 3130SOL     OW20848   0.059   2.565   9.356  0.2077 -0.1380 -0.2902
 3130SOL    HW120849   0.152   2.562   9.335  0.4875  1.5852  0.7233
 3130SOL    HW220850   0.060   2.556   9.451 -2.9040 -0.2584 -0.2700
 3131SOL     OW20851   0.989   0.294   9.584  0.5806 -0.2561  1.0161
 3131SOL    HW120852   0.998   0.307   9.490  2.3462 -1.1486  1.0779
 3131SOL    HW220853   0.965   0.202   9.592  0.8487 -0.5969 -2.0083
 3132SOL     OW20854   4.008   4.446   8.469 -0.2611  0.1981  0.2078
 3132SOL    HW120855   4.098   4.475   8.453 -0.0717 -0.9232 -0.7272
 3132SOL    HW220856   4.019   4.360   8.429 -1.8292  0.9332 -1.8031
 3133SOL     OW20857   1.367   2.087   5.131  0.5926  0.6671  0.5005
 3133SOL    HW120858   1.358   2.182   5.129  0.4912  0.5630 -3.1584
 3133SOL    HW220859   1.440   2.070   5.071 -0.2480 -0.3963 -0.2153
 3134SOL     OW20860   3.554   3.308   7.700  0.5401  0.1114 -0.1948
 3134SOL    HW120861   3.493   3.282   7.770  0.5508 -0.8191 -0.5302
 3134SOL    HW220862   3.545   3.401   7.720 -1.7806  0.3194 -2.3127
 3135SOL     OW20863   0.235   4.207  17.576  0.3676  0.7271  0.2064
 3135SOL    HW120864   0.244   4.241  17.486  1.2645  0.3212  0.1458
 3135SOL    HW220865   0.188   4.126  17.561  2.1625 -0.5224  1.3912
 3136SOL     OW20866   3.921   1.359   1.801  0.4776 -0.1292 -0.6603
 3136SOL    HW120867   3.891   1.438   1.757 -1.1161 -1.0502 -1.2442
 3136SOL    HW220868   3.930   1.303   1.725 -2.4863 -0.3343 -0.8559
 3137SOL     OW20869   3.957   0.109   1.550  0.2321  0.3547 -0.0593
 3137SOL    HW120870   3.977   0.127   1.458  1.7074  2.4940  0.6945
 3137SOL    HW220871   4.044   0.085   1.580  0.9387 -1.8269 -3.8389
 3138SOL     OW20872   1.229   1.251  14.221 -0.1704 -0.1407 -0.0589
 3138SOL    HW120873   1.189   1.337  14.211 -1.4405 -0.9673 -2.0951
 3138SOL    HW220874   1.151   1.205  14.250 -0.9442  0.0468 -1.9016
 3139SOL     OW20875   3.083   1.472  17.254 -0.3560 -0.4415 -0.3802
 3139SOL    HW120876   3.119   1.530  17.321 -1.3906 -1.2392  0.8481
 3139SOL    HW220877   2.989   1.474  17.271 -0.2401 -0.1862  0.2091
 3140SOL     OW20878   3.194   2.641   6.991  0.7545 -0.2696  0.0260
 3140SOL    HW120879   3.197   2.611   7.082 -2.0461  0.5242  0.3799
 3140SOL    HW220880   3.100   2.655   6.978  0.6228 -1.0552  0.1477
 3141SOL     OW20881   1.784   4.662   6.828  0.1132 -0.6751 -0.5163
 3141SOL    HW120882   1.754   0.003   6.889  0.8586 -0.5510 -0.2846
 3141SOL    HW220883   1.869   4.648   6.869 -0.5507  0.6368  1.3319
 3142SOL     OW20884   2.281   0.508   8.632  0.4127 -0.0762 -0.2640
 3142SOL    HW120885   2.301   0.421   8.598 -1.5413 -0.2717 -0.9159
 3142SOL    HW220886   2.242   0.488   8.718 -1.4094  0.2513 -1.0062
 3143SOL     OW20887   2.937   1.889   2.167 -0.2208  0.0555  0.4528
 3143SOL    HW120888   2.851   1.877   2.128  0.3520 -0.9927 -0.4851
 3143SOL    HW220889   2.944   1.816   2.229  2.1556 -0.2863 -0.2005
 3144SOL     OW20890   0.663   2.080   6.859  0.3378 -0.3325  0.2314
 3144SOL    HW120891   0.665   2.162   6.910 -0.1040  0.2991 -0.7624
 3144SOL    HW220892   0.691   2.104   6.771  0.0187  0.7402  0.4208
 3145SOL     OW20893   3.793   3.706   8.916  0.3376 -0.0778  0.3143
 3145SOL    HW120894   3.779   3.789   8.962 -1.2145 -1.9749  3.2662
 3145SOL    HW220895   3.827   3.650   8.986  4.2728  0.8904 -0.8110
 3146SOL     OW20896   2.589   4.362   3.881 -0.3363 -0.4889  0.0166
 3146SOL    HW120897   2.670   4.359   3.933  0.5902 -1.1439 -1.4880
 3146SOL    HW220898   2.543   4.293   3.929 -3.8645  0.8978 -1.4086
 3147SOL     OW20899   1.180   3.882   4.113 -0.0114  0.3062 -0.7139
 3147SOL    HW120900   1.122   3.810   4.139 -1.1329  0.4530 -2.7302
 3147SOL    HW220901   1.158   3.892   4.020  0.9954  1.5383 -0.8161
 3148SOL     OW20902   2.542   0.581   9.330  0.1618  0.0451  0.1340
 3148SOL    HW120903   2.581   0.632   9.400 -2.5105  2.8994 -0.4931
 3148SOL    HW220904   2.617   0.574   9.271  0.0662 -0.0430  0.0222
 3149SOL     OW20905   0.967   4.440   5.822 -0.2557  0.6082 -0.0557
 3149SOL    HW120906   0.909   4.490   5.879 -1.0135  1.4375 -1.5409
 3149SOL    HW220907   0.967   4.499   5.746 -1.9695 -0.1620 -0.6475
 3150SOL     OW20908   1.659   1.725   8.287 -0.6040  0.1565  0.1464
 3150SOL    HW120909   1.578   1.691   8.326 -0.8588 -1.6132 -1.9716
 3150SOL    HW220910   1.721   1.683   8.347 -1.9685 -2.5609 -0.3365
 3151SOL     OW20911   1.776   1.561   8.515 -0.7306  0.1755  0.3558
 3151SOL    HW120912   1.742   1.594   8.598  0.6232  3.4261 -0.3488
 3151SOL    HW220913   1.867   1.571   8.544 -0.6880  1.2959 -0.1400
 3152SOL     OW20914   3.226   1.701  15.978 -0.3100 -0.1735 -0.4896
 3152SOL    HW120915   3.289   1.772  15.991 -1.7186  1.0690 -0.4423
 3152SOL    HW220916   3.284   1.628  16.001 -1.8229 -1.1526  0.1923
 3153SOL     OW20917   4.359   0.333   0.083  0.0926  0.2249  0.5674
 3153SOL    HW120918   4.272   0.342   0.043  0.7547 -1.6641 -1.3288
 3153SOL    HW220919   4.410   0.353   0.004 -1.5849 -1.2306 -0.8967
 3154SOL     OW20920   2.127   2.830   6.908 -0.1500  0.0110 -0.1083
 3154SOL    HW120921   2.153   2.857   6.820 -0.6804  0.1832 -0.2135
 3154SOL    HW220922   2.035   2.856   6.902 -0.1159  0.1894  0.1593
 3155SOL     OW20923   3.226   2.877   5.788 -0.0111  0.8150  0.4134
 3155SOL    HW120924   3.316   2.853   5.811  0.8251 -0.5216 -4.3461
 3155SOL    HW220925   3.198   2.926   5.866  0.9096 -0.0939  1.3221
 3156SOL     OW20926   1.230   1.283   7.414  0.6341  0.1563 -0.4073
 3156SOL    HW120927   1.227   1.226   7.490 -1.1815 -1.4889 -1.7051
 3156SOL    HW220928   1.146   1.328   7.413  0.5581 -0.0006 -1.1745
 3157SOL     OW20929   0.943   4.354   5.455  0.0011 -0.6404 -0.5174
 3157SOL    HW120930   0.948   4.380   5.362 -0.0912  1.5790  0.0876
 3157SOL    HW220931   0.938   4.444   5.487 -3.3863 -1.6124  1.6284
 3158SOL     OW20932   0.699   3.184  11.800 -0.3014  0.1899 -0.1452
 3158SOL    HW120933   0.621   3.129  11.788  0.4758 -0.8937 -0.2612
 3158SOL    HW220934   0.766   3.115  11.803  0.0678  0.5275 -0.7751
 3159SOL     OW20935   0.156   3.287  14.869 -0.4571  0.3476 -0.4989
 3159SOL    HW120936   0.106   3.348  14.815 -0.2022 -0.3501 -1.5222
 3159SOL    HW220937   0.090   3.218  14.880 -0.4624  0.3598 -0.4557
 3160SOL     OW20938   0.209   0.432   1.846 -0.2564 -0.0190  0.2986
 3160SOL    HW120939   0.171   0.441   1.759 -0.6709 -3.6443  0.0944
 3160SOL    HW220940   0.223   0.337   1.847 -1.6043 -0.2511 -1.7363
 3161SOL     OW20941   0.665   3.754   8.166 -0.0630 -0.0588 -0.2839
 3161SOL    HW120942   0.582   3.776   8.124  0.3234  0.3958 -0.8256
 3161SOL    HW220943   0.730   3.789   8.104  2.3211 -1.1298  1.5973
 3162SOL     OW20944   4.331   3.837   3.568  0.3286 -0.3589 -0.4240
 3162SOL    HW120945   4.396   3.883   3.514 -0.2196  1.2257  0.2568
 3162SOL    HW220946   4.308   3.905   3.632 -0.1031 -0.2508 -0.6940
 3163SOL     OW20947   3.310   3.576   3.587  0.0962 -0.1077 -0.4027
 3163SOL    HW120948   3.262   3.511   3.639 -0.3762  1.1797  0.7900
 3163SOL    HW220949   3.247   3.641   3.554  0.6856  0.6125 -0.1000
 3164SOL     OW20950   2.860   0.185  14.631 -0.0900 -0.4142 -0.1684
 3164SOL    HW120951   2.856   0.266  14.681 -0.6585 -0.6973  0.2523
 3164SOL    HW220952   2.885   0.130  14.705  1.1214  0.8444  0.3486
 3165SOL     OW20953   3.990   3.615   3.280  0.0820  0.5201 -0.2044
 3165SOL    HW120954   3.930   3.653   3.216 -0.7666 -1.0774 -0.3661
 3165SOL    HW220955   4.064   3.671   3.256  1.0092  0.3850  2.3109
 3166SOL     OW20956   2.398   0.396   2.335  0.5574  0.4007 -0.0617
 3166SOL    HW120957   2.460   0.468   2.331  0.0616  0.8509  0.3937
 3166SOL    HW220958   2.345   0.412   2.413 -2.0029  0.1966 -1.7511
 3167SOL     OW20959   4.345   4.029   6.347  0.2393 -0.0691  0.0717
 3167SOL    HW120960   4.361   3.936   6.334  0.1751 -0.3153  1.6974
 3167SOL    HW220961   4.423   4.058   6.395  0.4521  0.4705 -0.5995
 3168SOL     OW20962   4.707   0.182   3.400 -0.7707 -0.1742 -0.3593
 3168SOL    HW120963   0.067   0.205   3.435 -1.2119  0.1315  0.5287
 3168SOL    HW220964   0.007   0.145   3.316 -0.6146 -1.2559  0.1582
 3169SOL     OW20965   2.121   0.267   3.231 -0.4794 -0.5196  0.9089
 3169SOL    HW120966   2.086   0.206   3.166 -2.0157  0.6579  0.6450
 3169SOL    HW220967   2.083   0.352   3.209  0.5811 -0.0701  0.8470
 3170SOL     OW20968   4.245   1.520   9.612  0.0690 -0.2647  0.0345
 3170SOL    HW120969   4.212   1.445   9.661  0.3061 -0.3256  0.0970
 3170SOL    HW220970   4.289   1.572   9.679 -3.2185  0.4640  1.6211
 3171SOL     OW20971   0.409   2.963   4.286  0.4285 -0.0664 -0.3210
 3171SOL    HW120972   0.475   2.938   4.222  1.7927 -0.2450  1.1314
 3171SOL    HW220973   0.403   2.889   4.347  3.1018 -0.2345 -0.2535
 3172SOL     OW20974   0.977   0.844  17.608  0.1449  0.2740 -0.1994
 3172SOL    HW120975   1.032   0.917  17.579 -1.4661  1.4469 -0.3150
 3172SOL    HW220976   0.997   0.776  17.544 -3.8812 -0.3917 -0.7277
 3173SOL     OW20977   1.953   3.500  10.378  0.2244  0.5443  0.6136
 3173SOL    HW120978   1.886   3.443  10.416  2.2403 -2.0377  0.2979
 3173SOL    HW220979   1.944   3.570  10.442  0.6110  1.0950  0.0645
 3174SOL     OW20980   4.316   0.685   9.106  0.3305 -0.5156  0.2924
 3174SOL    HW120981   4.280   0.600   9.081 -1.6673 -0.6159  3.5572
 3174SOL    HW220982   4.242   0.745   9.094 -2.3276 -3.8914 -0.2298
 3175SOL     OW20983   4.295   0.143   6.710 -0.1585  0.5285  0.4786
 3175SOL    HW120984   4.306   0.054   6.677  0.7456  0.4468  1.0112
 3175SOL    HW220985   4.374   0.157   6.761  1.0100 -0.0150 -1.1768
 3176SOL     OW20986   4.561   1.760   1.126  0.4104  0.6000  0.3963
 3176SOL    HW120987   4.504   1.792   1.056  0.2619  1.3797  0.8735
 3176SOL    HW220988   4.595   1.681   1.084  0.6318  0.7302  0.3309
 3177SOL     OW20989   3.297   2.800   7.235 -0.6565  0.0780  0.3412
 3177SOL    HW120990   3.245   2.859   7.289 -1.0888  0.1402 -0.1426
 3177SOL    HW220991   3.266   2.713   7.259 -0.6974 -0.1299 -0.4339
 3178SOL     OW20992   0.149   0.909   8.969  0.3872  0.5698 -0.5110
 3178SOL    HW120993   0.087   0.959   9.022 -0.6710 -2.0442  0.7596
 3178SOL    HW220994   0.217   0.888   9.032 -1.0349 -0.1194  0.7976
 3179SOL     OW20995   3.806   4.405   9.785 -0.9154 -0.6958 -0.3418
 3179SOL    HW120996   3.818   4.403   9.690 -2.5627  1.5558 -0.6106
 3179SOL    HW220997   3.715   4.434   9.790 -0.5963  0.3873 -0.7792
 3180SOL     OW20998   2.523   1.231   8.768 -0.5414 -0.1289  0.1007
 3180SOL    HW120999   2.570   1.226   8.685 -2.9039 -1.0773 -1.1866
 3180SOL    HW221000   2.472   1.151   8.761  0.6663 -0.9293  0.4022
 3181SOL     OW21001   0.458   3.129  10.077 -0.5713 -0.7412  0.0621
 3181SOL    HW121002   0.456   3.173   9.992 -1.3148  2.5551  1.7932
 3181SOL    HW221003   0.369   3.096  10.086 -0.6011 -1.0951 -1.4715
 3182SOL     OW21004   3.801   0.846   8.448 -0.5060  0.3140 -0.1784
 3182SOL    HW121005   3.794   0.756   8.416 -2.7379 -0.0384  1.2653
 3182SOL    HW221006   3.896   0.857   8.445 -0.4601 -1.1457 -3.4532
 3183SOL     OW21007   3.986   2.816   9.075  0.4767  0.7312  0.0151
 3183SOL    HW121008   3.929   2.759   9.127 -1.3097  1.9367 -0.6577
 3183SOL    HW221009   4.022   2.861   9.152 -0.7258  3.3866 -0.9904
 3184SOL     OW21010   3.811   3.927  10.608  0.3660 -0.2147 -0.0926
 3184SOL    HW121011   3.832   4.009  10.651  0.2911  0.1540 -0.7673
 3184SOL    HW221012   3.895   3.901  10.570  0.4223  1.8581 -1.3636
 3185SOL     OW21013   1.049   0.676   8.417  0.3715  0.4540 -0.3217
 3185SOL    HW121014   1.107   0.612   8.457  2.0087  1.6258 -0.8134
 3185SOL    HW221015   1.035   0.623   8.339  0.9741  0.1205 -0.1967
 3186SOL     OW21016   1.776   2.229   3.496  0.5983 -0.0047 -0.3459
 3186SOL    HW121017   1.790   2.147   3.449 -0.6078 -1.5083  1.8793
 3186SOL    HW221018   1.866   2.258   3.510  1.2625 -0.9276 -2.7284
 3187SOL     OW21019   4.651   2.271   5.864 -0.0802 -0.0099  0.0543
 3187SOL    HW121020   0.011   2.313   5.861  0.5065 -1.2555 -1.0034
 3187SOL    HW221021   4.586   2.335   5.835  0.3886  1.2576  1.7802
 3188SOL     OW21022   0.298   0.957  17.106  0.3441  0.1586  0.0101
 3188SOL    HW121023   0.242   0.888  17.071  1.1434 -0.6045  0.2213
 3188SOL    HW221024   0.296   0.940  17.200  3.4242 -0.3103  0.0130
 3189SOL     OW21025   4.471   2.334  10.465  0.2073  0.1642  0.4410
 3189SOL    HW121026   4.530   2.267  10.431 -1.1037  1.0037 -3.5082
 3189SOL    HW221027   4.398   2.280  10.495  0.8723 -1.9612 -1.8519
 3190SOL     OW21028   0.644   0.105   4.652 -0.4556 -0.3537 -0.1751
 3190SOL    HW121029   0.702   0.054   4.708 -1.3149 -1.0675  0.0604
 3190SOL    HW221030   0.588   0.036   4.617 -0.3360  0.3464 -1.7797
 3191SOL     OW21031   1.255   2.472   4.531 -0.1435  0.0066  0.4086
 3191SOL    HW121032   1.179   2.498   4.583  0.1119 -2.3322  1.9703
 3191SOL    HW221033   1.213   2.438   4.451 -0.7106 -0.7420  1.0218
 3192SOL     OW21034   1.159   3.663   7.471  0.0606  0.8169  0.4375
 3192SOL    HW121035   1.123   3.593   7.417  0.9656  1.1831 -0.6395
 3192SOL    HW221036   1.208   3.717   7.409 -1.0406  0.9397 -0.3291
 3193SOL     OW21037   2.394   0.894   3.532 -0.4458  0.1136 -0.0070
 3193SOL    HW121038   2.399   0.826   3.599  0.4496  2.1177  1.9224
 3193SOL    HW221039   2.299   0.890   3.517 -0.4278 -1.7810  0.3825
 3194SOL     OW21040   0.627   3.909   2.994  0.6915 -0.2696 -0.4525
 3194SOL    HW121041   0.671   3.877   3.073  0.4323 -0.1037 -0.2414
 3194SOL    HW221042   0.657   4.000   2.986  0.4740 -0.3206 -1.8372
 3195SOL     OW21043   1.769   3.066   7.748 -0.1969  0.1668  0.6040
 3195SOL    HW121044   1.767   3.036   7.657 -2.8655  4.6094 -0.7938
 3195SOL    HW221045   1.861   3.049   7.771  0.7191 -0.0372 -3.2756
 3196SOL     OW21046   2.779   2.218   8.587 -0.2621  0.2215  0.4284
 3196SOL    HW121047   2.756   2.310   8.575 -1.9142 -0.3622 -0.9062
 3196SOL    HW221048   2.781   2.207   8.682  0.3646  2.2349  0.6435
 3197SOL     OW21049   2.344   4.331   5.461  0.6154  0.2051  0.2921
 3197SOL    HW121050   2.346   4.388   5.385 -0.1308 -0.7277 -0.4329
 3197SOL    HW221051   2.430   4.355   5.495  1.0891 -1.4131  0.2536
 3198SOL     OW21052   1.229   0.500   8.524 -0.2967  0.4069  0.2868
 3198SOL    HW121053   1.273   0.420   8.495  1.6636  0.9620  1.7287
 3198SOL    HW221054   1.307   0.548   8.551  0.4728 -1.3029  1.1006
 3199SOL     OW21055   0.931   0.304   1.510  0.0465 -0.1005  0.0213
 3199SOL    HW121056   0.866   0.257   1.458 -0.2816  1.7198 -1.2353
 3199SOL    HW221057   0.912   0.395   1.488  1.5336  0.7729  2.4259
 3200SOL     OW21058   2.387   0.573  15.166 -0.4381 -0.2321  0.4297
 3200SOL    HW121059   2.387   0.664  15.196 -1.2843 -0.4168  0.9826
 3200SOL    HW221060   2.481   0.557  15.167 -0.3958  0.0752  1.2318
 3201SOL     OW21061   1.930   2.913  10.219  0.2924  0.1265 -0.8472
 3201SOL    HW121062   1.996   2.855  10.259 -0.1502 -1.4122 -2.3645
 3201SOL    HW221063   1.905   2.864  10.141 -2.7940  1.2275 -0.5429
 3202SOL     OW21064   1.743   3.276   8.678 -0.3903 -0.2569 -0.1333
 3202SOL    HW121065   1.832   3.250   8.701 -1.2073 -0.1641  3.0867
 3202SOL    HW221066   1.742   3.250   8.585  0.9242  0.1072 -0.2513
 3203SOL     OW21067   1.188   1.927  10.734  0.5711 -0.5817 -0.3748
 3203SOL    HW121068   1.247   1.998  10.761  0.4355 -0.3791 -0.6122
 3203SOL    HW221069   1.115   1.982  10.704  0.9541  0.0084 -0.2332
 3204SOL     OW21070   0.487   2.351   8.921 -0.5840 -0.0995 -0.0299
 3204SOL    HW121071   0.494   2.258   8.942  1.4899 -0.2065 -1.1824
 3204SOL    HW221072   0.525   2.392   9.000 -1.2128  1.3154 -0.4678
 3205SOL     OW21073   3.544   3.974   9.529  0.0516 -0.7766 -0.2809
 3205SOL    HW121074   3.550   3.991   9.623  0.2002 -2.4706  0.0148
 3205SOL    HW221075   3.489   4.047   9.501  0.4580  0.9099  3.3801
 3206SOL     OW21076   2.385   3.187   5.700 -0.1461  0.2499 -0.5034
 3206SOL    HW121077   2.437   3.116   5.663 -0.1469  0.2171 -0.4425
 3206SOL    HW221078   2.350   3.231   5.623  0.6419  0.9280 -0.4705
 3207SOL     OW21079   3.792   2.633  16.957 -0.5867 -0.3324 -0.3352
 3207SOL    HW121080   3.754   2.553  16.921 -2.5521  0.7562 -0.6714
 3207SOL    HW221081   3.813   2.693  16.886  2.4806 -0.3904  0.5175
 3208SOL     OW21082   3.739   2.495  14.606 -0.1586  0.7737  0.4404
 3208SOL    HW121083   3.707   2.506  14.516  2.4730  0.0351 -0.5853
 3208SOL    HW221084   3.764   2.584  14.632 -0.3853  1.1873 -0.7319
 3209SOL     OW21085   4.441   4.500   3.727  0.7676 -0.3225  0.5941
 3209SOL    HW121086   4.527   4.515   3.687  0.5565 -0.9961 -0.1137
 3209SOL    HW221087   4.467   4.415   3.763 -0.0128 -0.0064  1.8891
 3210SOL     OW21088   0.932   4.639   6.668  0.0707  0.3862  0.4404
 3210SOL    HW121089   0.870   4.671   6.732 -1.5597  1.3356 -1.6040
 3210SOL    HW221090   1.014   4.636   6.717  0.1281 -0.3083  0.2994
 3211SOL     OW21091   1.607   3.654   2.107 -0.2574 -0.3657  0.0747
 3211SOL    HW121092   1.552   3.658   2.029  0.3200  1.3151 -0.2335
 3211SOL    HW221093   1.690   3.615   2.078  0.1692 -2.0515  3.4401
 3212SOL     OW21094   3.691   2.810   2.938 -0.2414  0.1191  0.3389
 3212SOL    HW121095   3.719   2.776   3.023  0.4653  2.2538  0.9668
 3212SOL    HW221096   3.757   2.791   2.872  2.1310  2.1007  2.1203
 3213SOL     OW21097   2.732   1.786   7.997 -0.0800 -0.0814  0.2166
 3213SOL    HW121098   2.767   1.871   8.024 -1.6139  0.7543 -0.4471
 3213SOL    HW221099   2.807   1.729   8.016  1.3974  0.7409 -3.1180
 3214SOL     OW21100   2.797   1.019   3.829 -0.0235  0.4752  0.1203
 3214SOL    HW121101   2.768   1.108   3.849  0.8443  0.6153  0.7699
 3214SOL    HW221102   2.805   0.984   3.918 -1.4638  1.9106  0.8357
 3215SOL     OW21103   1.695   1.471  15.496 -0.0500 -0.2365  0.1994
 3215SOL    HW121104   1.690   1.376  15.479  0.8980 -0.2826  0.2041
 3215SOL    HW221105   1.684   1.475  15.591 -0.3842  1.6206  0.0824
 3216SOL     OW21106   0.486   4.040   6.373  0.8356  0.1416 -0.5780
 3216SOL    HW121107   0.412   4.083   6.417  1.3996  1.1976 -0.6505
 3216SOL    HW221108   0.547   4.040   6.446 -0.7422 -0.7977  0.7433
 3217SOL     OW21109   4.206   2.689   8.984  0.5150  0.0403 -0.5830
 3217SOL    HW121110   4.152   2.740   9.044 -2.2404 -0.5225 -2.5636
 3217SOL    HW221111   4.136   2.629   8.955  2.2113 -1.3807 -1.7720
 3218SOL     OW21112   0.201   0.582   4.750  0.0807  0.0680 -0.5117
 3218SOL    HW121113   0.127   0.558   4.806  1.2484  1.6999  1.7519
 3218SOL    HW221114   0.271   0.555   4.810 -0.1552 -1.4265 -0.9125
 3219SOL     OW21115   1.793   2.130   2.643 -0.0723  0.0242 -0.0166
 3219SOL    HW121116   1.713   2.111   2.594 -0.1711 -1.1887  0.6158
 3219SOL    HW221117   1.755   2.177   2.717  1.2421  0.0803  0.6206
 3220SOL     OW21118   4.570   1.636  10.099  0.0144  0.1137 -0.3658
 3220SOL    HW121119   4.660   1.655  10.123 -0.1345  0.4109 -0.0496
 3220SOL    HW221120   4.530   1.723  10.089 -1.0583 -0.1350  1.8238
 3221SOL     OW21121   0.085   1.128  14.921 -0.5971 -0.1343  0.5944
 3221SOL    HW121122   0.109   1.164  15.007 -0.4631  0.8079  0.1670
 3221SOL    HW221123   0.087   1.035  14.942 -0.5384  0.0197  1.2785
 3222SOL     OW21124   4.261   0.234  12.161 -0.3003  0.0411 -0.0339
 3222SOL    HW121125   4.226   0.307  12.210  0.6897  1.6971 -1.7815
 3222SOL    HW221126   4.212   0.160  12.198 -1.7301  0.7801 -0.4617
 3223SOL     OW21127   3.465   4.055   3.338  0.0516 -0.4760  0.7776
 3223SOL    HW121128   3.528   4.047   3.410 -2.4459 -0.3976  2.9321
 3223SOL    HW221129   3.529   4.047   3.267 -0.8428  0.5924 -0.1476
 3224SOL     OW21130   2.092   1.175   0.523  0.1662  0.6408  0.2345
 3224SOL    HW121131   2.070   1.092   0.481  1.0074 -0.1058  1.2480
 3224SOL    HW221132   2.095   1.151   0.616 -1.0449  2.2362  0.6732
 3225SOL     OW21133   2.158   0.779   9.424  0.0548  0.4274  0.0165
 3225SOL    HW121134   2.128   0.825   9.502  1.4497  0.9699  0.2388
 3225SOL    HW221135   2.131   0.849   9.364 -2.0608 -1.5266 -1.3277
 3226SOL     OW21136   2.022   1.649   1.278  0.2596  0.2553 -0.1311
 3226SOL    HW121137   2.046   1.583   1.212  0.2790 -0.7695  0.8941
 3226SOL    HW221138   2.012   1.600   1.360  1.0679 -1.0611 -0.8026
 3227SOL     OW21139   0.888   0.295   7.791 -0.7395  0.2526 -0.0052
 3227SOL    HW121140   0.979   0.294   7.761 -1.2117 -1.7348 -1.3026
 3227SOL    HW221141   0.846   0.251   7.717 -1.1711  0.9588 -0.1781
 3228SOL     OW21142   4.638   3.278   5.678 -0.0329  0.4945 -0.4394
 3228SOL    HW121143   4.605   3.211   5.739  3.1891 -1.2632 -0.6249
 3228SOL    HW221144   0.007   3.266   5.678  0.0654  1.2622  0.9711
 3229SOL     OW21145   1.882   2.092  12.632  0.2720  0.1289  0.2457
 3229SOL    HW121146   1.831   2.034  12.575 -0.1685  0.5092  0.2526
 3229SOL    HW221147   1.810   2.155  12.634  0.4837  0.3463  1.2087
 3230SOL     OW21148   2.709   4.249  17.617 -0.5189  0.3429 -0.2363
 3230SOL    HW121149   2.630   4.201  17.591 -0.6451  1.0984 -1.2280
 3230SOL    HW221150   2.771   4.240  17.545 -0.1146 -3.1701  0.5400
 3231SOL     OW21151   3.040   0.882   5.448 -0.5634 -0.6275 -0.3567
 3231SOL    HW121152   2.944   0.884   5.447 -0.6008 -0.3533  2.5556
 3231SOL    HW221153   3.061   0.958   5.502 -1.5543  1.3961 -2.8493
 3232SOL     OW21154   2.922   0.693   4.243 -0.5998 -0.0125  0.3343
 3232SOL    HW121155   2.896   0.613   4.288  0.1918 -0.1386  0.5543
 3232SOL    HW221156   2.943   0.665   4.154 -2.4916  2.4233 -0.9021
 3233SOL     OW21157   4.467   2.017   3.452  0.2253  0.0329  0.4159
 3233SOL    HW121158   4.477   2.033   3.359 -1.8308  0.0307  0.1911
 3233SOL    HW221159   4.544   2.055   3.494 -0.1013  0.2337  0.8383
 3234SOL     OW21160   3.366   2.432   1.149  0.0768 -0.2352  0.0020
 3234SOL    HW121161   3.287   2.475   1.117  0.3737  3.0558  3.7014
 3234SOL    HW221162   3.330   2.350   1.184 -0.7441  0.6698  1.2599
 3235SOL     OW21163   0.818   2.775   7.690  0.4519  0.3427 -0.1813
 3235SOL    HW121164   0.723   2.761   7.695  0.6073 -0.4103  0.7879
 3235SOL    HW221165   0.843   2.837   7.759 -0.6325  0.6629 -0.0772
 3236SOL     OW21166   2.835   4.297   5.614  0.4750 -0.3144  0.1847
 3236SOL    HW121167   2.879   4.372   5.574  3.3878 -2.2464 -0.3125
 3236SOL    HW221168   2.830   4.320   5.706  0.0756  0.3372 -0.0040
 3237SOL     OW21169   3.638   4.664   9.189 -0.1577 -0.2376  0.2483
 3237SOL    HW121170   3.714   4.662   9.130 -0.4591 -0.2753 -0.1406
 3237SOL    HW221171   3.577   4.662   9.115  3.6110 -1.9404 -2.8301
 3238SOL     OW21172   0.268   4.604  15.803 -0.1177  0.2002 -0.1990
 3238SOL    HW121173   0.241   4.695  15.814 -2.0403 -0.8024  3.6366
 3238SOL    HW221174   0.301   4.593  15.714  0.7050  2.3654 -0.1706
 3239SOL     OW21175   3.425   2.182  10.473  0.6446  0.1025  0.0137
 3239SOL    HW121176   3.483   2.223  10.410 -0.3718  0.4855 -0.6670
 3239SOL    HW221177   3.414   2.093  10.439 -2.3003  0.7102 -0.5738
 3240SOL     OW21178   2.496   3.183   4.688  0.5643 -0.0080 -0.2329
 3240SOL    HW121179   2.490   3.161   4.781 -0.8971  2.3057  0.2225
 3240SOL    HW221180   2.588   3.209   4.684  0.3181  1.2990  2.6722
 3241SOL     OW21181   4.280   1.106   6.894 -0.6103 -0.1248  0.2719
 3241SOL    HW121182   4.195   1.147   6.908 -0.9357 -1.3257  1.8459
 3241SOL    HW221183   4.294   1.079   6.985 -2.1172  0.5271  0.6995
 3242SOL     OW21184   1.355   1.094   1.990 -0.0176  0.5194 -0.2073
 3242SOL    HW121185   1.283   1.136   1.943 -1.6656 -0.3743  1.5260
 3242SOL    HW221186   1.364   1.025   1.924 -2.1553  0.4494 -0.4340
 3243SOL     OW21187   2.116   0.338  14.326  0.2014 -0.0936 -0.0726
 3243SOL    HW121188   2.035   0.296  14.298 -0.7116  0.8195  1.1730
 3243SOL    HW221189   2.099   0.431  14.308 -3.2381 -0.7135 -0.0990
 3244SOL     OW21190   3.086   2.179   7.952  0.2565  0.9560  0.3794
 3244SOL    HW121191   3.072   2.272   7.937  0.7309  0.7735 -1.1568
 3244SOL    HW221192   3.070   2.142   7.866 -0.5348 -0.1741  1.0111
 3245SOL     OW21193   1.234   1.795   5.814  0.0568 -0.1755  0.4133
 3245SOL    HW121194   1.163   1.740   5.847  0.2756 -1.0516 -0.5937
 3245SOL    HW221195   1.279   1.732   5.758 -1.4490 -1.5299  0.7515
 3246SOL     OW21196   3.908   0.202   0.085 -0.4038  0.1309  0.6106
 3246SOL    HW121197   3.937   0.293   0.079  2.4398 -0.9621 -2.4725
 3246SOL    HW221198   3.843   0.198   0.155 -0.8357 -0.7117  0.1638
 3247SOL     OW21199   0.243   0.443   2.729  0.2727 -0.0997 -0.5012
 3247SOL    HW121200   0.272   0.403   2.647 -1.7035 -0.1164 -1.1835
 3247SOL    HW221201   0.296   0.523   2.722 -0.2430  0.2476 -0.3609
 3248SOL     OW21202   4.034   3.768   7.828 -0.3796  0.6219  0.7013
 3248SOL    HW121203   4.041   3.674   7.844  0.8293  0.5928 -0.0195
 3248SOL    HW221204   4.121   3.798   7.855  0.1413 -0.5682  0.3371
 3249SOL     OW21205   1.568   4.208   3.464  0.1257  0.2660  0.1962
 3249SOL    HW121206   1.484   4.213   3.418  0.3825 -2.3290 -0.5039
 3249SOL    HW221207   1.622   4.167   3.397  2.0974 -0.5476  2.2904
 3250SOL     OW21208   3.997   1.566   8.944 -0.4320 -0.2016  0.0772
 3250SOL    HW121209   3.957   1.565   8.857 -0.9324  0.0515  0.3082
 3250SOL    HW221210   4.007   1.660   8.963 -1.2855 -0.4112  1.5796
 3251SOL     OW21211   2.093   2.890   0.029  0.5786 -0.3467 -0.1453
 3251SOL    HW121212   2.030   2.818   0.022  1.3320 -1.0265  0.0917
 3251SOL    HW221213   2.092   2.936  17.649 -0.6934 -0.2163 -0.0646
 3252SOL     OW21214   3.536   0.600   6.080  0.2198 -0.1238  0.2098
 3252SOL    HW121215   3.549   0.509   6.108 -1.0291 -0.4005 -0.1190
 3252SOL    HW221216   3.454   0.619   6.126 -0.9275 -1.8966 -1.1239
 3253SOL     OW21217   2.436   1.052   6.439 -0.4171 -0.5520  0.4908
 3253SOL    HW121218   2.500   0.994   6.398 -0.9969 -1.7132  1.2264
 3253SOL    HW221219   2.354   1.010   6.412 -0.6726  0.0515  0.3332
 3254SOL     OW21220   4.153   1.084   0.941  0.1223  0.4072  0.5264
 3254SOL    HW121221   4.108   1.021   0.997 -0.5771  1.0502  0.6816
 3254SOL    HW221222   4.105   1.079   0.858  0.8307  1.6438  0.0360
 3255SOL     OW21223   2.050   3.346   7.825  0.1871 -0.5253  0.2038
 3255SOL    HW121224   1.970   3.379   7.865  0.7373  0.3545  0.5877
 3255SOL    HW221225   2.041   3.252   7.840 -1.0661 -0.1605  1.6077
 3256SOL     OW21226   3.871   0.621   8.723 -0.3078  0.2910 -0.1242
 3256SOL    HW121227   3.782   0.640   8.754 -0.7880 -1.3996 -0.4634
 3256SOL    HW221228   3.856   0.608   8.629 -3.5524  1.9566  0.1434
 3257SOL     OW21229   2.296   0.073   8.762 -0.2664 -0.2762  0.1699
 3257SOL    HW121230   2.291   0.040   8.851 -0.4320  2.2578  1.0771
 3257SOL    HW221231   2.235   0.008   8.727  1.1402 -1.5101  0.0096
 3258SOL     OW21232   0.380   2.307   3.107 -0.1532 -0.0118  0.5072
 3258SOL    HW121233   0.423   2.256   3.175  1.1981 -0.7557 -0.9124
 3258SOL    HW221234   0.307   2.354   3.149  0.1840  2.7757 -1.9645
 3259SOL     OW21235   0.566   2.049  17.369  0.0787  0.2424  0.7409
 3259SOL    HW121236   0.473   2.031  17.356  0.2563  0.3999 -0.7910
 3259SOL    HW221237   0.609   1.964  17.358 -1.3547 -0.3513 -0.3482
 3260SOL     OW21238   3.780   0.077   4.203  0.2959 -0.0276 -0.7138
 3260SOL    HW121239   3.720   0.122   4.144  2.9517  2.2954 -1.6746
 3260SOL    HW221240   3.813   0.017   4.135  0.1514 -1.4465  0.4555
 3261SOL     OW21241   4.492   0.048   6.918  0.6983  0.0730 -0.3160
 3261SOL    HW121242   4.505   0.067   7.011 -0.3102 -1.3072  0.0990
 3261SOL    HW221243   4.578   0.056   6.877  0.8483  0.1916  0.0237
 3262SOL     OW21244   2.903   2.088  13.575  0.4647  0.1622 -0.0172
 3262SOL    HW121245   2.918   2.033  13.498 -1.6027  1.7412 -1.5448
 3262SOL    HW221246   2.895   2.176  13.538  3.0047 -0.2321 -1.4520
 3263SOL     OW21247   2.922   4.079   4.417 -0.1939 -0.2722 -0.5115
 3263SOL    HW121248   2.991   4.142   4.399  0.1114  0.1191  2.1300
 3263SOL    HW221249   2.972   4.001   4.391  1.6805  0.6479  0.3662
 3264SOL     OW21250   4.678   0.500  16.331 -0.3449  0.0409  0.0713
 3264SOL    HW121251   4.723   0.496  16.247  0.6152  2.7266  0.4537
 3264SOL    HW221252   4.610   0.437  16.308  0.2465 -1.1063  1.4604
 3265SOL     OW21253   4.234   0.653   3.066 -0.2981  0.2733  0.3531
 3265SOL    HW121254   4.239   0.675   3.158 -1.9999 -0.1572  0.5469
 3265SOL    HW221255   4.270   0.565   3.055  2.9747  1.6264  0.2637
 3266SOL     OW21256   1.683   1.347  13.911 -0.5130 -0.1369  0.3425
 3266SOL    HW121257   1.728   1.271  13.949  2.0840  2.2224  1.9915
 3266SOL    HW221258   1.596   1.342  13.950 -0.6201  0.2116  0.1453
 3267SOL     OW21259   3.137   2.235  14.721  0.0363 -0.1757  0.3055
 3267SOL    HW121260   3.193   2.159  14.736 -0.8512 -0.7713  0.6374
 3267SOL    HW221261   3.167   2.256  14.633 -2.1592  2.3273  0.1743
 3268SOL     OW21262   1.033   1.891   2.075  0.3479  0.3335  0.1602
 3268SOL    HW121263   1.095   1.823   2.049 -1.1813 -1.2926  0.7253
 3268SOL    HW221264   0.982   1.838   2.137 -0.6829  0.0075 -0.9650
 3269SOL     OW21265   0.502   1.715   4.388  0.1588  0.0054 -0.0050
 3269SOL    HW121266   0.424   1.749   4.432 -0.6268 -0.2531 -1.2018
 3269SOL    HW221267   0.458   1.646   4.338  0.3999 -0.2319  0.1131
 3270SOL     OW21268   2.374   1.090   9.080  0.3182  0.4108  0.1617
 3270SOL    HW121269   2.379   1.027   9.152 -1.4251 -0.2703 -0.3120
 3270SOL    HW221270   2.344   1.036   9.007 -0.7993  0.8249  0.3061
 3271SOL     OW21271   0.324   0.456   7.633  0.0879  0.0384  0.6503
 3271SOL    HW121272   0.415   0.465   7.661  0.6867 -2.3046 -0.4887
 3271SOL    HW221273   0.331   0.450   7.538  0.4944 -0.9252  0.7363
 3272SOL     OW21274   2.923   2.212   3.684 -0.1982  0.3042  0.0827
 3272SOL    HW121275   2.895   2.273   3.616  2.1953  0.1507 -1.0472
 3272SOL    HW221276   2.934   2.133   3.630 -0.7923  1.0360 -1.1111
 3273SOL     OW21277   3.728   0.617  11.063  0.0496 -0.1394  0.9528
 3273SOL    HW121278   3.793   0.679  11.096  0.6292  0.7785 -1.8733
 3273SOL    HW221279   3.780   0.571  10.996 -1.5946 -1.8989  0.8679
 3274SOL     OW21280   0.988   2.402   1.985  0.0962  0.1999  0.1497
 3274SOL    HW121281   1.069   2.388   1.937  1.3419  0.5151  2.1583
 3274SOL    HW221282   0.951   2.314   1.981  0.4153 -0.0291  2.1026
 3275SOL     OW21283   3.780   1.130   3.747 -0.2261 -0.4382 -0.1524
 3275SOL    HW121284   3.844   1.061   3.734 -0.9846 -0.9865 -0.9771
 3275SOL    HW221285   3.816   1.185   3.678 -0.2280  0.6072  0.6859
 3276SOL     OW21286   0.357   3.949   8.088  0.2743  0.0330  0.3376
 3276SOL    HW121287   0.408   3.881   8.044 -1.2745  0.2432 -1.7926
 3276SOL    HW221288   0.367   4.015   8.020 -0.2842  1.0220  1.2079
 3277SOL     OW21289   1.218   2.588   5.111 -0.4731  0.6633 -0.4568
 3277SOL    HW121290   1.271   2.621   5.183  1.6569 -0.0943 -1.6895
 3277SOL    HW221291   1.190   2.673   5.078 -0.6121  1.3250  1.3770
 3278SOL     OW21292   1.785   4.379   7.015 -0.1370  0.7666  0.4446
 3278SOL    HW121293   1.787   4.309   6.951 -1.2207 -0.8239  2.1441
 3278SOL    HW221294   1.696   4.412   6.999 -0.3270  1.2529  2.4326
 3279SOL     OW21295   0.229   1.440   2.818 -0.7296  0.1250 -0.0607
 3279SOL    HW121296   0.318   1.445   2.783 -0.2350 -1.8976  0.8811
 3279SOL    HW221297   0.180   1.403   2.744 -0.0995  0.4066 -0.6160
 3280SOL     OW21298   0.051   2.135  11.881 -0.1876  0.6677 -0.1956
 3280SOL    HW121299   0.110   2.081  11.936 -0.4555  0.4194 -0.1509
 3280SOL    HW221300   4.698   2.097  11.919 -0.1499 -0.1193 -0.9050
 3281SOL     OW21301   0.142   3.106   3.997 -0.1434  0.2990  0.1352
 3281SOL    HW121302   0.171   3.119   4.087 -0.2225  2.9521 -0.1993
 3281SOL    HW221303   0.224   3.088   3.951 -0.9990 -1.3415 -0.7243
 3282SOL     OW21304   3.757   0.553   6.660  0.6497  0.3227 -0.3230
 3282SOL    HW121305   3.799   0.574   6.577  2.3679  0.3770  0.5581
 3282SOL    HW221306   3.664   0.555   6.638  0.9422  0.2800 -1.5308
 3283SOL     OW21307   3.951   2.858  12.674  0.0300 -0.0224  0.2619
 3283SOL    HW121308   4.011   2.931  12.657  2.9032 -1.8037  2.7665
 3283SOL    HW221309   3.973   2.803  12.599 -1.2178 -0.0799 -0.0634
 3284SOL     OW21310   4.250   1.657   7.635 -0.3992  0.8530 -0.1014
 3284SOL    HW121311   4.160   1.679   7.661 -1.1723  0.0251 -2.0904
 3284SOL    HW221312   4.235   1.651   7.541  0.2041 -0.1893 -0.1297
 3285SOL     OW21313   1.422   1.838   5.227  0.3494  0.1086  0.2176
 3285SOL    HW121314   1.486   1.878   5.286 -1.1802  1.7119  0.7875
 3285SOL    HW221315   1.430   1.904   5.158 -2.2393  1.7288  1.4635
 3286SOL     OW21316   2.253   1.412   7.883  0.0818  0.3275  0.1487
 3286SOL    HW121317   2.336   1.388   7.842 -0.9845 -2.4147 -0.3679
 3286SOL    HW221318   2.281   1.453   7.965  0.2380 -0.0811  0.3009
 3287SOL     OW21319   4.015   3.248   6.300 -0.3078  0.3717 -0.1476
 3287SOL    HW121320   4.008   3.275   6.392  0.1553  0.0730 -0.0223
 3287SOL    HW221321   4.009   3.154   6.317 -1.8678  0.5307  0.1393
 3288SOL     OW21322   1.257   3.206   4.968  0.7946 -0.6492 -0.2602
 3288SOL    HW121323   1.281   3.242   5.053 -0.1448 -1.2735  0.2694
 3288SOL    HW221324   1.313   3.129   4.962 -0.8718 -2.0523  2.4781
 3289SOL     OW21325   1.289   2.101   3.388 -0.1582  0.3353  0.1871
 3289SOL    HW121326   1.337   2.021   3.408 -0.1211  0.5013  0.7651
 3289SOL    HW221327   1.231   2.061   3.323  1.2188 -1.4542  0.0797
 3290SOL     OW21328   3.584   4.149  16.064  0.4039 -0.3174 -0.6113
 3290SOL    HW121329   3.578   4.223  16.125  0.0834 -0.7272 -0.1430
 3290SOL    HW221330   3.672   4.167  16.032 -0.6665  2.5338 -1.9657
 3291SOL     OW21331   4.702   4.322   3.218  1.0065 -0.5369 -0.1918
 3291SOL    HW121332   4.684   4.370   3.137  1.6466 -1.7490 -1.0560
 3291SOL    HW221333   0.060   4.363   3.240  2.0520 -2.3000 -0.8941
 3292SOL     OW21334   4.180   3.398   6.768 -0.1854  0.3046  0.4850
 3292SOL    HW121335   4.232   3.471   6.801  0.9859 -1.3805  2.3838
 3292SOL    HW221336   4.238   3.323   6.778 -0.8781 -0.4339 -1.0003
 3293SOL     OW21337   1.431   1.121   3.832  0.0340  0.2717  0.1204
 3293SOL    HW121338   1.434   1.060   3.906  1.5987 -0.2388 -0.3651
 3293SOL    HW221339   1.496   1.078   3.777 -1.5212 -1.7560 -0.1235
 3294SOL     OW21340   2.928   2.307   5.119  0.4533 -0.3865  0.5083
 3294SOL    HW121341   2.852   2.290   5.063  1.0690  0.0728 -0.4536
 3294SOL    HW221342   2.964   2.381   5.071 -0.0796 -1.4235 -1.4603
 3295SOL     OW21343   3.242   0.803   6.814 -0.0077  0.1258 -0.1741
 3295SOL    HW121344   3.271   0.852   6.891 -2.8545  3.3174 -1.1692
 3295SOL    HW221345   3.326   0.758   6.801  0.2265  0.7003 -0.6445
 3296SOL     OW21346   3.601   4.097   3.048 -0.1976  0.0369 -0.3606
 3296SOL    HW121347   3.514   4.058   3.046 -0.1098 -0.2855  1.5928
 3296SOL    HW221348   3.622   4.103   2.955 -0.2904  4.3705 -0.1256
 3297SOL     OW21349   4.431   0.735  10.906 -0.1023  0.1636 -0.2735
 3297SOL    HW121350   4.433   0.666  10.840 -1.8206 -0.5384  0.3856
 3297SOL    HW221351   4.337   0.745  10.924 -0.6089 -2.0729 -1.7186
 3298SOL     OW21352   1.041   3.913  13.556  0.2378 -0.4989 -0.2061
 3298SOL    HW121353   1.069   3.998  13.590 -2.4281 -0.4690  1.8321
 3298SOL    HW221354   1.117   3.861  13.583 -0.7078 -1.4741  0.5776
 3299SOL     OW21355   1.924   2.646   2.412 -0.1449  0.0459  0.1071
 3299SOL    HW121356   1.871   2.682   2.341  0.4568  1.8154  0.5394
 3299SOL    HW221357   1.910   2.710   2.482 -1.8179  1.1951 -1.2643
 3300SOL     OW21358   0.524   0.567   7.259  0.0545  0.0473 -0.1545
 3300SOL    HW121359   0.521   0.584   7.165  0.5675  0.5239 -0.0814
 3300SOL    HW221360   0.454   0.626   7.286  0.1599  0.2952 -0.4285
 3301SOL     OW21361   2.646   1.259   3.750 -0.5417 -0.2243  0.0391
 3301SOL    HW121362   2.594   1.260   3.830  1.0492 -0.4785  1.0688
 3301SOL    HW221363   2.716   1.323   3.769  0.0554 -0.8556 -0.0450
 3302SOL     OW21364   2.885   2.864   5.673 -0.5752  0.4438  0.2633
 3302SOL    HW121365   2.790   2.861   5.687 -0.5608 -1.7999 -0.1763
 3302SOL    HW221366   2.911   2.799   5.738 -0.2682  0.2726 -0.0327
 3303SOL     OW21367   4.691   2.739  13.397 -0.3767  0.3818  0.2847
 3303SOL    HW121368   4.670   2.808  13.460 -2.7674  0.5396 -0.6927
 3303SOL    HW221369   0.035   2.787  13.353 -0.1394 -0.5848 -0.3912
 3304SOL     OW21370   0.508   3.352  14.432 -0.3587 -0.7540  0.0722
 3304SOL    HW121371   0.582   3.292  14.428  1.0359  0.9299  0.7111
 3304SOL    HW221372   0.539   3.414  14.498 -0.3062 -0.7812  0.0733
 3305SOL     OW21373   3.687   2.674  17.191 -0.6037  0.7600 -0.1896
 3305SOL    HW121374   3.732   2.678  17.107  0.0370  3.6712  0.2726
 3305SOL    HW221375   3.730   2.746  17.239 -1.8693  1.1937  0.2881
 3306SOL     OW21376   1.481   4.402   2.561  0.1960  0.3779 -0.5459
 3306SOL    HW121377   1.439   4.320   2.535  0.0628  0.5310 -0.8127
 3306SOL    HW221378   1.523   4.374   2.643 -0.2118 -0.7057 -0.7120
 3307SOL     OW21379   2.315   2.714   7.368 -0.6445 -0.0434  0.4897
 3307SOL    HW121380   2.356   2.716   7.282 -0.5448  0.1890  0.5433
 3307SOL    HW221381   2.380   2.748   7.430  1.3645 -1.2581 -0.9737
 3308SOL     OW21382   0.520   3.922   9.462  0.0060  0.1895 -0.2022
 3308SOL    HW121383   0.451   3.903   9.398  0.3162  0.5254 -0.6369
 3308SOL    HW221384   0.565   3.837   9.457 -0.4825 -0.0376 -0.9013
 3309SOL     OW21385   2.441   2.682   4.187  0.4534 -0.0871 -0.0469
 3309SOL    HW121386   2.443   2.722   4.100  1.0692 -1.5458 -0.6984
 3309SOL    HW221387   2.497   2.608   4.166  1.5547 -0.1936  3.2621
 3310SOL     OW21388   3.038   4.353   8.781 -0.0472  0.5469  0.5941
 3310SOL    HW121389   3.052   4.311   8.866  0.1229 -1.6949 -0.5508
 3310SOL    HW221390   3.103   4.303   8.733  0.5138  0.0407  1.8686
 3311SOL     OW21391   1.578   1.619   5.840 -0.3914  0.2920 -0.0645
 3311SOL    HW121392   1.593   1.680   5.769  1.5170  1.4528  1.3440
 3311SOL    HW221393   1.551   1.675   5.913 -2.7753 -1.8352  0.7282
 3312SOL     OW21394   3.217   0.327   4.124 -0.1693 -0.2901  1.0409
 3312SOL    HW121395   3.152   0.297   4.060  0.8093 -0.8007  0.2797
 3312SOL    HW221396   3.248   0.407   4.081  0.6685 -1.5669 -0.7223
 3313SOL     OW21397   4.617   2.157   0.266 -0.0588  0.4920  0.4995
 3313SOL    HW121398   4.603   2.235   0.213 -0.0630  1.3690  1.7735
 3313SOL    HW221399   4.711   2.159   0.286  0.1029  2.5743 -0.4400
 3314SOL     OW21400   1.963   0.090   9.728 -0.2991 -0.2127  0.0557
 3314SOL    HW121401   1.966   0.091   9.824  0.2821 -1.0135  0.0452
 3314SOL    HW221402   1.869   0.074   9.723 -0.4414  0.6771 -0.1483
 3315SOL     OW21403   4.235   2.595  11.803 -0.3318 -0.0244 -0.0116
 3315SOL    HW121404   4.227   2.511  11.759  0.5300  0.8150 -1.7498
 3315SOL    HW221405   4.152   2.639  11.785 -0.7095 -0.3709  0.8547
 3316SOL     OW21406   2.980   0.966  11.250  0.3951  0.0945 -0.0736
 3316SOL    HW121407   2.945   0.885  11.288 -0.6944  0.3985 -0.4210
 3316SOL    HW221408   2.896   1.012  11.244  0.9987  1.3492  1.0420
 3317SOL     OW21409   4.013   1.060   0.227  0.0665 -0.0811 -0.0082
 3317SOL    HW121410   3.941   1.029   0.172  0.8702  0.1053 -1.1713
 3317SOL    HW221411   4.081   1.015   0.176  0.8627  1.4872 -0.3361
 3318SOL     OW21412   1.217   2.275  11.595  0.0842 -0.1997 -0.2224
 3318SOL    HW121413   1.155   2.348  11.596  1.6555  1.1226  2.9202
 3318SOL    HW221414   1.272   2.309  11.525  0.2850  0.8425  0.4456
 3319SOL     OW21415   3.224   2.081  13.742 -0.5428 -0.4644 -0.2292
 3319SOL    HW121416   3.202   1.992  13.769 -0.7327 -0.4194 -0.2368
 3319SOL    HW221417   3.139   2.126  13.743  1.1270  2.6152  1.1506
 3320SOL     OW21418   4.542   1.964   5.027  0.5469 -0.5560  0.1590
 3320SOL    HW121419   4.594   1.995   5.101  0.0570 -1.1038  0.7285
 3320SOL    HW221420   4.601   1.995   4.958 -1.2968 -0.0808 -1.2126
 3321SOL     OW21421   2.334   4.072   3.259 -0.5530 -0.2698  0.3287
 3321SOL    HW121422   2.292   4.120   3.188 -0.5572  0.9226  1.1501
 3321SOL    HW221423   2.263   4.083   3.322 -1.4297 -1.9054 -0.3526
 3322SOL     OW21424   1.129   1.226  16.182  0.1001  0.1560 -0.4564
 3322SOL    HW121425   1.082   1.257  16.105 -0.5670  2.4785  0.9011
 3322SOL    HW221426   1.218   1.218  16.147  0.5617 -0.0130  0.7231
 3323SOL     OW21427   2.334   2.646   5.362  0.2185  0.1388  0.8018
 3323SOL    HW121428   2.280   2.567   5.365  1.1052 -0.5103 -0.2393
 3323SOL    HW221429   2.418   2.614   5.395  0.3431 -1.2370 -0.8239
 3324SOL     OW21430   1.021   2.942  13.531  0.3795  0.6502 -0.0022
 3324SOL    HW121431   0.996   2.913  13.443 -0.0226 -0.9504  0.6314
 3324SOL    HW221432   1.059   2.859  13.561 -1.3235 -1.1829 -2.9059
 3325SOL     OW21433   3.704   3.253   7.011  0.1023 -0.5196  0.3248
 3325SOL    HW121434   3.710   3.233   7.104 -0.7912  1.4103  0.7924
 3325SOL    HW221435   3.789   3.219   6.981 -1.0547 -2.2132 -0.9890
 3326SOL     OW21436   0.794   0.642  17.218  0.5199 -0.0686  0.1565
 3326SOL    HW121437   0.783   0.579  17.289  0.8445 -1.3188 -0.9267
 3326SOL    HW221438   0.804   0.580  17.146 -0.2065 -1.1074  0.9634
 3327SOL     OW21439   1.256   1.980   4.516  0.1336 -0.0361  0.2512
 3327SOL    HW121440   1.168   1.982   4.553  0.0963  2.7182  0.0516
 3327SOL    HW221441   1.304   2.045   4.567 -1.7985  0.6784  1.1579
 3328SOL     OW21442   1.761   3.658   5.161  0.0282 -0.3554  0.5926
 3328SOL    HW121443   1.731   3.640   5.250  1.9103  0.3432  1.3822
 3328SOL    HW221444   1.791   3.571   5.135 -0.7790 -0.6488  0.6418
 3329SOL     OW21445   0.145   0.306   8.708  0.0496  0.1501  0.8591
 3329SOL    HW121446   0.080   0.372   8.730 -0.0824  0.5970 -0.8227
 3329SOL    HW221447   0.223   0.333   8.756 -0.8338  2.7195  0.8398
 3330SOL     OW21448   4.031   1.860  16.562 -0.3763 -0.4030 -0.3768
 3330SOL    HW121449   4.063   1.932  16.615 -3.2541 -0.4920  1.5054
 3330SOL    HW221450   3.991   1.902  16.485  0.4488 -1.4923 -1.3952
 3331SOL     OW21451   3.979   1.541   0.581 -1.1786  0.1816 -1.1645
 3331SOL    HW121452   4.040   1.513   0.513  0.6270 -0.1938  0.6213
 3331SOL    HW221453   4.031   1.615   0.610 -2.8269  0.1627  1.7703
 3332SOL     OW21454   2.939   0.432   8.614 -0.8258  0.1545  0.1741
 3332SOL    HW121455   2.923   0.435   8.519 -0.5216  2.9235  0.2037
 3332SOL    HW221456   2.893   0.506   8.655 -0.0221  0.7441 -0.0001
 3333SOL     OW21457   2.245   1.506   7.153 -0.7378 -0.6861 -0.3961
 3333SOL    HW121458   2.176   1.442   7.169  0.6110 -1.9976  0.1624
 3333SOL    HW221459   2.274   1.467   7.070  2.6295  3.3559 -1.1334
 3334SOL     OW21460   2.452   1.821  14.548  0.0680 -0.5150 -0.3878
 3334SOL    HW121461   2.518   1.805  14.480 -0.0015 -0.8417 -0.3816
 3334SOL    HW221462   2.502   1.872  14.611  2.1483 -1.4697 -1.2559
 3335SOL     OW21463   4.482   1.560   8.703 -0.0033 -0.0292  0.4492
 3335SOL    HW121464   4.397   1.527   8.676 -0.2767 -0.3784  1.7351
 3335SOL    HW221465   4.531   1.481   8.728 -0.6044 -0.9440 -1.2407
 3336SOL     OW21466   0.951   2.802  13.316 -0.2842 -0.1696  0.3378
 3336SOL    HW121467   0.904   2.723  13.290  0.1044 -0.3398  0.1583
 3336SOL    HW221468   1.039   2.780  13.286 -0.2536  0.0832  0.2398
 3337SOL     OW21469   0.526   4.208   9.443  0.2518  0.0967  0.1737
 3337SOL    HW121470   0.541   4.114   9.453  0.5616  0.2035  0.6955
 3337SOL    HW221471   0.474   4.217   9.523  1.7915 -0.4523  1.2115
 3338SOL     OW21472   1.389   2.550  15.118  0.2482 -0.3158 -0.0266
 3338SOL    HW121473   1.355   2.609  15.050 -2.0408 -0.6433  0.8205
 3338SOL    HW221474   1.381   2.462  15.081 -3.7094  0.0708 -0.1055
 3339SOL     OW21475   1.380   2.070   7.622 -0.2734  0.4164 -0.7491
 3339SOL    HW121476   1.372   2.030   7.709 -1.7225 -0.0666 -1.0963
 3339SOL    HW221477   1.475   2.066   7.618 -0.3293 -1.6747 -0.2641
 3340SOL     OW21478   3.065   2.070   5.517 -0.2825 -0.2828  0.2149
 3340SOL    HW121479   3.118   2.116   5.452 -0.8174  1.1911  0.8113
 3340SOL    HW221480   3.101   1.983   5.502 -1.9629 -0.8683 -0.4573
 3341SOL     OW21481   0.635   3.599  15.283  0.4945  0.3400  0.0349
 3341SOL    HW121482   0.553   3.626  15.325  1.1173  0.1738  1.3678
 3341SOL    HW221483   0.627   3.504  15.288  0.4500  0.3018 -0.8710
 3342SOL     OW21484   1.346   1.055  13.634 -0.1258  0.2033 -0.0203
 3342SOL    HW121485   1.283   1.113  13.677 -1.4920 -1.3387  0.0892
 3342SOL    HW221486   1.421   1.070  13.692  0.7683  2.1756 -1.7025
 3343SOL     OW21487   1.401   3.295  12.782  0.4338 -0.2472 -0.4532
 3343SOL    HW121488   1.366   3.309  12.694 -0.6579  1.8472  0.3025
 3343SOL    HW221489   1.320   3.303  12.833  1.3755 -2.6284  1.4389
 3344SOL     OW21490   3.029   1.187   7.473  0.1148  0.4998 -0.1190
 3344SOL    HW121491   2.953   1.128   7.467  1.0918 -0.6598 -1.0891
 3344SOL    HW221492   3.043   1.194   7.379 -0.3646 -1.4445 -0.3478
 3345SOL     OW21493   1.202   3.133  13.290 -0.7941  0.0363  0.0589
 3345SOL    HW121494   1.160   3.052  13.260  1.1137 -1.7513  2.2474
 3345SOL    HW221495   1.293   3.111  13.272 -1.9969 -2.3684 -3.0835
 3346SOL     OW21496   0.249   1.595  14.125  0.2405 -0.6859  0.2133
 3346SOL    HW121497   0.323   1.648  14.096  1.9702 -2.3622  1.5936
 3346SOL    HW221498   0.180   1.634  14.072  0.9220  1.4549  0.8851
 3347SOL     OW21499   2.615   1.570   7.375  0.0759  0.5252  0.5933
 3347SOL    HW121500   2.704   1.543   7.396 -0.5747 -3.1662 -1.4645
 3347SOL    HW221501   2.600   1.488   7.328 -1.2962  0.9526  0.2908
 3348SOL     OW21502   1.880   1.066   8.335  1.0649  0.4760  0.0131
 3348SOL    HW121503   1.807   1.007   8.314  1.2343  0.7084 -1.2436
 3348SOL    HW221504   1.910   1.083   8.246  2.6891 -0.9810  0.2833
 3349SOL     OW21505   2.056   2.230   8.350  0.0198 -0.1671 -0.0849
 3349SOL    HW121506   2.040   2.188   8.265 -1.3670 -0.7058  0.4341
 3349SOL    HW221507   1.991   2.300   8.356  1.2854  0.8788  1.4047
 3350SOL     OW21508   0.397   4.614   3.824 -0.2922 -0.9099  0.1188
 3350SOL    HW121509   0.329   4.655   3.877  1.1296  0.9145  0.5280
 3350SOL    HW221510   0.352   4.584   3.744 -1.5772  1.0178  0.1237
 3351SOL     OW21511   2.085   0.439   6.834  0.4412 -0.1179  0.2211
 3351SOL    HW121512   2.144   0.363   6.825 -1.7067 -1.9931  2.1446
 3351SOL    HW221513   2.055   0.458   6.745  1.1648 -2.5671 -0.5592
 3352SOL     OW21514   3.831   1.864  15.094  0.2748  0.6825 -0.7405
 3352SOL    HW121515   3.813   1.955  15.117 -0.0016  0.9313 -1.9489
 3352SOL    HW221516   3.824   1.820  15.178  0.2136 -1.1837 -1.7056
 3353SOL     OW21517   2.219   1.006   5.701  0.1964  0.0606 -0.4397
 3353SOL    HW121518   2.139   0.988   5.749  0.1334  1.2751 -0.0966
 3353SOL    HW221519   2.192   1.023   5.611 -2.8735  1.8731  0.8469
 3354SOL     OW21520   0.867   4.032  11.821 -0.2690  0.2707  0.7502
 3354SOL    HW121521   0.860   4.126  11.806  0.1643 -0.0620 -1.5494
 3354SOL    HW221522   0.851   3.995  11.734 -1.0106  0.0633  0.9757
 3355SOL     OW21523   2.987   3.805   1.881 -0.5379 -0.3202  0.1604
 3355SOL    HW121524   3.082   3.814   1.890 -0.3663 -0.4376 -1.5850
 3355SOL    HW221525   2.993   3.753   1.801 -1.3889  1.2805 -0.9332
 3356SOL     OW21526   1.061   3.419   6.764  0.9688  0.6369  0.4473
 3356SOL    HW121527   1.012   3.399   6.844 -1.3662 -1.3023 -1.4444
 3356SOL    HW221528   1.072   3.327   6.739  0.6465  0.3504  1.3604
 3357SOL     OW21529   0.766   4.590   1.171  0.0066  0.0411 -0.1960
 3357SOL    HW121530   0.688   4.640   1.148 -0.7097 -1.2133 -0.4608
 3357SOL    HW221531   0.837   4.638   1.127  1.2674 -1.0234  0.6673
 3358SOL     OW21532   3.950   3.981   5.056  0.1553  0.4546  0.5946
 3358SOL    HW121533   4.015   4.038   5.016  0.0309 -0.2134 -0.5589
 3358SOL    HW221534   3.996   3.956   5.136  1.3092  1.3727  0.2087
 3359SOL     OW21535   3.305   0.487   5.530 -0.4513 -0.1908  0.0344
 3359SOL    HW121536   3.257   0.527   5.602 -2.2714  0.9027 -1.7686
 3359SOL    HW221537   3.336   0.565   5.484 -2.1679  0.6117  0.2201
 3360SOL     OW21538   4.175   0.144   5.785  0.7065 -0.1985  0.3809
 3360SOL    HW121539   4.102   0.113   5.733 -0.7690  1.9880  1.1553
 3360SOL    HW221540   4.230   0.067   5.805  0.7576  0.0556  1.2486
 3361SOL     OW21541   3.500   0.744   2.232  0.0001 -0.0316  0.0830
 3361SOL    HW121542   3.588   0.708   2.238 -0.7720 -1.9809 -0.1411
 3361SOL    HW221543   3.474   0.690   2.157  2.3684 -0.7783 -0.1885
 3362SOL     OW21544   4.146   2.073   4.604 -0.7253 -0.3268 -0.2907
 3362SOL    HW121545   4.167   2.156   4.560 -1.4033 -0.0491 -0.0867
 3362SOL    HW221546   4.219   2.019   4.574  0.1849 -0.1900  1.7055
 3363SOL     OW21547   4.554   2.798   3.023  0.7159 -0.2298 -0.6072
 3363SOL    HW121548   4.474   2.783   3.072 -0.1679  0.1129 -1.9476
 3363SOL    HW221549   4.572   2.892   3.024 -0.8676  0.0568 -0.0577
 3364SOL     OW21550   1.871   2.248   0.174 -0.2379 -0.0095  0.2681
 3364SOL    HW121551   1.932   2.223   0.104 -0.7636 -0.4494 -0.0304
 3364SOL    HW221552   1.925   2.230   0.251 -0.5485 -1.4424  0.1490
 3365SOL     OW21553   3.654   3.027   4.590 -0.4016 -0.1686  0.2650
 3365SOL    HW121554   3.592   2.976   4.642  1.1928 -3.7258 -1.3256
 3365SOL    HW221555   3.732   3.011   4.645  0.0909 -0.4355 -0.5141
 3366SOL     OW21556   2.617   2.031   6.137  0.6976  0.3138 -0.4746
 3366SOL    HW121557   2.634   2.084   6.216 -0.5773 -0.2134  0.1451
 3366SOL    HW221558   2.522   2.033   6.134  0.6934  0.7155 -0.1605
 3367SOL     OW21559   0.372   2.961   7.188 -0.6781  0.7419  0.2795
 3367SOL    HW121560   0.278   2.964   7.206 -0.3504 -1.0888  2.3103
 3367SOL    HW221561   0.407   3.019   7.256  0.6055 -0.0295  0.2729
 3368SOL     OW21562   0.200   0.158  11.502  0.0759  0.0502 -0.3608
 3368SOL    HW121563   0.242   0.182  11.419  2.1346  1.0654  0.9980
 3368SOL    HW221564   0.173   0.067  11.486 -2.1442  0.3740  1.6451
 3369SOL     OW21565   0.574   4.284   8.770  0.4118  0.2987 -0.0542
 3369SOL    HW121566   0.486   4.298   8.735  0.8251  0.1147 -1.1386
 3369SOL    HW221567   0.569   4.199   8.814 -1.0689  0.1726 -0.4840
 3370SOL     OW21568   3.874   0.167   9.298 -0.1502 -0.3017  0.4510
 3370SOL    HW121569   3.831   0.160   9.213  0.3323 -1.0106  0.2622
 3370SOL    HW221570   3.964   0.188   9.275  0.0407 -1.8025 -0.1944
 3371SOL     OW21571   1.473   0.404   8.011  0.2199 -0.1431  0.1362
 3371SOL    HW121572   1.466   0.349   7.933  1.0546 -0.0003 -0.0377
 3371SOL    HW221573   1.551   0.367   8.052 -0.3293 -1.6092 -0.1623
 3372SOL     OW21574   3.373   0.996   5.315 -0.1388  0.3248 -0.0279
 3372SOL    HW121575   3.389   0.963   5.227  2.0039 -0.6324  0.7268
 3372SOL    HW221576   3.459   1.021   5.347 -0.6325  0.8526  0.8913
 3373SOL     OW21577   0.498   4.045   8.608  0.4775 -0.4517 -0.5284
 3373SOL    HW121578   0.432   3.986   8.645  0.3041 -1.5038 -2.4930
 3373SOL    HW221579   0.487   4.041   8.513 -1.6742  2.6057 -0.3704
 3374SOL     OW21580   1.204   0.098   2.649  0.0583 -0.3801  0.7514
 3374SOL    HW121581   1.284   0.047   2.632  0.6434  0.2141  1.7600
 3374SOL    HW221582   1.238   0.179   2.687 -2.3518 -0.0271  2.1387
 3375SOL     OW21583   0.757   1.813   4.167  0.3385 -0.7009  0.0514
 3375SOL    HW121584   0.739   1.870   4.092  1.2507 -1.4662 -0.7603
 3375SOL    HW221585   0.669   1.796   4.200  0.0004  2.1293  0.5694
 3376SOL     OW21586   0.697   4.386  12.356  0.5385  0.3054 -0.4295
 3376SOL    HW121587   0.669   4.477  12.351 -2.8409 -0.5667  2.3017
 3376SOL    HW221588   0.754   4.387  12.434  1.5205 -1.8201 -1.1262
 3377SOL     OW21589   0.437   4.056   7.497  0.0989 -0.2563  0.2251
 3377SOL    HW121590   0.370   4.112   7.537 -0.4815 -2.5065  2.3999
 3377SOL    HW221591   0.438   3.987   7.564  1.3629 -0.9687 -0.5344
 3378SOL     OW21592   3.885   3.809   6.124 -0.1594 -0.0523 -0.3666
 3378SOL    HW121593   3.953   3.764   6.174 -1.3224  0.0163  1.3028
 3378SOL    HW221594   3.840   3.736   6.081 -0.8898 -0.1890  0.6064
 3379SOL     OW21595   0.281   0.082   1.031  0.4733 -0.5984 -0.2938
 3379SOL    HW121596   0.213   0.138   1.070  0.9800  0.2676 -0.6555
 3379SOL    HW221597   0.327   0.134   0.966  0.5566 -0.5844 -0.2235
 3380SOL     OW21598   2.310   3.533   2.666 -0.6060  0.1190 -0.2833
 3380SOL    HW121599   2.352   3.454   2.700  0.1183  0.9112  0.6568
 3380SOL    HW221600   2.380   3.599   2.667 -1.3435  0.8790  0.8363
 3381SOL     OW21601   2.188   3.600   2.895  0.3047 -1.0152 -0.2743
 3381SOL    HW121602   2.169   3.515   2.933 -0.4910 -0.2040  1.1138
 3381SOL    HW221603   2.223   3.570   2.811  2.1169  0.1479  0.0750
 3382SOL     OW21604   4.512   4.577  13.992  0.2307 -0.2888  0.4618
 3382SOL    HW121605   4.559   4.598  13.911 -3.6860  2.9214 -0.9818
 3382SOL    HW221606   4.478   4.665  14.011  0.7006  0.5844 -2.6486
 3383SOL     OW21607   2.591   1.099   3.520 -0.0300 -0.1624 -0.3330
 3383SOL    HW121608   2.600   1.159   3.595 -0.4504 -1.4979  0.7744
 3383SOL    HW221609   2.525   1.036   3.547 -0.2992 -0.2563 -1.1970
 3384SOL     OW21610   2.789   1.529   0.254 -0.3784 -0.3718  0.1245
 3384SOL    HW121611   2.719   1.536   0.319  0.7572  0.1514  1.2930
 3384SOL    HW221612   2.810   1.621   0.238  2.2705 -0.9361  0.4080
 3385SOL     OW21613   4.017   1.182   5.297 -0.8834  0.5529 -0.2368
 3385SOL    HW121614   4.022   1.235   5.376 -2.2840  0.3836 -0.0369
 3385SOL    HW221615   3.928   1.197   5.266 -1.6502 -2.8834  0.2822
 3386SOL     OW21616   3.773   2.690   9.816 -0.2317 -0.3463  0.2956
 3386SOL    HW121617   3.867   2.688   9.797 -0.3679  1.4946 -0.6000
 3386SOL    HW221618   3.771   2.728   9.904 -0.0272  1.7875 -0.6082
 3387SOL     OW21619   3.833   3.246   2.535  0.3297 -0.0574  0.1885
 3387SOL    HW121620   3.761   3.186   2.517  0.7327 -0.8492  1.2234
 3387SOL    HW221621   3.894   3.228   2.463  0.9766  3.0438 -0.0369
 3388SOL     OW21622   2.660   4.393   6.072 -0.1632  0.1122 -0.5728
 3388SOL    HW121623   2.583   4.352   6.031  1.0596 -1.4395 -1.3226
 3388SOL    HW221624   2.713   4.410   5.994 -1.8765  0.5938 -1.6321
 3389SOL     OW21625   2.405   0.726   8.340  0.5769  0.0996 -0.4462
 3389SOL    HW121626   2.434   0.773   8.262  0.3043  3.5463  1.5020
 3389SOL    HW221627   2.451   0.766   8.414 -0.7838  1.2709 -0.2323
 3390SOL     OW21628   4.050   1.102   0.674 -0.3337  0.2229 -0.6413
 3390SOL    HW121629   4.071   1.010   0.657 -0.2018  0.1798 -0.2371
 3390SOL    HW221630   4.094   1.150   0.604 -0.4104 -1.8568 -2.1326
 3391SOL     OW21631   1.389   1.439   2.527 -0.0525  0.6056 -0.3660
 3391SOL    HW121632   1.395   1.409   2.618  1.7995  1.5549 -0.1860
 3391SOL    HW221633   1.294   1.435   2.515 -0.3671 -0.3169  2.4117
 3392SOL     OW21634   1.307   1.437   7.885 -0.0337 -0.4220 -0.2605
 3392SOL    HW121635   1.252   1.512   7.862  0.3727  0.0608  0.3391
 3392SOL    HW221636   1.372   1.479   7.941  0.1851 -0.7752 -0.2510
 3393SOL     OW21637   2.784   3.926   4.601 -0.1478 -0.1375  0.3438
 3393SOL    HW121638   2.821   3.990   4.540 -0.6988 -1.3480 -1.2808
 3393SOL    HW221639   2.808   3.957   4.688 -1.7291  2.5001 -0.1603
 3394SOL     OW21640   1.393   2.802   5.636 -0.3771  0.3509 -0.0365
 3394SOL    HW121641   1.483   2.784   5.607  0.8000 -0.9391  4.3953
 3394SOL    HW221642   1.398   2.895   5.658  0.6648  0.5958 -1.3207
 3395SOL     OW21643   1.274   4.578  14.792  0.0689 -0.3561 -0.1444
 3395SOL    HW121644   1.328   4.630  14.733  0.6092  0.2559  0.8981
 3395SOL    HW221645   1.317   4.493  14.786  0.1067 -0.6048  3.3542
 3396SOL     OW21646   2.805   1.200   2.328 -0.2282  0.1921 -0.3800
 3396SOL    HW121647   2.769   1.285   2.302 -1.1338 -0.2801 -0.6932
 3396SOL    HW221648   2.887   1.219   2.283  1.4526 -0.2218  2.5140
 3397SOL     OW21649   1.210   3.389   5.954  0.0054  0.1742 -0.3380
 3397SOL    HW121650   1.159   3.454   6.003  3.9771  2.5709  0.6200
 3397SOL    HW221651   1.273   3.457   5.930  1.3798  0.0183  2.8099
 3398SOL     OW21652   4.668   4.432   7.900  0.3769  0.2276  0.3897
 3398SOL    HW121653   4.615   4.361   7.936  1.3579 -1.6167 -1.7249
 3398SOL    HW221654   4.668   4.500   7.967  0.4240  0.3477  0.2683
 3399SOL     OW21655   1.899   2.463   6.085  0.1733  0.5077 -0.4730
 3399SOL    HW121656   1.944   2.538   6.124 -0.4318 -0.2412  1.6794
 3399SOL    HW221657   1.809   2.471   6.117  0.0123  0.0809 -0.8229
 3400SOL     OW21658   3.681   3.972   4.807 -0.1762  0.7439  0.0416
 3400SOL    HW121659   3.751   4.027   4.843  1.2036 -0.9246 -0.0531
 3400SOL    HW221660   3.659   4.034   4.738  1.0693 -0.4667 -1.4349
 3401SOL     OW21661   3.094   1.602   7.780  0.1337 -0.2331  0.2393
 3401SOL    HW121662   3.092   1.518   7.734  2.8808 -0.0674 -0.1477
 3401SOL    HW221663   3.187   1.613   7.800  0.1945  2.6430 -1.6512
 3402SOL     OW21664   4.006   2.709   8.172  0.1589  0.8348  0.0029
 3402SOL    HW121665   4.053   2.792   8.165  1.6741 -0.0614 -0.4085
 3402SOL    HW221666   4.065   2.653   8.122  1.2757 -0.3054  2.6322
 3403SOL     OW21667   0.088   3.838   8.044  0.3477 -0.3201 -0.4154
 3403SOL    HW121668   0.175   3.878   8.044  0.5343 -0.7280 -0.8917
 3403SOL    HW221669   0.054   3.838   7.954 -3.4781  1.5544  1.0165
 3404SOL     OW21670   3.569   3.676   3.904 -0.6290  0.0747  0.4048
 3404SOL    HW121671   3.650   3.650   3.860 -0.2850 -0.2267  1.2103
 3404SOL    HW221672   3.515   3.707   3.831  1.9888  1.3195 -0.9968
 3405SOL     OW21673   0.480   3.683   4.431 -0.3486 -0.2058 -0.2328
 3405SOL    HW121674   0.413   3.631   4.475 -0.2389 -0.8998 -0.8849
 3405SOL    HW221675   0.422   3.713   4.360 -1.2311 -2.2942 -0.3987
 3406SOL     OW21676   1.671   0.461   1.801 -0.3729  0.6287 -0.4068
 3406SOL    HW121677   1.695   0.464   1.894  0.2370 -0.4283 -0.5347
 3406SOL    HW221678   1.582   0.497   1.794 -0.9756 -0.1646  3.2074
 3407SOL     OW21679   3.618   1.309   6.624 -0.7139  0.7240  0.0405
 3407SOL    HW121680   3.602   1.385   6.568 -0.4390 -0.4682 -1.6579
 3407SOL    HW221681   3.614   1.346   6.713  1.5512  1.4807 -0.1874
 3408SOL     OW21682   4.681   3.496   8.788 -0.1979  0.2995  0.5225
 3408SOL    HW121683   4.659   3.404   8.775 -0.4938  0.3839  0.4335
 3408SOL    HW221684   4.628   3.512   8.867 -1.2471 -0.2661 -0.0632
 3409SOL     OW21685   4.204   2.803  15.905 -0.9968  0.5624 -0.2415
 3409SOL    HW121686   4.206   2.708  15.894  0.5827  0.8139 -2.1457
 3409SOL    HW221687   4.195   2.827  15.997 -0.1333 -0.9981  0.2384
 3410SOL     OW21688   4.606   1.413   3.881 -0.6517  0.5033  0.2723
 3410SOL    HW121689   4.633   1.335   3.833  0.3169 -0.2756  2.0743
 3410SOL    HW221690   4.668   1.477   3.847 -0.5413  0.0389 -0.3998
 3411SOL     OW21691   1.957   3.717   1.352 -0.3559 -0.4476 -0.1230
 3411SOL    HW121692   1.917   3.797   1.384 -1.9556 -1.9648  1.6651
 3411SOL    HW221693   1.962   3.663   1.431 -0.3787 -1.7297 -0.9944
 3412SOL     OW21694   2.365   2.664   3.488 -0.5201 -0.8998 -0.1212
 3412SOL    HW121695   2.311   2.728   3.534  3.3227  0.5166  2.4476
 3412SOL    HW221696   2.404   2.716   3.418 -0.1802  0.6977  1.2305
 3413SOL     OW21697   3.014   1.267   2.705 -0.4558 -0.6625 -0.0716
 3413SOL    HW121698   3.077   1.273   2.777 -0.3374  1.5986 -0.3539
 3413SOL    HW221699   3.065   1.309   2.635  0.5766 -0.8160  0.5963
 3414SOL     OW21700   1.790   0.335   4.968 -0.3576  0.0627  0.3079
 3414SOL    HW121701   1.790   0.388   5.048 -0.8121  1.2622 -0.4816
 3414SOL    HW221702   1.785   0.248   5.007  2.7214 -0.3806 -0.3070
 3415SOL     OW21703   0.726   4.685   8.200  0.2504  0.1459  0.1677
 3415SOL    HW121704   0.670   4.632   8.256 -1.4768  2.0826  0.2587
 3415SOL    HW221705   0.747   4.624   8.129  0.9674  1.4281 -0.7161
 3416SOL     OW21706   1.408   0.068   8.419 -0.5655 -0.3960  0.3240
 3416SOL    HW121707   1.348   0.081   8.346 -0.1728  0.9842  0.2532
 3416SOL    HW221708   1.441   0.157   8.428 -3.4895  0.4622  2.5716
 3417SOL     OW21709   1.951   2.358   8.896  0.3284 -0.1200  0.7272
 3417SOL    HW121710   1.924   2.305   8.821  0.9495  1.5990 -0.7284
 3417SOL    HW221711   2.006   2.295   8.942 -0.1932 -0.7869  0.4325
 3418SOL     OW21712   4.344   4.031   1.523  0.0703  0.1711 -0.1670
 3418SOL    HW121713   4.430   4.073   1.527  0.2923 -0.2258 -0.7828
 3418SOL    HW221714   4.374   3.946   1.492 -1.4689  0.3541 -2.1047
 3419SOL     OW21715   1.510   2.702   1.427 -0.6404 -0.0049 -0.9257
 3419SOL    HW121716   1.437   2.764   1.434 -0.4669  0.1189 -0.2075
 3419SOL    HW221717   1.456   2.633   1.387 -2.1214  0.6177 -0.0256
 3420SOL     OW21718   2.370   0.724  16.501 -0.0990 -0.4955  0.4744
 3420SOL    HW121719   2.307   0.787  16.536 -0.7287 -1.4752  1.0922
 3420SOL    HW221720   2.451   0.773  16.487 -0.9006  0.4823 -0.7027
 3421SOL     OW21721   4.136   3.192   8.881  0.2243 -0.0424 -0.4553
 3421SOL    HW121722   4.141   3.229   8.793  2.1546 -0.3930 -0.5105
 3421SOL    HW221723   4.110   3.102   8.863  1.6327 -0.2586 -1.4234
 3422SOL     OW21724   1.452   2.323   8.923 -0.3709 -0.8877  1.0179
 3422SOL    HW121725   1.435   2.416   8.910  1.5671 -0.7145 -0.2830
 3422SOL    HW221726   1.538   2.325   8.966 -0.3173  1.9987  0.7640
 3423SOL     OW21727   0.627   1.023   7.224 -0.3204  0.1406  0.0120
 3423SOL    HW121728   0.586   0.983   7.301 -1.8171  1.8111  0.0764
 3423SOL    HW221729   0.641   0.944   7.170  1.0731  0.5230 -0.1886
 3424SOL     OW21730   1.781   4.191   1.796 -0.7251 -0.0061 -0.0374
 3424SOL    HW121731   1.716   4.124   1.775 -1.4267  0.4349  0.7102
 3424SOL    HW221732   1.856   4.172   1.739  0.0016  0.6599  0.7013
 3425SOL     OW21733   1.209   3.114   0.660  0.7043  0.2189  0.5941
 3425SOL    HW121734   1.298   3.101   0.629  0.0150 -0.3986 -1.1422
 3425SOL    HW221735   1.229   3.133   0.751 -1.0699 -3.0833  1.6605
 3426SOL     OW21736   1.722   1.774   4.403  0.4480  0.4850  0.0427
 3426SOL    HW121737   1.698   1.689   4.438  0.3545  0.0289 -1.1408
 3426SOL    HW221738   1.817   1.759   4.404  0.1781 -1.0876  1.1032
 3427SOL     OW21739   1.382   4.362   5.348  0.5254  0.1311 -0.1248
 3427SOL    HW121740   1.437   4.297   5.392  1.3975  0.2348 -1.0593
 3427SOL    HW221741   1.299   4.317   5.333 -0.4754  1.5644  1.0891
 3428SOL     OW21742   4.246   0.263   5.134  0.3139  0.3329  0.3028
 3428SOL    HW121743   4.327   0.301   5.168  0.0308  1.8995 -0.7744
 3428SOL    HW221744   4.192   0.340   5.115 -0.0217 -0.1730 -0.7497
 3429SOL     OW21745   2.336   4.517  14.760 -0.5918  0.0607 -0.6991
 3429SOL    HW121746   2.241   4.520  14.775 -0.3370 -0.7181  1.0349
 3429SOL    HW221747   2.343   4.575  14.684 -0.1143  1.2522  0.2528
 3430SOL     OW21748   2.195   2.459   4.059  0.4829  0.3783 -0.0658
 3430SOL    HW121749   2.240   2.525   4.111 -0.3817  0.1634  0.9587
 3430SOL    HW221750   2.189   2.507   3.976  2.4714  2.2253  0.8508
 3431SOL     OW21751   1.225   3.950   8.112 -0.1628  0.1494 -0.7932
 3431SOL    HW121752   1.274   4.031   8.126 -0.4355  0.0600  0.6982
 3431SOL    HW221753   1.138   3.984   8.134 -0.7123 -1.1995 -0.9041
 3432SOL     OW21754   1.667   2.391  14.982  0.3134  0.2661 -0.3032
 3432SOL    HW121755   1.649   2.313  14.929  0.9364  0.6392 -1.0649
 3432SOL    HW221756   1.587   2.415  15.028  0.9419 -1.4625  1.7286
 3433SOL     OW21757   2.404   1.127  14.753 -0.7639  0.1952  0.6030
 3433SOL    HW121758   2.315   1.126  14.719 -0.3652 -0.4924 -0.4468
 3433SOL    HW221759   2.455   1.133  14.671  0.2303  0.6543  1.2565
 3434SOL     OW21760   4.213   2.411   6.661  0.0798 -1.2339  0.1185
 3434SOL    HW121761   4.123   2.387   6.678  0.0087 -1.5300 -0.6781
 3434SOL    HW221762   4.252   2.398   6.748  0.4902  0.0377  0.1295
 3435SOL     OW21763   4.594   0.990  10.097  0.3096 -0.0010  0.2502
 3435SOL    HW121764   4.553   0.961  10.179  0.5270 -0.6893  0.1149
 3435SOL    HW221765   4.568   1.082  10.099 -2.0909 -0.6687 -0.9150
 3436SOL     OW21766   3.442   2.971   4.974  0.6737 -0.1963 -0.0090
 3436SOL    HW121767   3.494   2.944   4.898 -1.3711 -2.9449 -0.4161
 3436SOL    HW221768   3.373   2.906   4.959  1.0488 -0.9681  1.6677
 3437SOL     OW21769   0.946   1.613   6.161  0.8304 -0.5284 -0.1927
 3437SOL    HW121770   0.971   1.559   6.236 -1.2460  0.5837  1.3119
 3437SOL    HW221771   0.901   1.550   6.105 -0.0931  0.4564 -0.5504
 3438SOL     OW21772   0.390   4.447   0.007  0.1005  0.0451  0.2659
 3438SOL    HW121773   0.347   4.363  17.699 -1.2268  0.8772 -0.8501
 3438SOL    HW221774   0.446   4.452  17.634 -1.5065 -0.1823 -0.9036
 3439SOL     OW21775   1.163   0.936   9.125 -0.1663 -0.4131 -0.2442
 3439SOL    HW121776   1.094   0.873   9.143  0.1272 -0.5216  0.4712
 3439SOL    HW221777   1.240   0.904   9.173  1.0140 -1.3335 -2.7136
 3440SOL     OW21778   3.667   3.123   5.280  0.0081 -0.1266  0.5611
 3440SOL    HW121779   3.591   3.181   5.275  0.8100  0.8088 -0.9789
 3440SOL    HW221780   3.627   3.040   5.303  0.5960 -0.6450 -0.2969
 3441SOL     OW21781   4.030   1.306   5.559 -0.1713  0.2166  0.1293
 3441SOL    HW121782   4.006   1.294   5.651 -0.0021  1.8145  0.3823
 3441SOL    HW221783   4.126   1.316   5.560 -0.4062  2.0762  2.8084
 3442SOL     OW21784   2.923   3.837   3.037  0.4843  0.3578  0.2786
 3442SOL    HW121785   2.850   3.784   3.005 -1.0255  1.2353  2.2939
 3442SOL    HW221786   2.935   3.892   2.959  0.9292 -0.2539 -0.0825
 3443SOL     OW21787   4.128   4.337   2.679  0.1404  0.6610 -0.2774
 3443SOL    HW121788   4.222   4.324   2.691 -0.0070  1.9699  2.5695
 3443SOL    HW221789   4.129   4.378   2.593  0.3295 -1.3840 -1.2385
 3444SOL     OW21790   0.479   2.184   6.127  0.4555 -0.0656  0.1307
 3444SOL    HW121791   0.565   2.143   6.134  0.9022  0.9509  0.5231
 3444SOL    HW221792   0.478   2.254   6.192  0.8290 -0.9621  1.1069
 3445SOL     OW21793   2.448   1.425   3.088  0.1299  0.0800 -0.4044
 3445SOL    HW121794   2.416   1.340   3.118  2.6193 -0.8313 -0.2989
 3445SOL    HW221795   2.366   1.466   3.062  1.2378  2.5305  0.0191
 3446SOL     OW21796   1.940   0.593   6.532  0.1791  0.2715 -0.0569
 3446SOL    HW121797   1.989   0.675   6.518  1.1966 -0.0641  1.4055
 3446SOL    HW221798   1.984   0.540   6.466  0.0708 -2.5100  2.0973
 3447SOL     OW21799   4.120   4.137   6.454 -0.1700  0.1363 -0.0763
 3447SOL    HW121800   4.114   4.072   6.524 -0.2630  0.4483  0.2026
 3447SOL    HW221801   4.198   4.107   6.407 -0.4853  0.0922 -0.5673
 3448SOL     OW21802   3.675   1.459  16.207 -0.0396  0.2136  0.0663
 3448SOL    HW121803   3.720   1.532  16.251 -1.5758  1.0295  0.3041
 3448SOL    HW221804   3.734   1.426  16.140 -0.5132 -0.7936  0.1490
 3449SOL     OW21805   2.283   2.570   3.151 -0.8132 -0.1855 -0.5543
 3449SOL    HW121806   2.291   2.474   3.151 -0.8581 -0.1893 -0.0417
 3449SOL    HW221807   2.203   2.573   3.205  0.6893 -1.1035  1.7235
 3450SOL     OW21808   2.051   3.641   4.983 -0.2932 -0.3989  0.2067
 3450SOL    HW121809   2.127   3.631   5.041 -1.5388  1.4265  2.1611
 3450SOL    HW221810   1.990   3.571   5.007 -1.0635 -0.3629 -1.6586
 3451SOL     OW21811   3.237   3.972   9.918  0.2953  0.4110 -0.7466
 3451SOL    HW121812   3.277   4.007   9.839  0.1792  1.3868 -0.3778
 3451SOL    HW221813   3.144   3.997   9.913  0.3248  0.9072  1.0658
 3452SOL     OW21814   3.409   2.068   2.631 -0.0631  0.0411  0.9649
 3452SOL    HW121815   3.404   2.163   2.638 -0.7183  0.0795  0.0378
 3452SOL    HW221816   3.332   2.058   2.574  1.4483  1.0800 -1.2256
 3453SOL     OW21817   3.075   2.664   9.694  0.3455  0.3759 -0.5137
 3453SOL    HW121818   3.127   2.699   9.766  0.8185  1.6939 -1.4856
 3453SOL    HW221819   3.073   2.732   9.626  0.3656  2.1053  1.2021
 3454SOL     OW21820   0.818   0.530  16.064 -0.0127 -0.4838  0.1952
 3454SOL    HW121821   0.864   0.497  15.987  0.4621 -3.0351  1.5718
 3454SOL    HW221822   0.827   0.462  16.131  0.2315  0.1989  0.8552
 3455SOL     OW21823   4.558   1.841   4.023 -0.0063  0.0348  0.5443
 3455SOL    HW121824   4.503   1.763   4.018 -1.0839  0.8443 -0.3568
 3455SOL    HW221825   4.527   1.864   4.110  0.3967  0.1826  0.6485
 3456SOL     OW21826   2.086   0.426   6.355 -0.0413 -0.5521  0.2530
 3456SOL    HW121827   2.076   0.368   6.279  1.3228 -1.3518  0.6788
 3456SOL    HW221828   2.172   0.464   6.338  0.6877 -1.7053  1.2934
 3457SOL     OW21829   1.253   2.263   8.212  0.3904  0.4684  0.2738
 3457SOL    HW121830   1.315   2.191   8.206 -0.0076  0.1359  0.0896
 3457SOL    HW221831   1.235   2.275   8.118 -1.4589  0.7268  0.6608
 3458SOL     OW21832   0.715   3.886   6.091 -0.2266 -0.4116 -0.5020
 3458SOL    HW121833   0.712   3.969   6.044  0.6568  1.8371  3.4422
 3458SOL    HW221834   0.643   3.829   6.064  0.4873 -1.1304 -0.9183
 3459SOL     OW21835   3.257   1.322   5.631  0.0555 -0.0516 -0.6564
 3459SOL    HW121836   3.227   1.265   5.702  1.9708  0.9520  0.9315
 3459SOL    HW221837   3.346   1.289   5.615  0.1378  0.8505 -2.0527
 3460SOL     OW21838   3.377   1.578   3.928 -0.6706 -0.2807  0.5138
 3460SOL    HW121839   3.472   1.573   3.919 -0.6438  2.5070 -0.8018
 3460SOL    HW221840   3.362   1.524   4.006 -0.9183 -1.6224 -0.4641
 3461SOL     OW21841   2.548   0.268   2.570 -0.2445  0.5707  0.7628
 3461SOL    HW121842   2.497   0.233   2.497 -0.2815  1.7645  0.2189
 3461SOL    HW221843   2.505   0.354   2.575  0.4859  0.8257  2.7686
 3462SOL     OW21844   3.897   0.702   1.628 -0.2477 -0.1217  0.1712
 3462SOL    HW121845   3.822   0.737   1.676 -0.4489 -0.8149  0.3515
 3462SOL    HW221846   3.930   0.788   1.600 -2.9322  1.1479  0.8855
 3463SOL     OW21847   1.871   2.405  13.813  0.3253 -0.6080 -0.0193
 3463SOL    HW121848   1.943   2.394  13.876 -0.0584 -0.6628  0.4097
 3463SOL    HW221849   1.853   2.497  13.833  0.9287 -0.1571 -1.5742
 3464SOL     OW21850   2.036   0.004   4.193 -0.4961 -0.0796  0.3438
 3464SOL    HW121851   1.997   0.065   4.130  1.8194  0.7489 -0.2889
 3464SOL    HW221852   2.004   0.033   4.278 -0.3999  1.2054 -0.0534
 3465SOL     OW21853   3.033   0.519   6.121  0.1694  0.0790 -0.5372
 3465SOL    HW121854   2.940   0.528   6.099 -0.1683  1.9879  1.6631
 3465SOL    HW221855   3.053   0.431   6.088 -1.7145 -0.7924  0.6153
 3466SOL     OW21856   3.662   4.094   2.302 -0.2413 -0.4551 -0.3110
 3466SOL    HW121857   3.749   4.054   2.296  0.8932  1.5750  2.5794
 3466SOL    HW221858   3.638   4.077   2.393 -0.6686 -0.9243 -0.5087
 3467SOL     OW21859   1.673   2.263  12.589  0.2127 -0.4139  0.2166
 3467SOL    HW121860   1.660   2.310  12.506  2.6642 -0.8617 -0.3986
 3467SOL    HW221861   1.580   2.244  12.605  0.5368 -1.2491  1.0348
 3468SOL     OW21862   3.375   2.209   9.493  0.7358 -0.4378 -0.8259
 3468SOL    HW121863   3.280   2.222   9.494  0.6497 -0.8384 -3.4287
 3468SOL    HW221864   3.397   2.298   9.464  0.2574 -0.0621 -0.0480
 3469SOL     OW21865   1.106   0.335   5.715  0.0131  0.2672 -0.0321
 3469SOL    HW121866   1.040   0.399   5.688  1.0518  1.7894  1.0502
 3469SOL    HW221867   1.186   0.366   5.672  2.0316 -4.1003  0.6008
 3470SOL     OW21868   2.036   0.302   3.483 -0.3184 -0.2030 -0.3255
 3470SOL    HW121869   1.951   0.271   3.453 -0.9164 -0.5348  1.6655
 3470SOL    HW221870   2.089   0.272   3.409  1.6527 -1.0005  1.4095
 3471SOL     OW21871   1.030   1.313   8.422 -0.0557  0.2215  0.6189
 3471SOL    HW121872   0.955   1.373   8.421 -0.7244 -0.6422 -0.5911
 3471SOL    HW221873   1.050   1.315   8.329 -1.5203  1.4456  0.3133
 3472SOL     OW21874   0.578   0.705   8.440 -0.1347  0.4854  0.0869
 3472SOL    HW121875   0.671   0.721   8.422  0.1649  0.1973  1.3262
 3472SOL    HW221876   0.561   0.770   8.509  0.2767 -1.4559  2.0413
 3473SOL     OW21877   3.831   0.457   0.491  0.7049  0.0418 -0.2171
 3473SOL    HW121878   3.842   0.541   0.535 -1.1723 -1.1757  2.5252
 3473SOL    HW221879   3.858   0.391   0.556 -0.8767 -0.3475  0.0277
 3474SOL     OW21880   1.886   2.201  10.867  0.4812 -0.0914 -0.0597
 3474SOL    HW121881   1.902   2.293  10.887 -1.4721 -0.0535  1.3554
 3474SOL    HW221882   1.791   2.201  10.856  0.5212 -2.2995 -0.5360
 3475SOL     OW21883   2.945   0.422   5.520 -0.0052  0.4553  0.0647
 3475SOL    HW121884   3.010   0.481   5.558  0.9999 -0.7326  0.2025
 3475SOL    HW221885   2.989   0.367   5.455 -4.0138 -1.5867 -0.8732
 3476SOL     OW21886   4.103   3.753   5.445  0.7819  0.2603 -0.0523
 3476SOL    HW121887   4.180   3.729   5.497 -0.5364 -3.0077  0.3816
 3476SOL    HW221888   4.100   3.689   5.375  1.0180  0.3053 -0.1023
 3477SOL     OW21889   3.353   4.674  13.938  0.2993 -0.0246  0.6778
 3477SOL    HW121890   3.336   0.008  13.865 -0.9945  0.9740  1.7910
 3477SOL    HW221891   3.291   4.601  13.930 -0.0142  0.4689 -1.2754
 3478SOL     OW21892   0.354   0.999   8.395  0.1012 -0.2441 -0.2278
 3478SOL    HW121893   0.267   0.964   8.417  1.2993 -2.0605  1.5572
 3478SOL    HW221894   0.388   1.024   8.481 -0.4251 -0.3195  0.0065
 3479SOL     OW21895   0.096   1.703  15.695 -0.5235 -0.5697 -0.3297
 3479SOL    HW121896   0.132   1.666  15.614  2.1769  1.9397 -0.2727
 3479SOL    HW221897   0.083   1.791  15.662  0.8516  0.1378  0.9930
 3480SOL     OW21898   4.188   2.297  11.060  0.4848  0.3374  0.4332
 3480SOL    HW121899   4.158   2.349  10.985 -1.0272 -1.2490 -0.0442
 3480SOL    HW221900   4.106   2.306  11.107 -0.7114 -1.7675 -1.2772
 3481SOL     OW21901   1.846   3.437   5.015  0.2295 -0.0690 -0.2761
 3481SOL    HW121902   1.899   3.357   5.006  1.8917  0.8818  1.1475
 3481SOL    HW221903   1.796   3.433   4.933  0.1715  1.3303 -0.2974
 3482SOL     OW21904   2.758   2.690   3.570  0.1296  0.8272 -0.2228
 3482SOL    HW121905   2.730   2.636   3.496 -0.6774 -0.5738  1.1151
 3482SOL    HW221906   2.829   2.637   3.605 -0.5092  1.1924  1.6342
 3483SOL     OW21907   3.549   0.653  12.378  0.1745  0.1766  0.3645
 3483SOL    HW121908   3.468   0.627  12.422 -0.1881  0.3672 -0.1863
 3483SOL    HW221909   3.611   0.605  12.432 -0.3905 -0.8793  0.0853
 3484SOL     OW21910   0.876   2.516   4.882 -0.7814  0.0503  0.2469
 3484SOL    HW121911   0.843   2.583   4.941  0.4886  2.4281 -1.7779
 3484SOL    HW221912   0.846   2.438   4.929  2.2638 -2.0657 -1.3127
 3485SOL     OW21913   3.009   3.073   0.159  0.0058  0.2239  0.0095
 3485SOL    HW121914   3.069   3.056   0.232  0.5935  1.9881 -0.0433
 3485SOL    HW221915   2.949   3.001   0.179  0.0691  0.6784  1.8805
 3486SOL     OW21916   0.212   4.396   4.493 -0.2396  0.0250  0.2533
 3486SOL    HW121917   0.183   4.315   4.452  1.2853  0.8375 -2.4687
 3486SOL    HW221918   0.242   4.357   4.574 -0.3554 -0.8513 -0.1282
 3487SOL     OW21919   3.710   1.439   0.316  0.0950 -0.0979 -0.0768
 3487SOL    HW121920   3.775   1.368   0.319  0.3806  0.1448 -0.4198
 3487SOL    HW221921   3.644   1.399   0.260 -0.3204 -0.0640  0.3944
 3488SOL     OW21922   0.168   2.781   2.791  0.3446 -0.3744 -0.1087
 3488SOL    HW121923   0.116   2.706   2.822 -1.7369  1.3039  0.4831
 3488SOL    HW221924   0.164   2.770   2.696 -0.3918 -1.1340  0.0100
 3489SOL     OW21925   0.075   0.222   3.755  0.4022 -0.7231 -0.2282
 3489SOL    HW121926   0.050   0.236   3.846  1.6055 -2.5410  0.3833
 3489SOL    HW221927   0.141   0.290   3.744 -0.9217  0.2838 -1.9013
 3490SOL     OW21928   0.420   3.994  16.466 -0.3249  0.0890 -0.3091
 3490SOL    HW121929   0.441   3.963  16.554  1.9775  2.0115 -0.1633
 3490SOL    HW221930   0.392   3.906  16.441  0.1208 -0.1118 -0.1081
 3491SOL     OW21931   0.284   3.796   3.429  0.3758  0.2275 -0.7064
 3491SOL    HW121932   0.367   3.828   3.392  0.2002  1.1065 -0.3412
 3491SOL    HW221933   0.243   3.872   3.471 -2.0591 -0.3423 -2.0875
 3492SOL     OW21934   3.410   0.166   7.028 -0.1145 -0.1053  0.3997
 3492SOL    HW121935   3.376   0.140   6.942  0.4123 -1.3344  0.5642
 3492SOL    HW221936   3.396   0.081   7.070 -1.7635 -0.0859 -0.1029
 3493SOL     OW21937   3.817   3.064   3.307 -0.1858 -0.1729 -0.4536
 3493SOL    HW121938   3.734   3.094   3.344 -0.0324 -0.4874  0.1497
 3493SOL    HW221939   3.822   3.116   3.227 -0.8404  0.9496  0.2310
 3494SOL     OW21940   2.999   1.465  10.282  0.3964 -0.3177 -0.3194
 3494SOL    HW121941   3.020   1.374  10.261  1.2157 -0.0715 -0.5823
 3494SOL    HW221942   2.920   1.442  10.331  0.0450 -1.7692 -1.5611
 3495SOL     OW21943   2.231   2.522   6.003 -0.3209 -0.0996 -0.0257
 3495SOL    HW121944   2.318   2.558   6.021 -0.0364 -0.6870 -0.2336
 3495SOL    HW221945   2.215   2.468   6.080 -0.0527 -1.9175 -1.2380
 3496SOL     OW21946   4.308   4.244   4.670  0.2328 -0.2477 -0.6331
 3496SOL    HW121947   4.215   4.227   4.657  0.0252  2.2856 -2.4462
 3496SOL    HW221948   4.305   4.335   4.700  0.7000 -0.5354  0.2863
 3497SOL     OW21949   0.381   3.121   5.386 -0.2543  1.1295  0.3663
 3497SOL    HW121950   0.464   3.167   5.376 -0.1039  0.5685 -0.9972
 3497SOL    HW221951   0.385   3.055   5.317 -0.6875  1.5321 -0.0469
 3498SOL     OW21952   4.560   3.954   0.397 -0.3104  0.3993 -0.0899
 3498SOL    HW121953   4.611   3.942   0.477 -0.8262  1.3455  0.3854
 3498SOL    HW221954   4.608   3.896   0.338 -1.3081  0.6142 -1.1069
 3499SOL     OW21955   1.269   2.445   8.717  0.1161  0.2049 -0.2325
 3499SOL    HW121956   1.236   2.404   8.797 -0.9299 -2.1387 -1.8535
 3499SOL    HW221957   1.292   2.370   8.663 -1.4424 -0.9694  0.7216
 3500SOL     OW21958   0.024   4.480  10.361  0.4982 -0.2382 -0.0999
 3500SOL    HW121959   4.704   4.507  10.440 -0.3900 -2.8038  0.2233
 3500SOL    HW221960   0.094   4.422  10.390  1.2548  0.7085 -0.0244
 3501SOL     OW21961   0.443   2.326   6.646 -0.6327  0.2473  0.0657
 3501SOL    HW121962   0.370   2.275   6.611 -1.5807  1.3299  0.4818
 3501SOL    HW221963   0.513   2.273   6.607 -0.1794  2.2491 -1.8028
 3502SOL     OW21964   0.769   0.479   2.057 -0.1307 -0.7559 -0.0830
 3502SOL    HW121965   0.829   0.440   1.992 -1.3841 -3.2933  0.2776
 3502SOL    HW221966   0.756   0.559   2.007 -0.8302 -0.1260  1.1252
 3503SOL     OW21967   1.139   4.134  13.699 -0.1872  0.3158  0.0814
 3503SOL    HW121968   1.226   4.097  13.711 -0.7265 -1.0902 -0.3043
 3503SOL    HW221969   1.153   4.226  13.718 -1.3204  0.2060  1.4683
 3504SOL     OW21970   2.536   4.223  12.690  0.3994  0.2584 -0.4398
 3504SOL    HW121971   2.599   4.174  12.637  1.7934  1.3163  0.2422
 3504SOL    HW221972   2.524   4.300  12.634 -1.1051  0.5426  0.2645
 3505SOL     OW21973   3.185   1.600  15.257  0.2133  0.0245  0.3277
 3505SOL    HW121974   3.261   1.646  15.292  1.2683 -1.4074 -0.0573
 3505SOL    HW221975   3.132   1.671  15.220 -1.1993 -2.4281 -2.3045
 3506SOL     OW21976   1.776   2.239  10.434 -0.1949  0.1164 -0.0191
 3506SOL    HW121977   1.828   2.169  10.393 -2.4101  0.2694 -3.0619
 3506SOL    HW221978   1.831   2.305  10.391 -1.4885  0.9452 -0.3760
 3507SOL     OW21979   4.600   1.630   1.789 -0.2422 -0.1768  0.3771
 3507SOL    HW121980   4.602   1.571   1.713 -0.8833  1.5936 -1.0218
 3507SOL    HW221981   4.668   1.593   1.845  0.3879  1.0543  0.4172
 3508SOL     OW21982   0.635   2.382  12.852  0.2375 -0.0257  0.3134
 3508SOL    HW121983   0.652   2.310  12.791  0.3139  0.5124 -0.2932
 3508SOL    HW221984   0.541   2.399  12.848  0.2589 -0.7737 -3.2419
 3509SOL     OW21985   4.243   4.331  10.613 -0.3395  0.7381  0.1975
 3509SOL    HW121986   4.204   4.392  10.676  1.3758  0.1414  1.8483
 3509SOL    HW221987   4.315   4.377  10.570  3.2552 -2.0167  3.2935
 3510SOL     OW21988   1.106   1.237   2.067 -0.2514  0.5343 -0.1589
 3510SOL    HW121989   1.157   1.315   2.087 -0.0292  0.3607 -0.0490
 3510SOL    HW221990   1.096   1.238   1.971  0.1245 -0.8139 -0.2110
 3511SOL     OW21991   4.680   2.028   0.529  0.2073  0.1857 -0.3636
 3511SOL    HW121992   4.640   1.958   0.580  1.2665  0.0495  0.2814
 3511SOL    HW221993   4.628   2.028   0.449  0.6302  3.6522 -0.6451
 3512SOL     OW21994   0.462   4.469  15.612 -0.4727  0.8113  0.3131
 3512SOL    HW121995   0.461   4.385  15.566  0.6011  2.0444 -1.9820
 3512SOL    HW221996   0.468   4.438  15.702 -0.5903 -2.5261 -0.8226
 3513SOL     OW21997   0.878   0.409   6.252  0.0446  0.2930  0.2505
 3513SOL    HW121998   0.823   0.391   6.176 -0.2534 -0.0027  0.5386
 3513SOL    HW221999   0.963   0.371   6.231  0.6476  0.7548  1.8378
 3514SOL     OW22000   3.705   2.703  13.359  0.6017 -0.4919  0.1831
 3514SOL    HW122001   3.616   2.717  13.326  0.2869  1.7695  1.9741
 3514SOL    HW222002   3.746   2.683  13.275 -1.4060  2.7939 -1.5732
 3515SOL     OW22003   0.231   1.649   0.974  0.2360 -0.0578 -0.0289
 3515SOL    HW122004   0.212   1.629   0.882  0.8505  1.8017 -0.5622
 3515SOL    HW222005   0.242   1.745   0.973 -0.9210  0.0815  0.7364
 3516SOL     OW22006   0.854   4.199   8.978 -0.3757 -0.1295  0.4159
 3516SOL    HW122007   0.768   4.164   9.003 -1.7556  2.3871 -0.8301
 3516SOL    HW222008   0.895   4.232   9.058  0.6943  1.5366 -0.8275
 3517SOL     OW22009   4.462   4.162   2.038 -0.0455 -0.4133 -0.4348
 3517SOL    HW122010   4.421   4.100   2.098 -2.1618  1.3404 -0.1168
 3517SOL    HW222011   4.437   4.121   1.955 -1.9025 -0.5098  0.1768
 3518SOL     OW22012   0.655   3.755   3.510  0.1227  0.4822 -0.1382
 3518SOL    HW122013   0.666   3.773   3.417 -1.9567  2.6812  0.0482
 3518SOL    HW222014   0.743   3.758   3.547  0.7333 -0.6472 -1.5260
 3519SOL     OW22015   3.749   1.065   9.170 -0.4283 -0.2492 -0.5203
 3519SOL    HW122016   3.840   1.049   9.195 -0.6041 -1.2953 -0.5388
 3519SOL    HW222017   3.750   1.160   9.160 -0.7026  0.0066  2.0234
 3520SOL     OW22018   3.401   2.916   6.540 -0.6200 -0.1273  0.0248
 3520SOL    HW122019   3.318   2.869   6.528 -1.0007  0.1112  1.6586
 3520SOL    HW222020   3.429   2.906   6.449 -0.9640  0.5900 -0.1599
 3521SOL     OW22021   4.324   0.040   0.137  0.3759 -0.1081 -0.3699
 3521SOL    HW122022   4.345   0.128   0.105 -0.8173  0.8810  1.5744
 3521SOL    HW222023   4.265   0.010   0.068 -1.2824 -1.4349  1.6385
 3522SOL     OW22024   0.738   3.973  13.472 -0.0729  0.1420  0.0676
 3522SOL    HW122025   0.777   4.059  13.458  1.5830 -0.0103  3.6752
 3522SOL    HW222026   0.651   3.991  13.435 -0.2559  1.9947  1.4014
 3523SOL     OW22027   1.065   0.595   1.072 -0.8123 -0.1000  0.1305
 3523SOL    HW122028   1.085   0.688   1.081  0.9588 -0.5585  0.9351
 3523SOL    HW222029   1.155   0.562   1.079 -1.1837 -0.9821  0.6811
 3524SOL     OW22030   1.384   4.232   7.805 -0.1526 -0.5238 -0.0696
 3524SOL    HW122031   1.402   4.172   7.732 -1.4898 -1.2895  0.2217
 3524SOL    HW222032   1.457   4.293   7.795 -0.3753 -0.0654  1.0771
 3525SOL     OW22033   1.583   4.047   0.270  0.0637  0.3382 -0.0172
 3525SOL    HW122034   1.569   4.139   0.249 -1.4756  0.2950  0.8162
 3525SOL    HW222035   1.654   4.053   0.333  0.1968  1.0868 -0.2424
 3526SOL     OW22036   3.254   1.580   2.307  0.1675  0.4294 -0.2944
 3526SOL    HW122037   3.226   1.544   2.223  2.0741  0.5977 -0.9908
 3526SOL    HW222038   3.348   1.575   2.293  0.1974 -1.2561  0.5266
 3527SOL     OW22039   2.594   3.115  16.891  0.0881 -0.3080  0.0769
 3527SOL    HW122040   2.526   3.048  16.894 -0.0539 -0.2012 -0.8682
 3527SOL    HW222041   2.566   3.176  16.960  2.0985 -0.6911  1.2232
 3528SOL     OW22042   0.803   2.287   7.629 -0.0170 -0.1224  0.2052
 3528SOL    HW122043   0.843   2.272   7.544 -3.4002 -1.7820 -1.1106
 3528SOL    HW222044   0.851   2.236   7.694 -2.1498 -0.6168  1.4092
 3529SOL     OW22045   1.721   2.816  12.764 -0.5097  0.1258  0.2777
 3529SOL    HW122046   1.699   2.909  12.761 -1.8239 -0.2712 -2.1096
 3529SOL    HW222047   1.661   2.763  12.817  2.9345 -1.2626  2.7872
 3530SOL     OW22048   0.329   2.304   3.800 -0.8105  0.1771 -0.1816
 3530SOL    HW122049   0.338   2.388   3.844  1.8550 -0.2150  0.0600
 3530SOL    HW222050   0.341   2.337   3.710  0.3818  3.2270  1.1068
 3531SOL     OW22051   0.525   2.152   1.048  0.1111 -0.2303  0.5238
 3531SOL    HW122052   0.444   2.168   1.097  0.5020  1.6355  0.5660
 3531SOL    HW222053   0.541   2.241   1.015 -0.9641 -0.9467 -1.9805
 3532SOL     OW22054   2.527   0.833   9.731  0.0943  0.1537  0.2359
 3532SOL    HW122055   2.510   0.748   9.772 -0.5060 -0.0857 -0.5111
 3532SOL    HW222056   2.589   0.873   9.793 -1.5239  3.1542 -0.0873
 3533SOL     OW22057   2.742   3.213   6.129 -0.7176 -0.3008 -0.0027
 3533SOL    HW122058   2.687   3.264   6.189 -0.4497  1.6156 -1.3745
 3533SOL    HW222059   2.683   3.207   6.054 -0.8818 -1.1399  0.1927
 3534SOL     OW22060   3.942   1.886  12.193 -0.4719 -0.4880 -0.0573
 3534SOL    HW122061   3.852   1.895  12.224  0.1340  1.2287  1.1835
 3534SOL    HW222062   3.940   1.921  12.104  0.6912 -0.1260  0.0563
 3535SOL     OW22063   3.895   0.092  13.219  0.0959  0.3266  0.0443
 3535SOL    HW122064   3.906   0.090  13.314  0.1214  0.5930  0.0462
 3535SOL    HW222065   3.985   0.084  13.189  0.1065  0.3241  0.0763
 3536SOL     OW22066   3.963   0.776   3.923  0.6630 -0.2932 -0.2663
 3536SOL    HW122067   3.881   0.808   3.887  0.6432  0.4910  0.4596
 3536SOL    HW222068   3.961   0.683   3.904  1.6307  0.3433 -3.4091
 3537SOL     OW22069   1.719   3.340   4.532  0.2758 -0.8462 -0.0354
 3537SOL    HW122070   1.646   3.401   4.519  0.5842 -0.1739  1.4269
 3537SOL    HW222071   1.678   3.260   4.499 -2.5160  0.1314  1.0863
 3538SOL     OW22072   1.764   3.853  15.969  0.3492  0.7787 -0.1107
 3538SOL    HW122073   1.748   3.793  15.896 -0.8451  2.0446 -0.9047
 3538SOL    HW222074   1.726   3.934  15.935  0.8982  0.1140 -2.3443
 3539SOL     OW22075   3.915   2.416   1.723  0.1331  0.5221 -0.0961
 3539SOL    HW122076   3.916   2.413   1.818  0.7686 -1.0257 -0.1592
 3539SOL    HW222077   4.008   2.415   1.699  0.1096 -0.8483 -0.1083
 3540SOL     OW22078   4.400   2.895   2.580  0.1948 -0.1256  0.0770
 3540SOL    HW122079   4.374   2.803   2.584 -1.8155  0.4781  0.6575
 3540SOL    HW222080   4.319   2.945   2.587 -0.7962 -2.0723  2.7100
 3541SOL     OW22081   2.111   4.032   6.477  0.4719 -0.3024  0.1695
 3541SOL    HW122082   2.161   3.966   6.525  1.7491 -0.7211 -1.7523
 3541SOL    HW222083   2.035   3.977   6.459  2.1845 -2.0886 -1.5123
 3542SOL     OW22084   3.680   4.157  11.921 -0.4348  0.3654  0.2596
 3542SOL    HW122085   3.770   4.161  11.954  0.0137  0.3907 -0.9869
 3542SOL    HW222086   3.685   4.226  11.855  0.3349 -1.8230 -1.9697
 3543SOL     OW22087   2.581   1.253   4.014  0.6345  0.0517  0.3704
 3543SOL    HW122088   2.605   1.343   4.033  0.1703  0.2450  0.0369
 3543SOL    HW222089   2.587   1.208   4.098  1.5107  0.8154  0.7143
 3544SOL     OW22090   3.349   4.144  11.275  0.0118  0.1477  0.2911
 3544SOL    HW122091   3.256   4.124  11.275 -0.0212  0.4205 -2.9005
 3544SOL    HW222092   3.381   4.105  11.194  3.5110  3.4374  0.0473
 3545SOL     OW22093   0.803   2.131   2.227 -0.9587  0.1023  0.5397
 3545SOL    HW122094   0.745   2.156   2.299 -1.2893 -0.1964  0.3740
 3545SOL    HW222095   0.889   2.110   2.264  0.0557 -0.8824 -2.3310
 3546SOL     OW22096   0.013   3.004  17.139  0.3556 -0.1170  0.1117
 3546SOL    HW122097   4.661   2.951  17.158  3.3545 -4.5527  0.0294
 3546SOL    HW222098   4.709   3.079  17.088 -0.3297 -0.3463  0.1778
 3547SOL     OW22099   2.104   2.249   6.117 -0.0177 -0.5448 -0.0483
 3547SOL    HW122100   2.041   2.309   6.077  1.6125  1.8079  0.9451
 3547SOL    HW222101   2.142   2.209   6.038  0.6958 -1.1685  0.6183
 3548SOL     OW22102   0.107   4.169   4.402 -0.1885 -0.8486 -1.0063
 3548SOL    HW122103   0.028   4.205   4.441  2.5970  1.2827  2.7190
 3548SOL    HW222104   0.130   4.104   4.469 -0.2119 -0.2778 -0.4512
 3549SOL     OW22105   4.702   2.575   7.912 -0.3535  0.7534  0.5118
 3549SOL    HW122106   0.053   2.582   7.968  0.3307 -0.0346 -0.3214
 3549SOL    HW222107   4.711   2.485   7.881 -3.4988  0.0019  1.7672
 3550SOL     OW22108   2.869   1.116   4.155  0.0612  0.3687  0.1214
 3550SOL    HW122109   2.953   1.109   4.110  0.7922  0.4817  1.4859
 3550SOL    HW222110   2.834   1.027   4.142 -0.7356  0.9537 -1.8669
 3551SOL     OW22111   0.056   4.231   7.235  0.3105 -0.1759 -0.0483
 3551SOL    HW122112   0.035   4.220   7.328 -0.9506  0.9655 -0.1951
 3551SOL    HW222113   0.064   4.141   7.204  2.1084  0.0033 -0.1322
 3552SOL     OW22114   1.876   0.164  16.604  0.5610  0.1383 -0.1012
 3552SOL    HW122115   1.864   0.254  16.635 -0.9618  0.3961 -1.4449
 3552SOL    HW222116   1.913   0.178  16.517 -0.1519 -1.6602 -0.6825
 3553SOL     OW22117   4.374   4.085   4.899  0.3664  0.5808 -0.2253
 3553SOL    HW122118   4.418   4.002   4.880 -0.5926  0.3088 -1.2127
 3553SOL    HW222119   4.390   4.140   4.822 -0.1532  0.8579 -0.1297
 3554SOL     OW22120   1.217   2.473   5.512 -0.1314  0.2755 -0.1442
 3554SOL    HW122121   1.278   2.460   5.440  0.0202  0.3422 -0.0302
 3554SOL    HW222122   1.200   2.393   5.562  0.0970  1.6109  2.0985
 3555SOL     OW22123   3.940   3.470  12.857 -0.9193 -0.3983 -0.4267
 3555SOL    HW122124   4.034   3.488  12.868 -0.2890 -2.6049 -1.9621
 3555SOL    HW222125   3.930   3.400  12.921  1.0482 -0.0670  0.2464
 3556SOL     OW22126   0.191   2.835   3.071 -0.4835 -0.2662 -0.7204
 3556SOL    HW122127   0.169   2.853   2.979 -0.3379  0.4040 -0.6285
 3556SOL    HW222128   0.200   2.927   3.098  0.8730 -0.2480 -1.2381
 3557SOL     OW22129   3.442   4.539   7.457 -0.0652  0.1221 -0.1916
 3557SOL    HW122130   3.525   4.517   7.498 -0.3400  0.8134  0.7388
 3557SOL    HW222131   3.429   4.459   7.407  1.3553  0.8396 -1.7004
 3558SOL     OW22132   3.156   2.176   3.052 -0.5097  0.5875 -0.2607
 3558SOL    HW122133   3.245   2.196   3.083 -0.2741  0.4183 -0.8336
 3558SOL    HW222134   3.119   2.139   3.132  2.8742 -0.8887  0.6068
 3559SOL     OW22135   4.120   0.344   5.499 -0.6345 -0.2514  0.0925
 3559SOL    HW122136   4.164   0.340   5.583  0.6012  0.1731 -0.5290
 3559SOL    HW222137   4.172   0.407   5.448 -0.1599  0.3803  1.3545
 3560SOL     OW22138   2.757   2.652   6.245  0.0828  1.1264  0.3207
 3560SOL    HW122139   2.805   2.573   6.265 -0.8365 -0.0825 -2.2328
 3560SOL    HW222140   2.788   2.671   6.156 -0.5422 -1.2261 -0.3791
 3561SOL     OW22141   2.195   2.632  15.850  1.1986 -0.1476 -0.4456
 3561SOL    HW122142   2.214   2.716  15.810  1.6478 -0.2912 -0.5298
 3561SOL    HW222143   2.230   2.644  15.938  1.9367 -1.9331 -0.5001
 3562SOL     OW22144   1.076   2.892  10.840  0.0338  0.0134 -0.8860
 3562SOL    HW122145   1.171   2.888  10.851 -0.3186 -0.5128  2.0634
 3562SOL    HW222146   1.068   2.978  10.800  2.8514  0.6232 -0.1741
 3563SOL     OW22147   3.408   1.617  17.084 -0.1056 -0.0155  0.3971
 3563SOL    HW122148   3.459   1.698  17.079  0.5869 -0.5907 -1.7655
 3563SOL    HW222149   3.374   1.604  16.995 -0.2977 -2.0063  0.7647
 3564SOL     OW22150   1.993   3.597  17.513  0.8894  0.0441 -0.7308
 3564SOL    HW122151   2.084   3.613  17.490  1.6381  1.4379  3.1977
 3564SOL    HW222152   1.972   3.687  17.540  0.7787 -0.7508  1.8771
 3565SOL     OW22153   3.186   2.191   8.807 -0.0086  0.0465  0.5241
 3565SOL    HW122154   3.129   2.227   8.875 -1.1376 -3.7665  1.5969
 3565SOL    HW222155   3.235   2.273   8.809  1.1400 -0.6179 -0.2635
 3566SOL     OW22156   2.870   0.533   9.481 -0.5166 -0.0984  0.3617
 3566SOL    HW122157   2.907   0.574   9.559 -0.0613  0.7807 -0.3165
 3566SOL    HW222158   2.888   0.605   9.421  2.9488 -1.7264 -0.5612
 3567SOL     OW22159   0.143   0.290   1.162 -0.0372  0.4913  0.5307
 3567SOL    HW122160   0.170   0.339   1.239  2.6533  0.0823 -0.1382
 3567SOL    HW222161   0.112   0.358   1.102  1.1680  2.5576  2.2511
 3568SOL     OW22162   4.409   1.313   1.915  0.6225 -0.5104 -0.2188
 3568SOL    HW122163   4.418   1.356   1.829 -0.6451 -1.3387 -0.7689
 3568SOL    HW222164   4.314   1.319   1.924  0.3666 -1.3824 -2.1876
 3569SOL     OW22165   0.202   2.007  14.244 -0.2997  0.2071  0.3395
 3569SOL    HW122166   0.176   1.978  14.331  0.2016  1.2661  0.8430
 3569SOL    HW222167   0.272   1.949  14.212 -0.4529  0.2519 -0.0744
 3570SOL     OW22168   2.150   2.059  13.175  0.1840  0.3482  0.4132
 3570SOL    HW122169   2.192   2.131  13.127  1.7910 -0.6562  0.2962
 3570SOL    HW222170   2.205   1.991  13.135  0.6287  1.6038 -1.1077
 3571SOL     OW22171   4.585   0.515   4.266  0.4617 -0.2730 -0.0733
 3571SOL    HW122172   4.596   0.424   4.238  1.1278  0.1639 -1.2343
 3571SOL    HW222173   4.572   0.562   4.184 -1.1968  0.7127  0.7479
 3572SOL     OW22174   4.050   1.601  17.001  0.2496 -0.3518 -0.2621
 3572SOL    HW122175   3.993   1.524  17.003 -2.4006  1.6490  1.1271
 3572SOL    HW222176   4.003   1.669  17.048 -0.1705  0.4834 -1.8804
 3573SOL     OW22177   3.103   3.804   7.975 -0.6172  0.2631  0.3636
 3573SOL    HW122178   3.186   3.804   7.927  0.5962 -1.0875  2.4619
 3573SOL    HW222179   3.078   3.895   7.963 -1.0211 -0.0595 -1.2565
 3574SOL     OW22180   1.594   3.048   8.782 -0.1514 -0.2393 -0.7108
 3574SOL    HW122181   1.675   3.000   8.803  0.2430  1.0240  0.6759
 3574SOL    HW222182   1.639   3.133   8.775  1.2344 -0.9391 -0.3949
 3575SOL     OW22183   0.531   4.171  12.350  0.4383 -0.1464  0.1022
 3575SOL    HW122184   0.580   4.252  12.340 -0.2560  0.2001 -0.4798
 3575SOL    HW222185   0.590   4.100  12.323  2.7276  1.2041  1.5758
 3576SOL     OW22186   3.938   3.066  11.178 -0.1348 -0.2860 -0.1968
 3576SOL    HW122187   3.869   3.087  11.241  1.7417 -0.7840  2.0336
 3576SOL    HW222188   4.009   3.129  11.192  0.3448 -0.1871 -3.1683
 3577SOL     OW22189   0.550   0.708   1.827 -0.0977 -0.0212  0.3218
 3577SOL    HW122190   0.591   0.721   1.913 -1.9493  0.1090  1.1836
 3577SOL    HW222191   0.529   0.615   1.839  2.6811 -0.5311  1.2226
 3578SOL     OW22192   4.007   2.729   4.960  0.3304 -0.3003 -0.4991
 3578SOL    HW122193   4.046   2.722   4.873 -1.7875  0.5365 -1.5099
 3578SOL    HW222194   4.040   2.812   4.995  1.4909 -0.8077 -0.4127
 3579SOL     OW22195   0.832   0.806   8.480  0.8101  0.4409  0.5849
 3579SOL    HW122196   0.850   0.888   8.435  2.4292 -0.2457 -0.0316
 3579SOL    HW222197   0.909   0.753   8.458  1.3732  1.5458 -0.1163
 3580SOL     OW22198   0.010   1.654   6.217 -0.0246 -0.5920 -0.0505
 3580SOL    HW122199   4.698   1.736   6.184 -0.0519 -0.5159  0.1687
 3580SOL    HW222200   4.656   1.608   6.243 -0.2582  0.2390  0.6842
 3581SOL     OW22201   0.660   3.548   0.223 -0.0016 -0.2833 -0.1784
 3581SOL    HW122202   0.754   3.557   0.211  0.4115 -1.1110  2.4579
 3581SOL    HW222203   0.651   3.454   0.240  2.6810 -0.5711 -0.3317
 3582SOL     OW22204   1.869   0.735  11.808 -0.3913 -0.2147 -0.2492
 3582SOL    HW122205   1.954   0.771  11.781 -0.6599 -0.5967 -1.5667
 3582SOL    HW222206   1.831   0.705  11.726  2.1025  0.3894 -1.6249
 3583SOL     OW22207   3.422   0.841  11.058 -0.1491 -0.2291 -0.2108
 3583SOL    HW122208   3.449   0.774  10.997 -1.3236  0.0114 -1.0049
 3583SOL    HW222209   3.326   0.836  11.052 -0.2635  2.2013 -0.4648
 3584SOL     OW22210   0.545   3.061   3.264 -0.0969 -0.3797 -0.1250
 3584SOL    HW122211   0.460   3.075   3.222 -0.5315  0.4238  1.0389
 3584SOL    HW222212   0.539   2.965   3.267 -0.2263 -0.3506  0.5016
 3585SOL     OW22213   0.534   3.417   7.450  0.0862  0.2388  0.4711
 3585SOL    HW122214   0.572   3.451   7.531 -0.5972  1.0937  0.4273
 3585SOL    HW222215   0.451   3.464   7.448  0.2649  0.5795  1.1303
 3586SOL     OW22216   0.449   3.020   3.729  0.0125 -0.5043 -0.0305
 3586SOL    HW122217   0.410   3.063   3.652  0.0761  0.3732  0.4293
 3586SOL    HW222218   0.411   2.932   3.729  0.8046 -0.8442  0.3674
 3587SOL     OW22219   0.634   1.032   7.539 -0.1625 -0.1901 -0.5746
 3587SOL    HW122220   0.571   1.078   7.593  0.7643  0.8981 -0.4175
 3587SOL    HW222221   0.609   0.941   7.553  1.1265 -0.3008  0.9606
 3588SOL     OW22222   4.613   2.471  10.675 -0.5358  0.0182  0.0381
 3588SOL    HW122223   4.566   2.445  10.596 -0.3377  1.5697 -0.6038
 3588SOL    HW222224   4.645   2.384  10.697 -0.7885 -0.5973 -2.0994
 3589SOL     OW22225   1.066   4.403  12.186 -0.2056  0.8094 -0.0816
 3589SOL    HW122226   1.033   4.486  12.219 -2.3624  0.5265 -1.5054
 3589SOL    HW222227   0.990   4.346  12.174  0.7707 -0.2248 -1.3977
 3590SOL     OW22228   3.708   4.285   7.461  0.2176 -0.5579  0.2478
 3590SOL    HW122229   3.774   4.302   7.394  0.0330  3.0202  0.9777
 3590SOL    HW222230   3.634   4.263   7.405 -1.3584  2.5375  1.1347
 3591SOL     OW22231   1.912   0.787   0.878 -0.7046  0.3730  0.2145
 3591SOL    HW122232   1.994   0.743   0.903 -0.0973  1.4353  0.0983
 3591SOL    HW222233   1.843   0.724   0.898 -1.0034  0.1521 -1.5491
 3592SOL     OW22234   2.176   1.068   6.081  0.2946  0.0810  0.8306
 3592SOL    HW122235   2.115   1.086   6.153  1.0951 -0.4881  1.6605
 3592SOL    HW222236   2.149   1.132   6.015 -1.3127 -0.5255  0.8796
 3593SOL     OW22237   0.733   2.114   4.619  1.3323 -0.3739  0.2539
 3593SOL    HW122238   0.669   2.046   4.597 -0.5032  1.7727 -1.0060
 3593SOL    HW222239   0.720   2.131   4.713 -2.8963 -0.7112 -0.2781
 3594SOL     OW22240   1.292   1.639   7.393  0.1188  0.4717  0.3108
 3594SOL    HW122241   1.201   1.666   7.404 -0.1044  0.3515 -1.2394
 3594SOL    HW222242   1.335   1.687   7.463  1.3272 -0.2440  0.0544
 3595SOL     OW22243   2.384   4.692   1.842  1.1165 -0.2423 -0.2303
 3595SOL    HW122244   2.416   4.617   1.893 -1.3582 -1.0370  0.1728
 3595SOL    HW222245   2.392   0.035   1.907  1.5339 -1.5057  1.0464
 3596SOL     OW22246   0.949   0.943   1.399 -0.4040  0.5050 -0.1450
 3596SOL    HW122247   0.945   0.857   1.357  0.0291  0.3446  0.1426
 3596SOL    HW222248   0.927   0.984   1.315  2.3987 -1.9686 -2.1084
 3597SOL     OW22249   4.450   0.778   1.072 -0.8339 -0.5472 -0.4149
 3597SOL    HW122250   4.456   0.793   0.978  0.6891 -0.0424 -0.2470
 3597SOL    HW222251   4.542   0.777   1.100 -0.4555  0.2408 -1.6363
 3598SOL     OW22252   4.010   3.581   2.386 -0.0812  0.6057  0.1349
 3598SOL    HW122253   4.047   3.497   2.360  1.1584  1.1653  0.1228
 3598SOL    HW222254   3.932   3.552   2.434  1.2427 -0.7664  1.4557
 3599SOL     OW22255   0.327   2.963   7.914 -0.3074  0.4271  0.4230
 3599SOL    HW122256   0.315   2.941   8.006 -0.5749  2.7333  0.9447
 3599SOL    HW222257   0.294   2.887   7.866 -1.5398 -0.2086  2.2866
 3600SOL     OW22258   4.588   1.472  12.629  0.3617 -0.2083  0.2001
 3600SOL    HW122259   4.645   1.402  12.599 -1.1287 -1.7156  0.8687
 3600SOL    HW222260   4.644   1.547  12.612  0.9837 -0.6871  0.1328
 3601SOL     OW22261   0.091   3.758  11.314 -0.5422 -0.0161  0.1109
 3601SOL    HW122262   0.066   3.728  11.227  1.0684  1.7089 -0.9617
 3601SOL    HW222263   0.060   3.849  11.317 -1.8713 -0.5736  2.8571
 3602SOL     OW22264   2.871   0.735   8.990  0.1752 -0.1484  0.2039
 3602SOL    HW122265   2.820   0.815   9.005  1.6073  1.0347 -1.1763
 3602SOL    HW222266   2.922   0.759   8.913  0.8349  0.0445  0.6963
 3603SOL     OW22267   2.453   1.739   6.046 -0.3756 -0.0498 -0.0565
 3603SOL    HW122268   2.527   1.715   6.103  0.0396  2.3575  0.3937
 3603SOL    HW222269   2.382   1.727   6.110 -0.4184 -1.7397 -0.4279
 3604SOL     OW22270   1.157   4.682   8.521 -0.2665  0.0300  0.0338
 3604SOL    HW122271   1.186   4.594   8.497  0.6398 -0.0251  1.3201
 3604SOL    HW222272   1.238   0.001   8.543 -0.6652  0.6344  0.2723
 3605SOL     OW22273   2.157   1.411   1.170  0.7563 -0.1040  0.2183
 3605SOL    HW122274   2.197   1.351   1.107 -0.0635  0.2905 -0.6752
 3605SOL    HW222275   2.229   1.414   1.233 -0.1446 -0.8245  1.2809
 3606SOL     OW22276   1.761   1.288   2.679  0.3999  0.0588 -0.6785
 3606SOL    HW122277   1.691   1.270   2.742 -0.6327  1.8607 -1.2995
 3606SOL    HW222278   1.830   1.262   2.739  0.4057  0.5284 -0.4871
 3607SOL     OW22279   1.101   2.685  12.077  0.1412  0.0532  0.3762
 3607SOL    HW122280   1.152   2.727  12.009  0.4829  0.0383  0.6238
 3607SOL    HW222281   1.087   2.760  12.135  1.4075 -0.5527  1.4700
 3608SOL     OW22282   3.942   4.347   9.364 -0.7430  0.8421 -0.7983
 3608SOL    HW122283   3.961   4.438   9.345  1.9141  0.7743  1.5882
 3608SOL    HW222284   3.848   4.337   9.347 -1.1540  0.6720  1.6310
 3609SOL     OW22285   1.666   0.131   3.790 -0.2552 -0.0270 -0.0401
 3609SOL    HW122286   1.652   0.071   3.864 -1.0717 -0.2303 -0.3641
 3609SOL    HW222287   1.686   0.069   3.720 -1.1617 -1.0277  0.5903
 3610SOL     OW22288   3.909   4.228   3.462  0.0421  0.0002 -0.0556
 3610SOL    HW122289   3.847   4.156   3.446  2.0028 -1.7449  0.1695
 3610SOL    HW222290   3.854   4.281   3.520  2.1110  2.2470 -0.1602
 3611SOL     OW22291   3.802   3.076   4.287 -0.1380 -0.2435  0.2724
 3611SOL    HW122292   3.725   3.058   4.342  0.0581 -1.9079 -0.0167
 3611SOL    HW222293   3.791   3.019   4.211 -0.7072  0.2256 -0.0058
 3612SOL     OW22294   4.378   4.276   7.008 -0.0971 -0.3543 -0.5573
 3612SOL    HW122295   4.467   4.293   7.039  0.1651 -0.4414 -1.2669
 3612SOL    HW222296   4.350   4.367   7.014 -0.9733 -0.8027  2.3235
 3613SOL     OW22297   3.366   0.662  15.694  0.4719 -0.0640  0.0850
 3613SOL    HW122298   3.325   0.621  15.770  0.4757 -2.7187 -1.3690
 3613SOL    HW222299   3.392   0.745  15.733 -0.0351 -0.5613  1.4832
 3614SOL     OW22300   1.550   0.682   0.212 -0.6778  0.8976  0.5876
 3614SOL    HW122301   1.464   0.653   0.243 -0.6031 -0.8399 -0.8521
 3614SOL    HW222302   1.602   0.655   0.288 -0.6486  1.0544  0.6253
 3615SOL     OW22303   3.127   0.333   8.117  0.3585  0.2661 -0.2708
 3615SOL    HW122304   3.175   0.391   8.058  1.1744 -0.6542 -0.5012
 3615SOL    HW222305   3.104   0.392   8.190  1.5174  1.3600 -0.7867
 3616SOL     OW22306   4.592   3.100   8.027  0.3069  0.5719 -0.3083
 3616SOL    HW122307   4.659   3.132   8.087  0.4642 -0.2428 -0.0566
 3616SOL    HW222308   4.589   3.159   7.951  1.3442  0.3689 -0.4964
 3617SOL     OW22309   2.992   2.420   7.968 -0.0419  0.3820  0.3931
 3617SOL    HW122310   2.915   2.468   7.935 -0.2355  0.2054  0.5886
 3617SOL    HW222311   2.994   2.445   8.061 -1.8829  1.3438  0.1869
 3618SOL     OW22312   2.221   0.348   7.204  0.0605 -0.3452 -0.3310
 3618SOL    HW122313   2.262   0.276   7.156  1.4168 -0.4054  0.9360
 3618SOL    HW222314   2.219   0.314   7.294 -0.1389 -1.8377 -0.8938
 3619SOL     OW22315   3.153   2.317   6.547 -0.3168 -0.5637 -0.1661
 3619SOL    HW122316   3.186   2.399   6.582 -2.5062  1.1826 -2.1994
 3619SOL    HW222317   3.079   2.292   6.602 -1.7126  1.3312 -1.1659
 3620SOL     OW22318   4.188   4.687   4.522  0.7095  0.1686  0.9303
 3620SOL    HW122319   4.187   0.056   4.535 -1.4712  0.3512 -0.5264
 3620SOL    HW222320   4.252   4.675   4.452 -1.5728 -0.5142 -1.0210
 3621SOL     OW22321   1.646   2.178  13.351 -0.1664 -0.0275  0.1464
 3621SOL    HW122322   1.654   2.173  13.447  0.4319  2.0711  0.2067
 3621SOL    HW222323   1.662   2.272  13.345  0.2403 -0.2328 -1.8906
 3622SOL     OW22324   1.182   3.906   5.907 -0.0437 -0.4355 -0.3016
 3622SOL    HW122325   1.180   3.861   5.992  0.1757  1.9318  0.9331
 3622SOL    HW222326   1.101   3.954   5.922 -1.3189 -3.2736  2.0038
 3623SOL     OW22327   3.980   2.146  12.857  0.1810 -0.7478  0.4767
 3623SOL    HW122328   3.943   2.059  12.868 -0.2188 -0.6124  0.1971
 3623SOL    HW222329   4.053   2.126  12.798  1.9217  1.2637  1.9268
 3624SOL     OW22330   3.637   4.446  10.262  0.2408 -0.1551 -0.5215
 3624SOL    HW122331   3.653   4.532  10.301 -0.9006 -0.5667  0.8611
 3624SOL    HW222332   3.587   4.406  10.333 -0.7746  2.3498  0.1591
 3625SOL     OW22333   1.636   2.785   5.019  0.6600 -0.3041 -0.4196
 3625SOL    HW122334   1.600   2.782   5.107  1.2163 -1.6615 -0.2311
 3625SOL    HW222335   1.720   2.828   5.034 -1.4234  2.3372  3.3390
 3626SOL     OW22336   1.479   3.614   9.109 -0.6032 -0.5244 -0.0233
 3626SOL    HW122337   1.457   3.530   9.149 -0.4487 -0.9424 -0.8096
 3626SOL    HW222338   1.390   3.647   9.095 -1.2012 -1.9749  0.3976
 3627SOL     OW22339   0.754   4.589   9.687 -0.0657 -0.0347 -0.1162
 3627SOL    HW122340   0.673   4.587   9.738  0.0874 -0.6862  0.1025
 3627SOL    HW222341   0.813   4.553   9.754  0.0096  2.4406  1.1666
 3628SOL     OW22342   3.383   4.261   4.804 -0.2582  0.4349  0.7369
 3628SOL    HW122343   3.468   4.241   4.764 -0.1649  1.1451  0.5799
 3628SOL    HW222344   3.405   4.347   4.841 -0.7263  1.5568 -1.6009
 3629SOL     OW22345   2.706   2.513   6.497  0.3276 -0.1646  0.2420
 3629SOL    HW122346   2.627   2.512   6.551 -0.2285  0.2213 -0.5528
 3629SOL    HW222347   2.676   2.548   6.413  0.8940 -1.3247 -0.4394
 3630SOL     OW22348   3.204   4.471   4.063  0.3920  0.1648  0.0355
 3630SOL    HW122349   3.190   4.523   4.142  1.6517 -1.0003  1.0110
 3630SOL    HW222350   3.129   4.498   4.009  0.1949  2.3891  1.4136
 3631SOL     OW22351   0.026   0.412  17.363 -0.2567 -0.4480  0.3673
 3631SOL    HW122352   4.669   0.423  17.317  1.3254 -0.5877 -2.5121
 3631SOL    HW222353   0.071   0.496  17.353 -0.4801 -0.4241 -0.4167
 3632SOL     OW22354   2.007   0.235  11.707 -0.1031  0.3134 -0.3792
 3632SOL    HW122355   1.981   0.144  11.693  1.8040 -0.3349  0.3906
 3632SOL    HW222356   2.102   0.231  11.703 -0.0801  2.3855 -1.6029
 3633SOL     OW22357   2.369   4.514   8.679 -0.7462  0.2068  0.0290
 3633SOL    HW122358   2.399   4.426   8.700  0.2106  0.3042 -0.9453
 3633SOL    HW222359   2.399   4.562   8.757 -0.5977 -0.9596  0.6779
 3634SOL     OW22360   3.992   1.306   5.832  0.0077 -0.1315 -0.2368
 3634SOL    HW122361   3.938   1.228   5.841 -0.8134  0.3142 -1.3392
 3634SOL    HW222362   4.036   1.302   5.918 -1.2958  0.8736  0.4743
 3635SOL     OW22363   3.939   2.812   6.276  0.0929 -0.0408  0.2638
 3635SOL    HW122364   3.925   2.802   6.182  2.6263 -2.5373  0.1702
 3635SOL    HW222365   4.034   2.821   6.286  0.5059 -1.1479 -2.6093
 3636SOL     OW22366   4.585   2.952   4.734 -0.3205 -0.5453 -0.4145
 3636SOL    HW122367   4.667   2.910   4.709 -0.7205 -1.0646 -0.8506
 3636SOL    HW222368   4.619   3.011   4.801  0.5610 -1.2653 -0.2367
 3637SOL     OW22369   2.740   0.163   1.749 -0.3467 -0.0223 -0.3018
 3637SOL    HW122370   2.818   0.199   1.707  0.4823 -2.7265 -1.1159
 3637SOL    HW222371   2.674   0.232   1.755 -0.8984 -0.6365  0.8143
 3638SOL     OW22372   3.292   2.802  12.279 -0.8056 -0.4475  0.0081
 3638SOL    HW122373   3.348   2.811  12.357  1.9240 -0.6041 -1.9404
 3638SOL    HW222374   3.360   2.777  12.216 -0.2175  1.1918 -0.0117
 3639SOL     OW22375   1.398   3.932   3.280  0.4808  0.1550 -0.3939
 3639SOL    HW122376   1.391   4.022   3.249  1.0385  0.2003 -0.3955
 3639SOL    HW222377   1.479   3.943   3.330 -0.0362  1.2701  0.1942
 3640SOL     OW22378   1.950   4.405  17.078  0.4969 -0.1853 -0.3005
 3640SOL    HW122379   2.018   4.391  17.012  1.4426  3.9067 -0.1608
 3640SOL    HW222380   1.953   4.321  17.124  0.9075  0.4673  0.8507
 3641SOL     OW22381   3.943   1.483   4.005  0.3101  0.3389  0.1420
 3641SOL    HW122382   3.918   1.392   4.022  1.7343 -0.6394 -2.9235
 3641SOL    HW222383   4.017   1.462   3.948  1.6165  0.0231  1.9831
 3642SOL     OW22384   3.797   3.267   6.048  0.2294 -0.0421  0.2505
 3642SOL    HW122385   3.729   3.279   5.982  1.7582  1.9044 -0.9759
 3642SOL    HW222386   3.807   3.174   6.029  1.0377  0.0782  0.0799
 3643SOL     OW22387   0.595   1.462  13.638  0.1290 -0.2732 -0.1714
 3643SOL    HW122388   0.547   1.453  13.556 -1.0285  0.3316  0.4306
 3643SOL    HW222389   0.514   1.443  13.687 -0.3172 -1.4259 -1.3619
 3644SOL     OW22390   2.731   2.851   6.867 -0.1666 -0.1187  0.0902
 3644SOL    HW122391   2.698   2.840   6.956  0.9568 -4.1894 -0.0104
 3644SOL    HW222392   2.788   2.775   6.879 -1.8702 -1.1550  1.6387
 3645SOL     OW22393   2.433   2.248   6.843  0.1316  0.1572  0.1131
 3645SOL    HW122394   2.524   2.251   6.814 -0.3238 -1.4797 -1.5288
 3645SOL    HW222395   2.437   2.228   6.936 -2.1600 -1.2256 -0.0636
 3646SOL     OW22396   4.152   4.106   8.665 -0.4571  0.1517 -0.0329
 3646SOL    HW122397   4.188   4.152   8.741  0.7382  1.6181 -1.4656
 3646SOL    HW222398   4.063   4.089   8.696  0.3546 -1.4866  1.4114
 3647SOL     OW22399   0.429   3.149   2.878 -0.2376  0.0920 -0.1131
 3647SOL    HW122400   0.502   3.186   2.829  0.2271  0.4270  0.8443
 3647SOL    HW222401   0.416   3.066   2.831 -0.0387  1.1347 -1.9930
 3648SOL     OW22402   2.500   1.728   3.981  0.6807  0.6136  0.3026
 3648SOL    HW122403   2.561   1.797   4.007  0.3055  1.1811 -0.3118
 3648SOL    HW222404   2.477   1.755   3.892 -0.7317  3.2661  1.4519
 3649SOL     OW22405   3.746   4.473   3.868  0.5842  0.6323  0.2128
 3649SOL    HW122406   3.744   4.378   3.871 -0.0803  0.5943 -1.3804
 3649SOL    HW222407   3.652   4.486   3.858 -0.0810 -3.0153  1.7335
 3650SOL     OW22408   3.863   2.874   7.260 -0.1975 -0.2591 -0.3173
 3650SOL    HW122409   3.838   2.959   7.296  0.3108  0.0238 -0.6272
 3650SOL    HW222410   3.776   2.842   7.237 -0.3477 -0.3362  0.3856
 3651SOL     OW22411   3.993   1.956   5.640  0.1543 -0.3412 -0.8150
 3651SOL    HW122412   3.988   1.910   5.723 -0.3762  1.3054  0.0795
 3651SOL    HW222413   3.974   2.047   5.665 -0.0955 -0.4607 -0.5710
 3652SOL     OW22414   2.469   2.145   4.257  0.6434 -0.3127  0.2031
 3652SOL    HW122415   2.508   2.070   4.212 -0.5659 -0.7463 -0.1074
 3652SOL    HW222416   2.478   2.216   4.193  1.2792 -0.1587  0.4635
 3653SOL     OW22417   2.711   2.354  10.291 -0.4136 -0.3770  0.2338
 3653SOL    HW122418   2.669   2.370  10.375 -2.1769 -1.1621 -0.5047
 3653SOL    HW222419   2.795   2.317  10.319 -0.6265 -1.5152 -0.6141
 3654SOL     OW22420   0.932   1.285  17.176  0.2782 -0.6105 -0.5374
 3654SOL    HW122421   0.951   1.260  17.086 -1.1490  0.8029 -1.2208
 3654SOL    HW222422   0.848   1.330  17.172 -0.0513 -1.1359  0.4194
 3655SOL     OW22423   1.100   1.539   2.833  0.0241 -0.0300 -0.7218
 3655SOL    HW122424   1.007   1.562   2.838  0.3942  1.9876 -2.8070
 3655SOL    HW222425   1.125   1.552   2.741  1.5386 -3.3591 -0.7455
 3656SOL     OW22426   0.339   2.526   3.952  0.0649 -1.3490  0.8988
 3656SOL    HW122427   0.412   2.512   4.012  0.1507 -0.2783  1.0331
 3656SOL    HW222428   0.269   2.545   4.014  1.4519  1.2469  1.6402
 3657SOL     OW22429   1.143   3.936  12.649  0.0975  0.2900  0.4231
 3657SOL    HW122430   1.169   3.926  12.740 -1.2156  0.1973  0.7769
 3657SOL    HW222431   1.056   3.975  12.653 -0.2748 -0.5741  0.6189
 3658SOL     OW22432   3.029   1.202   9.213 -0.3615  0.2591  0.0604
 3658SOL    HW122433   2.972   1.251   9.154 -0.5084  0.1782  0.1345
 3658SOL    HW222434   3.111   1.201   9.164 -0.7429 -0.7894 -0.5678
 3659SOL     OW22435   0.740   0.016  13.407  0.1944 -0.2079  1.1262
 3659SOL    HW122436   0.831   0.013  13.436  0.8765  2.1043 -0.7268
 3659SOL    HW222437   0.729   0.110  13.389 -1.1901  0.0289  3.1833
 3660SOL     OW22438   3.244   4.132   7.885 -0.1622 -0.4130  0.3847
 3660SOL    HW122439   3.219   4.224   7.890  3.5085  0.4418  2.4567
 3660SOL    HW222440   3.172   4.088   7.931  0.3724 -1.2293  0.4366
 3661SOL     OW22441   3.418   3.107   7.883 -0.4364  0.0353 -0.2202
 3661SOL    HW122442   3.425   3.095   7.978 -3.0767 -1.3890 -0.2155
 3661SOL    HW222443   3.471   3.034   7.852 -0.0725 -0.1309  0.7782
 3662SOL     OW22444   0.855   2.138   1.695 -0.1677 -0.2300  0.5107
 3662SOL    HW122445   0.809   2.088   1.762 -2.0850  0.2340 -0.4556
 3662SOL    HW222446   0.943   2.125   1.732  0.3228 -0.1165 -0.6168
 3663SOL     OW22447   0.528   2.649   0.049  0.5075 -0.0313 -0.4698
 3663SOL    HW122448   0.478   2.662   0.130  1.0297 -0.0698 -0.1380
 3663SOL    HW222449   0.600   2.699   0.088  0.7604 -0.4424 -0.4109
 3664SOL     OW22450   0.953   1.125   5.076 -0.0409 -0.2121 -0.7615
 3664SOL    HW122451   0.896   1.127   4.999 -0.9099  0.7534 -0.0876
 3664SOL    HW222452   0.903   1.069   5.135 -0.7107 -0.8733 -1.9574
 3665SOL     OW22453   2.525   4.557   6.472  0.8547  0.0956  0.7162
 3665SOL    HW122454   2.518   4.485   6.535 -0.6232 -1.2549 -1.0111
 3665SOL    HW222455   2.456   4.618   6.497  0.4715 -0.3862  0.8322
 3666SOL     OW22456   3.357   3.365   3.342  0.1762 -0.7205 -0.0136
 3666SOL    HW122457   3.322   3.335   3.258  1.2373 -1.2476 -0.2730
 3666SOL    HW222458   3.275   3.367   3.390 -0.6932  0.6411 -1.5602
 3667SOL     OW22459   4.178   3.316   2.656  0.7484  0.0900  0.0327
 3667SOL    HW122460   4.272   3.317   2.640  1.1526 -0.8239  2.3282
 3667SOL    HW222461   4.169   3.221   2.652  0.4026  0.1408 -0.3587
 3668SOL     OW22462   2.037   4.043   2.587 -0.0808 -0.0972 -0.1615
 3668SOL    HW122463   2.033   4.023   2.493  0.1857 -2.0912  0.2582
 3668SOL    HW222464   1.961   4.102   2.589 -0.7266 -1.0643  2.8897
 3669SOL     OW22465   1.354   4.181   8.098  0.2962  0.7590  0.2459
 3669SOL    HW122466   1.345   4.274   8.114  1.9858  1.0696 -0.5352
 3669SOL    HW222467   1.381   4.174   8.006 -1.3152  0.9213 -0.2276
 3670SOL     OW22468   1.964   1.602   3.324  0.6330  0.0464  0.6926
 3670SOL    HW122469   2.017   1.603   3.244  0.1963  0.6492  0.4168
 3670SOL    HW222470   2.011   1.528   3.364  1.9909  0.6436  0.1953
 3671SOL     OW22471   3.451   3.669  16.539 -0.2079 -0.3776 -0.9093
 3671SOL    HW122472   3.465   3.581  16.504  0.1744 -0.9600  0.7494
 3671SOL    HW222473   3.538   3.702  16.559 -0.7675  1.2420 -1.0557
 3672SOL     OW22474   4.188   3.138   3.448  0.6569  0.0195 -0.9423
 3672SOL    HW122475   4.186   3.067   3.383 -1.1458  0.4835 -1.3817
 3672SOL    HW222476   4.144   3.205   3.396  1.0895  0.1907 -1.0913
 3673SOL     OW22477   0.239   0.416   1.376 -0.4474  0.0083  0.0021
 3673SOL    HW122478   0.187   0.415   1.457 -0.1239  0.0384  0.2143
 3673SOL    HW222479   0.303   0.485   1.395 -1.3723  0.2042  2.4343
 3674SOL     OW22480   3.003   4.123  10.271  0.1173  0.4424 -0.3512
 3674SOL    HW122481   2.932   4.182  10.244 -0.6308 -0.6099 -0.6583
 3674SOL    HW222482   3.039   4.187  10.332 -1.6516  0.6704  0.4655
 3675SOL     OW22483   0.161   4.551   6.971 -0.1556 -0.9501  0.6452
 3675SOL    HW122484   0.163   4.638   7.009 -1.1718 -0.3177 -0.7408
 3675SOL    HW222485   0.226   4.570   6.902  0.7011 -2.0033  1.1508
 3676SOL     OW22486   0.622   1.045   2.981  0.2072 -0.2293  0.1544
 3676SOL    HW122487   0.676   0.972   2.951 -0.6027 -0.5010 -0.6235
 3676SOL    HW222488   0.569   1.055   2.902  0.4293  0.0235  0.0371
 3677SOL     OW22489   2.624   4.392   7.672  0.5482 -0.0960 -0.0213
 3677SOL    HW122490   2.649   4.318   7.727  0.3306  0.8592  1.3572
 3677SOL    HW222491   2.688   4.459   7.695  0.0907  0.5521 -0.6337
 3678SOL     OW22492   3.739   1.997   2.643  0.0322 -0.1538  0.5550
 3678SOL    HW122493   3.731   2.092   2.653  0.7759 -0.0679  0.3408
 3678SOL    HW222494   3.814   1.965   2.693 -0.0145 -0.2747  0.5491
 3679SOL     OW22495   3.512   0.318   1.372 -0.2507  0.2430 -0.1982
 3679SOL    HW122496   3.495   0.386   1.437  1.9992 -0.0930  0.7189
 3679SOL    HW222497   3.607   0.325   1.375 -0.1221 -1.4986  0.2235
 3680SOL     OW22498   1.333   3.780  13.591  0.5503  0.5900 -0.4164
 3680SOL    HW122499   1.275   3.708  13.567 -0.2070  1.6513 -1.7796
 3680SOL    HW222500   1.363   3.802  13.503  0.4642  0.3201 -0.5127
 3681SOL     OW22501   3.158   3.172   5.231  0.2448  0.0020 -0.4611
 3681SOL    HW122502   3.223   3.198   5.167  2.8322 -0.7332  1.8850
 3681SOL    HW222503   3.163   3.256   5.278 -0.8703 -2.5580  4.2631
 3682SOL     OW22504   2.392   3.908   9.852  0.3532 -0.2723 -0.6617
 3682SOL    HW122505   2.441   3.840   9.898 -2.0503 -1.2018  0.5226
 3682SOL    HW222506   2.339   3.866   9.785 -1.9655  0.4715  0.6876
 3683SOL     OW22507   3.207   0.817   3.809  0.4454  0.1588  0.0199
 3683SOL    HW122508   3.142   0.886   3.794  1.1290  0.6925 -0.4900
 3683SOL    HW222509   3.286   0.861   3.841  1.6428 -1.3800 -0.8358
 3684SOL     OW22510   1.185   1.709  15.106 -0.6313 -1.0905  0.2747
 3684SOL    HW122511   1.139   1.715  15.022 -1.0800 -0.4763  0.5657
 3684SOL    HW222512   1.108   1.710  15.163  0.5559  3.7810  1.7915
 3685SOL     OW22513   0.151   2.766   5.447 -0.5306 -0.4148 -0.1418
 3685SOL    HW122514   0.086   2.792   5.513 -0.4749 -0.3314 -0.1206
 3685SOL    HW222515   0.099   2.780   5.367  0.2620  1.5784 -0.2851
 3686SOL     OW22516   0.307   3.158   3.515 -0.0331  0.1953  0.1000
 3686SOL    HW122517   0.304   3.239   3.463  0.7676  0.2798  0.1807
 3686SOL    HW222518   0.243   3.180   3.583  3.0396  0.8892  2.7865
 3687SOL     OW22519   4.392   4.328  15.668 -0.0317  0.1783 -0.0164
 3687SOL    HW122520   4.463   4.299  15.726  0.3528  0.8440 -0.1550
 3687SOL    HW222521   4.353   4.253  15.623 -1.9550  0.2097  1.5608
 3688SOL     OW22522   2.753   1.717  15.938  0.7408 -0.0595  0.3693
 3688SOL    HW122523   2.715   1.757  16.016 -1.0584 -0.2353 -0.4097
 3688SOL    HW222524   2.812   1.651  15.973 -1.0102 -1.8199  0.0142
 3689SOL     OW22525   0.904   4.689   9.030 -0.3750  0.4874  0.4156
 3689SOL    HW122526   0.880   4.610   8.983 -0.7160  0.0936  1.2542
 3689SOL    HW222527   0.821   0.009   9.045 -0.1948  0.2001  2.2874
 3690SOL     OW22528   3.960   0.705   2.256 -0.4719  0.4824 -0.0151
 3690SOL    HW122529   4.032   0.753   2.297 -1.2340  0.9031  0.8193
 3690SOL    HW222530   4.008   0.643   2.201  0.2562  0.8064  0.2643
 3691SOL     OW22531   1.242   0.139   7.084  0.0953  0.4798 -0.4608
 3691SOL    HW122532   1.270   0.230   7.087 -1.2029  0.9045 -1.1240
 3691SOL    HW222533   1.312   0.096   7.133 -2.8820 -1.3664  2.1613
 3692SOL     OW22534   2.322   1.319   0.030  0.9423 -0.3872  0.3169
 3692SOL    HW122535   2.297   1.231   0.058  0.6989 -0.3313  0.2755
 3692SOL    HW222536   2.263   1.373   0.083  0.4453  1.3953 -2.0450
 3693SOL     OW22537   1.332   4.267  13.139 -0.4599 -0.3006 -0.4026
 3693SOL    HW122538   1.269   4.249  13.070  2.8048 -1.8827 -2.9636
 3693SOL    HW222539   1.386   4.339  13.106 -0.3987 -0.1846 -0.0530
 3694SOL     OW22540   1.534   2.180   6.923  0.2537 -0.6858  0.4624
 3694SOL    HW122541   1.593   2.117   6.962  1.9187  0.9663  0.6213
 3694SOL    HW222542   1.451   2.134   6.909  0.2666 -1.0623  1.6575
 3695SOL     OW22543   2.547   2.188   3.031 -0.3757  0.0290  0.0133
 3695SOL    HW122544   2.563   2.103   2.989 -0.3559 -0.8967  1.8866
 3695SOL    HW222545   2.583   2.246   2.964 -0.5204  0.1861  0.0713
 3696SOL     OW22546   3.684   0.078   2.394  0.3239  0.2714 -0.5115
 3696SOL    HW122547   3.741   0.045   2.324  2.9456  1.9127  0.8495
 3696SOL    HW222548   3.601   0.047   2.357  1.1772 -1.3496 -1.0748
 3697SOL     OW22549   4.333   4.104   1.170 -0.3195 -0.2076 -0.6888
 3697SOL    HW122550   4.359   4.022   1.213  2.2129 -0.1623 -2.1627
 3697SOL    HW222551   4.304   4.077   1.083 -0.3229 -1.8997 -0.1777
 3698SOL     OW22552   1.039   1.276   5.448 -0.6595  0.2187 -0.0514
 3698SOL    HW122553   0.995   1.322   5.377  1.7521  1.2816 -0.8836
 3698SOL    HW222554   0.976   1.208   5.470 -0.3824 -0.2110 -0.5733
 3699SOL     OW22555   2.364   4.264   2.380  0.4670 -0.1792 -0.0967
 3699SOL    HW122556   2.363   4.359   2.392 -2.8762 -0.4313  1.4159
 3699SOL    HW222557   2.405   4.235   2.461 -1.3619 -1.0042  0.5340
 3700SOL     OW22558   0.148   0.103   7.994  0.3138  0.1715  0.5053
 3700SOL    HW122559   0.196   0.131   7.916 -1.5081  0.7548 -0.3998
 3700SOL    HW222560   0.213   0.045   8.034  0.1981  0.2603  0.8181
 3701SOL     OW22561   2.808   1.353   4.670 -0.7457  0.2933 -0.5152
 3701SOL    HW122562   2.740   1.296   4.707  1.0972 -1.6806 -0.2236
 3701SOL    HW222563   2.814   1.309   4.585 -1.8653 -2.0270  0.5983
 3702SOL     OW22564   2.741   0.327  16.446  0.2206  0.4334  0.2937
 3702SOL    HW122565   2.651   0.350  16.423  0.9441  2.2526 -0.7187
 3702SOL    HW222566   2.738   0.238  16.482  0.4558 -0.1629 -1.1436
 3703SOL     OW22567   3.621   4.345   3.121 -0.3998  0.0477 -0.2894
 3703SOL    HW122568   3.533   4.356   3.084 -1.1060  0.4821  1.5646
 3703SOL    HW222569   3.631   4.251   3.110  0.8627  0.2865 -1.2671
 3704SOL     OW22570   3.773   0.208   8.701 -0.2265  0.0496  0.6662
 3704SOL    HW122571   3.692   0.232   8.748  2.2481  3.4146  3.2107
 3704SOL    HW222572   3.841   0.242   8.759  0.0864 -0.1412  0.4052
 3705SOL     OW22573   0.588   1.594   4.716  0.2251 -0.3734 -0.0694
 3705SOL    HW122574   0.656   1.562   4.656 -1.1415  0.4433 -2.0134
 3705SOL    HW222575   0.523   1.524   4.707  1.0363 -0.6297 -3.7626
 3706SOL     OW22576   3.871   0.320  16.034  0.0016  0.4711 -0.2546
 3706SOL    HW122577   3.955   0.334  15.989  1.1119  0.7887  1.9079
 3706SOL    HW222578   3.858   0.403  16.080 -0.1635  1.3807 -1.9224
 3707SOL     OW22579   3.871   2.647  13.878 -0.3908  0.5245 -0.4139
 3707SOL    HW122580   3.903   2.567  13.838 -1.9933 -0.4791  0.2952
 3707SOL    HW222581   3.832   2.693  13.804  0.0037  2.2012  0.4184
 3708SOL     OW22582   3.014   3.094  17.031 -0.1041  0.1775 -0.2535
 3708SOL    HW122583   2.934   3.079  17.082 -2.1072  3.8292 -2.3532
 3708SOL    HW222584   3.074   3.042  17.085  1.1988  1.9620  0.0238
 3709SOL     OW22585   0.339   4.252   3.447  0.0363 -0.8021  0.6258
 3709SOL    HW122586   0.417   4.260   3.502  1.8636  0.4240 -2.1602
 3709SOL    HW222587   0.373   4.229   3.360 -1.4591 -1.0305  0.0967
 3710SOL     OW22588   3.724   1.015   8.837 -0.3760 -0.5244 -0.0826
 3710SOL    HW122589   3.732   0.950   8.906  2.1100  1.9412  1.9221
 3710SOL    HW222590   3.635   1.011   8.801  0.4139 -3.1052 -1.7406
 3711SOL     OW22591   2.148   0.810   6.044  0.0290  0.0794  0.1742
 3711SOL    HW122592   2.192   0.895   6.056 -0.3951  0.4401 -0.7759
 3711SOL    HW222593   2.228   0.765   6.018  0.3544  0.4981  0.4570
 3712SOL     OW22594   3.668   4.582   4.656  0.7860 -0.1280  0.0720
 3712SOL    HW122595   3.697   4.630   4.579  0.2746 -0.5747 -0.4022
 3712SOL    HW222596   3.670   4.497   4.611  0.7080 -0.5875  0.9237
 3713SOL     OW22597   4.232   3.754   8.877  0.3501 -0.0319 -0.8284
 3713SOL    HW122598   4.207   3.813   8.805 -0.7046 -0.0871 -0.5168
 3713SOL    HW222599   4.163   3.777   8.940  1.5269  0.9749  0.0852
 3714SOL     OW22600   3.059   2.166   1.606 -0.2805 -0.0250  0.4429
 3714SOL    HW122601   2.981   2.132   1.649 -1.3652  1.3778 -0.4021
 3714SOL    HW222602   3.053   2.262   1.608  0.9493  0.0411  0.9355
 3715SOL     OW22603   0.935   4.638   9.300  0.0140  0.1649 -0.2925
 3715SOL    HW122604   1.012   4.584   9.283  0.0217  0.3399 -0.8337
 3715SOL    HW222605   0.944   4.706   9.233 -0.5899  0.0882 -0.4490
 3716SOL     OW22606   2.512   4.333   6.649 -0.4618 -0.2152  0.2203
 3716SOL    HW122607   2.429   4.285   6.643  0.1426 -1.0790 -1.2526
 3716SOL    HW222608   2.568   4.257   6.633 -1.0170 -0.9693  1.7759
 3717SOL     OW22609   2.706   2.241   3.272 -0.0832  0.6843 -0.1757
 3717SOL    HW122610   2.766   2.171   3.244  0.1735  0.9702 -0.3347
 3717SOL    HW222611   2.626   2.220   3.222  0.3566  0.7454 -0.9025
 3718SOL     OW22612   0.024   0.457   6.114 -0.1783  0.0121 -0.4816
 3718SOL    HW122613   0.014   0.541   6.158  2.7291 -0.3370  0.8205
 3718SOL    HW222614   4.688   0.473   6.043 -0.6155  0.7359  0.0608
 3719SOL     OW22615   4.015   3.870   4.309 -0.0133  0.3128 -0.0212
 3719SOL    HW122616   3.964   3.872   4.228 -1.3224 -1.2720  0.7722
 3719SOL    HW222617   4.097   3.825   4.291  0.9161  2.0814 -0.2307
 3720SOL     OW22618   0.076   0.349   6.906 -0.0176 -0.3378 -0.5271
 3720SOL    HW122619   0.059   0.256   6.889 -2.6940  0.6731 -3.3957
 3720SOL    HW222620   0.129   0.344   6.986 -0.0079  2.2659 -0.3882
 3721SOL     OW22621   0.249   2.461   7.286  0.0876  0.0467  0.0683
 3721SOL    HW122622   0.168   2.510   7.271  1.6153  2.9169  1.2139
 3721SOL    HW222623   0.229   2.375   7.248 -0.7444 -0.3203  1.3695
 3722SOL     OW22624   1.646   1.885   2.710  0.0140  0.0387  0.2468
 3722SOL    HW122625   1.606   1.970   2.693  0.0745  0.3286  1.5543
 3722SOL    HW222626   1.593   1.833   2.649  0.4381  3.6247 -3.1459
 3723SOL     OW22627   0.836   2.433   3.106  0.4301  0.9825  0.3888
 3723SOL    HW122628   0.759   2.400   3.061  1.3510  0.3347 -0.7148
 3723SOL    HW222629   0.803   2.522   3.119 -4.0323 -0.6630  0.2678
 3724SOL     OW22630   2.140   3.617   9.186 -0.2784 -0.2442 -0.1243
 3724SOL    HW122631   2.168   3.703   9.218  0.1743 -0.3016 -0.3649
 3724SOL    HW222632   2.159   3.627   9.093 -0.4356 -2.8831 -0.4246
 3725SOL     OW22633   0.914   0.575   3.374  0.4678 -0.3856 -0.5618
 3725SOL    HW122634   0.937   0.593   3.465  0.0813  1.3240 -0.7988
 3725SOL    HW222635   0.857   0.650   3.359  0.1413 -0.2125  1.5157
 3726SOL     OW22636   0.746   3.411   5.253  0.1193 -0.2147 -0.1266
 3726SOL    HW122637   0.697   3.474   5.201  0.6454  0.4525  0.1820
 3726SOL    HW222638   0.817   3.468   5.283 -1.2973  1.9439 -0.8716
 3727SOL     OW22639   0.890   3.473   1.535 -0.3943 -0.1032  0.5475
 3727SOL    HW122640   0.938   3.461   1.616 -1.3635 -3.1285  0.6514
 3727SOL    HW222641   0.962   3.499   1.478 -1.1641  1.0488  0.0905
 3728SOL     OW22642   3.851   1.164  15.083 -0.0879  0.1743 -0.1945
 3728SOL    HW122643   3.850   1.175  15.178 -1.1465  1.9842 -0.4341
 3728SOL    HW222644   3.880   1.254  15.067  1.8155 -0.8417 -2.4198
 3729SOL     OW22645   2.730   3.236  17.543  0.1486 -0.4893  0.0990
 3729SOL    HW122646   2.688   3.181  17.609 -1.3885  0.2197 -0.2866
 3729SOL    HW222647   2.820   3.201  17.540  0.5339  0.4592  0.5214
 3730SOL     OW22648   2.236   2.629  12.446 -0.4566  0.5785  0.0775
 3730SOL    HW122649   2.218   2.679  12.366 -0.0825  2.7147  1.3426
 3730SOL    HW222650   2.155   2.582  12.464  0.6078 -1.8993 -1.5354
 3731SOL     OW22651   2.547   0.643   2.292  0.5243 -0.0683 -0.4291
 3731SOL    HW122652   2.560   0.679   2.205 -2.1132 -0.2104 -0.8854
 3731SOL    HW222653   2.639   0.625   2.306 -0.0091 -2.9474 -0.6335
 3732SOL     OW22654   1.941   3.241   6.052  0.6240  0.1432 -0.5099
 3732SOL    HW122655   2.022   3.288   6.031  0.8033  0.8203  1.7493
 3732SOL    HW222656   1.879   3.314   6.047  0.8470  0.4549  1.2405
 3733SOL     OW22657   3.712   1.793   0.873  0.4414 -0.2820  0.4205
 3733SOL    HW122658   3.784   1.852   0.847 -0.2814  0.4556  0.1012
 3733SOL    HW222659   3.687   1.761   0.786  1.4078  1.3391 -0.4554
 3734SOL     OW22660   0.101   0.896  15.279 -0.4533 -0.2105 -0.3663
 3734SOL    HW122661   0.166   0.945  15.329  1.8271 -3.0168 -0.5695
 3734SOL    HW222662   0.034   0.874  15.344  1.6550 -0.7320  1.6191
 3735SOL     OW22663   2.409   3.408   3.477  0.2828  0.3433  0.4130
 3735SOL    HW122664   2.382   3.499   3.478 -0.6597  0.1076 -2.4814
 3735SOL    HW222665   2.502   3.422   3.455  0.3227 -0.2132  0.2020
 3736SOL     OW22666   1.592   2.901   3.758  0.0597 -0.2067  0.2054
 3736SOL    HW122667   1.679   2.940   3.771 -0.2014  0.3152  0.3958
 3736SOL    HW222668   1.553   2.914   3.845 -1.6221 -0.8164 -0.4613
 3737SOL     OW22669   0.398   0.642   4.493  0.3641 -0.4008  1.0157
 3737SOL    HW122670   0.356   0.719   4.456  0.1500 -1.7651 -1.5649
 3737SOL    HW222671   0.490   0.669   4.491  0.7150 -1.5619  1.1185
 3738SOL     OW22672   1.909   3.197  16.866  0.2406  0.1589 -0.0579
 3738SOL    HW122673   1.962   3.151  16.932 -0.0336  1.4411  1.0708
 3738SOL    HW222674   1.878   3.119  16.820  2.5630 -0.4031 -0.6187
 3739SOL     OW22675   4.515   2.672   1.498 -0.3014 -0.2216  0.3450
 3739SOL    HW122676   4.592   2.632   1.537 -0.2892 -0.3181  0.2217
 3739SOL    HW222677   4.522   2.643   1.407  0.4382  1.0593 -0.0112
 3740SOL     OW22678   0.491   0.245   3.945 -0.0173 -0.4521  0.1927
 3740SOL    HW122679   0.523   0.248   3.854 -0.5049 -1.4407 -0.0127
 3740SOL    HW222680   0.415   0.187   3.939 -0.5008  0.5393 -3.5965
 3741SOL     OW22681   0.365   4.229   6.558 -0.8310 -0.0094 -0.1564
 3741SOL    HW122682   0.401   4.315   6.532  1.2570 -1.5235 -2.3033
 3741SOL    HW222683   0.409   4.219   6.642 -0.0600 -1.1812 -0.6995
 3742SOL     OW22684   3.368   0.157   9.216 -0.3994 -0.6196  0.7617
 3742SOL    HW122685   3.419   0.084   9.181 -1.8019 -0.5428 -1.4362
 3742SOL    HW222686   3.329   0.191   9.136 -0.3533  0.7545  1.3274
 3743SOL     OW22687   2.374   3.081   5.053  0.4112  0.4029  0.3035
 3743SOL    HW122688   2.380   3.015   4.983 -0.7371 -1.1489  1.6545
 3743SOL    HW222689   2.287   3.061   5.086 -0.1877  4.8523  1.3688
 3744SOL     OW22690   3.447   1.313   2.129 -0.3229 -0.2909  0.5739
 3744SOL    HW122691   3.487   1.355   2.054 -1.1904  1.0950  0.8910
 3744SOL    HW222692   3.423   1.225   2.099  2.2959 -1.4955  2.0449
 3745SOL     OW22693   4.660   0.097   9.920 -0.5029  0.1413  0.1003
 3745SOL    HW122694   4.690   0.186   9.938 -1.3876  0.1024  1.7392
 3745SOL    HW222695   0.005   0.067   9.862  0.4890  0.4122  1.1688
 3746SOL     OW22696   4.333   1.071   8.296  0.0609  0.1797 -0.5378
 3746SOL    HW122697   4.252   1.101   8.336  0.6631  1.6815 -0.4595
 3746SOL    HW222698   4.404   1.084   8.359  0.2053  0.0533 -0.6741
 3747SOL     OW22699   3.441   3.194   8.878  0.3026 -0.1698 -0.3230
 3747SOL    HW122700   3.415   3.245   8.955 -1.9598 -1.0970 -0.4564
 3747SOL    HW222701   3.426   3.104   8.909 -0.0938  0.6086  1.6996
 3748SOL     OW22702   4.500   1.890   9.985 -0.4258  0.2766  0.0880
 3748SOL    HW122703   4.481   1.945   9.909  1.7980  0.9591  0.0244
 3748SOL    HW222704   4.530   1.954  10.050 -0.9716 -0.6017  1.2156
 3749SOL     OW22705   3.404   3.723   6.366 -0.0814 -0.6172 -0.0703
 3749SOL    HW122706   3.500   3.722   6.366 -0.0657  0.8604 -0.6906
 3749SOL    HW222707   3.391   3.658   6.296  3.1713 -1.4276  0.0318
 3750SOL     OW22708   0.853   4.424  12.568 -0.5336  0.0678 -0.3575
 3750SOL    HW122709   0.917   4.356  12.544  0.1912  0.7579 -0.3784
 3750SOL    HW222710   0.916   4.488  12.602 -0.5232  0.3984 -1.0047
 3751SOL     OW22711   2.864   0.299   5.851 -0.6655 -0.0674 -0.0995
 3751SOL    HW122712   2.901   0.286   5.939 -1.6236  2.3064  0.6419
 3751SOL    HW222713   2.924   0.274   5.781 -1.6245 -2.4966 -0.0867
 3752SOL     OW22714   2.789   3.927   9.631  0.4535 -0.1509 -0.4654
 3752SOL    HW122715   2.807   3.835   9.652 -0.5865 -0.4775 -0.9872
 3752SOL    HW222716   2.755   3.962   9.713  1.6165 -1.3528  0.5418
 3753SOL     OW22717   2.734   3.055   9.724  1.1346 -0.4092  0.2436
 3753SOL    HW122718   2.730   2.998   9.647 -1.2387  0.9422 -0.6019
 3753SOL    HW222719   2.763   3.001   9.797 -0.4390  1.7338  2.4253
 3754SOL     OW22720   3.848   2.558   6.887  0.5596 -0.5940 -0.4108
 3754SOL    HW122721   3.926   2.503   6.888  0.3065 -0.8764  3.5176
 3754SOL    HW222722   3.816   2.545   6.976 -1.1964  1.0805 -0.7952
 3755SOL     OW22723   2.607   4.277   0.176  0.0756  0.1349  0.5173
 3755SOL    HW122724   2.633   4.359   0.218  0.1838  0.9850 -1.2091
 3755SOL    HW222725   2.664   4.272   0.099  0.6233  0.6254  0.8934
 3756SOL     OW22726   0.984   0.057   4.866  0.3545  0.3942  0.0246
 3756SOL    HW122727   1.043   0.035   4.794  1.6440  1.4535  0.7457
 3756SOL    HW222728   0.989   0.153   4.872  0.4001  0.3004  1.5613
 3757SOL     OW22729   4.468   2.508   7.272 -0.3536  0.4354 -0.7343
 3757SOL    HW122730   4.434   2.572   7.209  2.0267  2.3572 -0.0657
 3757SOL    HW222731   4.388   2.471   7.309 -0.0028 -0.3247 -0.7304
 3758SOL     OW22732   4.438   1.739   1.965  0.2989  0.3905 -0.4885
 3758SOL    HW122733   4.360   1.767   1.918 -1.3950  0.2197  2.2396
 3758SOL    HW222734   4.479   1.672   1.911 -2.8223 -1.8370 -0.1098
 3759SOL     OW22735   1.843   2.723  17.531  0.9205  0.5506  0.4711
 3759SOL    HW122736   1.862   2.657  17.464  1.6980  3.1756 -1.9264
 3759SOL    HW222737   1.850   2.671  17.611  1.1792  1.1634  0.8540
 3760SOL     OW22738   1.765   0.007   8.616 -0.1644  0.4937 -0.0837
 3760SOL    HW122739   1.838   0.066   8.595  1.3982 -0.7815  1.7777
 3760SOL    HW222740   1.697   0.073   8.616  2.2591  3.0095 -0.6299
 3761SOL     OW22741   1.198   4.376   8.404  0.9494 -0.3003  0.5588
 3761SOL    HW122742   1.267   4.343   8.461  4.4819  0.9569 -3.0697
 3761SOL    HW222743   1.191   4.296   8.352 -1.0927 -0.1714  0.6081
 3762SOL     OW22744   3.556   1.473   5.548  0.4435  0.5006 -0.2881
 3762SOL    HW122745   3.467   1.490   5.518  0.2810  2.4692  1.3152
 3762SOL    HW222746   3.552   1.506   5.638 -2.4214 -0.2389 -0.1432
 3763SOL     OW22747   2.669   3.244   8.296  0.1135  0.1747  0.1497
 3763SOL    HW122748   2.695   3.211   8.382 -2.0329 -0.4530  0.5482
 3763SOL    HW222749   2.586   3.197   8.293  0.2205 -0.0390  0.4905
 3764SOL     OW22750   0.740   0.482   8.653  0.1898  0.2488  0.2585
 3764SOL    HW122751   0.763   0.575   8.651 -0.1901  0.3626  1.0207
 3764SOL    HW222752   0.741   0.468   8.558 -1.8340  0.7158  0.1684
 3765SOL     OW22753   1.014   1.015   8.878  0.0439  0.4490 -0.1597
 3765SOL    HW122754   0.958   1.074   8.929  0.1843 -0.2853  0.8437
 3765SOL    HW222755   0.958   0.970   8.816 -0.7497 -0.2936  1.0864
 3766SOL     OW22756   1.168   3.772   3.169 -0.0881  0.2341  0.0107
 3766SOL    HW122757   1.222   3.841   3.207 -0.2161  0.2892  0.0944
 3766SOL    HW222758   1.120   3.829   3.109 -0.6226 -0.6745 -0.4250
 3767SOL     OW22759   1.951   0.279   6.168 -0.5478  0.3043  0.8654
 3767SOL    HW122760   1.878   0.248   6.115  0.7557 -3.3836  1.2283
 3767SOL    HW222761   1.975   0.203   6.221 -1.2566 -1.4501 -1.3013
 3768SOL     OW22762   2.101   0.420   8.099  0.2334  0.5460  0.2085
 3768SOL    HW122763   2.149   0.355   8.150  1.8126  1.4651 -0.0943
 3768SOL    HW222764   2.111   0.492   8.162  3.1971  0.2202  0.1434
 3769SOL     OW22765   1.082   0.693   6.285  0.6679  0.0491  0.7095
 3769SOL    HW122766   1.142   0.768   6.292  1.7562 -0.9228  1.8370
 3769SOL    HW222767   1.094   0.647   6.368 -0.2950 -0.5453  0.5099
 3770SOL     OW22768   4.270   1.839   0.428  0.0432 -0.4660 -0.4073
 3770SOL    HW122769   4.245   1.902   0.361 -0.0303  0.6862  0.6961
 3770SOL    HW222770   4.191   1.835   0.483 -0.0514 -1.2761 -0.6107
 3771SOL     OW22771   1.559   1.514  12.043 -0.6666 -0.8653 -0.6094
 3771SOL    HW122772   1.603   1.529  11.959  1.5899 -2.1251  0.3438
 3771SOL    HW222773   1.607   1.436  12.070 -0.6714  0.7860  4.0506
 3772SOL     OW22774   4.097   3.150  12.795 -0.2481  0.6822 -0.5175
 3772SOL    HW122775   4.158   3.221  12.810  2.2643 -1.4966 -0.4845
 3772SOL    HW222776   4.133   3.110  12.716  2.3942 -0.1078  1.1124
 3773SOL     OW22777   1.891   4.244   6.239  1.0215 -0.0165  0.1381
 3773SOL    HW122778   1.878   4.204   6.325  0.6129 -1.1085 -0.4310
 3773SOL    HW222779   1.825   4.313   6.241  1.7236  0.6394  0.8729
 3774SOL     OW22780   3.243   1.184   1.873  0.2923 -0.4364 -0.4103
 3774SOL    HW122781   3.152   1.161   1.857  0.8795 -1.5182 -2.2376
 3774SOL    HW222782   3.273   1.249   1.809 -2.6114  0.4137 -0.8910
 3775SOL     OW22783   4.619   3.830   4.471  0.1463  0.5641  0.4832
 3775SOL    HW122784   4.668   3.847   4.391  2.3878 -1.5829  1.4016
 3775SOL    HW222785   4.627   3.914   4.516 -3.0828  1.3456 -0.4303
 3776SOL     OW22786   1.277   1.087   4.823 -0.0983  0.1711  0.7535
 3776SOL    HW122787   1.233   1.002   4.834  0.8866 -0.1689  2.0302
 3776SOL    HW222788   1.218   1.136   4.766 -0.5166 -0.3364  0.7510
 3777SOL     OW22789   0.665   4.261   3.208 -0.1477 -0.0574 -0.1249
 3777SOL    HW122790   0.582   4.213   3.201  0.3503 -0.8661 -0.4477
 3777SOL    HW222791   0.622   4.344   3.229 -0.6965 -0.1185 -1.0130
 3778SOL     OW22792   3.305   3.857   0.411  0.5739  0.1704  0.0311
 3778SOL    HW122793   3.277   3.909   0.336 -1.7510 -1.0658  0.0466
 3778SOL    HW222794   3.401   3.855   0.402  0.7331 -2.6286  2.3242
 3779SOL     OW22795   1.407   1.006   7.143  0.2801 -0.1872  0.1941
 3779SOL    HW122796   1.397   1.067   7.070  0.2539 -2.4567 -1.6939
 3779SOL    HW222797   1.317   0.986   7.167 -0.1683 -0.5458 -1.7765
 3780SOL     OW22798   4.569   3.844   2.921 -0.4384 -0.3434  0.0503
 3780SOL    HW122799   4.572   3.789   2.999 -1.3138 -1.1440 -0.4748
 3780SOL    HW222800   4.625   3.912   2.958  0.8176 -0.0212 -2.4196
 3781SOL     OW22801   1.675   1.890   1.101  0.0806 -0.2272 -0.2729
 3781SOL    HW122802   1.652   1.860   1.188  1.2436 -1.0038 -0.2277
 3781SOL    HW222803   1.611   1.849   1.042  0.7253  0.0087 -1.1423
 3782SOL     OW22804   1.844   3.389   1.261 -0.3630 -0.3403 -0.0736
 3782SOL    HW122805   1.756   3.394   1.223  0.1111 -0.4280 -1.1686
 3782SOL    HW222806   1.859   3.483   1.251 -1.1096 -0.2378 -0.2808
 3783SOL     OW22807   1.997   3.542   2.581 -0.0977  0.0573 -0.3804
 3783SOL    HW122808   2.047   3.538   2.499 -1.7069  3.5051 -1.5035
 3783SOL    HW222809   1.911   3.529   2.542  0.6057  1.9185 -2.5327
 3784SOL     OW22810   3.334   4.699   3.864 -0.0065  0.0187 -0.6822
 3784SOL    HW122811   3.333   0.059   3.822  1.9279  1.1109  1.4886
 3784SOL    HW222812   3.241   4.692   3.882  0.5467 -0.8131  1.8507
 3785SOL     OW22813   3.184   2.722   6.493 -0.2081 -0.5060 -0.4615
 3785SOL    HW122814   3.121   2.727   6.565 -1.1227  1.4123 -1.4247
 3785SOL    HW222815   3.226   2.645   6.532 -1.1289 -1.4876 -1.4280
 3786SOL     OW22816   0.583   2.762  12.664  0.1876  0.2291  0.0083
 3786SOL    HW122817   0.644   2.703  12.709  1.4973  0.6488 -1.2386
 3786SOL    HW222818   0.504   2.707  12.661  1.1862 -1.1745 -0.6883
 3787SOL     OW22819   3.209   4.357   8.499  0.3636  0.3008 -0.1762
 3787SOL    HW122820   3.242   4.286   8.445 -1.0378  1.2073 -2.2288
 3787SOL    HW222821   3.120   4.369   8.464  0.1934 -0.5103 -0.0267
 3788SOL     OW22822   0.429   2.704   3.143  0.5459  0.3143  0.8161
 3788SOL    HW122823   0.341   2.740   3.133  0.8771 -0.2601 -3.9418
 3788SOL    HW222824   0.444   2.709   3.238  2.7154 -0.6086  0.5083
 3789SOL     OW22825   1.398   4.349   4.899  0.0232 -0.1158  0.6046
 3789SOL    HW122826   1.307   4.329   4.919 -0.5508  1.1525 -0.7187
 3789SOL    HW222827   1.443   4.280   4.949 -0.1388 -0.2712  0.5367
 3790SOL     OW22828   1.671   0.094   2.819 -0.6266 -0.3759 -0.2229
 3790SOL    HW122829   1.759   0.056   2.828 -1.9801 -3.2948  0.3666
 3790SOL    HW222830   1.658   0.105   2.913  0.0131  3.1424 -0.5548
 3791SOL     OW22831   3.078   3.002   7.709  0.4435 -0.2194 -0.5449
 3791SOL    HW122832   2.996   3.013   7.660  0.5952  3.0818 -0.0673
 3791SOL    HW222833   3.071   2.916   7.751  1.9014 -0.9510 -1.7994
 3792SOL     OW22834   0.105   1.630  14.514  0.4262 -0.3285 -0.0162
 3792SOL    HW122835   0.131   1.584  14.434  0.3886  1.0065 -0.8014
 3792SOL    HW222836   0.171   1.603  14.578  1.2942  0.1836 -0.6960
 3793SOL     OW22837   0.514   2.314   4.616  0.5872  0.2348  0.4261
 3793SOL    HW122838   0.484   2.390   4.666 -2.0109  0.6344 -1.7315
 3793SOL    HW222839   0.569   2.274   4.683  0.2589  0.9623  1.1409
 3794SOL     OW22840   3.829   3.394   4.092 -0.2606 -0.5708 -0.4058
 3794SOL    HW122841   3.907   3.436   4.128 -0.6984 -0.1691  0.0861
 3794SOL    HW222842   3.768   3.416   4.163 -0.5310 -2.9718  0.1032
 3795SOL     OW22843   1.107   4.714   3.266 -0.1097 -0.0856 -0.3577
 3795SOL    HW122844   1.068   0.069   3.232 -3.7742 -1.8073 -0.2202
 3795SOL    HW222845   1.065   4.709   3.352 -1.5159 -1.8783 -1.1588
 3796SOL     OW22846   4.265   4.183   5.572  0.6496  0.1510  0.2348
 3796SOL    HW122847   4.290   4.094   5.596  0.2856 -0.1857 -0.6086
 3796SOL    HW222848   4.181   4.182   5.619  2.1125 -0.5913  2.8065
 3797SOL     OW22849   0.714   3.481   4.382  0.6375  0.1746 -0.0852
 3797SOL    HW122850   0.644   3.543   4.401  2.5114  1.9613  0.9193
 3797SOL    HW222851   0.770   3.545   4.337  1.6889 -1.4003 -1.0101
 3798SOL     OW22852   2.196   3.404   6.071 -0.1372  0.0465  0.4054
 3798SOL    HW122853   2.162   3.439   5.989  0.5120 -0.2775  0.0002
 3798SOL    HW222854   2.271   3.463   6.072  0.1039 -0.2647  0.8712
 3799SOL     OW22855   0.405   2.976   8.209 -0.4094 -0.7084 -0.0202
 3799SOL    HW122856   0.422   2.910   8.277  0.1336  0.0551  0.5820
 3799SOL    HW222857   0.325   3.016   8.243 -0.2652  2.0411 -2.9756
 3800SOL     OW22858   4.578   0.281   2.812 -0.2476  0.0513 -0.6857
 3800SOL    HW122859   4.499   0.269   2.864  1.5437 -1.2740  1.6944
 3800SOL    HW222860   4.593   0.195   2.771  0.4115  0.2228 -0.7992
 3801SOL     OW22861   1.988   1.106   3.598 -0.0785  0.0830  0.2321
 3801SOL    HW122862   1.991   1.057   3.681 -0.6386 -0.8093 -0.2684
 3801SOL    HW222863   2.055   1.051   3.557  1.6271  1.4559  1.2106
 3802SOL     OW22864   1.910   3.850  14.688 -0.4490  0.5397  0.1606
 3802SOL    HW122865   1.894   3.777  14.628 -1.3539  1.7015 -0.9862
 3802SOL    HW222866   1.892   3.926  14.633 -1.7651  0.4837  0.5086
 3803SOL     OW22867   2.781   1.882   0.849 -0.3216 -0.3751  0.2042
 3803SOL    HW122868   2.782   1.960   0.904 -0.6754  0.7796 -1.4558
 3803SOL    HW222869   2.862   1.891   0.800 -0.3595 -0.9619  0.0350
 3804SOL     OW22870   1.688   1.356   6.746 -0.1509 -0.2349  0.7425
 3804SOL    HW122871   1.594   1.366   6.736 -0.0451 -2.3813 -2.2524
 3804SOL    HW222872   1.697   1.262   6.761  0.5790 -0.1365  0.9543
 3805SOL     OW22873   1.744   3.689  14.860  0.0874 -0.2686 -0.1904
 3805SOL    HW122874   1.788   3.749  14.800  1.0687 -1.3844 -0.5805
 3805SOL    HW222875   1.819   3.693  14.919 -0.9870 -0.3221  1.1939
 3806SOL     OW22876   0.806   3.063   8.547 -0.2306 -0.5357  0.2106
 3806SOL    HW122877   0.721   3.024   8.565 -1.6155  2.4270  0.0700
 3806SOL    HW222878   0.829   3.115   8.624 -0.6978 -0.0899  0.0486
 3807SOL     OW22879   0.844   0.369   1.023  0.3028 -0.1371 -0.1886
 3807SOL    HW122880   0.874   0.279   1.033  1.0772  0.1410  0.0320
 3807SOL    HW222881   0.849   0.404   1.112  0.3512  2.4992 -1.2307
 3808SOL     OW22882   3.483   4.487   1.361 -0.4474 -0.2935  0.4891
 3808SOL    HW122883   3.455   4.490   1.452  0.7989 -1.6228  0.9247
 3808SOL    HW222884   3.531   4.570   1.366  2.6935 -2.0493 -0.4311
 3809SOL     OW22885   2.063   3.791   6.965 -0.6523  0.0867 -0.1286
 3809SOL    HW122886   2.027   3.871   7.003 -0.5910 -0.6902  1.5312
 3809SOL    HW222887   2.150   3.793   7.003 -1.1527  0.3516  0.9873
 3810SOL     OW22888   1.368   1.813  13.745  0.1624 -0.2988 -0.4783
 3810SOL    HW122889   1.292   1.759  13.768  1.2221 -1.4418  0.3164
 3810SOL    HW222890   1.431   1.762  13.795  0.4410 -1.1469 -1.6933
 3811SOL     OW22891   1.447   3.360   9.246 -0.3703 -0.3222 -0.0419
 3811SOL    HW122892   1.427   3.284   9.192 -0.2807 -0.2973 -0.1098
 3811SOL    HW222893   1.540   3.346   9.232 -0.3007 -0.1208  0.2201
 3812SOL     OW22894   1.311   3.938   8.462 -0.2184  0.5163 -0.2397
 3812SOL    HW122895   1.392   3.974   8.425  0.5436 -0.0720  0.8862
 3812SOL    HW222896   1.340   3.920   8.551  2.0938  3.3225 -0.4156
 3813SOL     OW22897   2.838   1.139   0.384  0.0371  0.1647 -1.0674
 3813SOL    HW122898   2.840   1.083   0.307 -0.6258 -0.8476 -0.3315
 3813SOL    HW222899   2.913   1.199   0.375 -0.3427  0.6856 -0.7410
 3814SOL     OW22900   0.678   0.419   6.073 -0.0394  0.0337  0.4619
 3814SOL    HW122901   0.677   0.512   6.050 -1.4391  0.4625  2.2467
 3814SOL    HW222902   0.617   0.372   6.016  1.3731 -3.6203  1.9351
 3815SOL     OW22903   3.472   1.393   3.132 -0.6790 -0.1959  0.2356
 3815SOL    HW122904   3.423   1.468   3.098  0.0839 -0.2952 -1.0596
 3815SOL    HW222905   3.517   1.362   3.054  0.5248  0.5012  0.6500
 3816SOL     OW22906   2.815   3.171   3.601 -0.4328 -0.1265  0.1496
 3816SOL    HW122907   2.731   3.138   3.569 -1.1189 -0.5209  2.4109
 3816SOL    HW222908   2.783   3.242   3.657 -1.9182 -1.2844  0.7566
 3817SOL     OW22909   1.096   2.489  11.325 -1.0549 -0.0011  0.6725
 3817SOL    HW122910   1.008   2.471  11.358 -1.5105 -0.9234 -1.0873
 3817SOL    HW222911   1.102   2.413  11.268 -1.6783  0.7652 -0.4193
 3818SOL     OW22912   3.094   1.400  16.964 -0.1272  0.1636  0.0335
 3818SOL    HW122913   3.084   1.443  17.049 -0.6098 -0.0104  0.0682
 3818SOL    HW222914   3.106   1.472  16.903  1.6014  2.7808  3.4581
 3819SOL     OW22915   3.985   3.035   6.473 -0.1447 -0.2921  0.8853
 3819SOL    HW122916   3.970   2.982   6.395 -0.1000 -1.8382  1.9205
 3819SOL    HW222917   3.920   2.995   6.530 -1.2204 -0.3639 -0.4035
 3820SOL     OW22918   2.284   4.454  11.027  0.1716 -0.2333 -0.2068
 3820SOL    HW122919   2.243   4.503  11.098  1.3974 -1.7459  1.5351
 3820SOL    HW222920   2.212   4.393  11.009  0.4309 -0.8024  0.7280
 3821SOL     OW22921   1.988   1.816   8.082  0.4233 -0.3525  0.2463
 3821SOL    HW122922   1.976   1.792   7.990 -0.9761  1.5809 -0.0581
 3821SOL    HW222923   1.899   1.834   8.111 -0.4513  0.6136 -3.0901
 3822SOL     OW22924   0.782   2.577  13.568 -0.4833 -0.0896 -0.0972
 3822SOL    HW122925   0.876   2.593  13.563 -0.2723 -1.5790 -0.8361
 3822SOL    HW222926   0.781   2.481  13.566 -0.0296 -0.1154  0.7444
 3823SOL     OW22927   1.731   0.365  11.760 -0.3079 -0.3637  0.0033
 3823SOL    HW122928   1.695   0.453  11.745 -0.5104 -0.1935  1.4802
 3823SOL    HW222929   1.658   0.307  11.781  0.3265 -0.9126  0.6780
 3824SOL     OW22930   1.899   4.049  14.042 -0.3012 -0.1794 -0.2052
 3824SOL    HW122931   1.855   4.119  14.090 -0.9145  0.5237 -1.7824
 3824SOL    HW222932   1.983   4.094  14.046 -1.3549  1.7914 -0.0500
 3825SOL     OW22933   4.008   0.152   5.357 -0.3872 -0.5688  0.3802
 3825SOL    HW122934   4.024   0.234   5.404 -0.4357 -1.3351  1.7141
 3825SOL    HW222935   4.061   0.167   5.279  0.0275 -0.8333  0.6075
 3826SOL     OW22936   2.775   3.242   4.702  0.2266  0.4862 -0.5798
 3826SOL    HW122937   2.864   3.212   4.684  0.0880  0.0940 -0.6098
 3826SOL    HW222938   2.747   3.270   4.615 -0.8369 -0.6812 -0.6273
 3827SOL     OW22939   4.726   4.329   0.534 -0.0877 -1.0305 -0.1508
 3827SOL    HW122940   0.075   4.271   0.539 -0.0086 -0.9537 -0.4197
 3827SOL    HW222941   4.679   4.285   0.463 -0.3864  1.1366 -1.2942
 3828SOL     OW22942   3.698   3.021   9.047  0.0034  0.1349 -0.1572
 3828SOL    HW122943   3.717   3.001   8.956 -0.0505  1.0144 -0.3651
 3828SOL    HW222944   3.739   3.107   9.057 -1.1727  0.7767 -0.8587
 3829SOL     OW22945   1.593   4.450   3.186 -0.1807 -0.1137  0.5138
 3829SOL    HW122946   1.611   4.533   3.231 -0.5272 -0.2024  0.8078
 3829SOL    HW222947   1.574   4.495   3.104  1.4487 -0.1797  0.0847
 3830SOL     OW22948   4.652   3.994  13.997  0.5422  0.4646 -0.2529
 3830SOL    HW122949   4.575   4.026  13.950  0.8444  1.3022 -0.1759
 3830SOL    HW222950   4.701   4.072  14.022  3.2151 -1.0451 -0.7890
 3831SOL     OW22951   2.775   0.446   9.758 -0.0283  0.1057  0.1328
 3831SOL    HW122952   2.780   0.468   9.665  0.6363 -0.5451  0.0229
 3831SOL    HW222953   2.837   0.375   9.766 -0.3804 -0.1330  0.8109
 3832SOL     OW22954   4.370   0.178   9.027  0.0766 -0.2804 -0.2842
 3832SOL    HW122955   4.280   0.169   8.997 -0.3218 -0.6781  1.0413
 3832SOL    HW222956   4.357   0.188   9.121  1.1271 -0.7708 -0.0840
 3833SOL     OW22957   1.392   0.397   0.233 -0.5099  0.2401 -0.3943
 3833SOL    HW122958   1.307   0.439   0.222 -0.5858  0.5530  1.3399
 3833SOL    HW222959   1.414   0.384   0.141  1.7740 -2.1605  0.4917
 3834SOL     OW22960   4.268   4.003   0.908 -0.1527 -0.0861  0.2219
 3834SOL    HW122961   4.297   3.962   0.826 -2.1405  1.2370 -1.1414
 3834SOL    HW222962   4.175   3.981   0.906 -0.4759  1.1377  1.9049
 3835SOL     OW22963   0.960   2.004   8.580 -0.1186 -0.2596 -0.0386
 3835SOL    HW122964   1.054   2.018   8.586 -0.2246  0.6277 -0.3449
 3835SOL    HW222965   0.929   2.074   8.637  0.0962 -0.3576  0.1939
 3836SOL     OW22966   4.181   0.693  10.264  0.1815 -0.2832  0.9112
 3836SOL    HW122967   4.210   0.714  10.353 -1.7670  1.4363  1.1497
 3836SOL    HW222968   4.091   0.724  10.251  0.7915  0.4701 -1.4786
 3837SOL     OW22969   1.189   2.320  12.794 -0.0335 -0.0251 -0.3519
 3837SOL    HW122970   1.271   2.361  12.820  1.2046 -2.3806 -0.5335
 3837SOL    HW222971   1.220   2.269  12.720  1.2418 -1.2091  1.0073
 3838SOL     OW22972   0.626   3.114   8.106  0.0075 -0.3332 -0.2659
 3838SOL    HW122973   0.561   3.057   8.147  0.2065 -0.6295 -0.3637
 3838SOL    HW222974   0.597   3.203   8.123 -1.6826 -1.0346  0.4725
 3839SOL     OW22975   2.040   1.720   6.485 -0.2008  0.2395 -0.0798
 3839SOL    HW122976   2.004   1.762   6.408 -1.9006 -0.4273  0.3658
 3839SOL    HW222977   2.026   1.626   6.475  0.1023  0.2347 -0.4481
 3840SOL     OW22978   3.322   1.583  15.606 -0.6695  0.4149 -0.3699
 3840SOL    HW122979   3.413   1.601  15.629 -0.8422 -0.9344  1.4276
 3840SOL    HW222980   3.303   1.491  15.623  2.5251 -0.3591 -1.0454
 3841SOL     OW22981   3.314   1.119   7.230 -0.4410  0.5365  0.5859
 3841SOL    HW122982   3.303   1.197   7.176 -1.8643 -0.8900 -1.1528
 3841SOL    HW222983   3.321   1.161   7.316  1.8436  3.5105 -1.0871
 3842SOL     OW22984   3.766   1.537   6.531 -0.4319  0.5174 -0.3277
 3842SOL    HW122985   3.748   1.630   6.513 -0.8280  0.0785 -2.1849
 3842SOL    HW222986   3.802   1.511   6.447  0.2533 -2.1110  0.7748
 3843SOL     OW22987   4.258   1.631  15.576  0.2800  0.3627  0.5699
 3843SOL    HW122988   4.291   1.591  15.496  0.4097  0.2452  0.6816
 3843SOL    HW222989   4.234   1.721  15.551  2.0225  1.3146  2.2741
 3844SOL     OW22990   2.505   3.248   0.983  0.2984 -0.2111 -0.4034
 3844SOL    HW122991   2.534   3.283   1.068  1.2666  0.7003 -1.1035
 3844SOL    HW222992   2.416   3.221   1.003  1.0583 -0.8409  2.1680
 3845SOL     OW22993   3.962   0.883  10.436  0.3159 -0.9076 -0.0022
 3845SOL    HW122994   3.889   0.835  10.397 -0.3091  0.9917 -1.1362
 3845SOL    HW222995   3.934   0.916  10.521  2.7223  2.5825 -0.5795
 3846SOL     OW22996   3.210   0.037   8.184 -0.1669  0.2428  0.3235
 3846SOL    HW122997   3.145   0.073   8.122 -1.8286  1.2486  2.6600
 3846SOL    HW222998   3.188   4.669   8.185 -0.1174  0.2538  2.2345
 3847SOL     OW22999   3.558   2.310  14.766  0.5345 -0.2894 -0.2012
 3847SOL    HW123000   3.599   2.320  14.852 -1.5799  2.2764  0.5307
 3847SOL    HW223001   3.615   2.362  14.710 -0.1027  1.6706  0.9839
 3848SOL     OW23002   0.728   2.642   6.207 -0.8020  0.1073  0.1085
 3848SOL    HW123003   0.803   2.699   6.219 -1.2474  0.4552  1.2200
 3848SOL    HW223004   0.751   2.579   6.138  0.3895  1.9455 -1.1526
 3849SOL     OW23005   2.597   0.882   7.716  0.0643  0.5992  0.6052
 3849SOL    HW123006   2.526   0.819   7.725  1.2011 -1.1784 -2.5841
 3849SOL    HW223007   2.556   0.935   7.647  0.9678 -1.3344 -1.4515
 3850SOL     OW23008   1.728   0.486  16.477  0.0645  0.4518 -0.2587
 3850SOL    HW123009   1.738   0.419  16.409 -1.3599  0.5795 -0.5956
 3850SOL    HW223010   1.777   0.457  16.553 -2.3573 -0.4787  0.9418
 3851SOL     OW23011   3.907   4.708  16.038  0.2295  0.2760  0.1550
 3851SOL    HW123012   3.994   4.711  16.077  0.8841 -0.3421 -1.2946
 3851SOL    HW223013   3.880   0.072  16.060 -0.5220  0.0274  0.2667
 3852SOL     OW23014   2.576   2.827   7.092 -0.3401  0.2548 -0.1595
 3852SOL    HW123015   2.528   2.884   7.153  0.6760  0.0996  0.7944
 3852SOL    HW223016   2.557   2.743   7.134  1.8405  0.5417  1.3765
 3853SOL     OW23017   3.639   0.640  14.069  0.3848  0.5881 -0.2728
 3853SOL    HW123018   3.593   0.556  14.064  1.0607  0.0960  1.7174
 3853SOL    HW223019   3.575   0.694  14.117 -0.9443 -1.3204  0.1305
 3854SOL     OW23020   2.011   4.693   4.456 -0.0187  0.4510 -0.3705
 3854SOL    HW123021   2.098   4.714   4.490  0.7906 -1.7154 -1.1136
 3854SOL    HW223022   1.984   4.639   4.530 -3.2129  2.9022  0.2846
 3855SOL     OW23023   4.554   0.414  16.657 -0.2829  0.1083 -0.1750
 3855SOL    HW123024   4.622   0.380  16.714 -1.4094 -3.3435 -0.8676
 3855SOL    HW223025   4.483   0.433  16.718  1.2617  1.5192  1.1501
 3856SOL     OW23026   0.476   3.353   8.453  0.1521  0.0189 -0.1179
 3856SOL    HW123027   0.546   3.411   8.483 -0.1694  0.4592 -0.2270
 3856SOL    HW223028   0.407   3.390   8.507 -0.5049 -0.9596 -0.2793
 3857SOL     OW23029   3.792   0.487   5.072  0.6692 -0.6017 -0.0055
 3857SOL    HW123030   3.746   0.569   5.086 -1.3657 -2.4471  4.1549
 3857SOL    HW223031   3.729   0.450   5.010 -0.3118 -0.1843  0.7306
 3858SOL     OW23032   0.769   1.014   6.411 -0.5805 -0.2760 -0.1101
 3858SOL    HW123033   0.803   1.024   6.322  0.4072  0.2953  0.3253
 3858SOL    HW223034   0.808   0.931   6.439  0.5701  0.3011  0.0016
 3859SOL     OW23035   1.375   2.268  15.089  0.0582 -0.5566 -0.1475
 3859SOL    HW123036   1.367   2.236  15.179  1.4054  0.9282  0.5151
 3859SOL    HW223037   1.350   2.193  15.036 -1.3904  1.2690 -2.0348
 3860SOL     OW23038   2.658   3.279   8.011  0.3532 -0.7470  0.4965
 3860SOL    HW123039   2.652   3.300   8.104 -0.1292  0.9311  0.1010
 3860SOL    HW223040   2.732   3.335   7.986 -0.7532  0.0586 -1.0239
 3861SOL     OW23041   4.321   3.414  14.404  0.7779  0.5095 -0.0397
 3861SOL    HW123042   4.272   3.332  14.397  1.0861  0.5718 -2.8388
 3861SOL    HW223043   4.272   3.473  14.347  0.8261  1.2625  0.6993
 3862SOL     OW23044   1.951   2.373   2.920 -0.1564 -0.0380 -0.3403
 3862SOL    HW123045   1.952   2.448   2.859 -1.6123  1.1437  1.0852
 3862SOL    HW223046   1.888   2.321   2.871 -0.3400  0.3447 -0.5130
 3863SOL     OW23047   2.834   3.630  13.812 -0.2178  0.7129 -0.3777
 3863SOL    HW123048   2.835   3.536  13.826  0.2785  0.4032 -2.5661
 3863SOL    HW223049   2.895   3.654  13.882  0.1855  1.5181 -1.0066
 3864SOL     OW23050   0.750   2.986  17.531 -0.4071  0.2611 -0.1768
 3864SOL    HW123051   0.684   2.968  17.598 -0.3802 -1.4414 -0.6067
 3864SOL    HW223052   0.787   2.898  17.531 -2.0771 -0.4535 -0.0922
 3865SOL     OW23053   2.421   1.924   2.341  0.6839  0.0009  0.5149
 3865SOL    HW123054   2.510   1.959   2.345  0.8680 -0.3747 -0.4141
 3865SOL    HW223055   2.370   2.005   2.339  1.5162  0.5058 -0.2514
 3866SOL     OW23056   4.385   1.792   7.979 -0.5878  0.5202 -0.3150
 3866SOL    HW123057   4.351   1.829   7.897 -2.5175  1.9699  1.1445
 3866SOL    HW223058   4.332   1.712   7.987  2.9431 -1.9378 -1.6171
 3867SOL     OW23059   0.341   0.985  15.710  0.0618  0.3314  0.1992
 3867SOL    HW123060   0.271   0.924  15.733  1.1115 -0.4483  1.2888
 3867SOL    HW223061   0.418   0.936  15.738  1.2577  1.1311 -1.6706
 3868SOL     OW23062   3.127   1.103   4.070  0.6765  0.1741  0.4346
 3868SOL    HW123063   3.156   1.055   4.148 -0.2737 -0.2517  0.5177
 3868SOL    HW223064   3.215   1.132   4.043  0.4185 -1.1628 -1.8530
 3869SOL     OW23065   4.466   3.956  17.557  0.1396  0.4822 -0.1191
 3869SOL    HW123066   4.389   3.983  17.507 -0.4880  0.5196  0.8742
 3869SOL    HW223067   4.541   3.989  17.507 -0.8173 -0.1762 -1.9702
 3870SOL     OW23068   1.296   3.744  14.066 -0.0664  0.1362  0.1286
 3870SOL    HW123069   1.276   3.650  14.060  4.3677 -0.6314 -2.2153
 3870SOL    HW223070   1.210   3.760  14.027  0.7222 -0.5122 -1.8840
 3871SOL     OW23071   1.000   2.001   8.289  0.0565 -0.3409  0.2203
 3871SOL    HW123072   0.958   2.031   8.370 -3.6074 -2.6055 -0.8278
 3871SOL    HW223073   1.064   1.942   8.329  3.8123  1.2687 -3.4320
 3872SOL     OW23074   1.027   1.689   8.920  0.2499 -0.4990  0.5349
 3872SOL    HW123075   0.962   1.647   8.977 -0.9292  2.2728  1.2199
 3872SOL    HW223076   0.984   1.681   8.835 -1.9511 -0.3769  1.6225
 3873SOL     OW23077   4.335   1.749   0.852 -0.9374 -0.6610  0.2215
 3873SOL    HW123078   4.279   1.817   0.889  2.0476  0.8933  1.7880
 3873SOL    HW223079   4.338   1.686   0.924  1.4719 -3.1706 -2.0261
 3874SOL     OW23080   4.135   0.457   0.004 -0.1316  0.1764  0.1421
 3874SOL    HW123081   4.056   0.476   0.055 -1.9957 -0.8643 -2.3917
 3874SOL    HW223082   4.149   0.543  17.668  0.1659 -0.0147 -0.1595
 3875SOL     OW23083   2.337   4.506  11.790 -0.3184  0.2521  0.4345
 3875SOL    HW123084   2.271   4.574  11.806 -1.1823 -0.5272  0.1382
 3875SOL    HW223085   2.301   4.456  11.717  0.2157  1.6712 -0.8153
 3876SOL     OW23086   2.193   0.475   5.567  0.5858 -0.3374 -0.1193
 3876SOL    HW123087   2.213   0.501   5.477  1.9210 -0.4899  0.1323
 3876SOL    HW223088   2.250   0.537   5.612  0.2017  1.5201 -2.2036
 3877SOL     OW23089   1.797   2.067   7.793 -0.1376  0.2489 -0.1202
 3877SOL    HW123090   1.869   2.098   7.739  0.6008 -2.7341 -0.8406
 3877SOL    HW223091   1.722   2.078   7.734  0.6707  1.4831 -0.9020
 3878SOL     OW23092   4.527   1.566   1.462 -0.1045 -0.2092  0.1752
 3878SOL    HW123093   4.508   1.658   1.482 -1.1168 -1.0411  3.0784
 3878SOL    HW223094   4.622   1.573   1.473  0.2372  0.3023 -3.1766
 3879SOL     OW23095   0.293   2.087   8.770  0.1403  0.0782  0.1581
 3879SOL    HW123096   0.370   2.084   8.714  0.2721  2.0911  0.2118
 3879SOL    HW223097   0.251   2.006   8.740 -0.8201  1.2636 -1.6887
 3880SOL     OW23098   4.581   1.652  17.667  0.3641 -0.6474  0.1293
 3880SOL    HW123099   4.606   1.570  17.624  0.0924 -1.1397  0.8976
 3880SOL    HW223100   4.500   1.672  17.621 -0.1559 -2.1272  0.4001
 3881SOL     OW23101   0.464   2.434  12.231 -1.0591 -0.5866 -0.1830
 3881SOL    HW123102   0.386   2.381  12.246 -0.5116 -0.6000  2.5972
 3881SOL    HW223103   0.527   2.365  12.255 -3.4498 -1.8659  2.3902
 3882SOL     OW23104   2.819   4.375  13.509  0.1698  0.1047  0.5036
 3882SOL    HW123105   2.890   4.434  13.534  1.4100 -0.8810 -0.6640
 3882SOL    HW223106   2.827   4.371  13.414 -0.2120 -2.8013  0.6028
 3883SOL     OW23107   4.433   2.359   1.658  0.2035  0.4064 -0.3170
 3883SOL    HW123108   4.498   2.426   1.680 -2.9932  3.1447  0.8872
 3883SOL    HW223109   4.474   2.310   1.587 -0.2546  0.5068 -0.6507
 3884SOL     OW23110   1.760   0.055   7.521 -0.6482 -0.2124 -0.0465
 3884SOL    HW123111   1.692   4.723   7.555 -1.2911 -0.7387 -2.2790
 3884SOL    HW223112   1.710   0.136   7.509 -0.7381 -0.1149  0.9336
 3885SOL     OW23113   0.647   0.294   7.969 -0.0943  0.5315  0.0660
 3885SOL    HW123114   0.621   0.212   7.928  0.2192  0.4976 -0.0621
 3885SOL    HW223115   0.734   0.311   7.934 -0.5407  2.7882  0.0378
 3886SOL     OW23116   0.365   1.098  10.544 -0.3918  0.1119 -0.2336
 3886SOL    HW123117   0.410   1.045  10.478 -0.9933 -0.7738  0.0611
 3886SOL    HW223118   0.313   1.158  10.491  2.6088  0.8236 -2.3945
 3887SOL     OW23119   1.783   0.091  12.372 -0.3448  0.1748 -0.1782
 3887SOL    HW123120   1.812   0.004  12.400 -3.0780 -0.4020  0.8387
 3887SOL    HW223121   1.734   0.131  12.444  1.1947  2.0172 -0.1493
 3888SOL     OW23122   3.654   1.133  12.371 -0.6411 -0.3081  0.0540
 3888SOL    HW123123   3.571   1.086  12.359 -0.5916 -0.0730 -1.3166
 3888SOL    HW223124   3.613   1.214  12.400 -1.1000 -1.2206  1.9540
 3889SOL     OW23125   4.020   0.923   1.128  0.0515  0.3218 -0.3499
 3889SOL    HW123126   3.971   0.840   1.121 -0.8580  0.9510 -1.5793
 3889SOL    HW223127   4.083   0.905   1.197  0.0088  1.0002 -0.1355
 3890SOL     OW23128   2.698   3.808   7.237 -0.2485  0.0957  0.2232
 3890SOL    HW123129   2.650   3.776   7.314 -0.6675 -1.9487 -0.8756
 3890SOL    HW223130   2.627   3.835   7.179  0.1763  0.1811 -0.2604
 3891SOL     OW23131   2.760   4.067  13.539 -0.1322 -0.3469 -0.3523
 3891SOL    HW123132   2.703   4.127  13.588  0.6414 -2.1227  2.6988
 3891SOL    HW223133   2.694   4.034  13.478 -1.7297  0.2141  1.0734
 3892SOL     OW23134   1.009   2.403   3.360  0.2474  0.5218  0.0179
 3892SOL    HW123135   0.981   2.313   3.345 -0.0383  0.6522 -0.2200
 3892SOL    HW223136   0.977   2.449   3.283  0.8831 -1.6214 -1.5354
 3893SOL     OW23137   2.184   3.553   3.750 -0.1445 -0.3466 -0.0066
 3893SOL    HW123138   2.176   3.642   3.716  0.6102 -0.1541  0.3222
 3893SOL    HW223139   2.112   3.508   3.707 -1.3407 -0.9320  2.6460
 3894SOL     OW23140   0.220   4.587   4.314 -0.2984  0.3630  0.4728
 3894SOL    HW123141   0.230   4.523   4.385  0.1398 -0.5997 -0.4711
 3894SOL    HW223142   0.216   4.517   4.249  2.3256  0.4388  0.2391
 3895SOL     OW23143   2.800   1.800   4.328  1.0714  0.4197 -0.0420
 3895SOL    HW123144   2.836   1.792   4.416  0.5237  0.7950  0.2138
 3895SOL    HW223145   2.739   1.728   4.343 -0.8565  2.1340  0.2219
 3896SOL     OW23146   2.215   4.009   3.825 -0.2529  0.3215 -0.0224
 3896SOL    HW123147   2.225   4.069   3.898 -0.1717 -1.0112  1.0599
 3896SOL    HW223148   2.222   4.075   3.756  1.0348  2.7134  2.3932
 3897SOL     OW23149   1.415   0.898  12.047 -0.1724 -0.6883 -0.0094
 3897SOL    HW123150   1.336   0.952  12.052 -1.1559 -2.2957  1.6590
 3897SOL    HW223151   1.395   0.818  12.095  1.0634 -1.9812 -1.6726
 3898SOL     OW23152   1.288   0.373   3.917  0.1496 -0.3857 -0.1065
 3898SOL    HW123153   1.340   0.329   3.850 -0.2811 -1.8262  0.4946
 3898SOL    HW223154   1.352   0.396   3.985  0.1177  1.7663 -0.8072
 3899SOL     OW23155   0.369   1.185   1.839 -0.1152 -0.2263  0.4453
 3899SOL    HW123156   0.367   1.093   1.813  0.8406 -0.5425  1.4847
 3899SOL    HW223157   0.337   1.173   1.929  1.6200  0.8416  1.1998
 3900SOL     OW23158   1.572   0.358   6.581  0.1841  0.2722 -0.2476
 3900SOL    HW123159   1.489   0.315   6.565  1.3331 -2.2032  0.5319
 3900SOL    HW223160   1.625   0.293   6.626 -0.3526  1.0744  1.5286
 3901SOL     OW23161   1.739   0.191   9.527 -0.0602 -0.6335  0.2498
 3901SOL    HW123162   1.644   0.191   9.515 -0.4460 -0.1661  3.3729
 3901SOL    HW223163   1.747   0.223   9.617  0.1889  1.6589 -0.5903
 3902SOL     OW23164   1.977   1.949  16.259  0.5517 -0.4061 -0.1781
 3902SOL    HW123165   2.004   1.894  16.333  0.9810  0.8713  0.6154
 3902SOL    HW223166   1.934   1.878  16.212  0.9749  1.6934 -3.7962
 3903SOL     OW23167   0.555   0.414   3.239  0.6387 -0.0113  0.1377
 3903SOL    HW123168   0.548   0.477   3.311  0.6028 -0.2903  0.3776
 3903SOL    HW223169   0.601   0.469   3.176  1.4955 -1.1981 -0.2727
 3904SOL     OW23170   3.709   2.080   9.992  0.2500 -0.4573 -0.2751
 3904SOL    HW123171   3.750   2.097  10.077  0.9663 -0.1561 -0.6774
 3904SOL    HW223172   3.690   2.172   9.975  0.0541 -0.8014 -1.9224
 3905SOL     OW23173   0.438   4.628  14.232 -0.0706  0.1072  0.2511
 3905SOL    HW123174   0.460   4.681  14.156  0.2814  2.3154  1.8746
 3905SOL    HW223175   0.353   4.590  14.210  0.1251 -0.7692  0.9695
 3906SOL     OW23176   3.911   0.314   8.476 -0.4507  0.3652  0.2300
 3906SOL    HW123177   3.975   0.249   8.505 -1.5463 -0.7055  0.2295
 3906SOL    HW223178   3.842   0.285   8.535  0.7385 -2.0105  0.4467
 3907SOL     OW23179   2.759   1.200   5.844 -0.1848 -0.2440  0.5894
 3907SOL    HW123180   2.709   1.203   5.762 -1.3766 -1.1670  1.2768
 3907SOL    HW223181   2.789   1.291   5.845  0.5381 -0.4365 -2.1865
 3908SOL     OW23182   3.331   4.350   1.157  1.1303 -0.0325  0.1261
 3908SOL    HW123183   3.322   4.298   1.236 -0.8712  0.1105  0.0050
 3908SOL    HW223184   3.377   4.422   1.201  0.8910  0.7521 -0.8983
 3909SOL     OW23185   2.588   2.075  15.444 -0.4576  0.3412 -0.4748
 3909SOL    HW123186   2.550   2.162  15.431 -4.4014 -1.2205  0.4369
 3909SOL    HW223187   2.519   2.011  15.425  0.1221 -0.8825  1.6533
 3910SOL     OW23188   3.180   0.893   9.046  0.4186  0.2269  0.1654
 3910SOL    HW123189   3.204   0.982   9.020 -0.7071  0.2957 -0.6394
 3910SOL    HW223190   3.206   0.897   9.138  0.3748 -1.0240  0.2240
 3911SOL     OW23191   0.911   1.947   7.062 -0.2917  0.3354  0.9353
 3911SOL    HW123192   0.840   2.004   7.092 -0.8744  1.3951 -2.5277
 3911SOL    HW223193   0.988   2.000   7.082 -0.5128  0.6521  0.9522
 3912SOL     OW23194   0.205   3.792   4.918 -0.4203  0.0809  0.5095
 3912SOL    HW123195   0.136   3.745   4.872 -0.3351  0.7533 -0.3058
 3912SOL    HW223196   0.173   3.779   5.007  0.8727 -0.7090  0.8721
 3913SOL     OW23197   0.588   3.359   8.198 -0.7932  0.5879  0.0223
 3913SOL    HW123198   0.557   3.361   8.288  0.9258 -1.1976  0.6667
 3913SOL    HW223199   0.671   3.407   8.207 -0.2646 -0.6946  2.0783
 3914SOL     OW23200   2.631   1.528  16.992 -0.7606 -0.3152 -0.2983
 3914SOL    HW123201   2.567   1.463  16.962 -1.6297 -0.1085  1.1299
 3914SOL    HW223202   2.577   1.595  17.034  2.0509  2.2993 -0.8503
 3915SOL     OW23203   3.738   4.229   9.036 -0.2152 -0.1588  0.3348
 3915SOL    HW123204   3.819   4.274   9.014 -1.6351  2.0130 -0.5077
 3915SOL    HW223205   3.721   4.251   9.127  2.3425 -1.5060  1.1185
 3916SOL     OW23206   2.963   0.291   1.583  1.1542  0.1133  0.0637
 3916SOL    HW123207   3.017   0.212   1.577  1.7080  0.3208  2.2491
 3916SOL    HW223208   3.000   0.344   1.513  0.4605  0.4436 -0.0499
 3917SOL     OW23209   1.916   1.717   5.149  0.2204  0.2793  0.1728
 3917SOL    HW123210   1.953   1.795   5.190 -0.6046  0.4257  0.6264
 3917SOL    HW223211   1.995   1.672   5.118 -1.0017 -1.9775  0.3112
 3918SOL     OW23212   1.463   1.430   7.483 -0.7434 -0.5670  0.3294
 3918SOL    HW123213   1.394   1.496   7.475 -0.1912  0.0295  0.5152
 3918SOL    HW223214   1.407   1.355   7.460  0.3709 -1.5131  0.6974
 3919SOL     OW23215   3.438   4.314   9.015 -0.0817  0.1996 -0.0629
 3919SOL    HW123216   3.404   4.364   9.089  3.5781  3.1324 -0.3624
 3919SOL    HW223217   3.525   4.292   9.048 -0.1528 -0.2207 -0.1550
 3920SOL     OW23218   2.379   0.082   9.543 -0.4368  0.8044 -1.1322
 3920SOL    HW123219   2.430   0.003   9.527 -1.3483 -0.1121  0.5071
 3920SOL    HW223220   2.308   0.041   9.592  0.5265  2.4686  1.6506
 3921SOL     OW23221   2.656   4.369  16.267 -0.0419  0.4347  0.3368
 3921SOL    HW123222   2.662   4.463  16.282  1.5160  0.5074 -0.6749
 3921SOL    HW223223   2.742   4.343  16.301  0.7265  0.5725 -1.4849
 3922SOL     OW23224   1.487   2.445   6.968  0.4196  0.0094 -0.1474
 3922SOL    HW123225   1.494   2.350   6.968 -0.6840 -0.0522 -2.4838
 3922SOL    HW223226   1.451   2.466   6.882 -0.1062  0.7394  0.2503
 3923SOL     OW23227   1.419   1.416   6.708 -0.2227 -0.4587  0.8283
 3923SOL    HW123228   1.410   1.456   6.794  0.8657 -1.7889  1.5704
 3923SOL    HW223229   1.350   1.351   6.721 -1.6494  0.9304  0.1173
 3924SOL     OW23230   4.087   2.727   2.526 -0.7145 -0.6346  0.0286
 3924SOL    HW123231   4.169   2.705   2.569  0.2738 -2.5767 -2.8647
 3924SOL    HW223232   4.096   2.696   2.436 -0.5499 -1.2488  0.2623
 3925SOL     OW23233   0.748   0.320  10.866  0.5008 -0.1027  0.5264
 3925SOL    HW123234   0.757   0.375  10.789 -0.3026  0.5038  0.8704
 3925SOL    HW223235   0.836   0.285  10.882  0.4865 -0.2585  0.2554
 3926SOL     OW23236   4.628   3.404   3.000 -0.4474  0.2271 -0.2834
 3926SOL    HW123237   4.667   3.421   2.914  0.1493  0.1798 -0.0278
 3926SOL    HW223238   4.563   3.337   2.980 -2.4507  1.4222  2.3866
 3927SOL     OW23239   3.775   0.772   4.354  0.5001 -0.1185 -0.3500
 3927SOL    HW123240   3.868   0.754   4.340  0.3762 -0.7245 -0.4026
 3927SOL    HW223241   3.723   0.694   4.372 -1.3620  1.1259 -0.3461
 3928SOL     OW23242   0.849   2.749  10.784  0.6314 -0.2084 -0.0191
 3928SOL    HW123243   0.881   2.699  10.708 -1.3419  0.7729 -1.5181
 3928SOL    HW223244   0.927   2.804  10.790  1.5603 -1.5764  0.4154
 3929SOL     OW23245   3.610   3.904  17.658  0.0656 -0.3326 -0.1461
 3929SOL    HW123246   3.652   3.990  17.656 -2.7196  1.0282 -0.9231
 3929SOL    HW223247   3.640   3.876  17.572 -2.2230 -1.3068 -0.6209
 3930SOL     OW23248   4.368   4.694   1.859 -0.0331 -0.5893 -0.2630
 3930SOL    HW123249   4.291   4.701   1.802  1.3789 -0.7328 -2.1772
 3930SOL    HW223250   4.351   0.046   1.913  1.6116 -1.8031  1.9999
 3931SOL     OW23251   1.561   0.209   8.843  0.1687 -0.1525  0.7794
 3931SOL    HW123252   1.590   0.140   8.902  0.8311 -0.0560  0.5709
 3931SOL    HW223253   1.487   0.162   8.805 -0.1526  0.9090  0.0727
 3932SOL     OW23254   3.721   3.027   9.455  0.0591  0.2818 -0.2191
 3932SOL    HW123255   3.746   3.118   9.440  1.2032  0.2740  1.7726
 3932SOL    HW223256   3.710   3.031   9.550  0.2424  0.1640 -0.1929
 3933SOL     OW23257   0.602   2.823   3.373  0.1925 -0.4307  0.7350
 3933SOL    HW123258   0.631   2.869   3.451 -0.8483  2.3864 -0.5590
 3933SOL    HW223259   0.676   2.764   3.355 -0.2662 -0.9571  0.5649
 3934SOL     OW23260   3.685   3.488   8.130 -0.6569  0.0637 -0.5094
 3934SOL    HW123261   3.674   3.546   8.205 -1.2139 -0.7070  0.0054
 3934SOL    HW223262   3.703   3.558   8.067 -0.2680  1.1850  0.8388
 3935SOL     OW23263   1.981   1.566  12.432 -0.2109  0.5832 -0.4391
 3935SOL    HW123264   1.933   1.612  12.501 -2.5526 -2.0041 -0.3558
 3935SOL    HW223265   2.037   1.638  12.404 -0.4805  0.4927 -1.1969
 3936SOL     OW23266   0.019   1.406   4.437 -0.3511  0.6429  0.5073
 3936SOL    HW123267   4.701   1.350   4.373 -2.8189  3.2581 -0.1184
 3936SOL    HW223268   4.715   1.363   4.518 -1.8891 -3.1092 -2.0542
 3937SOL     OW23269   2.624   3.200  14.014 -0.2093  0.0700  0.0540
 3937SOL    HW123270   2.530   3.212  14.028 -0.1271 -0.0607  0.7138
 3937SOL    HW223271   2.628   3.126  13.953 -0.6757  0.7357 -0.7740
 3938SOL     OW23272   1.494   1.173   0.638  0.1531  0.0403 -0.2882
 3938SOL    HW123273   1.576   1.127   0.619  1.0884  2.3241 -1.8023
 3938SOL    HW223274   1.521   1.265   0.639  2.9467 -0.7717 -0.9398
 3939SOL     OW23275   3.029   4.008  11.676 -0.5295  0.7344  0.0551
 3939SOL    HW123276   2.955   4.026  11.734 -0.1159  2.2053  0.1282
 3939SOL    HW223277   3.034   4.091  11.629 -2.3794 -0.1706 -1.7207
 3940SOL     OW23278   3.118   3.576   7.670  0.4428  0.2034  0.3048
 3940SOL    HW123279   3.186   3.569   7.603  1.5948  3.7132  1.1083
 3940SOL    HW223280   3.072   3.657   7.645  0.6257 -0.5778 -2.6249
 3941SOL     OW23281   3.249   0.656   7.444  0.4778  0.1089  0.6096
 3941SOL    HW123282   3.259   0.716   7.518  0.0996  0.0415  0.7149
 3941SOL    HW223283   3.330   0.659   7.393  0.4100  0.8061  0.5400
 3942SOL     OW23284   2.318   3.859   2.649 -0.2211 -0.1915 -0.3644
 3942SOL    HW123285   2.356   3.902   2.572  0.3667  2.1082  1.2081
 3942SOL    HW223286   2.392   3.873   2.709 -0.3848  0.5110 -0.3254
 3943SOL     OW23287   2.224   2.397   5.251  0.6494 -0.1971 -0.9140
 3943SOL    HW123288   2.298   2.367   5.199  1.4502  2.7594 -1.4999
 3943SOL    HW223289   2.211   2.317   5.302 -1.5103 -0.0011 -1.1821
 3944SOL     OW23290   3.554   1.141   9.418  0.5381 -0.2177  0.4554
 3944SOL    HW123291   3.543   1.078   9.346  2.8879  3.5103 -3.1694
 3944SOL    HW223292   3.514   1.217   9.376 -0.2077 -0.3301  0.9570
 3945SOL     OW23293   0.282   1.192  13.577 -0.1279 -0.0116 -0.1385
 3945SOL    HW123294   0.364   1.202  13.527 -0.5010  1.5599 -0.4246
 3945SOL    HW223295   0.281   1.274  13.626 -2.8249 -0.1336 -0.0033
 3946SOL     OW23296   3.576   1.325  16.418 -0.2751  0.7089  0.3133
 3946SOL    HW123297   3.568   1.405  16.469 -0.4543  2.4300 -2.4157
 3946SOL    HW223298   3.600   1.357  16.331  1.3480  0.1575  0.5754
 3947SOL     OW23299   0.477   4.222  15.814  0.0452  0.8545  0.1756
 3947SOL    HW123300   0.430   4.251  15.892  0.7715  1.0152  0.5570
 3947SOL    HW223301   0.475   4.127  15.826 -1.5593  0.6456 -1.6608
 3948SOL     OW23302   0.887   2.456   7.210 -0.0251 -0.2521  0.2792
 3948SOL    HW123303   0.822   2.526   7.220 -0.7534 -0.5963 -2.0043
 3948SOL    HW223304   0.965   2.510   7.215 -1.2123  1.4943  0.1431
 3949SOL     OW23305   2.135   2.776   8.634 -0.0937 -0.3351 -0.5122
 3949SOL    HW123306   2.065   2.715   8.609 -1.4914  1.4699 -1.0031
 3949SOL    HW223307   2.176   2.716   8.695  0.7313  0.6202 -0.1267
 3950SOL     OW23308   0.613   0.895   5.649 -0.4348  0.1720 -0.5657
 3950SOL    HW123309   0.612   0.820   5.708 -1.6035  0.2902 -0.4331
 3950SOL    HW223310   0.639   0.965   5.709  2.9973 -1.0601 -0.6219
 3951SOL     OW23311   3.038   0.356   2.128  0.0162 -0.2517 -0.4010
 3951SOL    HW123312   3.040   0.386   2.037 -0.4990  0.1717 -0.2766
 3951SOL    HW223313   3.090   0.421   2.176  0.3695 -1.3074  0.6622
 3952SOL     OW23314   1.952   3.857   7.787 -0.3901 -0.1800 -0.2257
 3952SOL    HW123315   2.014   3.930   7.776 -1.7441  1.0506  0.2836
 3952SOL    HW223316   1.994   3.772   7.792 -0.2063  0.0653  2.0831
 3953SOL     OW23317   4.044   0.268   3.721 -0.3233 -0.0404  0.3698
 3953SOL    HW123318   4.099   0.219   3.782 -0.5881 -1.3381 -0.4326
 3953SOL    HW223319   4.079   0.224   3.643 -1.9068 -0.5046 -0.0716
 3954SOL     OW23320   2.837   0.084   4.121 -0.2302 -0.2254 -0.2682
 3954SOL    HW123321   2.763   0.030   4.149  0.6520 -0.1223  2.2639
 3954SOL    HW223322   2.885   0.100   4.203 -2.4265 -1.1684  1.2156
 3955SOL     OW23323   2.972   1.330   8.094 -0.1141  0.4631 -0.6114
 3955SOL    HW123324   2.964   1.305   8.186  0.3651  0.6260 -0.5238
 3955SOL    HW223325   3.059   1.292   8.080  0.8381  1.9519  1.0974
 3956SOL     OW23326   4.351   0.637   6.093  0.4374 -0.0697 -0.0038
 3956SOL    HW123327   4.327   0.698   6.162 -1.4075 -0.5630 -0.2041
 3956SOL    HW223328   4.412   0.692   6.044  1.2600 -2.5973 -1.8434
 3957SOL     OW23329   2.662   1.061   2.903 -0.6372 -0.1070 -0.7728
 3957SOL    HW123330   2.663   1.128   2.835  2.5346 -1.6666 -2.2990
 3957SOL    HW223331   2.743   1.012   2.888 -1.6083 -2.3001  1.0691
 3958SOL     OW23332   3.928   0.437  17.389 -0.1392  0.5487  0.0035
 3958SOL    HW123333   3.908   0.343  17.385 -2.5360  1.1490 -2.1407
 3958SOL    HW223334   3.877   0.475  17.317  1.1767  0.2505 -1.0785
 3959SOL     OW23335   2.371   1.696   0.347 -0.1216  0.1878 -0.6489
 3959SOL    HW123336   2.360   1.728   0.437 -0.0516  1.2995 -1.0453
 3959SOL    HW223337   2.459   1.729   0.331  1.2759 -2.1861  2.0584
 3960SOL     OW23338   3.232   4.321  14.693 -0.0509  0.2652 -0.5418
 3960SOL    HW123339   3.211   4.317  14.786 -0.8370 -1.5736 -0.8049
 3960SOL    HW223340   3.165   4.258  14.666 -0.5338 -0.2200  1.7848
 3961SOL     OW23341   1.349   1.717   4.875 -0.9220 -0.8444 -0.6284
 3961SOL    HW123342   1.340   1.696   4.782  2.8598  2.6580 -1.7931
 3961SOL    HW223343   1.312   1.805   4.878 -1.3831 -1.0901  0.5775
 3962SOL     OW23344   3.257   2.119   4.985 -0.2675  0.0395  0.1698
 3962SOL    HW123345   3.175   2.082   4.952  0.3859 -1.1734 -0.0660
 3962SOL    HW223346   3.278   2.199   4.935 -0.2684 -0.1043 -0.0603
 3963SOL     OW23347   1.030   0.463   3.903  0.2228  0.1101  0.1772
 3963SOL    HW123348   1.114   0.416   3.907 -0.2128 -0.6436  0.5446
 3963SOL    HW223349   0.985   0.416   3.832 -0.5287  2.1324 -0.6783
 3964SOL     OW23350   3.135   2.002  15.807  0.1847  0.1621  0.4327
 3964SOL    HW123351   3.082   1.929  15.840 -0.2739 -0.4849 -1.7245
 3964SOL    HW223352   3.188   1.953  15.744 -0.3573  0.1170 -0.0013
 3965SOL     OW23353   4.116   1.761  11.806  0.4164 -0.2138  0.5967
 3965SOL    HW123354   4.124   1.808  11.723 -0.1873  0.4032  0.8883
 3965SOL    HW223355   4.033   1.801  11.834  0.7591  1.6216 -0.9524
 3966SOL     OW23356   1.455   3.113   1.484 -0.7440  0.8532  0.4863
 3966SOL    HW123357   1.529   3.072   1.439 -1.8326 -0.4034 -0.1356
 3966SOL    HW223358   1.391   3.043   1.482  1.8496 -1.4625 -1.1089
 3967SOL     OW23359   1.828   4.379   3.675  0.5415  0.0160  0.2774
 3967SOL    HW123360   1.832   4.362   3.581  3.1509  2.2776 -0.0129
 3967SOL    HW223361   1.920   4.395   3.696  0.2921 -0.8833  2.0871
 3968SOL     OW23362   1.032   2.519   4.660  0.7098  0.0787 -0.0237
 3968SOL    HW123363   0.994   2.431   4.672  0.6872 -0.2369 -2.3589
 3968SOL    HW223364   1.002   2.561   4.740  1.4238  0.5678 -0.0191
 3969SOL     OW23365   2.834   2.568   2.421  0.0214 -0.1224 -0.0559
 3969SOL    HW123366   2.798   2.617   2.347  0.5865 -1.3174 -1.1350
 3969SOL    HW223367   2.882   2.631   2.475  1.6322 -0.8917 -0.5779
 3970SOL     OW23368   4.599   3.547   6.886  0.0123  0.3714 -0.6109
 3970SOL    HW123369   4.603   3.460   6.846  0.6603 -0.0419  0.3650
 3970SOL    HW223370   4.600   3.535   6.981 -2.1870 -1.6107 -0.8347
 3971SOL     OW23371   1.926   2.564   9.221  0.2182 -0.0391  0.5269
 3971SOL    HW123372   1.882   2.480   9.228  0.2746 -0.1845 -0.7912
 3971SOL    HW223373   1.880   2.604   9.295 -1.4351 -0.7748 -0.1108
 3972SOL     OW23374   1.489   3.635   1.473 -0.0359 -0.3078 -0.0498
 3972SOL    HW123375   1.494   3.660   1.381 -0.9542  0.6628  0.1534
 3972SOL    HW223376   1.417   3.572   1.470  0.5057 -0.8986 -0.6726
 3973SOL     OW23377   2.468   1.798   8.002  0.3073  0.9261  0.1156
 3973SOL    HW123378   2.561   1.813   8.021  0.4084 -0.2316  0.5298
 3973SOL    HW223379   2.479   1.735   7.931  2.3517  1.8465 -0.3753
 3974SOL     OW23380   2.709   1.692   9.231  0.4926  0.2031  0.0876
 3974SOL    HW123381   2.671   1.636   9.165  1.1018 -1.6519  1.3190
 3974SOL    HW223382   2.673   1.653   9.310 -1.0684  0.4653 -0.5033
 3975SOL     OW23383   3.231   1.150  14.938  0.3104  0.6306 -0.5828
 3975SOL    HW123384   3.287   1.218  14.903 -0.7238  1.4875 -0.5669
 3975SOL    HW223385   3.304   1.090  14.955 -0.9699 -0.8012 -0.0886
 3976SOL     OW23386   0.787   3.957   9.645  0.4708 -0.5543  0.0586
 3976SOL    HW123387   0.778   4.051   9.662 -1.5592 -0.4706 -1.5421
 3976SOL    HW223388   0.702   3.915   9.648 -0.4918  1.1843 -2.5307
 3977SOL     OW23389   0.876   4.134   6.785  0.0837 -0.3726  0.3924
 3977SOL    HW123390   0.902   4.123   6.877 -0.5760 -3.3660  0.2170
 3977SOL    HW223391   0.958   4.147   6.739  1.3669 -1.8234  2.2957
 3978SOL     OW23392   2.527   2.852   1.726  0.3516 -0.4826  0.2984
 3978SOL    HW123393   2.557   2.847   1.636 -1.6777 -3.9398 -0.1832
 3978SOL    HW223394   2.468   2.776   1.727  0.0505 -0.2531 -0.6795
 3979SOL     OW23395   3.094   2.668   9.140 -0.7417  0.3014 -0.0016
 3979SOL    HW123396   3.106   2.703   9.052  1.0510  0.0996  0.1504
 3979SOL    HW223397   3.184   2.667   9.173 -2.2447  0.4135  4.0601
 3980SOL     OW23398   1.438   0.176  16.076 -0.1787 -0.3186 -0.0026
 3980SOL    HW123399   1.521   0.129  16.070 -2.4230 -4.2128 -0.0402
 3980SOL    HW223400   1.438   0.189  16.171 -0.6469  0.0233 -0.0495
 3981SOL     OW23401   4.600   4.064   4.614 -0.2313 -0.0460 -0.1120
 3981SOL    HW123402   4.597   4.118   4.693 -1.8999 -2.8511  1.6958
 3981SOL    HW223403   4.570   4.133   4.555 -0.7131 -0.8715 -0.8333
 3982SOL     OW23404   4.330   1.832  17.598  0.4391 -0.1064 -0.4422
 3982SOL    HW123405   4.384   1.882  17.658 -0.9963 -0.1031  0.8590
 3982SOL    HW223406   4.253   1.889  17.592  0.7499  0.9832  6.2207
 3983SOL     OW23407   2.837   2.039   8.381 -0.4785  0.8209  0.0508
 3983SOL    HW123408   2.763   1.979   8.379 -1.2324  1.7553  0.0781
 3983SOL    HW223409   2.826   2.073   8.469 -2.1117 -2.7669  1.2344
 3984SOL     OW23410   2.947   0.136  16.096  0.2855 -0.2162 -0.4479
 3984SOL    HW123411   2.860   0.103  16.118 -0.1324  0.3575 -1.2427
 3984SOL    HW223412   2.943   0.225  16.130  0.3197 -1.4310  2.6679
 3985SOL     OW23413   3.113   3.279   8.274  0.1969  0.1710  0.7113
 3985SOL    HW123414   3.082   3.360   8.315  0.8054  1.1695 -0.7960
 3985SOL    HW223415   3.203   3.278   8.307  0.7292  0.2550 -0.7232
 3986SOL     OW23416   1.527   2.358   0.205 -0.1747 -0.4184  0.1623
 3986SOL    HW123417   1.548   2.403   0.124  1.1910  0.5331  1.0438
 3986SOL    HW223418   1.461   2.411   0.249 -0.4616 -1.5916  1.1588
 3987SOL     OW23419   2.244   2.657   7.099  0.0487  0.0055  0.3365
 3987SOL    HW123420   2.229   2.722   7.030 -1.5386 -0.2189  0.4904
 3987SOL    HW223421   2.153   2.638   7.120 -0.0630  0.7052  0.4600
 3988SOL     OW23422   0.476   0.661   7.013 -0.1373  0.2363 -0.8636
 3988SOL    HW123423   0.423   0.660   6.933  2.6435  0.5129 -2.7102
 3988SOL    HW223424   0.436   0.738   7.052  0.4075 -0.8096  1.7694
 3989SOL     OW23425   0.235   1.420   8.860  0.2181  0.4618  0.3073
 3989SOL    HW123426   0.164   1.384   8.913  1.1619  0.4869  1.5874
 3989SOL    HW223427   0.253   1.502   8.906  1.3668  1.9307 -2.7894
 3990SOL     OW23428   1.811   2.833   9.156 -0.1090 -0.2537 -0.6882
 3990SOL    HW123429   1.745   2.885   9.202  2.6389  3.0227 -0.4383
 3990SOL    HW223430   1.875   2.835   9.227 -1.0001  0.2417  0.1022
 3991SOL     OW23431   1.683   3.334   4.793 -0.3295 -0.4897 -0.4338
 3991SOL    HW123432   1.628   3.412   4.797  2.1417  1.2800 -0.6371
 3991SOL    HW223433   1.709   3.342   4.701  0.8773  2.0025  0.1157
 3992SOL     OW23434   0.750   3.952   3.907 -0.1300 -1.0724  0.7309
 3992SOL    HW123435   0.776   3.947   3.815 -0.6922 -0.4695  0.5353
 3992SOL    HW223436   0.781   4.032   3.950 -0.1445 -0.1219 -1.0263
 3993SOL     OW23437   1.455   1.818   3.616  0.2007 -0.5959  0.3044
 3993SOL    HW123438   1.415   1.796   3.532  0.3573  1.9243 -0.4313
 3993SOL    HW223439   1.544   1.839   3.589 -0.6472  0.6164 -1.4964
 3994SOL     OW23440   1.956   2.376   7.475  0.6099  0.3308  0.0151
 3994SOL    HW123441   1.939   2.331   7.393  0.2223 -0.0652  0.3090
 3994SOL    HW223442   1.883   2.438   7.467 -0.8690 -1.5896 -1.1491
 3995SOL     OW23443   3.454   0.103  14.156 -0.2668  0.3694  0.5436
 3995SOL    HW123444   3.381   0.149  14.197 -0.7414  0.5576 -0.5274
 3995SOL    HW223445   3.401   0.049  14.097  0.3533  0.4693 -0.1119
 3996SOL     OW23446   0.793   0.747  12.837 -0.1123 -0.2047  0.1472
 3996SOL    HW123447   0.773   0.839  12.853 -2.0440 -0.8034  1.2178
 3996SOL    HW223448   0.872   0.750  12.784  1.7777  0.3227  3.0081
 3997SOL     OW23449   3.391   1.740  16.838 -0.5142 -0.2838 -0.3952
 3997SOL    HW123450   3.484   1.739  16.819 -0.4161 -3.2169  0.1726
 3997SOL    HW223451   3.350   1.716  16.755  1.4203 -0.2469 -1.3562
 3998SOL     OW23452   3.730   3.799   3.632 -0.1838 -0.2798  0.1344
 3998SOL    HW123453   3.731   3.749   3.550 -0.7416 -0.5183  0.2743
 3998SOL    HW223454   3.762   3.738   3.698  0.4002 -0.4015 -0.2574
 3999SOL     OW23455   2.397   0.148   1.023  0.0373 -0.1650  0.5281
 3999SOL    HW123456   2.324   0.092   0.996  0.2939  0.6319 -1.8127
 3999SOL    HW223457   2.425   0.188   0.941  0.8997 -1.7011  0.0690
 4000SOL     OW23458   1.560   1.216   2.829 -0.1120  0.2033  0.0254
 4000SOL    HW123459   1.479   1.252   2.795 -0.9341  0.1641  1.9288
 4000SOL    HW223460   1.520   1.158   2.894  1.9952  0.9494  2.0231
 4001SOL     OW23461   3.255   2.743   9.874  0.2413  0.6218  0.0365
 4001SOL    HW123462   3.304   2.824   9.887  0.4476  1.0738 -3.7434
 4001SOL    HW223463   3.284   2.689   9.948  0.6538  0.2567 -0.3910
 4002SOL     OW23464   0.725   4.266  12.770  0.5981  0.2882 -0.2468
 4002SOL    HW123465   0.641   4.231  12.741 -0.0031  1.8451 -0.3804
 4002SOL    HW223466   0.741   4.331  12.701  0.2504  0.8356  0.1957
 4003SOL     OW23467   1.687   2.381   2.172 -0.0059 -0.0647 -0.3867
 4003SOL    HW123468   1.646   2.467   2.175  0.5735  0.2258 -0.8527
 4003SOL    HW223469   1.632   2.351   2.099 -0.2245  0.9419 -0.6337
 4004SOL     OW23470   3.291   4.259   1.649 -0.0574  0.2947  0.7134
 4004SOL    HW123471   3.379   4.223   1.642 -0.0425  0.7163 -1.1770
 4004SOL    HW223472   3.315   4.350   1.635 -1.1806  0.3185 -1.0074
 4005SOL     OW23473   0.326   0.901   1.754  0.6117  0.1182  0.9208
 4005SOL    HW123474   0.285   0.859   1.830  1.0806  0.0946  1.1560
 4005SOL    HW223475   0.406   0.850   1.749  0.5485 -0.0214  1.3090
 4006SOL     OW23476   2.596   4.713   1.601 -0.0910  0.5867  0.0207
 4006SOL    HW123477   2.632   0.070   1.634 -0.2333 -0.4464  2.7300
 4006SOL    HW223478   2.549   4.685   1.679 -0.9147  0.8213 -0.3855
 4007SOL     OW23479   1.864   4.631   5.823  0.3816 -0.0589 -0.4616
 4007SOL    HW123480   1.793   4.602   5.880  0.0472 -0.4282 -1.0629
 4007SOL    HW223481   1.930   4.568   5.851  0.5400  0.4710  0.3679
 4008SOL     OW23482   3.725   2.629   1.772  0.4094  0.1052 -0.0828
 4008SOL    HW123483   3.792   2.623   1.840 -0.9317  0.0739  1.2393
 4008SOL    HW223484   3.764   2.593   1.693 -0.8923 -0.0343 -0.6672
 4009SOL     OW23485   0.434   4.162   6.816  0.4652  0.2761  0.0218
 4009SOL    HW123486   0.494   4.191   6.885 -0.5675  1.2563  0.5006
 4009SOL    HW223487   0.354   4.154   6.867 -0.3126  0.2717 -1.2080
 4010SOL     OW23488   1.702   3.645   2.810  0.4889 -0.7780  0.6721
 4010SOL    HW123489   1.730   3.693   2.888 -0.9828  0.0014  0.7305
 4010SOL    HW223490   1.627   3.703   2.793  2.3427  1.0245 -1.5135
 4011SOL     OW23491   4.460   3.584   7.592 -0.1585 -0.1311 -0.6471
 4011SOL    HW123492   4.462   3.550   7.682  2.9277  2.6857  0.3555
 4011SOL    HW223493   4.555   3.583   7.578  0.1043 -0.5623  1.2001
 4012SOL     OW23494   4.305   1.195  14.666 -0.0040  0.3012  0.1388
 4012SOL    HW123495   4.281   1.146  14.744 -1.0893  1.1753  0.3492
 4012SOL    HW223496   4.372   1.254  14.698 -2.0087  1.7178  1.6868
 4013SOL     OW23497   3.698   0.633  17.673 -0.3731 -0.0392 -0.2651
 4013SOL    HW123498   3.628   0.685  17.634  0.5697  0.7342 -0.9147
 4013SOL    HW223499   3.659   0.622   0.055  0.8000  0.2276  0.3005
 4014SOL     OW23500   2.205   3.974   5.235 -0.0951  0.6062  0.2791
 4014SOL    HW123501   2.216   3.966   5.329  2.0635 -3.8488 -0.3139
 4014SOL    HW223502   2.113   3.950   5.224  0.1235 -0.0726 -0.0714
 4015SOL     OW23503   0.279   1.806   4.171  0.7396  0.7965  0.5932
 4015SOL    HW123504   0.251   1.821   4.081 -2.2678 -2.1741  1.0339
 4015SOL    HW223505   0.316   1.717   4.171 -0.5485  0.2658  0.4434
 4016SOL     OW23506   0.661   4.680  17.500  0.2616  0.3726 -0.3493
 4016SOL    HW123507   0.670   4.676  17.595 -0.9347 -1.1991 -0.2944
 4016SOL    HW223508   0.668   4.586  17.484  1.5204  0.3587  0.2508
 4017SOL     OW23509   0.661   4.162   5.529  0.8804  0.1280 -0.1823
 4017SOL    HW123510   0.641   4.070   5.543 -1.4634  0.6174 -0.2668
 4017SOL    HW223511   0.702   4.151   5.443  3.1383  2.7086  0.5787
 4018SOL     OW23512   4.511   3.723   8.242 -0.7510 -0.3388  0.0909
 4018SOL    HW123513   4.507   3.703   8.335 -1.2017  2.0516  0.5991
 4018SOL    HW223514   4.418   3.713   8.220 -0.5397  0.6276 -1.2796
 4019SOL     OW23515   1.536   3.083   2.586 -0.2216  0.2154  0.7667
 4019SOL    HW123516   1.538   2.998   2.544 -0.7081  1.5943 -2.0490
 4019SOL    HW223517   1.616   3.124   2.553 -1.2043  2.7159  1.4786
 4020SOL     OW23518   2.546   4.489   1.950 -0.0442  0.3269 -0.1272
 4020SOL    HW123519   2.607   4.420   1.924  1.6988  1.9831 -0.4271
 4020SOL    HW223520   2.599   4.568   1.962  0.3759  0.0073  0.0922
 4021SOL     OW23521   1.886   1.381   3.615  0.1073  0.2387  0.6475
 4021SOL    HW123522   1.909   1.288   3.614  1.8711  0.6795 -0.5831
 4021SOL    HW223523   1.837   1.374   3.697 -2.2317 -0.2686 -0.8023
 4022SOL     OW23524   2.996   3.625   1.669 -0.1147 -0.2202  0.4305
 4022SOL    HW123525   3.051   3.687   1.622  1.8699 -0.8722  1.9290
 4022SOL    HW223526   2.995   3.545   1.616 -2.4662  0.4310 -0.5315
 4023SOL     OW23527   4.082   3.497  16.377  0.3009  0.0377 -0.0352
 4023SOL    HW123528   3.989   3.475  16.365  0.0794  1.0866 -0.1760
 4023SOL    HW223529   4.070   3.590  16.362 -1.6676 -0.1772  0.0993
 4024SOL     OW23530   2.673   0.426   5.196  0.3113 -0.5263 -0.1857
 4024SOL    HW123531   2.592   0.475   5.182  1.7934  1.5103 -1.6475
 4024SOL    HW223532   2.679   0.438   5.291 -1.5243  2.2452 -0.4229
 4025SOL     OW23533   3.464   4.418   3.927 -0.9074  0.0348 -0.2712
 4025SOL    HW123534   3.379   4.451   3.956 -1.5605 -1.4251 -0.4884
 4025SOL    HW223535   3.510   4.418   4.011 -2.1146 -0.4675  0.3836
 4026SOL     OW23536   1.287   3.608  11.247  0.1805 -0.0227 -0.7300
 4026SOL    HW123537   1.357   3.644  11.193  1.1019 -0.8943 -0.1185
 4026SOL    HW223538   1.331   3.544  11.303  0.4632  0.2352 -0.6595
 4027SOL     OW23539   2.379   2.228   5.989 -0.3870  0.0867 -0.7662
 4027SOL    HW123540   2.391   2.150   5.935  1.0870 -0.2648  0.0373
 4027SOL    HW223541   2.351   2.196   6.075 -2.0955  1.4995 -0.8073
 4028SOL     OW23542   3.348   4.021   3.044 -0.0800  0.3140 -0.8202
 4028SOL    HW123543   3.319   4.025   2.953  3.2072 -1.3384 -1.9259
 4028SOL    HW223544   3.324   3.930   3.060 -0.6490  0.5989 -0.0076
 4029SOL     OW23545   0.879   0.949  13.152 -0.7458 -0.1048 -0.4452
 4029SOL    HW123546   0.836   0.891  13.214 -1.4013 -0.9844 -1.7099
 4029SOL    HW223547   0.910   1.022  13.205 -1.7719  1.3717 -1.8728
 4030SOL     OW23548   4.654   0.672  13.070 -0.2837  0.1579 -0.2793
 4030SOL    HW123549   4.561   0.694  13.076  0.1510  1.6439  1.1318
 4030SOL    HW223550   4.677   0.695  12.980 -2.1141 -1.8239 -1.2423
 4031SOL     OW23551   1.869   0.187   8.976 -0.1057  0.4513 -0.0856
 4031SOL    HW123552   1.964   0.198   8.982 -0.1969 -0.1675  2.4998
 4031SOL    HW223553   1.845   0.214   8.887  2.7023 -0.3292 -1.0926
 4032SOL     OW23554   1.760   1.505   2.502 -0.1066  0.1424  0.2709
 4032SOL    HW123555   1.728   1.433   2.556  1.2622  0.0556  0.9653
 4032SOL    HW223556   1.701   1.497   2.427 -1.0057 -1.1091  1.1224
 4033SOL     OW23557   4.209   0.927  10.855 -0.1347 -0.1018 -0.6213
 4033SOL    HW123558   4.155   0.948  10.932 -0.0422 -0.5848 -0.4277
 4033SOL    HW223559   4.295   0.964  10.876 -0.2934 -0.7758  1.2043
 4034SOL     OW23560   1.655   3.973   2.515 -0.5228 -0.2849 -1.1093
 4034SOL    HW123561   1.664   3.885   2.478  0.3024 -0.8940  0.5537
 4034SOL    HW223562   1.559   3.969   2.521 -0.4618  1.8306  1.2535
 4035SOL     OW23563   2.804   3.653   8.616  0.0704 -0.2237 -0.0531
 4035SOL    HW123564   2.832   3.698   8.536 -0.1297 -0.2322 -0.1273
 4035SOL    HW223565   2.880   3.668   8.673  0.7258 -0.5259 -0.8465
 4036SOL     OW23566   1.357   3.762  13.315 -0.4299 -0.2954 -0.7568
 4036SOL    HW123567   1.358   3.670  13.289  0.4702 -0.7864  1.0056
 4036SOL    HW223568   1.402   3.807  13.244  1.2926  0.1733  0.6351
 4037SOL     OW23569   2.504   1.768  17.081 -0.1856 -0.6677 -0.0934
 4037SOL    HW123570   2.551   1.851  17.081  0.7449 -1.2019 -1.0590
 4037SOL    HW223571   2.428   1.797  17.131  0.0159  0.7998 -0.6558
 4038SOL     OW23572   3.069   4.703  13.306  0.1041 -0.6089 -0.4506
 4038SOL    HW123573   3.045   0.066  13.279 -1.1100 -1.3459 -1.7809
 4038SOL    HW223574   3.165   4.701  13.307  0.1043  0.0142  0.9029
 4039SOL     OW23575   3.470   0.033  11.693 -0.1067 -0.0624 -0.5359
 4039SOL    HW123576   3.523   0.031  11.773 -0.7313  0.2282 -0.1088
 4039SOL    HW223577   3.432   4.670  11.695 -1.4881  0.5518  0.8200
 4040SOL     OW23578   0.247   3.278  13.948  0.1927 -0.2982 -0.0048
 4040SOL    HW123579   0.234   3.372  13.937  1.4598 -0.1904 -0.5816
 4040SOL    HW223580   0.190   3.260  14.022  0.9081 -0.5605  0.4884
 4041SOL     OW23581   1.896   0.788   5.164  0.3068  0.4651 -0.3045
 4041SOL    HW123582   1.884   0.847   5.089  0.7385  1.2952  0.2742
 4041SOL    HW223583   1.926   0.856   5.225  1.1875  0.9962 -1.3225
 4042SOL     OW23584   2.664   3.500   3.419 -0.4588  0.1143  0.0217
 4042SOL    HW123585   2.626   3.577   3.375  3.1158  1.9638  0.1306
 4042SOL    HW223586   2.754   3.528   3.438 -1.2542  1.5935  1.5485
 4043SOL     OW23587   1.635   0.815  11.022 -0.1147  0.4597  0.1033
 4043SOL    HW123588   1.576   0.740  11.031 -0.2742  0.2906 -2.4464
 4043SOL    HW223589   1.687   0.790  11.098  0.6133  0.3250 -0.4439
 4044SOL     OW23590   1.599   3.811   1.761 -0.1863 -0.4939 -0.1530
 4044SOL    HW123591   1.529   3.773   1.814  1.1186 -1.2936  1.0080
 4044SOL    HW223592   1.582   3.905   1.770  1.0187 -0.2835  0.0029
 4045SOL     OW23593   0.312   1.356  15.595 -0.2968  0.1864 -0.5267
 4045SOL    HW123594   0.364   1.299  15.539  1.3452  0.4545  0.7176
 4045SOL    HW223595   0.343   1.442  15.567 -0.6715  0.7493  0.7799
 4046SOL     OW23596   1.562   2.213  11.482  0.1420 -0.3035 -0.3008
 4046SOL    HW123597   1.509   2.143  11.443  0.6827 -0.3559 -0.9271
 4046SOL    HW223598   1.492   2.278  11.473  1.2449  1.0524  0.8528
 4047SOL     OW23599   1.467   3.592  12.954  0.7873  0.5796 -0.2932
 4047SOL    HW123600   1.545   3.615  13.005 -0.1695  1.0772  0.9264
 4047SOL    HW223601   1.442   3.507  12.991 -0.2947  0.0057 -2.3282
 4048SOL     OW23602   1.252   1.969   7.408 -0.3727  0.0506 -0.2260
 4048SOL    HW123603   1.215   1.881   7.412  0.8812 -0.3981  1.6498
 4048SOL    HW223604   1.283   1.990   7.496  2.4258 -3.2257 -0.4650
 4049SOL     OW23605   4.210   1.939  10.844 -0.8325 -0.1974 -0.6766
 4049SOL    HW123606   4.276   2.006  10.828  0.0706 -0.4511  1.9041
 4049SOL    HW223607   4.131   1.983  10.813 -1.3155  0.1797  1.0862
 4050SOL     OW23608   4.493   1.959   0.110 -0.1325 -0.1739  0.4402
 4050SOL    HW123609   4.404   1.995   0.109 -0.4842 -1.0285  0.3692
 4050SOL    HW223610   4.543   2.034   0.142  2.6148 -0.7386 -2.5413
 4051SOL     OW23611   0.031   4.562  11.122 -0.4858  0.1129 -0.0439
 4051SOL    HW123612   0.013   4.558  11.028 -0.2395  0.5971 -0.1148
 4051SOL    HW223613   4.670   4.564  11.161 -1.4511  0.9517 -2.2295
 4052SOL     OW23614   3.200   0.865   9.394 -0.2749  0.2100 -0.2947
 4052SOL    HW123615   3.207   0.882   9.487  1.3750  1.0619 -0.5766
 4052SOL    HW223616   3.113   0.896   9.369 -0.0879 -0.3206 -1.6429
 4053SOL     OW23617   1.036   1.616   5.865 -0.3811  0.2645 -0.0035
 4053SOL    HW123618   1.027   1.555   5.792  0.4497 -0.1023  0.1952
 4053SOL    HW223619   0.951   1.659   5.862  0.7616  2.3426 -2.6782
 4054SOL     OW23620   2.883   4.700   5.734 -0.7837 -0.3737 -0.0693
 4054SOL    HW123621   2.961   4.717   5.786 -0.9893  1.5437 -0.3877
 4054SOL    HW223622   2.811   0.023   5.775 -1.4410  0.2366 -1.9593
 4055SOL     OW23623   2.780   1.617  15.387  0.2307 -0.0848 -0.3860
 4055SOL    HW123624   2.712   1.569  15.339  0.7191 -0.3201 -0.8527
 4055SOL    HW223625   2.855   1.564  15.360 -1.2894 -2.4786  0.1273
 4056SOL     OW23626   2.766   1.086   6.166  0.1124  0.3499  0.0460
 4056SOL    HW123627   2.720   1.134   6.098 -1.6878  1.4683  2.0361
 4056SOL    HW223628   2.799   1.158   6.220  0.2728  1.1799 -1.1616
 4057SOL     OW23629   0.717   2.071   5.441 -0.3917  0.4704  0.2757
 4057SOL    HW123630   0.633   2.111   5.464  0.7502  3.0474  0.0216
 4057SOL    HW223631   0.690   2.018   5.366  0.4770 -1.4211  1.3121
 4058SOL     OW23632   1.482   3.061  13.248 -0.0634  0.0151 -0.0771
 4058SOL    HW123633   1.539   3.029  13.179  0.6988  1.9641 -0.3478
 4058SOL    HW223634   1.512   3.012  13.324  0.5858 -2.1918 -1.7665
 4059SOL     OW23635   0.529   4.662   1.049  0.0291 -0.7657  1.0649
 4059SOL    HW123636   0.548   4.595   0.983 -0.4919  0.0038  0.1294
 4059SOL    HW223637   0.434   4.665   1.036  0.4380  2.5495 -1.0050
 4060SOL     OW23638   1.299   0.478   1.165  0.1641 -0.5372 -0.2973
 4060SOL    HW123639   1.371   0.417   1.147  1.5835  0.5069  1.8753
 4060SOL    HW223640   1.283   0.462   1.258  1.0374  0.4294  0.0196
 4061SOL     OW23641   3.753   3.787   0.170 -0.4485 -0.1577  0.2740
 4061SOL    HW123642   3.686   3.823   0.228 -0.4648 -1.9335  1.3376
 4061SOL    HW223643   3.710   3.806   0.087  2.2574  1.7555 -0.7286
 4062SOL     OW23644   1.435   2.945  14.099 -0.1005  0.3007 -0.2236
 4062SOL    HW123645   1.442   2.995  14.181 -1.4129  0.7860 -0.4000
 4062SOL    HW223646   1.340   2.932  14.098 -0.0208 -0.3264  0.3241
 4063SOL     OW23647   4.630   1.911   2.420  0.6165  0.1639 -0.1839
 4063SOL    HW123648   4.560   1.912   2.355  0.0467  0.6131  0.4464
 4063SOL    HW223649   4.584   1.853   2.481 -0.8876  1.3990 -0.1598
 4064SOL     OW23650   0.812   0.783   3.224 -0.0429  0.2868 -0.2626
 4064SOL    HW123651   0.726   0.825   3.214  0.4578  1.3603 -0.0247
 4064SOL    HW223652   0.855   0.800   3.140  0.4318  0.9878  0.1292
 4065SOL     OW23653   2.388   3.598   6.070  0.4148 -0.2393 -0.0592
 4065SOL    HW123654   2.463   3.630   6.120  0.3871 -0.7691  0.3228
 4065SOL    HW223655   2.435   3.573   5.991  0.5121  4.2485 -1.4294
 4066SOL     OW23656   2.539   2.848   6.523  0.2106  0.1999 -0.5529
 4066SOL    HW123657   2.632   2.843   6.500  0.3459 -1.1633  0.3052
 4066SOL    HW223658   2.515   2.894   6.442  1.4522  2.5438  0.4024
 4067SOL     OW23659   2.410   0.013   5.997  0.5480 -0.1224 -0.1410
 4067SOL    HW123660   2.448   4.696   6.074  0.4495 -1.5618 -0.8913
 4067SOL    HW223661   2.417   0.105   6.022  0.3152  0.2664 -1.5318
 4068SOL     OW23662   3.276   2.394   8.323  0.0520 -0.8411 -0.2764
 4068SOL    HW123663   3.272   2.403   8.418 -1.6100 -1.7376 -0.2419
 4068SOL    HW223664   3.354   2.339   8.321  0.8095  0.1539  2.7532
 4069SOL     OW23665   4.285   0.523   0.835  0.4200 -0.2921 -0.1520
 4069SOL    HW123666   4.238   0.517   0.919 -1.4499 -1.1030 -1.2632
 4069SOL    HW223667   4.244   0.447   0.794 -0.0182 -1.1207  1.8042
 4070SOL     OW23668   3.338   4.439   3.529 -0.6460 -0.2308 -0.1887
 4070SOL    HW123669   3.297   4.370   3.478  1.4763 -0.4916 -1.5228
 4070SOL    HW223670   3.278   4.436   3.604  0.6237  0.5016  0.8636
 4071SOL     OW23671   2.152   0.374   5.958  0.1908 -0.5037 -0.6944
 4071SOL    HW123672   2.080   0.392   6.020  1.5915 -1.3258  1.1658
 4071SOL    HW223673   2.112   0.299   5.913 -0.2115  0.1106 -1.3581
 4072SOL     OW23674   1.097   4.419   6.368  0.5350 -0.0911 -0.1473
 4072SOL    HW123675   1.033   4.403   6.299  0.4936 -1.2206  0.1550
 4072SOL    HW223676   1.042   4.417   6.446  2.0534  0.2886  0.9435
 4073SOL     OW23677   0.518   1.168   3.698  0.3504  0.1379  0.0388
 4073SOL    HW123678   0.476   1.238   3.649 -2.1808  0.9187  3.2734
 4073SOL    HW223679   0.493   1.088   3.651  1.0269  0.0296 -0.1307
 4074SOL     OW23680   2.929   1.644   6.179 -0.6840 -0.2652 -0.2906
 4074SOL    HW123681   2.960   1.672   6.265  1.6820  1.4239 -1.6883
 4074SOL    HW223682   3.007   1.637   6.123  0.3288  2.1518  0.8368
 4075SOL     OW23683   0.249   1.339   6.531  0.4489  0.2110 -0.0515
 4075SOL    HW123684   0.276   1.410   6.590  1.5960  0.0940 -0.4283
 4075SOL    HW223685   0.299   1.367   6.454  0.4685 -1.2027 -0.5555
 4076SOL     OW23686   2.772   0.100   5.195  0.3420  0.3912 -0.0349
 4076SOL    HW123687   2.863   0.124   5.182  0.5325  0.0902  0.7408
 4076SOL    HW223688   2.731   0.187   5.201 -0.4573  0.0560 -0.6135
 4077SOL     OW23689   1.669   1.166   6.487  0.2357  0.1998  0.3181
 4077SOL    HW123690   1.684   1.124   6.402  0.2573 -1.2332  1.0387
 4077SOL    HW223691   1.576   1.189   6.481  0.5871  1.3505 -0.7722
 4078SOL     OW23692   0.519   4.588   6.982  0.2507  0.1333 -0.8496
 4078SOL    HW123693   0.464   4.606   7.059 -0.4056 -2.0409 -0.8091
 4078SOL    HW223694   0.516   4.492   6.991  2.2425 -0.0401 -1.9282
 4079SOL     OW23695   0.187   2.327   7.519 -0.3880  0.5195 -0.0161
 4079SOL    HW123696   0.262   2.345   7.576 -0.0171  2.3690 -1.1000
 4079SOL    HW223697   0.196   2.391   7.449  0.4139  1.7300  1.2097
 4080SOL     OW23698   4.595   2.212  14.380  0.0484 -0.0396  0.6618
 4080SOL    HW123699   4.543   2.275  14.429  2.3657  1.5105  1.1356
 4080SOL    HW223700   4.649   2.176  14.449 -2.3133 -2.6226  1.1532
 4081SOL     OW23701   2.969   4.656  10.645 -0.2299 -0.0597 -0.3203
 4081SOL    HW123702   3.054   4.701  10.642  1.2207 -2.6845  1.8345
 4081SOL    HW223703   3.007   4.568  10.648 -0.4580 -0.1658 -0.5657
 4082SOL     OW23704   1.443   4.678   2.666  0.2934 -0.7929  0.0981
 4082SOL    HW123705   1.519   4.704   2.719  1.8643 -1.4258 -1.8447
 4082SOL    HW223706   1.478   4.611   2.608  0.1940 -1.9011  1.3148
 4083SOL     OW23707   2.752   2.516  15.497  0.0101 -0.2278  0.1255
 4083SOL    HW123708   2.834   2.541  15.454 -1.4498 -0.9066 -3.0303
 4083SOL    HW223709   2.746   2.587  15.560  1.3291 -0.3622  0.4202
 4084SOL     OW23710   1.575   2.818   7.554 -0.0897 -0.4433 -0.7702
 4084SOL    HW123711   1.627   2.868   7.491  0.1877  0.6962  0.3762
 4084SOL    HW223712   1.508   2.884   7.569  0.9334  0.1874  1.0830
 4085SOL     OW23713   2.264   0.864   3.083  0.4147  0.2460  0.1150
 4085SOL    HW123714   2.180   0.851   3.128 -0.0302  0.4955 -0.6552
 4085SOL    HW223715   2.328   0.864   3.154 -0.8400 -0.8108  1.2651
 4086SOL     OW23716   3.024   1.116   3.109 -0.3973  0.4169  0.2877
 4086SOL    HW123717   2.989   1.098   3.196  4.3558  0.1655  2.1023
 4086SOL    HW223718   3.105   1.163   3.128 -0.8389  0.7872  1.2550
 4087SOL     OW23719   0.345   0.901  11.283  0.2412  0.2506 -0.6240
 4087SOL    HW123720   0.313   0.928  11.196  0.7416  0.9409 -0.5907
 4087SOL    HW223721   0.431   0.867  11.260 -0.0902 -2.2080  1.8423
 4088SOL     OW23722   0.026   1.105   9.110  0.0091  0.1831 -0.1902
 4088SOL    HW123723   4.702   1.122   9.190 -0.5396  0.3311 -0.5639
 4088SOL    HW223724   0.094   1.172   9.106 -1.2658  1.5960  1.6222
 4089SOL     OW23725   1.042   2.457   6.233 -0.0939 -0.0159 -0.6082
 4089SOL    HW123726   0.964   2.407   6.209 -0.7305  2.0963 -2.8628
 4089SOL    HW223727   1.105   2.407   6.182 -1.0125 -0.3765 -1.3821
 4090SOL     OW23728   2.167   2.963   5.157 -0.3388  0.2887 -0.3073
 4090SOL    HW123729   2.107   2.946   5.230  0.2622 -2.4040 -0.4506
 4090SOL    HW223730   2.190   2.877   5.122  1.2355  0.0261  1.4275
 4091SOL     OW23731   2.566   3.766  17.419 -0.8411 -0.2385 -0.0901
 4091SOL    HW123732   2.567   3.783  17.324 -0.4687  3.0355  0.4817
 4091SOL    HW223733   2.612   3.683  17.414  1.3552  1.1254 -2.2260
 4092SOL     OW23734   3.185   3.385   3.755 -0.0834  0.1429 -0.0623
 4092SOL    HW123735   3.116   3.322   3.735  1.2848 -0.8138 -1.8250
 4092SOL    HW223736   3.170   3.407   3.847  1.6609  2.0374 -0.2313
 4093SOL     OW23737   2.290   3.634   4.458 -0.0301 -0.3200 -0.0110
 4093SOL    HW123738   2.196   3.634   4.439 -0.2450  0.8400  1.0620
 4093SOL    HW223739   2.306   3.553   4.507 -2.1304  0.9752  2.8367
 4094SOL     OW23740   3.096   1.365   3.384  0.9016  0.4787 -0.6853
 4094SOL    HW123741   3.008   1.393   3.408  0.6926 -0.9670  0.2565
 4094SOL    HW223742   3.097   1.273   3.411  1.5174  0.1239 -1.9051
 4095SOL     OW23743   2.124   1.419   2.779  0.2862 -0.6743  0.0293
 4095SOL    HW123744   2.206   1.410   2.730  0.2049 -1.9180  0.1221
 4095SOL    HW223745   2.082   1.468   2.708  3.7229  0.9747 -0.8664
 4096SOL     OW23746   0.526   1.687  16.416 -0.1832  0.3097 -0.0813
 4096SOL    HW123747   0.433   1.667  16.405 -0.3559 -0.2823  2.4617
 4096SOL    HW223748   0.542   1.666  16.508 -1.4483  1.9841  0.5204
 4097SOL     OW23749   2.252   1.081   1.756  0.2535  0.3734 -0.3494
 4097SOL    HW123750   2.195   1.005   1.765  0.5487 -0.0095 -1.6686
 4097SOL    HW223751   2.249   1.116   1.845  2.0585  2.4078 -1.0969
 4098SOL     OW23752   0.633   1.284  11.745  0.1950 -0.0018  0.0565
 4098SOL    HW123753   0.700   1.222  11.775 -0.5167 -0.5965  0.4192
 4098SOL    HW223754   0.561   1.221  11.749 -1.1008  1.4265 -0.9038
 4099SOL     OW23755   0.843   3.877   2.777  0.7315  0.3128  0.4630
 4099SOL    HW123756   0.796   3.796   2.755  1.8210  0.1712 -1.4076
 4099SOL    HW223757   0.814   3.932   2.704 -3.2907 -3.8567 -1.0954
 4100SOL     OW23758   1.202   2.142   6.030  0.4016 -0.2713  0.1791
 4100SOL    HW123759   1.153   2.128   5.949 -1.2060 -1.5407  1.3758
 4100SOL    HW223760   1.200   2.236   6.043 -0.1114 -0.2663  0.0481
 4101SOL     OW23761   1.583   1.800   1.358 -0.0026  0.3438 -0.1271
 4101SOL    HW123762   1.509   1.742   1.377  0.4252  0.5985  2.3051
 4101SOL    HW223763   1.651   1.764   1.415 -2.0267  0.8240  2.6217
 4102SOL     OW23764   1.183   0.776   2.856 -0.2409 -0.0904  0.5226
 4102SOL    HW123765   1.233   0.857   2.870 -1.0802  0.3150  1.1152
 4102SOL    HW223766   1.225   0.721   2.921  1.0749 -0.2238 -0.4341
 4103SOL     OW23767   3.630   2.928  12.317  0.0945  0.6128 -0.0834
 4103SOL    HW123768   3.638   2.942  12.412 -2.3101  1.6832 -0.0562
 4103SOL    HW223769   3.719   2.897  12.295  0.7227  2.0651  0.4399
 4104SOL     OW23770   2.952   0.633   3.724 -0.2988 -0.0098 -0.3616
 4104SOL    HW123771   2.950   0.693   3.798 -0.7443  0.7293 -0.9599
 4104SOL    HW223772   2.858   0.612   3.718 -0.1114 -1.1501  0.6759
 4105SOL     OW23773   0.427   1.343   4.602  0.4983  0.5091 -0.0564
 4105SOL    HW123774   0.518   1.319   4.620  0.9844  2.1287 -0.3876
 4105SOL    HW223775   0.419   1.328   4.508 -2.0953  0.2228  0.2100
 4106SOL     OW23776   3.388   0.502   7.737 -0.1793 -0.2090  0.1398
 4106SOL    HW123777   3.427   0.489   7.651 -1.2575 -1.3951 -0.1617
 4106SOL    HW223778   3.454   0.558   7.778 -1.4039  1.0934  0.3473
 4107SOL     OW23779   3.393   3.534   2.946  0.2723 -0.4267  0.0357
 4107SOL    HW123780   3.333   3.470   2.906 -0.2736  0.3618 -0.4082
 4107SOL    HW223781   3.452   3.468   2.981 -1.7785 -0.7746  2.8592
 4108SOL     OW23782   1.431   0.917   2.651  0.7699 -0.1009 -1.0842
 4108SOL    HW123783   1.506   0.895   2.705  0.0698 -0.5527 -0.2999
 4108SOL    HW223784   1.440   0.849   2.584  0.8031  0.2313 -1.4162
 4109SOL     OW23785   0.223   1.918  11.921  0.0844 -0.1749 -0.0215
 4109SOL    HW123786   0.154   1.876  11.869  0.2306 -0.7502  0.2463
 4109SOL    HW223787   0.308   1.880  11.900  0.2922 -0.5481  1.4443
 4110SOL     OW23788   2.137   1.289  15.957 -0.0251 -0.0768 -0.1672
 4110SOL    HW123789   2.098   1.333  16.032  1.9059 -0.0536  0.8287
 4110SOL    HW223790   2.072   1.306  15.888 -1.3037  2.3918  1.6360
 4111SOL     OW23791   3.152   3.190   5.906 -0.2206 -0.6420 -0.0667
 4111SOL    HW123792   3.058   3.171   5.911  0.4547 -3.8758  0.0788
 4111SOL    HW223793   3.155   3.270   5.853 -0.8551  0.0404  0.9120
 4112SOL     OW23794   2.327   0.344   8.878  0.3465  0.1993  0.2236
 4112SOL    HW123795   2.293   0.290   8.949  1.8148  0.5070  1.1642
 4112SOL    HW223796   2.338   0.276   8.811 -0.8166  1.1270 -0.9100
 4113SOL     OW23797   3.402   4.573  17.301 -0.0191 -0.0862  0.1175
 4113SOL    HW123798   3.335   4.509  17.277  0.6350 -0.5861 -0.3615
 4113SOL    HW223799   3.425   4.603  17.214 -0.9563  1.9397  0.5729
 4114SOL     OW23800   0.696   0.864   7.029 -0.0811  0.4994 -0.1163
 4114SOL    HW123801   0.711   0.816   6.947  1.0029 -0.1414  0.4512
 4114SOL    HW223802   0.784   0.847   7.064 -0.5071  0.3953  0.9116
 4115SOL     OW23803   1.164   4.549   8.962 -0.3980  0.3813  0.0189
 4115SOL    HW123804   1.203   4.528   9.046 -0.1958  1.2469  0.1384
 4115SOL    HW223805   1.069   4.540   8.971 -0.3793  1.1158  0.9101
 4116SOL     OW23806   4.080   0.217  16.505  0.4968 -0.4101 -0.8649
 4116SOL    HW123807   4.149   0.282  16.497 -1.1224  1.4051 -0.0190
 4116SOL    HW223808   4.024   0.230  16.429 -1.7882 -1.9425  0.5636
 4117SOL     OW23809   1.119   2.772   9.240  0.1327 -0.2076 -0.2709
 4117SOL    HW123810   1.200   2.823   9.228  1.1508 -1.8377 -0.3293
 4117SOL    HW223811   1.079   2.801   9.158  1.2033  0.1859 -0.6608
 4118SOL     OW23812   1.709   1.613   3.709  0.4457  0.0265  0.0758
 4118SOL    HW123813   1.705   1.674   3.635  0.1113 -1.9954 -1.5709
 4118SOL    HW223814   1.773   1.657   3.764  1.0121 -0.2660 -0.3541
 4119SOL     OW23815   0.538   0.296   5.875  0.0365  0.0483 -0.1010
 4119SOL    HW123816   0.571   0.289   5.786  2.0433  1.7649  0.4863
 4119SOL    HW223817   0.444   0.302   5.859  0.3255 -0.9936 -2.0924
 4120SOL     OW23818   2.599   4.638   2.255  0.1197 -0.0773 -0.1755
 4120SOL    HW123819   2.620   4.566   2.196 -0.3595  0.3679 -0.8806
 4120SOL    HW223820   2.652   4.704   2.210  2.2120 -0.6619  1.4318
 4121SOL     OW23821   1.633   1.756   6.626  0.3609  0.4326 -0.5925
 4121SOL    HW123822   1.550   1.763   6.674  0.6690 -0.3599  0.0539
 4121SOL    HW223823   1.670   1.831   6.672  1.0463 -0.2746 -0.0029
 4122SOL     OW23824   1.607   0.983   8.456 -0.2183  0.2795 -0.3343
 4122SOL    HW123825   1.517   0.950   8.457 -0.7110  1.6050 -0.8957
 4122SOL    HW223826   1.611   1.028   8.372  1.2622 -1.0596 -0.9821
 4123SOL     OW23827   1.002   4.398  13.506  0.0987 -0.0802 -0.1390
 4123SOL    HW123828   0.953   4.432  13.581 -1.9038 -0.0575 -1.4642
 4123SOL    HW223829   1.090   4.399  13.544  0.9595 -1.5373 -2.1107
 4124SOL     OW23830   4.031   1.985   4.064  0.3495  0.2034 -0.3009
 4124SOL    HW123831   4.023   1.982   4.159 -2.0684  1.4894 -0.4760
 4124SOL    HW223832   4.043   1.890   4.051  1.8547 -0.0537  3.0426
 4125SOL     OW23833   2.421   1.367   2.669 -0.1015  0.3879  0.6617
 4125SOL    HW123834   2.495   1.342   2.723  0.6795 -0.1182 -0.6392
 4125SOL    HW223835   2.458   1.435   2.613  0.6120  0.2166  0.9353
 4126SOL     OW23836   4.131   3.496   3.860  0.3284  0.2543 -0.2946
 4126SOL    HW123837   4.222   3.521   3.847  0.6404 -1.2426 -0.9775
 4126SOL    HW223838   4.108   3.475   3.769 -1.1478 -0.0271  0.1497
 4127SOL     OW23839   4.311   1.602   0.600 -0.0901 -0.6899 -0.0864
 4127SOL    HW123840   4.273   1.654   0.670 -0.5316 -1.4641  0.2535
 4127SOL    HW223841   4.245   1.622   0.533 -0.1174  0.1417  0.1903
 4128SOL     OW23842   2.526   0.758   8.750 -0.4853  0.7233 -0.2777
 4128SOL    HW123843   2.437   0.778   8.722 -1.7270 -1.2408  2.2944
 4128SOL    HW223844   2.502   0.698   8.820 -0.2088  0.4743 -0.3948
 4129SOL     OW23845   3.256   0.253   9.949 -0.2667 -0.4462  0.2513
 4129SOL    HW123846   3.208   0.187   9.899  2.3422 -1.4340 -0.9905
 4129SOL    HW223847   3.209   0.324   9.906  0.1066  0.2604  1.0018
 4130SOL     OW23848   4.279   1.831   4.464 -0.7885  0.7658 -0.2926
 4130SOL    HW123849   4.223   1.753   4.467  1.4994 -0.7384  2.4565
 4130SOL    HW223850   4.322   1.808   4.546  0.2319  0.6737 -0.8538
 4131SOL     OW23851   0.269   0.535   6.203  0.4165 -0.8134 -0.2269
 4131SOL    HW123852   0.269   0.622   6.161 -0.8179 -0.2739  0.9106
 4131SOL    HW223853   0.202   0.484   6.158  0.1315  0.8429 -1.6844
 4132SOL     OW23854   2.515   2.619   4.447 -0.1840  0.4599 -0.8923
 4132SOL    HW123855   2.484   2.653   4.364 -0.2480  1.1219 -0.5979
 4132SOL    HW223856   2.598   2.666   4.456 -1.0194  1.9786 -1.0949
 4133SOL     OW23857   1.565   3.743   9.466  0.5026 -0.6009 -0.2551
 4133SOL    HW123858   1.526   3.657   9.484 -1.7862  0.1753 -1.5272
 4133SOL    HW223859   1.481   3.782   9.441 -0.8769 -1.7672  2.5312
 4134SOL     OW23860   2.467   2.334   5.103  0.5599 -0.1144  0.2353
 4134SOL    HW123861   2.517   2.395   5.158  1.7807 -0.2222 -0.7472
 4134SOL    HW223862   2.499   2.245   5.117  0.6375  0.1440  1.6236
 4135SOL     OW23863   3.443   1.994  17.331 -0.0099  0.0946  0.2214
 4135SOL    HW123864   3.412   2.019  17.417  2.2484  0.5218  0.9215
 4135SOL    HW223865   3.394   1.912  17.326 -0.0416  0.0823  0.7793
 4136SOL     OW23866   1.690   2.855   5.867 -0.3918  0.1413 -0.3041
 4136SOL    HW123867   1.762   2.917   5.877 -0.1086 -0.2874  0.3454
 4136SOL    HW223868   1.610   2.895   5.901 -1.0039 -0.8580 -0.5674
 4137SOL     OW23869   1.074   1.513   1.869  0.4015  0.0092 -0.0615
 4137SOL    HW123870   0.996   1.477   1.827  1.2068  0.0593 -1.5865
 4137SOL    HW223871   1.135   1.440   1.858  1.6796  0.7224  2.1654
 4138SOL     OW23872   1.749   2.109   2.096  0.5606 -0.4354  0.2507
 4138SOL    HW123873   1.787   2.064   2.171 -0.5318 -0.8934  0.5407
 4138SOL    HW223874   1.730   2.192   2.140  4.7343  0.1682  0.8716
 4139SOL     OW23875   0.646   3.909  12.579 -0.1011 -0.6520 -0.8192
 4139SOL    HW123876   0.626   3.815  12.580 -2.5799 -0.1323 -1.9040
 4139SOL    HW223877   0.690   3.923  12.495  2.6611 -3.2382  0.1892
 4140SOL     OW23878   3.457   2.310   2.295  0.0697  0.0466 -0.0712
 4140SOL    HW123879   3.437   2.398   2.328 -0.8441  0.4671 -1.7410
 4140SOL    HW223880   3.396   2.254   2.342  2.4231 -2.1571  0.3606
 4141SOL     OW23881   0.321   1.066   0.113 -0.1028 -0.5180  0.2563
 4141SOL    HW123882   0.312   1.160   0.096  2.3657 -0.4318 -0.4763
 4141SOL    HW223883   0.333   1.077   0.208  0.9800 -1.1544  0.1836
 4142SOL     OW23884   0.459   0.962   4.810  0.1948 -0.2407 -0.2441
 4142SOL    HW123885   0.533   0.935   4.864 -0.7988  0.5610  1.5161
 4142SOL    HW223886   0.508   1.024   4.755 -0.9398  0.9661  0.0874
 4143SOL     OW23887   0.555   3.325  10.867 -0.5678  0.6365 -0.0661
 4143SOL    HW123888   0.483   3.270  10.836  0.4774 -1.6172  1.4868
 4143SOL    HW223889   0.600   3.275  10.936 -0.7536  1.1271  0.4082
 4144SOL     OW23890   1.479   2.050   8.939  0.1983 -0.2609  0.1627
 4144SOL    HW123891   1.402   2.048   8.995 -0.5516 -0.9962 -0.8778
 4144SOL    HW223892   1.478   2.145   8.932  0.0782 -0.3230 -0.7392
 4145SOL     OW23893   2.608   3.792   3.993 -0.1193 -0.5936  0.0770
 4145SOL    HW123894   2.523   3.778   3.950 -1.0267 -0.8394  1.9573
 4145SOL    HW223895   2.638   3.875   3.956  3.2261 -1.8238  0.0937
 4146SOL     OW23896   3.137   2.299  13.974  0.4638  0.4166 -0.4148
 4146SOL    HW123897   3.102   2.232  13.914  1.6388 -0.2628 -0.3377
 4146SOL    HW223898   3.073   2.370  13.968 -1.0789 -1.1128 -2.4087
 4147SOL     OW23899   2.429   0.032   7.506  0.2904 -0.0186  0.3887
 4147SOL    HW123900   2.496   0.097   7.530  1.2221 -0.3297 -1.3909
 4147SOL    HW223901   2.417   4.717   7.592  1.8985  2.4823  1.8120
 4148SOL     OW23902   4.489   2.163   3.203 -0.5177  0.6719  0.0175
 4148SOL    HW123903   4.543   2.117   3.138 -0.3765  0.7930  0.0489
 4148SOL    HW223904   4.556   2.209   3.254 -0.8650  0.5971  0.5501
 4149SOL     OW23905   1.595   4.398   9.066  0.3307 -0.3066 -0.4389
 4149SOL    HW123906   1.591   4.443   9.150  0.3809 -2.4767  0.7203
 4149SOL    HW223907   1.690   4.388   9.057  0.9242  1.7069  3.6954
 4150SOL     OW23908   2.856   1.512  16.075  0.3388  0.4860 -0.4240
 4150SOL    HW123909   2.937   1.469  16.103  0.6713  1.3703 -0.0397
 4150SOL    HW223910   2.797   1.463  16.132 -1.6104  2.1200 -1.0155
 4151SOL     OW23911   4.106   4.553   4.933  0.4155 -0.3929  0.0641
 4151SOL    HW123912   4.172   4.613   4.969 -0.9905  1.0924  0.1828
 4151SOL    HW223913   4.144   4.504   4.860 -0.0759  0.4121 -0.7283
 4152SOL     OW23914   0.564   4.451  16.417 -0.3354 -0.0719  0.0596
 4152SOL    HW123915   0.518   4.374  16.384 -0.8851  0.9462 -1.5864
 4152SOL    HW223916   0.495   4.509  16.452  0.7237  0.6318  0.9715
 4153SOL     OW23917   2.797   2.694   4.991  0.3398 -0.0135 -0.6287
 4153SOL    HW123918   2.864   2.762   4.984  2.3064 -2.0631 -2.1083
 4153SOL    HW223919   2.857   2.620   5.004  2.6418  2.0333  0.3944
 4154SOL     OW23920   4.269   3.371   4.832 -0.1002  0.1838 -0.3603
 4154SOL    HW123921   4.359   3.362   4.800  0.1476  1.3863 -0.0105
 4154SOL    HW223922   4.222   3.295   4.798  0.8903  0.0623 -1.4643
 4155SOL     OW23923   3.012   3.483  17.480 -0.1558 -0.3083  0.3250
 4155SOL    HW123924   2.987   3.426  17.406  0.6246 -1.0961  0.6742
 4155SOL    HW223925   3.048   3.425  17.547 -2.0073 -4.0578 -1.8918
 4156SOL     OW23926   4.326   3.399  16.338 -0.6231 -0.0845 -0.1849
 4156SOL    HW123927   4.352   3.333  16.403 -1.9052 -0.2446  0.1504
 4156SOL    HW223928   4.235   3.409  16.364 -0.7489 -2.3599  0.2203
 4157SOL     OW23929   0.199   3.353   8.511 -0.0935 -0.2825  0.6288
 4157SOL    HW123930   0.108   3.377   8.494  0.2115  0.8239  0.5276
 4157SOL    HW223931   0.232   3.317   8.429 -0.3143  0.2733  0.3003
 4158SOL     OW23932   1.442   4.237   9.282  0.4273  0.2049 -0.6848
 4158SOL    HW123933   1.392   4.210   9.205  0.8847 -1.5549 -0.3558
 4158SOL    HW223934   1.513   4.287   9.240 -0.0842  1.9740  0.5499
 4159SOL     OW23935   3.874   4.658   9.891  0.4867  0.9802  0.6034
 4159SOL    HW123936   3.835   4.573   9.873  1.4562  0.9659 -1.4488
 4159SOL    HW223937   3.883   4.686   9.800  4.8543  0.1274  0.7859
 4160SOL     OW23938   1.702   4.717  12.732 -0.2655 -0.4109 -0.0185
 4160SOL    HW123939   1.658   0.062  12.686 -1.1267 -1.2497 -0.4654
 4160SOL    HW223940   1.744   4.670  12.660  0.0485 -1.0694  0.5839
 4161SOL     OW23941   1.100   2.705   6.054 -0.3833  0.4140 -0.0151
 4161SOL    HW123942   1.087   2.622   6.101 -0.3009 -0.0593 -0.8227
 4161SOL    HW223943   1.069   2.683   5.966  3.8241  1.0013 -1.6467
 4162SOL     OW23944   3.820   1.863   9.319  1.1233 -0.2419  0.1595
 4162SOL    HW123945   3.827   1.859   9.414  1.5925  2.9865  0.2424
 4162SOL    HW223946   3.807   1.773   9.289  0.6239  0.7782 -2.6377
 4163SOL     OW23947   0.619   2.406   8.171  0.4944  0.3439  0.1134
 4163SOL    HW123948   0.682   2.437   8.106 -0.3146  0.6920 -0.5061
 4163SOL    HW223949   0.553   2.359   8.120  1.2850 -0.2448 -0.3640
 4164SOL     OW23950   4.723   3.619   4.829 -0.5749 -0.0730 -0.2914
 4164SOL    HW123951   4.701   3.594   4.739  1.8459 -1.0835 -0.6102
 4164SOL    HW223952   4.651   3.682   4.835 -0.1990  0.1065  2.3491
 4165SOL     OW23953   0.574   4.428   4.384  0.0250  0.4183 -0.5808
 4165SOL    HW123954   0.550   4.347   4.430 -2.0289  0.7832 -1.0261
 4165SOL    HW223955   0.517   4.420   4.307 -1.4613  1.1617  0.4414
 4166SOL     OW23956   1.256   2.335   5.032 -0.6180  0.2293 -0.5819
 4166SOL    HW123957   1.274   2.306   4.943 -0.7660 -0.6454 -0.3240
 4166SOL    HW223958   1.230   2.426   5.015 -1.5911 -0.1037 -0.8813
 4167SOL     OW23959   1.691   3.494   8.346 -0.1672  0.3006  0.2818
 4167SOL    HW123960   1.650   3.541   8.272  0.0184 -1.5199 -0.9842
 4167SOL    HW223961   1.613   3.448   8.378 -1.9440  2.9368 -0.2174
 4168SOL     OW23962   3.293   2.169   6.740  0.0994 -0.5001  0.1092
 4168SOL    HW123963   3.292   2.210   6.653 -0.9590  1.8387  1.2016
 4168SOL    HW223964   3.268   2.247   6.791 -2.1313 -0.4647 -1.0394
 4169SOL     OW23965   2.170   3.778   5.862  0.0390  0.6082 -0.3712
 4169SOL    HW123966   2.251   3.824   5.883  0.5508 -0.3120 -0.3271
 4169SOL    HW223967   2.105   3.821   5.918  0.0654  1.8075 -1.2770
 4170SOL     OW23968   3.290   0.597   4.825  0.4721  0.1153  0.7572
 4170SOL    HW123969   3.218   0.636   4.875  0.2713 -0.0739  0.6138
 4170SOL    HW223970   3.364   0.650   4.853  0.1699  1.1005 -0.2827
 4171SOL     OW23971   0.538   1.359   3.328 -0.0185  0.5823 -0.1667
 4171SOL    HW123972   0.499   1.332   3.411  0.1318  2.0219  0.3553
 4171SOL    HW223973   0.474   1.426   3.303  1.2696  1.7942 -0.2074
 4172SOL     OW23974   3.211   1.319   1.094 -0.5995  0.3415  0.3735
 4172SOL    HW123975   3.271   1.300   1.021 -0.4177  1.5337  0.2101
 4172SOL    HW223976   3.196   1.236   1.140  0.4012 -0.3857 -0.6112
 4173SOL     OW23977   4.420   2.432   3.893 -0.3252  0.4651 -0.3849
 4173SOL    HW123978   4.435   2.338   3.907 -1.1709  0.2991 -0.5603
 4173SOL    HW223979   4.491   2.447   3.831  0.2334 -1.0101 -0.0960
 4174SOL     OW23980   0.989   0.328   6.589 -0.1913  0.1340  0.3979
 4174SOL    HW123981   0.948   0.330   6.676 -1.5910  0.1230 -0.2543
 4174SOL    HW223982   0.946   0.399   6.542 -1.1326 -0.4058  0.4420
 4175SOL     OW23983   1.377   1.419  13.250  0.8269 -0.2028  0.5861
 4175SOL    HW123984   1.351   1.328  13.263 -0.0551  0.1743  1.4793
 4175SOL    HW223985   1.377   1.459  13.337  0.3738  0.2452  0.3783
 4176SOL     OW23986   0.337   3.682   6.559 -0.3786 -0.0422 -0.0489
 4176SOL    HW123987   0.421   3.664   6.602 -0.3843  0.1391  0.0361
 4176SOL    HW223988   0.286   3.726   6.626  0.4617  0.2857  0.3800
 4177SOL     OW23989   4.093   4.668  16.244  0.3514  0.1415 -0.0303
 4177SOL    HW123990   4.011   4.622  16.263  1.6251 -0.7776  3.1505
 4177SOL    HW223991   4.157   4.632  16.305  0.0797 -0.2057  0.0524
 4178SOL     OW23992   2.967   3.147   7.204 -0.1369  0.2318  0.4661
 4178SOL    HW123993   2.903   3.076   7.211  0.3193 -0.1131  1.0404
 4178SOL    HW223994   3.003   3.148   7.292  1.9270 -0.8202 -0.3686
 4179SOL     OW23995   2.848   0.013   7.637  0.4060  0.4348 -0.0998
 4179SOL    HW123996   2.840   4.683   7.560 -2.5526 -1.4702  1.6019
 4179SOL    HW223997   2.895   4.680   7.695  0.7854 -0.5662 -1.4208
 4180SOL     OW23998   1.671   0.386   9.720 -1.0628 -0.2855  0.0907
 4180SOL    HW123999   1.707   0.404   9.807  0.2652  0.1164 -0.5425
 4180SOL    HW224000   1.578   0.397   9.737 -1.2561  1.0917 -1.9377
 4181SOL     OW24001   4.334   3.781  14.273 -0.1264  0.1397 -0.0839
 4181SOL    HW124002   4.294   3.857  14.230  1.0283  0.0364 -1.3258
 4181SOL    HW224003   4.259   3.722  14.268 -0.0852  0.2065 -1.3581
 4182SOL     OW24004   2.940   2.321  10.440 -0.3953  0.1705 -0.4772
 4182SOL    HW124005   2.932   2.390  10.506  0.3980  0.2543 -0.4704
 4182SOL    HW224006   3.007   2.351  10.378  0.4829 -0.9713 -0.0947
 4183SOL     OW24007   3.392   0.990   6.979 -0.0964  0.0325  0.1562
 4183SOL    HW124008   3.416   1.016   7.068  1.2581  0.1627 -0.2527
 4183SOL    HW224009   3.333   1.063   6.955  2.5459  1.7156 -1.2384
 4184SOL     OW24010   1.760   0.968  11.698 -0.3743 -0.0029 -0.2047
 4184SOL    HW124011   1.704   1.032  11.741  2.3505  1.1007  1.7396
 4184SOL    HW224012   1.726   0.883  11.727  0.8458 -0.3983  0.0936
 4185SOL     OW24013   0.066   1.584   3.789 -0.3496 -0.8237 -0.0363
 4185SOL    HW124014   0.096   1.670   3.819  0.7111 -0.9748 -0.6788
 4185SOL    HW224015   0.099   1.581   3.700  1.0104  2.7155  0.3493
 4186SOL     OW24016   0.685   0.750   9.247 -0.3564  0.1088  0.5755
 4186SOL    HW124017   0.720   0.838   9.259  1.1055 -0.1973 -1.2779
 4186SOL    HW224018   0.661   0.734   9.338  0.0833 -2.9445  0.1698
 4187SOL     OW24019   3.268   2.763   3.684 -0.0889  0.2342 -0.2033
 4187SOL    HW124020   3.282   2.843   3.735 -0.8219  0.8422 -0.9501
 4187SOL    HW224021   3.186   2.780   3.637  0.3245 -0.4368 -1.1723
 4188SOL     OW24022   1.001   3.582   3.935  0.0833 -0.7963 -0.1324
 4188SOL    HW124023   0.968   3.493   3.927  2.5648 -1.7916  0.7796
 4188SOL    HW224024   0.926   3.635   3.965  0.4685 -1.4499  1.9866
 4189SOL     OW24025   1.402   3.696   1.913 -0.1547 -1.2790 -0.0870
 4189SOL    HW124026   1.329   3.751   1.939  0.0969  0.1510 -2.3617
 4189SOL    HW224027   1.381   3.609   1.948 -0.0745 -0.5698  1.6983
 4190SOL     OW24028   2.901   2.606   1.106  0.0835  0.6885 -0.1375
 4190SOL    HW124029   2.825   2.586   1.162  0.1713  0.6810 -0.0200
 4190SOL    HW224030   2.882   2.683   1.053  3.8833  2.2701  0.8296
 4191SOL     OW24031   3.916   0.188  10.857 -0.8300 -0.1969 -0.1609
 4191SOL    HW124032   3.827   0.168  10.886 -0.6109  0.7854  1.1627
 4191SOL    HW224033   3.903   0.183  10.762 -1.4349  1.4851 -0.1732
 4192SOL     OW24034   0.201   1.692   6.391  0.1193 -0.2029 -0.0057
 4192SOL    HW124035   0.275   1.649   6.348  0.3061  0.2820 -0.1682
 4192SOL    HW224036   0.128   1.676   6.331  1.4298 -1.1303 -1.3733
 4193SOL     OW24037   0.784   1.010   9.311  0.0155 -0.5776  0.0698
 4193SOL    HW124038   0.714   1.075   9.319 -0.1743 -0.6484 -0.9992
 4193SOL    HW224039   0.868   1.051   9.331 -0.0110 -1.8021  2.6473
 4194SOL     OW24040   2.968   2.229   6.929 -0.2919 -0.5555  0.3674
 4194SOL    HW124041   2.916   2.282   6.990 -0.5641  0.2256 -0.5617
 4194SOL    HW224042   3.056   2.264   6.944  0.2419 -2.2575  1.2145
 4195SOL     OW24043   1.757   4.607   8.393  0.5753 -0.0176  0.0208
 4195SOL    HW124044   1.777   4.644   8.479  2.7277  0.5893 -0.7580
 4195SOL    HW224045   1.661   4.602   8.388  0.6646 -0.4855 -1.2038
 4196SOL     OW24046   0.075   3.366  16.108  0.8107  0.2360  0.5745
 4196SOL    HW124047   0.136   3.394  16.039 -1.3127  4.1190  0.2859
 4196SOL    HW224048   4.724   3.335  16.060 -0.8422  1.9190  2.1678
 4197SOL     OW24049   1.193   2.712   8.888  0.1847  0.0249 -0.3095
 4197SOL    HW124050   1.203   2.646   8.957  1.3372  1.0542  0.5244
 4197SOL    HW224051   1.280   2.726   8.850  0.3516  1.1211  0.4497
 4198SOL     OW24052   3.388   3.170   4.135 -0.0303 -0.1414 -0.2157
 4198SOL    HW124053   3.456   3.223   4.094  0.5899 -1.7924 -1.2829
 4198SOL    HW224054   3.325   3.235   4.166 -0.2050  0.5603 -2.0373
 4199SOL     OW24055   1.915   0.299   7.111  0.2342  0.1223  0.0316
 4199SOL    HW124056   1.854   0.369   7.089  0.3477  0.5344  1.0168
 4199SOL    HW224057   1.999   0.340   7.132 -0.7711  2.1596  0.1205
 4200SOL     OW24058   0.947   1.696   3.739 -0.0592  0.1069  0.3827
 4200SOL    HW124059   1.042   1.696   3.753  0.1989 -1.0001 -1.3041
 4200SOL    HW224060   0.928   1.602   3.747 -0.9207  0.2259 -0.3702
 4201SOL     OW24061   2.521   3.289  17.115 -0.1395  0.1145  1.1625
 4201SOL    HW124062   2.433   3.256  17.096  0.0769  0.4658 -0.4309
 4201SOL    HW224063   2.576   3.213  17.130 -1.9945 -1.5998 -0.6390
 4202SOL     OW24064   0.391   2.356   0.157 -0.9085  0.6954 -0.5832
 4202SOL    HW124065   0.474   2.316   0.185 -1.3681  1.0290  1.2240
 4202SOL    HW224066   0.344   2.274   0.143  0.0929 -0.3196  2.1265
 4203SOL     OW24067   0.614   4.087   8.978  0.3420 -0.1585  0.0056
 4203SOL    HW124068   0.554   4.061   9.048  1.3570 -0.5668  0.7244
 4203SOL    HW224069   0.568   4.169   8.964 -0.0127 -0.2154  0.8193
 4204SOL     OW24070   4.305   1.743   5.745 -0.8606  0.6727 -0.7224
 4204SOL    HW124071   4.212   1.757   5.763 -1.2524 -2.5246 -0.2773
 4204SOL    HW224072   4.337   1.725   5.833  1.2409 -1.7236 -1.9904
 4205SOL     OW24073   4.706   0.470  15.522 -0.1183 -0.0661 -0.0053
 4205SOL    HW124074   0.037   0.420  15.463  1.5347  2.6280 -0.6753
 4205SOL    HW224075   0.027   0.548  15.551 -1.6670  1.9170 -2.7969
 4206SOL     OW24076   2.937   0.857  12.355  0.0547 -0.0357 -0.2599
 4206SOL    HW124077   2.918   0.948  12.334  2.3670  0.0604 -1.8674
 4206SOL    HW224078   2.863   0.808  12.319 -0.2734 -0.0212  0.3970
 4207SOL     OW24079   3.595   1.862   9.839  0.1333 -0.2167 -0.2354
 4207SOL    HW124080   3.643   1.921   9.897 -1.4171 -0.6677  1.5265
 4207SOL    HW224081   3.615   1.907   9.757 -0.2590  2.0924  0.9521
 4208SOL     OW24082   2.810   1.397  16.805 -0.4543  0.1399  0.5770
 4208SOL    HW124083   2.827   1.467  16.742  1.3246  0.3301  1.2859
 4208SOL    HW224084   2.756   1.436  16.874  0.5576 -0.2064  1.5518
 4209SOL     OW24085   4.261   1.206   2.766 -0.2282 -0.4116 -0.4869
 4209SOL    HW124086   4.324   1.142   2.799 -0.6596 -0.0467  1.0618
 4209SOL    HW224087   4.195   1.144   2.735 -0.7510 -1.0072  1.8589
 4210SOL     OW24088   2.322   2.061   6.226  0.0379 -0.0225 -0.0043
 4210SOL    HW124089   2.226   2.056   6.227  0.1133 -1.7270 -0.7064
 4210SOL    HW224090   2.325   1.966   6.241 -0.5091 -0.3135 -1.8142
 4211SOL     OW24091   1.970   2.572  13.526 -0.3457  0.5206 -1.0628
 4211SOL    HW124092   1.979   2.666  13.511  1.3256  0.5534  0.0990
 4211SOL    HW224093   2.016   2.546  13.447  1.7244 -4.6454  1.8386
 4212SOL     OW24094   3.769   3.092   3.673 -0.0116 -0.5858  0.8002
 4212SOL    HW124095   3.807   3.009   3.644 -0.3171 -0.2306 -0.6134
 4212SOL    HW224096   3.729   3.112   3.589  1.2184 -1.4899 -0.0089
 4213SOL     OW24097   3.776   3.904   2.727  0.0344 -0.4085  0.8364
 4213SOL    HW124098   3.848   3.944   2.678  0.7604 -1.5540  0.9633
 4213SOL    HW224099   3.726   3.986   2.727  0.8102  0.0639 -0.1802
 4214SOL     OW24100   0.858   4.240  17.390 -0.7505  0.0344 -0.4431
 4214SOL    HW124101   0.897   4.161  17.352 -1.4174  0.9273 -2.9531
 4214SOL    HW224102   0.927   4.298  17.358  1.4060 -1.1739  1.9699
 4215SOL     OW24103   4.010   4.658   2.390 -0.0642 -0.0120 -0.1183
 4215SOL    HW124104   3.942   4.687   2.329 -0.0785 -2.6243 -1.3550
 4215SOL    HW224105   4.028   4.568   2.364  0.8079  0.3930 -0.9429
 4216SOL     OW24106   2.059   1.476   5.398  0.4807  0.1707 -0.1831
 4216SOL    HW124107   2.100   1.559   5.419  1.8105 -0.7959  1.1006
 4216SOL    HW224108   2.113   1.441   5.327  1.1609 -1.7217  1.2354
 4217SOL     OW24109   4.140   2.035  17.629  0.3930  0.2185  0.0119
 4217SOL    HW124110   4.061   2.032  17.683  1.6016  0.0179  1.7438
 4217SOL    HW224111   4.153   2.127  17.606  2.0485 -0.1618 -0.5604
 4218SOL     OW24112   3.329   0.673  12.559 -0.9691  0.6416  0.3566
 4218SOL    HW124113   3.240   0.671  12.594 -1.4597 -2.3025 -1.0983
 4218SOL    HW224114   3.334   0.768  12.549 -1.2559  0.8174  1.8575
 4219SOL     OW24115   1.535   2.722  13.642 -0.0521 -0.0379  0.2621
 4219SOL    HW124116   1.568   2.660  13.577 -0.9682 -0.2477 -0.0118
 4219SOL    HW224117   1.610   2.734  13.700 -1.0112 -1.1981  1.7713
 4220SOL     OW24118   0.415   0.261   4.673 -0.0627  0.0353  0.5778
 4220SOL    HW124119   0.375   0.262   4.586  1.5986 -1.1550 -0.1979
 4220SOL    HW224120   0.501   0.221   4.658  0.0853  1.7723 -3.3908
 4221SOL     OW24121   1.339   3.502  13.234 -0.3755 -0.0716 -0.1345
 4221SOL    HW124122   1.309   3.420  13.194  0.4350 -0.8105  0.7726
 4221SOL    HW224123   1.432   3.495  13.252 -0.0427  2.7803 -0.7797
 4222SOL     OW24124   3.833   0.325   7.030 -0.0889  0.1059 -0.0340
 4222SOL    HW124125   3.860   0.403   6.981 -0.8339  1.0977  1.1061
 4222SOL    HW224126   3.897   0.258   7.008  0.1959  0.1232  0.7392
 4223SOL     OW24127   2.667   2.228   9.072 -0.0953  0.2499 -0.5913
 4223SOL    HW124128   2.640   2.144   9.110  0.0609  1.1617  1.5325
 4223SOL    HW224129   2.654   2.291   9.143  0.9313  1.4400 -1.4713
 4224SOL     OW24130   3.867   3.498   6.232 -0.0106  0.0004  0.3631
 4224SOL    HW124131   3.852   3.480   6.139 -0.6093 -3.1286  1.0525
 4224SOL    HW224132   3.878   3.405   6.255  1.7307 -0.1370 -1.0162
 4225SOL     OW24133   1.171   4.463   3.240 -0.5341  0.6633 -0.0135
 4225SOL    HW124134   1.153   4.557   3.241 -1.4824  0.4824 -0.0158
 4225SOL    HW224135   1.082   4.431   3.225  0.0923 -1.3691  0.6734
 4226SOL     OW24136   4.309   0.961   1.225 -0.2613 -0.3400 -0.3053
 4226SOL    HW124137   4.371   0.911   1.173 -0.9967 -0.5491 -0.9912
 4226SOL    HW224138   4.310   1.050   1.190 -0.0453  0.4292  1.6355
 4227SOL     OW24139   4.525   1.643  15.689 -0.6911 -0.0092 -0.5117
 4227SOL    HW124140   4.434   1.664  15.670 -0.9261  0.9485  1.7429
 4227SOL    HW224141   4.573   1.656  15.607 -0.4579  0.2613 -0.3344
 4228SOL     OW24142   4.302   3.920   3.993 -0.0605 -0.6913 -0.1016
 4228SOL    HW124143   4.331   3.872   3.916 -3.6726  0.0955 -1.9487
 4228SOL    HW224144   4.208   3.932   3.976 -0.1988 -0.6376  0.6997
 4229SOL     OW24145   1.161   2.037   3.154  0.0857  0.3315  0.1582
 4229SOL    HW124146   1.070   2.064   3.167  0.2455 -1.2352  4.3687
 4229SOL    HW224147   1.149   1.950   3.116 -0.7095  1.9127 -3.2456
 4230SOL     OW24148   4.221   3.046   5.804 -0.1123  0.6829 -0.3753
 4230SOL    HW124149   4.236   3.140   5.799  2.3078  0.4071  1.4184
 4230SOL    HW224150   4.252   3.025   5.892 -0.7194 -0.3484 -0.4079
 4231SOL     OW24151   1.894   3.514  13.962  0.2944  0.5318 -0.2813
 4231SOL    HW124152   1.873   3.560  13.881 -1.7536 -2.9960 -1.7134
 4231SOL    HW224153   1.932   3.585  14.015  0.5092 -1.2200  1.9083
 4232SOL     OW24154   2.762   4.206  17.349 -0.2096  0.1140 -0.2470
 4232SOL    HW124155   2.802   4.124  17.377 -0.4760 -0.0311 -0.2864
 4232SOL    HW224156   2.680   4.169  17.314 -1.4264  2.7163 -0.1076
 4233SOL     OW24157   3.393   1.027   3.489  0.5563 -0.0326  0.1707
 4233SOL    HW124158   3.391   1.045   3.395 -0.7732 -0.2772  0.1587
 4233SOL    HW224159   3.365   1.110   3.528  3.5982  0.2174  1.8733
 4234SOL     OW24160   0.685   0.551   7.511 -0.4362 -0.0149  0.1255
 4234SOL    HW124161   0.772   0.521   7.483 -0.8274  1.3851 -2.5328
 4234SOL    HW224162   0.629   0.557   7.434 -0.8345 -0.0623  0.4140
 4235SOL     OW24163   2.420   1.188  17.093  0.5667 -0.2858 -0.1036
 4235SOL    HW124164   2.471   1.217  17.169  0.4580  3.0306 -1.3044
 4235SOL    HW224165   2.424   1.257  17.027 -2.3824 -0.2138 -0.1798
 4236SOL     OW24166   2.822   2.422  14.901  0.4871  0.1477 -0.0526
 4236SOL    HW124167   2.874   2.379  14.968 -0.7036  0.2217  0.9156
 4236SOL    HW224168   2.877   2.499  14.882  0.4098 -0.5961 -3.2741
 4237SOL     OW24169   1.189   0.752   7.229 -0.4269  0.5872 -0.1135
 4237SOL    HW124170   1.214   0.766   7.137  0.5445  0.5137  0.1382
 4237SOL    HW224171   1.130   0.827   7.232 -0.1984  0.7870 -0.5515
 4238SOL     OW24172   1.187   4.178  10.373  0.1106  0.2373 -0.0574
 4238SOL    HW124173   1.269   4.166  10.326 -0.8345 -0.7395 -1.4138
 4238SOL    HW224174   1.134   4.215  10.303  0.7957  1.3722  0.0139
 4239SOL     OW24175   2.960   3.394   2.540 -0.3787 -0.0617 -0.1168
 4239SOL    HW124176   3.009   3.474   2.558 -0.5850 -0.1748  0.9339
 4239SOL    HW224177   2.948   3.359   2.628  0.1196 -1.6333 -0.6665
 4240SOL     OW24178   3.947   4.245   5.941 -0.1607 -0.0961  0.2645
 4240SOL    HW124179   3.852   4.255   5.935  0.0393  2.2283  1.1310
 4240SOL    HW224180   3.954   4.305   6.015  0.5480 -0.3852  0.4249
 4241SOL     OW24181   1.045   2.496   7.496 -0.0265  0.0427 -0.0803
 4241SOL    HW124182   1.025   2.475   7.588  0.3887  3.1403  0.7307
 4241SOL    HW224183   0.963   2.538   7.470 -0.1862 -1.1927 -1.5536
 4242SOL     OW24184   4.482   1.530   7.747 -0.1066 -0.9012  0.2548
 4242SOL    HW124185   4.466   1.440   7.776  0.7682 -0.8722  0.8412
 4242SOL    HW224186   4.400   1.565   7.712  0.6713  2.5273  1.8194
 4243SOL     OW24187   4.464   0.794   4.078 -0.2329  0.7423 -0.4038
 4243SOL    HW124188   4.533   0.730   4.058 -0.4852  0.5372 -0.6252
 4243SOL    HW224189   4.390   0.734   4.087  0.1922  0.0833 -1.2400
 4244SOL     OW24190   2.303   4.719   6.509  0.5028  0.0692 -0.8267
 4244SOL    HW124191   2.255   4.657   6.453 -0.9435  1.2151 -0.8620
 4244SOL    HW224192   2.321   0.061   6.443 -0.9879 -0.1498 -1.4681
 4245SOL     OW24193   1.878   1.237   8.788 -0.0637 -0.3836  0.0216
 4245SOL    HW124194   1.890   1.257   8.695 -4.2373 -1.1483 -0.6636
 4245SOL    HW224195   1.968   1.242   8.821  0.0069  1.0234 -0.3696
 4246SOL     OW24196   0.698   4.291   4.108 -0.0481  0.3988 -0.2290
 4246SOL    HW124197   0.637   4.360   4.134 -3.3748 -1.1511 -3.9187
 4246SOL    HW224198   0.691   4.216   4.167  1.4127  0.7286  0.3439
 4247SOL     OW24199   4.473   2.364  14.602 -0.1039  0.5180  0.2801
 4247SOL    HW124200   4.389   2.401  14.574 -1.3219 -3.1443 -0.8321
 4247SOL    HW224201   4.436   2.295  14.657 -0.3958 -1.6866 -2.6591
 4248SOL     OW24202   0.739   3.497   7.079 -0.1856 -0.2832 -0.1340
 4248SOL    HW124203   0.817   3.506   7.134 -0.1191  0.4702 -0.3519
 4248SOL    HW224204   0.704   3.415   7.115 -1.9453 -0.3438 -1.9882
 4249SOL     OW24205   1.365   0.084   3.187  0.3638  0.0659 -0.1511
 4249SOL    HW124206   1.364   0.061   3.095 -0.6332  1.7739 -0.5759
 4249SOL    HW224207   1.278   0.055   3.215  1.2335 -0.7359  1.7686
 4250SOL     OW24208   0.271   1.802   4.503  0.0557  0.9154 -0.1753
 4250SOL    HW124209   0.190   1.799   4.451 -0.8306 -0.8090  1.3265
 4250SOL    HW224210   0.222   1.806   4.585 -1.9000  0.0762 -1.3133
 4251SOL     OW24211   0.696   3.857   4.439  0.2704 -0.3491 -0.4076
 4251SOL    HW124212   0.734   3.816   4.361  1.2328  0.6437 -0.4669
 4251SOL    HW224213   0.613   3.811   4.447  1.3951 -2.2739  0.0518
 4252SOL     OW24214   1.133   4.652   4.679 -0.1451 -0.2567  0.0223
 4252SOL    HW124215   1.228   4.656   4.665 -0.2230 -0.8704 -0.6726
 4252SOL    HW224216   1.109   4.597   4.605 -0.6342 -0.1038  0.0684
 4253SOL     OW24217   4.142   2.237   2.159  0.5897  0.1822 -0.2343
 4253SOL    HW124218   4.114   2.150   2.130  1.2323 -0.8629  2.3203
 4253SOL    HW224219   4.059   2.281   2.178 -0.0773 -0.7568 -0.9616
 4254SOL     OW24220   3.368   3.343   8.419 -0.1344 -0.7733  0.2236
 4254SOL    HW124221   3.402   3.288   8.490  1.0547 -0.2573  0.0591
 4254SOL    HW224222   3.296   3.394   8.455  1.2620  0.0154  1.9124
 4255SOL     OW24223   1.476   2.803   9.843 -0.1978 -0.2397  0.1336
 4255SOL    HW124224   1.459   2.817   9.936  2.5701 -0.5601  0.7125
 4255SOL    HW224225   1.405   2.861   9.817 -0.7848 -0.8161  0.4874
 4256SOL     OW24226   1.396   0.929   3.441 -0.6858 -0.3405 -0.0080
 4256SOL    HW124227   1.465   0.976   3.393 -2.5091  2.9555  0.5747
 4256SOL    HW224228   1.351   1.003   3.483  0.2766  0.4135 -0.3028
 4257SOL     OW24229   1.944   1.805   8.457  0.2125  0.1632 -0.1073
 4257SOL    HW124230   1.960   1.742   8.387 -1.9261  1.9359 -2.2149
 4257SOL    HW224231   2.030   1.846   8.467 -0.3783  1.2479  0.5334
 4258SOL     OW24232   4.103   1.262   9.659  0.2062 -0.3522 -0.2466
 4258SOL    HW124233   4.032   1.276   9.722 -0.3688  0.6220 -1.1073
 4258SOL    HW224234   4.117   1.169   9.675  2.8321  0.3578  1.5096
 4259SOL     OW24235   2.457   4.471   8.416 -0.1312 -0.0842  0.7585
 4259SOL    HW124236   2.428   4.480   8.507  1.1232 -0.3609  1.1799
 4259SOL    HW224237   2.482   4.379   8.407  0.0861 -0.0026  0.5294
 4260SOL     OW24238   0.648   0.333   8.881  0.1965 -0.1894 -0.5552
 4260SOL    HW124239   0.679   0.373   8.800 -1.5435  0.0875 -1.0762
 4260SOL    HW224240   0.685   0.246   8.891 -0.5049 -0.5329 -0.9509
 4261SOL     OW24241   0.607   2.734   3.993 -0.0974  0.1771  0.1395
 4261SOL    HW124242   0.587   2.665   4.057 -3.1462  1.6788  0.8109
 4261SOL    HW224243   0.678   2.688   3.950 -0.8682 -1.0115  0.1182
 4262SOL     OW24244   3.643   3.745  17.428  0.1128 -0.0558 -0.0585
 4262SOL    HW124245   3.603   3.658  17.425 -0.8910  0.2951  2.7700
 4262SOL    HW224246   3.736   3.723  17.428 -0.1538 -1.1586 -1.1676
 4263SOL     OW24247   4.665   3.033   3.139 -0.3266  0.0088 -0.3101
 4263SOL    HW124248   0.006   3.051   3.072  0.2706 -0.9965  0.0140
 4263SOL    HW224249   0.008   3.017   3.204 -0.1530 -0.1222 -0.5276
 4264SOL     OW24250   3.047   2.445   5.437  0.2012  0.0251 -0.2218
 4264SOL    HW124251   2.997   2.475   5.361  0.6198  1.7764  0.1965
 4264SOL    HW224252   3.099   2.375   5.397  2.1472  1.8311 -0.8295
 4265SOL     OW24253   0.336   4.652   7.778 -0.4742  0.7842 -0.4009
 4265SOL    HW124254   0.328   4.593   7.853 -0.0368  0.3273 -0.7136
 4265SOL    HW224255   0.246   4.656   7.747  0.5964  1.8328 -3.3551
 4266SOL     OW24256   1.915   1.951   4.085  0.3693 -0.2720  0.2960
 4266SOL    HW124257   1.839   1.929   4.139  2.8364 -2.2762  2.9272
 4266SOL    HW224258   1.962   2.000   4.153  0.5581 -0.9692  0.6698
 4267SOL     OW24259   3.222   0.030  10.695  0.3225  0.2360 -0.1684
 4267SOL    HW124260   3.226   0.125  10.706 -0.8703 -0.0473  2.6350
 4267SOL    HW224261   3.310   0.008  10.728  0.1113  0.3616  0.4805
 4268SOL     OW24262   3.199   2.405   6.112  0.3416 -0.5898  0.4943
 4268SOL    HW124263   3.196   2.501   6.113 -0.7483 -0.6003 -0.7195
 4268SOL    HW224264   3.106   2.381   6.114 -0.1618  1.1196 -1.3272
 4269SOL     OW24265   1.810   4.112   6.456  0.2134 -0.1812 -1.0049
 4269SOL    HW124266   1.760   4.164   6.520 -1.8526 -0.6162 -2.2787
 4269SOL    HW224267   1.812   4.024   6.493  1.0178 -0.5011 -1.8271
 4270SOL     OW24268   4.394   2.058   3.713  0.4164 -0.1195 -0.1416
 4270SOL    HW124269   4.467   2.109   3.678  2.2923 -1.9547  1.0808
 4270SOL    HW224270   4.347   2.046   3.631  1.4865  0.6048 -0.8635
 4271SOL     OW24271   2.376   2.726   6.840 -0.6118 -0.1739 -0.1240
 4271SOL    HW124272   2.426   2.737   6.920 -0.7196 -0.1543 -0.0602
 4271SOL    HW224273   2.287   2.756   6.856 -0.5145 -0.9786  1.8841
 4272SOL     OW24274   3.180   4.187   5.186  0.0736  0.6327 -0.5750
 4272SOL    HW124275   3.166   4.235   5.105 -3.1591 -1.7066 -1.3825
 4272SOL    HW224276   3.256   4.133   5.165  1.0606  1.9549 -0.4240
 4273SOL     OW24277   0.405   1.710   5.648  0.2841  0.2719 -0.1407
 4273SOL    HW124278   0.468   1.698   5.577 -0.9242  0.4013 -1.2328
 4273SOL    HW224279   0.405   1.805   5.653 -1.4439  0.1747  1.6635
 4274SOL     OW24280   0.793   1.008   6.764 -0.1176  1.0983  0.3569
 4274SOL    HW124281   0.791   1.071   6.692  0.2445 -1.3830 -1.8122
 4274SOL    HW224282   0.700   1.005   6.787 -0.2788 -0.8032 -0.5736
 4275SOL     OW24283   2.808   3.247   9.201 -0.1691 -0.1815 -0.0366
 4275SOL    HW124284   2.887   3.221   9.155 -0.3477  1.1488 -1.0837
 4275SOL    HW224285   2.785   3.162   9.240 -1.9632  0.3712  0.1114
 4276SOL     OW24286   0.867   1.252   6.519  0.0513 -0.6368 -0.0650
 4276SOL    HW124287   0.922   1.255   6.597  1.1262  4.0093 -0.9958
 4276SOL    HW224288   0.890   1.163   6.493 -0.6036 -0.8500  0.0899
 4277SOL     OW24289   2.135   1.384   4.185  0.0944  0.4068  0.4490
 4277SOL    HW124290   2.057   1.432   4.215 -1.3748 -2.1978  0.7968
 4277SOL    HW224291   2.193   1.400   4.260  1.7685  0.3137 -0.8266
 4278SOL     OW24292   0.910   2.463   4.311  0.0215  0.0805  0.4330
 4278SOL    HW124293   0.935   2.555   4.319  0.8482 -0.1334  0.2645
 4278SOL    HW224294   0.934   2.462   4.219  0.8855 -0.9199  0.6709
 4279SOL     OW24295   3.956   0.072   5.636  0.5455  0.6481 -0.1178
 4279SOL    HW124296   3.868   0.102   5.615 -0.3488 -1.7641  0.1706
 4279SOL    HW224297   3.985   0.051   5.547 -1.2415  0.1403 -0.5786
 4280SOL     OW24298   3.567   2.947   3.927  0.3868  0.2594  0.4546
 4280SOL    HW124299   3.634   3.002   3.886  1.1839 -1.2056 -0.2060
 4280SOL    HW224300   3.566   2.974   4.019  0.2867 -2.7435  1.3257
 4281SOL     OW24301   4.327   0.345   5.914 -0.1791 -0.5292 -0.2595
 4281SOL    HW124302   4.271   0.402   5.967  1.3151  1.2548 -0.6025
 4281SOL    HW224303   4.260   0.294   5.868  1.4509  0.8833 -4.1836
 4282SOL     OW24304   3.107   0.962  10.952 -0.3112 -0.3313 -0.0835
 4282SOL    HW124305   3.013   0.967  10.970  0.0664  0.3862  1.7382
 4282SOL    HW224306   3.132   0.912  11.030 -2.2197  0.1349  0.8363
 4283SOL     OW24307   2.875   3.425   6.761 -0.1568 -0.1674 -0.4692
 4283SOL    HW124308   2.798   3.433   6.817  0.2370 -0.3007  0.0848
 4283SOL    HW224309   2.932   3.491   6.800  0.4536 -1.5947  1.0617
 4284SOL     OW24310   1.064   2.134   5.242 -0.6162 -0.2118 -0.1884
 4284SOL    HW124311   1.047   2.216   5.195 -0.7397  0.5185  1.1244
 4284SOL    HW224312   1.159   2.123   5.233 -0.7628 -1.4880 -0.1140
 4285SOL     OW24313   3.132   0.669   7.135  0.1111  0.1374  0.2834
 4285SOL    HW124314   3.175   0.645   7.217  0.2587 -1.1533 -0.1729
 4285SOL    HW224315   3.106   0.758   7.157  1.0199  0.6727 -0.8206
 4286SOL     OW24316   4.638   2.474   5.010  0.0746 -0.9349  0.4279
 4286SOL    HW124317   4.652   2.404   4.947  2.5438 -0.3374  0.3196
 4286SOL    HW224318   4.589   2.544   4.966 -0.6100 -1.7095 -0.0399
 4287SOL     OW24319   1.063   4.697   7.478 -0.5087 -0.4301 -0.0667
 4287SOL    HW124320   1.125   4.668   7.411 -2.2724 -1.7452 -1.1402
 4287SOL    HW224321   0.997   4.629   7.493 -0.8817  0.4608  2.4022
 4288SOL     OW24322   2.060   4.250  10.037  0.7890  0.1631  0.5333
 4288SOL    HW124323   2.055   4.161  10.001 -0.7827  0.4624  0.0193
 4288SOL    HW224324   1.966   4.266  10.039  0.4684 -1.1059 -2.8638
 4289SOL     OW24325   0.452   3.079  11.749  0.2451 -0.1466  0.3508
 4289SOL    HW124326   0.385   3.147  11.754 -0.7252 -0.9149 -2.4075
 4289SOL    HW224327   0.484   3.100  11.661  0.5473  0.2589  0.5541
 4290SOL     OW24328   2.710   0.338   4.192 -0.2966 -0.2273  0.6743
 4290SOL    HW124329   2.651   0.296   4.254  0.8815 -0.2721  1.7739
 4290SOL    HW224330   2.763   0.263   4.163  0.4420  0.7139 -0.3863
 4291SOL     OW24331   1.751   0.546   7.193 -0.2248 -0.7421 -0.2422
 4291SOL    HW124332   1.709   0.529   7.277  0.6914  0.1772  0.4165
 4291SOL    HW224333   1.839   0.534   7.229  0.3891 -2.4622 -2.3247
 4292SOL     OW24334   2.921   2.377  16.912  0.1548  0.5093 -0.4746
 4292SOL    HW124335   2.849   2.407  16.966  0.8629 -0.8599  1.2394
 4292SOL    HW224336   3.001   2.412  16.951 -0.5802  0.0657  1.4164
 4293SOL     OW24337   2.861   3.974   8.784  0.7336 -0.4129 -0.1172
 4293SOL    HW124338   2.909   3.898   8.754 -0.2421 -0.0477 -2.5801
 4293SOL    HW224339   2.854   3.955   8.878 -3.3342  0.9544 -0.1164
 4294SOL     OW24340   1.890   0.183   8.233  0.1048  0.1352  1.0389
 4294SOL    HW124341   1.963   0.240   8.258  0.3292  0.6026 -0.6737
 4294SOL    HW224342   1.921   0.093   8.237 -0.6927 -0.1594  0.7658
 4295SOL     OW24343   4.083   2.181   5.921  0.1220  0.0910  0.1623
 4295SOL    HW124344   4.054   2.256   5.870 -0.2858 -0.2658 -0.1279
 4295SOL    HW224345   4.178   2.192   5.910  0.1877 -1.5044 -0.9235
 4296SOL     OW24346   0.266   1.862   5.394 -0.5043 -0.3331  0.0401
 4296SOL    HW124347   0.332   1.848   5.462 -1.7166 -2.1043  0.8488
 4296SOL    HW224348   0.322   1.850   5.318 -0.0133  2.5546 -0.0707
 4297SOL     OW24349   3.245   4.065   2.253 -0.3926 -0.0964 -0.1041
 4297SOL    HW124350   3.256   3.980   2.296  2.7991 -0.2777 -1.2717
 4297SOL    HW224351   3.161   4.063   2.207 -0.7215  1.3914  0.4423
 4298SOL     OW24352   1.165   1.030   7.269  0.1612 -0.5111 -0.1894
 4298SOL    HW124353   1.194   1.121   7.258 -0.9332 -0.1518 -0.1083
 4298SOL    HW224354   1.132   1.025   7.359  0.9739  0.0390  0.1420
 4299SOL     OW24355   4.691   1.941   8.603  0.1808  0.3386 -0.5806
 4299SOL    HW124356   4.676   1.996   8.680  1.3743 -0.8114  0.4714
 4299SOL    HW224357   0.045   1.889   8.616 -0.1072 -0.0316 -0.2894
 4300SOL     OW24358   0.590   4.052  16.088  0.2083 -0.2897  0.1777
 4300SOL    HW124359   0.629   3.977  16.042  1.9705 -0.2258  1.5690
 4300SOL    HW224360   0.659   4.050  16.155 -0.2375  1.2969  0.6922
 4301SOL     OW24361   2.371   2.972   4.001 -0.1129  0.6214 -0.1385
 4301SOL    HW124362   2.378   3.048   3.943  3.8374 -0.4949 -1.1068
 4301SOL    HW224363   2.313   2.911   3.954 -0.7613  0.8101  0.4082
 4302SOL     OW24364   0.043   3.005   4.480  0.1291  0.0238 -0.0062
 4302SOL    HW124365   0.012   3.024   4.392  0.7813 -0.1323 -0.2747
 4302SOL    HW224366   4.688   3.013   4.530 -0.5560  1.6218 -1.3827
 4303SOL     OW24367   0.129   2.474   6.412 -0.7544 -0.0369  0.3664
 4303SOL    HW124368   0.135   2.569   6.402 -0.7488  0.0272  0.9864
 4303SOL    HW224369   0.046   2.485   6.459 -1.8731 -1.6301 -1.2581
 4304SOL     OW24370   3.529   0.707  16.646  0.4135  0.2997  0.0913
 4304SOL    HW124371   3.609   0.666  16.612  0.1971  0.5029 -0.6818
 4304SOL    HW224372   3.476   0.704  16.566  0.9349 -2.0227 -0.1678
 4305SOL     OW24373   2.869   3.701   9.280 -0.0988 -0.3919  0.2090
 4305SOL    HW124374   2.963   3.684   9.280 -0.1779 -0.8169  1.2829
 4305SOL    HW224375   2.844   3.665   9.365  0.9258 -1.6200 -0.0164
 4306SOL     OW24376   4.166   1.321   1.395  0.2211  0.6204  0.5965
 4306SOL    HW124377   4.140   1.305   1.304  1.0710 -2.4513  0.8664
 4306SOL    HW224378   4.129   1.408   1.403 -1.0549  0.1809 -0.4724
 4307SOL     OW24379   2.596   1.851  12.008  0.0479 -0.0673  0.1094
 4307SOL    HW124380   2.615   1.941  11.982 -0.2560  0.2437  0.9645
 4307SOL    HW224381   2.685   1.829  12.034  0.0516  0.4499  0.5380
 4308SOL     OW24382   2.429   2.189   8.964 -0.5019 -0.5967  0.1378
 4308SOL    HW124383   2.514   2.234   8.972 -0.5798 -0.5969  0.9647
 4308SOL    HW224384   2.451   2.127   8.894  4.9280 -0.4177  1.6134
 4309SOL     OW24385   1.052   4.555   6.938  0.0678 -0.0349 -0.2197
 4309SOL    HW124386   0.976   4.505   6.966 -0.6023  0.9098 -0.3617
 4309SOL    HW224387   1.024   4.634   6.984  1.2585  0.8805 -1.0484
 4310SOL     OW24388   1.044   1.476  10.751 -0.4850 -0.0614  0.6943
 4310SOL    HW124389   1.013   1.456  10.839 -0.2616 -0.0916  0.7646
 4310SOL    HW224390   1.077   1.565  10.759 -1.7512  0.3389  1.4295
 4311SOL     OW24391   2.767   4.164  13.217 -0.0230 -0.2836  0.0800
 4311SOL    HW124392   2.715   4.229  13.168 -0.0465  0.5558  1.2224
 4311SOL    HW224393   2.712   4.142  13.292  1.3673  0.2866  1.2667
 4312SOL     OW24394   1.675   4.296  11.334  0.0837 -0.4494  0.1462
 4312SOL    HW124395   1.737   4.345  11.280  0.4485 -0.5001  0.5140
 4312SOL    HW224396   1.734   4.260  11.400 -0.4818  1.4757  1.7231
 4313SOL     OW24397   3.538   2.454  17.238  0.6882  0.1410  0.1790
 4313SOL    HW124398   3.470   2.471  17.173 -0.0826 -3.0258  0.1676
 4313SOL    HW224399   3.596   2.529  17.220  0.1023 -0.1679 -3.0399
 4314SOL     OW24400   4.593   2.639   2.799  0.4472  0.1597  0.2308
 4314SOL    HW124401   4.577   2.692   2.877 -2.8523  1.1168 -1.0836
 4314SOL    HW224402   4.657   2.579   2.838  1.3608 -0.0628 -1.6086
 4315SOL     OW24403   1.953   4.250   9.249  0.1826 -0.2492  0.0419
 4315SOL    HW124404   1.889   4.276   9.182 -0.9261 -1.3724  0.6587
 4315SOL    HW224405   2.005   4.329   9.261  2.4172 -1.5544 -1.2620
 4316SOL     OW24406   0.354   4.615   6.278 -0.0864  0.4008  0.1815
 4316SOL    HW124407   0.384   4.627   6.188 -1.0502  1.1853 -0.0301
 4316SOL    HW224408   0.303   4.696   6.285  1.5481  1.3820  0.7348
 4317SOL     OW24409   2.953   2.588   8.495 -0.0481 -0.5187  0.5697
 4317SOL    HW124410   2.884   2.522   8.491  0.5990 -1.0903 -1.5422
 4317SOL    HW224411   3.006   2.578   8.416 -1.1490  1.4021 -0.4192
 4318SOL     OW24412   0.107   2.475  12.879  0.0885 -0.0452 -0.7775
 4318SOL    HW124413   0.044   2.524  12.931 -0.2864  0.8260 -2.0695
 4318SOL    HW224414   0.095   2.525  12.799 -1.4271 -1.0754 -1.1958
 4319SOL     OW24415   1.445   1.076   3.052 -0.4283  0.0990  0.3096
 4319SOL    HW124416   1.458   0.983   3.068  0.6354  0.4751  1.6274
 4319SOL    HW224417   1.486   1.111   3.132  1.3989 -0.6914 -0.2759
 4320SOL     OW24418   2.862   1.804   5.033  0.0483  0.1364  0.6960
 4320SOL    HW124419   2.790   1.761   4.986  0.7678 -1.3807  0.9939
 4320SOL    HW224420   2.878   1.736   5.098 -1.0684  0.6683  1.5246
 4321SOL     OW24421   2.009   4.623   2.437 -0.2093 -0.0992  0.3567
 4321SOL    HW124422   2.062   4.626   2.357  0.9230  3.6409  1.2620
 4321SOL    HW224423   1.948   4.552   2.413 -1.2801  0.9778 -0.1041
 4322SOL     OW24424   4.053   0.460   5.050 -0.3709  0.0767  0.2808
 4322SOL    HW124425   4.061   0.521   5.123 -0.7487  0.7385 -0.2297
 4322SOL    HW224426   3.957   0.459   5.048 -0.3765  0.3457  0.4359
 4323SOL     OW24427   1.067   0.177   9.094 -0.0768  0.4001 -0.1850
 4323SOL    HW124428   1.000   0.117   9.062  0.0402  0.6502 -0.9205
 4323SOL    HW224429   1.095   0.216   9.011  0.8187  2.9133  1.3062
 4324SOL     OW24430   3.363   4.003   4.379 -0.4715 -0.8336 -0.0640
 4324SOL    HW124431   3.333   4.008   4.469  0.9940  0.8274  0.3397
 4324SOL    HW224432   3.354   3.909   4.365  0.3208 -0.9454  0.1292
 4325SOL     OW24433   2.851   3.795   3.702  0.2947  0.0172 -0.7220
 4325SOL    HW124434   2.883   3.885   3.702  0.4229 -0.0369  1.0564
 4325SOL    HW224435   2.759   3.806   3.677  0.2037 -0.7026 -0.6880
 4326SOL     OW24436   0.599   3.560   9.039 -0.0193  0.4127 -0.2118
 4326SOL    HW124437   0.522   3.512   9.010  0.8626  0.0049 -1.8633
 4326SOL    HW224438   0.627   3.590   8.953 -0.7511 -0.3934 -0.7242
 4327SOL     OW24439   4.090   0.270  15.899  0.3706 -0.2203  0.9099
 4327SOL    HW124440   4.103   0.178  15.875  0.1063  0.0366 -0.2426
 4327SOL    HW224441   4.178   0.304  15.880 -0.6432  1.2110 -1.2132
 4328SOL     OW24442   3.139   1.204   9.463 -0.5704  0.0310 -0.5922
 4328SOL    HW124443   3.095   1.199   9.378 -0.9147 -1.8902 -0.3106
 4328SOL    HW224444   3.210   1.267   9.456 -0.3597 -0.3838 -2.1009
 4329SOL     OW24445   0.776   2.895  11.837  0.2932 -0.7517 -0.6715
 4329SOL    HW124446   0.764   2.920  11.928  1.9035 -1.7599 -0.1631
 4329SOL    HW224447   0.734   2.809  11.835 -0.0042 -0.5953 -1.2149
 4330SOL     OW24448   4.619   3.753  15.241  0.5577 -0.0775 -0.2172
 4330SOL    HW124449   4.686   3.810  15.279 -1.2900  1.9387  0.0219
 4330SOL    HW224450   4.665   3.721  15.164  0.0304 -1.2001 -0.0760
 4331SOL     OW24451   3.336   1.562   0.202 -0.0637 -0.3801 -0.1950
 4331SOL    HW124452   3.382   1.646   0.197 -0.0318 -0.4477 -1.0324
 4331SOL    HW224453   3.400   1.495   0.176  2.6480  2.3959 -0.7429
 4332SOL     OW24454   4.636   1.265   4.644  0.0247 -0.6569 -0.6663
 4332SOL    HW124455   4.644   1.339   4.705  0.1914 -0.9842 -0.2935
 4332SOL    HW224456   4.565   1.216   4.684 -1.5704  1.7391 -0.5722
 4333SOL     OW24457   2.757   0.778   4.869  0.3439  0.0721  0.4132
 4333SOL    HW124458   2.754   0.771   4.964  0.8428 -1.9610  0.2750
 4333SOL    HW224459   2.767   0.873   4.860 -0.7445  0.2045  0.6234
 4334SOL     OW24460   3.051   4.304   4.495 -0.1152 -0.4389  0.3299
 4334SOL    HW124461   3.094   4.375   4.542  3.1026 -2.4822  0.5080
 4334SOL    HW224462   3.037   4.243   4.568 -0.2608 -0.0151  0.6578
 4335SOL     OW24463   4.110   2.120   1.868 -0.0587 -0.8687 -0.3257
 4335SOL    HW124464   4.178   2.091   1.807 -0.9456  1.2692 -2.3039
 4335SOL    HW224465   4.041   2.140   1.805  0.9029 -0.0332 -1.1025
 4336SOL     OW24466   2.389   4.652   7.764  0.3754  0.8702 -0.1798
 4336SOL    HW124467   2.322   4.680   7.826 -2.1164  0.2042 -2.6135
 4336SOL    HW224468   2.470   4.662   7.815 -0.3687 -0.7217  1.3038
 4337SOL     OW24469   3.881   3.663   5.112 -0.0142 -0.0614 -0.0096
 4337SOL    HW124470   3.835   3.580   5.099  2.3950 -1.3098 -0.5196
 4337SOL    HW224471   3.821   3.708   5.172  1.0307 -0.7261  1.5324
 4338SOL     OW24472   2.428   3.121  13.393 -0.1431  0.3831 -0.0485
 4338SOL    HW124473   2.486   3.081  13.328 -0.4542  0.1078 -0.1581
 4338SOL    HW224474   2.465   3.100  13.479  0.3734  0.6175 -0.2106
 4339SOL     OW24475   2.253   3.927   8.723  0.0498 -0.9378 -0.1885
 4339SOL    HW124476   2.196   3.978   8.781 -1.8009 -0.7848 -2.1415
 4339SOL    HW224477   2.182   3.871   8.690 -0.1846 -0.5625 -0.3232
 4340SOL     OW24478   3.174   2.034   8.181 -0.1252  0.2343  0.3555
 4340SOL    HW124479   3.222   2.112   8.207 -0.3177  1.4711 -3.0459
 4340SOL    HW224480   3.123   2.080   8.115 -0.4142 -2.5329 -1.3944
 4341SOL     OW24481   1.811   0.171   3.389 -0.0730  0.4498  0.1167
 4341SOL    HW124482   1.807   0.079   3.417  0.0357  0.4176  0.0223
 4341SOL    HW224483   1.813   0.165   3.294 -0.1569 -0.1272  0.1506
 4342SOL     OW24484   1.306   0.044   8.774  0.1038 -0.0783  0.0218
 4342SOL    HW124485   1.248   0.117   8.795  0.1728  0.4768 -1.7340
 4342SOL    HW224486   1.267   4.700   8.827  0.1288  1.1840  1.6979
 4343SOL     OW24487   2.447   2.080  10.041 -0.1225  0.0236 -0.2861
 4343SOL    HW124488   2.539   2.056  10.053 -0.5273 -0.1014  2.4423
 4343SOL    HW224489   2.391   2.023  10.095  0.4203  1.4327  1.7494
 4344SOL     OW24490   3.795   2.200   5.246  0.4207 -0.3792 -0.1032
 4344SOL    HW124491   3.768   2.143   5.174  0.1705 -0.0408 -0.2775
 4344SOL    HW224492   3.753   2.152   5.318 -2.7850 -0.9882 -2.3734
 4345SOL     OW24493   0.307   0.844   7.097 -0.1301  0.3102  0.2889
 4345SOL    HW124494   0.227   0.863   7.048  0.9000  2.8434 -0.4204
 4345SOL    HW224495   0.307   0.907   7.169 -0.4251  0.7099 -0.0631
 4346SOL     OW24496   2.505   4.268  10.146  0.7913  0.0187 -0.5850
 4346SOL    HW124497   2.498   4.179  10.180  0.9030  0.1965 -0.0848
 4346SOL    HW224498   2.428   4.304  10.190 -1.1922 -2.3973 -2.0973
 4347SOL     OW24499   2.262   4.012   6.949 -0.4479  0.3274  0.3351
 4347SOL    HW124500   2.170   4.014   6.922  0.1725 -0.5461 -1.7796
 4347SOL    HW224501   2.311   4.032   6.869 -1.1952  1.2709  0.1054
 4348SOL     OW24502   1.617   2.248   3.770 -0.5069 -0.2376 -0.3307
 4348SOL    HW124503   1.653   2.252   3.681  1.1081 -0.8553  0.2862
 4348SOL    HW224504   1.638   2.156   3.782  0.0751  0.3866  3.6864
 4349SOL     OW24505   2.626   0.748   4.340 -0.2123  0.0961 -0.1109
 4349SOL    HW124506   2.654   0.762   4.431 -0.0776 -1.4196  0.0894
 4349SOL    HW224507   2.702   0.699   4.308  0.7899  0.9122  1.0317
 4350SOL     OW24508   1.955   1.493   6.833  0.1300  0.1981  0.2466
 4350SOL    HW124509   1.914   1.494   6.920  0.2690  0.1101  0.3142
 4350SOL    HW224510   1.884   1.453   6.784 -0.6712  0.0822  1.4856
 4351SOL     OW24511   0.975   0.570   7.829 -0.0523  0.3454  0.0761
 4351SOL    HW124512   0.946   0.597   7.916  0.3568  0.0548  0.3032
 4351SOL    HW224513   0.911   0.499   7.819  0.4570  0.1340 -1.6860
 4352SOL     OW24514   0.407   1.446  13.425  0.0137 -0.0359 -0.8473
 4352SOL    HW124515   0.377   1.406  13.344  0.4354 -0.7300 -0.6632
 4352SOL    HW224516   0.328   1.486  13.462  0.9552  0.4848  0.6023
 4353SOL     OW24517   2.451   3.492  17.569 -0.1112 -0.2321 -0.0731
 4353SOL    HW124518   2.463   3.417  17.628 -0.2631 -0.6701 -0.5942
 4353SOL    HW224519   2.543   3.490  17.542  0.2562 -1.0785  1.2067
 4354SOL     OW24520   3.424   1.895  12.425 -0.0564  0.2832  0.0094
 4354SOL    HW124521   3.481   1.844  12.483  1.4896  0.5969 -1.2339
 4354SOL    HW224522   3.408   1.833  12.354 -1.6554 -0.6855  1.2235
 4355SOL     OW24523   3.433   0.982   7.945 -0.0304  0.2600 -0.0419
 4355SOL    HW124524   3.509   0.981   8.003  0.1266  2.8105 -0.1952
 4355SOL    HW224525   3.478   1.025   7.873 -2.9044 -0.9967 -2.6009
 4356SOL     OW24526   1.798   4.162   7.978 -0.1096 -0.0213  0.2562
 4356SOL    HW124527   1.775   4.196   8.064  1.4266 -1.1379  1.1002
 4356SOL    HW224528   1.709   4.144   7.945  0.0767  0.7626 -0.6841
 4357SOL     OW24529   1.284   1.648   4.615  0.6582  0.2038 -0.0222
 4357SOL    HW124530   1.318   1.704   4.545 -0.3242  1.1687  0.2755
 4357SOL    HW224531   1.192   1.640   4.593  0.8647 -0.1984 -0.7435
 4358SOL     OW24532   4.190   3.519   9.370  0.2049 -0.0327  0.7934
 4358SOL    HW124533   4.204   3.427   9.393 -0.0602 -1.0032 -3.0390
 4358SOL    HW224534   4.108   3.538   9.415 -0.3049  0.5233 -0.3944
 4359SOL     OW24535   4.333   2.289  16.194  0.2761 -0.1530 -0.3935
 4359SOL    HW124536   4.282   2.250  16.122 -0.1352 -1.3726  0.5526
 4359SOL    HW224537   4.344   2.380  16.165  1.9406 -0.7224 -1.5357
 4360SOL     OW24538   3.335   1.698   6.436 -0.3467 -0.1163  0.1619
 4360SOL    HW124539   3.244   1.724   6.420 -0.7982 -3.3344 -2.4025
 4360SOL    HW224540   3.348   1.719   6.529  1.4575  1.1027 -0.3685
 4361SOL     OW24541   1.874   4.017   1.457  0.4171 -0.3021  0.1838
 4361SOL    HW124542   1.804   4.081   1.445  0.4950 -0.2323  0.1043
 4361SOL    HW224543   1.829   3.942   1.496  1.9810 -0.6711  1.3102
 4362SOL     OW24544   1.758   3.996  10.270 -0.1873 -0.0385 -0.2237
 4362SOL    HW124545   1.723   4.052  10.201 -1.2443  0.1159  0.4305
 4362SOL    HW224546   1.720   3.914  10.237 -0.2314  0.7065 -2.0252
 4363SOL     OW24547   3.444   2.251   3.136 -0.0491 -0.2558 -0.2301
 4363SOL    HW124548   3.477   2.185   3.076  0.8371 -1.2853  1.3947
 4363SOL    HW224549   3.519   2.308   3.152 -0.6633  0.2778  0.7957
 4364SOL     OW24550   3.863   0.054   2.171 -0.4434 -0.1380 -0.1577
 4364SOL    HW124551   3.833   0.044   2.081 -0.9844 -0.0437  0.0136
 4364SOL    HW224552   3.903   0.141   2.163  0.5501 -0.6430 -0.7221
 4365SOL     OW24553   3.439   2.863   3.398  0.0739 -0.7754 -0.0464
 4365SOL    HW124554   3.357   2.901   3.430  0.3142 -1.2091  1.0737
 4365SOL    HW224555   3.484   2.946   3.408 -1.5408  0.0339  0.5021
 4366SOL     OW24556   3.119   3.629   9.205  0.0090  0.6658  0.2935
 4366SOL    HW124557   3.130   3.555   9.144 -1.0773  0.1001  0.8067
 4366SOL    HW224558   3.208   3.650   9.235 -0.5702  2.3406  0.7990
 4367SOL     OW24559   2.158   1.965  17.152 -0.4333 -0.2526 -0.0423
 4367SOL    HW124560   2.223   1.923  17.209 -0.5422 -0.0874  0.2053
 4367SOL    HW224561   2.093   1.898  17.174  0.2081 -1.0211 -0.4795
 4368SOL     OW24562   0.441   4.245   2.533 -0.2521 -0.5218  0.2584
 4368SOL    HW124563   0.534   4.261   2.516 -0.8630  2.7826  0.1292
 4368SOL    HW224564   0.408   4.306   2.467 -0.6043 -2.3245 -1.2219
 4369SOL     OW24565   4.114   4.150   2.938  0.6699 -0.4204  0.2359
 4369SOL    HW124566   4.199   4.160   2.981  0.8208 -0.4327 -0.0562
 4369SOL    HW224567   4.115   4.056   2.919  0.5963 -0.5819  1.0296
 4370SOL     OW24568   1.449   1.299   8.592  0.0081 -0.3278  0.6207
 4370SOL    HW124569   1.479   1.212   8.566 -1.8553 -0.6586 -0.4348
 4370SOL    HW224570   1.528   1.333   8.634 -1.1542  2.0235  0.9323
 4371SOL     OW24571   0.984   1.021   4.078  0.2172 -0.4658 -0.8347
 4371SOL    HW124572   1.069   1.029   4.122 -0.8097  1.1945  0.8215
 4371SOL    HW224573   0.998   0.935   4.037 -0.9904 -1.3431  0.5802
 4372SOL     OW24574   2.269   3.639   3.447  0.5565  0.6461  0.5429
 4372SOL    HW124575   2.178   3.616   3.431  1.3854 -2.2755  0.0633
 4372SOL    HW224576   2.266   3.725   3.489 -2.8679  1.3226 -1.1494
 4373SOL     OW24577   2.128   4.678  12.629 -0.2701  0.5216  0.1487
 4373SOL    HW124578   2.195   0.004  12.675  1.3291 -0.4415 -1.1021
 4373SOL    HW224579   2.064   4.662  12.698 -0.1595  1.0402  0.3813
 4374SOL     OW24580   1.680   0.226  12.919 -0.1489 -0.3072 -0.2561
 4374SOL    HW124581   1.743   0.188  12.981 -1.3503  0.0460  1.1714
 4374SOL    HW224582   1.686   0.165  12.846 -0.7395 -0.1588 -0.4220
 4375SOL     OW24583   1.460   2.744  10.549 -0.1588  0.0152 -0.0890
 4375SOL    HW124584   1.552   2.753  10.573 -0.8535  3.0602  1.3209
 4375SOL    HW224585   1.450   2.810  10.480  1.2410  1.1633  0.8004
 4376SOL     OW24586   1.142   1.978   8.062  0.4632  0.2985 -0.1422
 4376SOL    HW124587   1.219   1.951   8.112  0.4322 -1.0771 -0.8457
 4376SOL    HW224588   1.077   1.992   8.132  1.5313 -1.5100  1.2046
 4377SOL     OW24589   1.751   2.914  11.313 -0.6492 -0.1747  0.2606
 4377SOL    HW124590   1.813   2.851  11.275  0.0827 -0.1764  1.4420
 4377SOL    HW224591   1.798   2.993  11.286  1.8554 -1.7721 -0.1447
 4378SOL     OW24592   4.151   0.627   6.971 -0.0688  0.4183 -0.4125
 4378SOL    HW124593   4.206   0.618   6.894  0.6495  1.9142 -0.0781
 4378SOL    HW224594   4.067   0.585   6.952 -1.5226  2.0213  2.5617
 4379SOL     OW24595   4.041   2.659   9.808 -0.4085 -0.2089 -0.3599
 4379SOL    HW124596   4.070   2.586   9.754  0.5857  1.0694 -1.5616
 4379SOL    HW224597   4.119   2.711   9.827  0.5031 -1.9709  0.6417
 4380SOL     OW24598   1.539   1.135  15.050 -0.1830 -0.2276 -0.0649
 4380SOL    HW124599   1.602   1.117  15.119 -1.6314 -0.8598  1.0785
 4380SOL    HW224600   1.559   1.226  15.027 -1.0708  0.2073  0.8821
 4381SOL     OW24601   1.571   4.704   6.148  0.2268 -0.5394  0.1815
 4381SOL    HW124602   1.484   4.724   6.114 -0.9020 -2.4618  1.9310
 4381SOL    HW224603   1.547   0.005   6.237  2.3298  2.0734 -0.0339
 4382SOL     OW24604   3.510   3.598   3.403 -0.2270  0.2418 -0.1008
 4382SOL    HW124605   3.454   3.520   3.393 -0.5404  0.2443  1.7098
 4382SOL    HW224606   3.488   3.613   3.495 -1.9621 -0.3455 -0.4065
 4383SOL     OW24607   0.417   1.088   9.006  0.6724 -0.2665  0.3923
 4383SOL    HW124608   0.412   1.007   9.057 -0.0269  1.3458  2.8757
 4383SOL    HW224609   0.369   1.137   9.072  0.6851 -3.2430  2.6190
 4384SOL     OW24610   2.969   4.151  13.031 -0.1986  0.1506 -0.1772
 4384SOL    HW124611   2.964   4.245  13.014 -1.4674 -0.0046 -0.6527
 4384SOL    HW224612   2.899   4.140  13.094 -1.0031  0.7722 -0.9655
 4385SOL     OW24613   0.804   1.027   2.574  0.7776 -0.0408  0.5545
 4385SOL    HW124614   0.738   1.085   2.613  0.1856 -0.5352  0.2855
 4385SOL    HW224615   0.858   1.001   2.649  1.5736  0.9127  0.3180
 4386SOL     OW24616   4.001   1.077   4.478 -0.1274  0.0921  0.2432
 4386SOL    HW124617   4.012   0.989   4.512  1.1128 -0.1488 -0.7846
 4386SOL    HW224618   4.084   1.116   4.506 -0.4355  0.2548  0.9288
 4387SOL     OW24619   3.692   1.887   3.336  0.4066 -0.5497  0.3407
 4387SOL    HW124620   3.650   1.960   3.383  0.0160  0.4873 -1.6305
 4387SOL    HW224621   3.766   1.936   3.299  0.3105 -1.2887 -0.8228
 4388SOL     OW24622   1.976   0.743   3.960  0.2374 -0.6001 -0.2650
 4388SOL    HW124623   1.906   0.692   3.919  0.2581 -1.6636  1.0210
 4388SOL    HW224624   1.985   0.701   4.046  0.7762  0.1880  0.0614
 4389SOL     OW24625   1.717   2.435   4.232  0.4885 -0.2542 -1.0408
 4389SOL    HW124626   1.727   2.405   4.142  3.2737 -1.0443 -0.4890
 4389SOL    HW224627   1.802   2.476   4.250  0.3612  0.1835 -1.4542
 4390SOL     OW24628   0.626   2.481   6.430  0.7001 -0.4181  0.6114
 4390SOL    HW124629   0.653   2.537   6.358 -0.7104 -0.0435  0.3744
 4390SOL    HW224630   0.577   2.542   6.486 -0.2843  0.5874 -1.3796
 4391SOL     OW24631   3.644   1.469  13.058 -0.0410  0.3967 -0.7398
 4391SOL    HW124632   3.575   1.406  13.039  1.4678 -1.6055  0.3814
 4391SOL    HW224633   3.634   1.484  13.152  1.2102 -2.7608 -0.0989
 4392SOL     OW24634   4.307   2.090   7.117 -0.0684  0.6033  0.0814
 4392SOL    HW124635   4.265   2.005   7.109 -0.7987  1.2298 -2.6943
 4392SOL    HW224636   4.400   2.070   7.114 -0.2690 -0.0892 -1.3358
 4393SOL     OW24637   0.408   3.263  17.200  0.1784 -0.5343  0.0041
 4393SOL    HW124638   0.472   3.236  17.134  0.6200  0.9927 -0.2035
 4393SOL    HW224639   0.356   3.183  17.211  1.1367 -1.3139 -1.1398
 4394SOL     OW24640   0.390   0.090   9.079  0.0092  0.0707 -0.0509
 4394SOL    HW124641   0.396   0.040   8.998 -0.3616  1.1023 -0.7201
 4394SOL    HW224642   0.304   0.063   9.111  0.9132 -1.3295  1.1669
 4395SOL     OW24643   0.280   3.714   6.294 -0.5352 -0.5291  0.2862
 4395SOL    HW124644   0.232   3.783   6.338 -1.5182 -0.5800 -0.7195
 4395SOL    HW224645   0.342   3.697   6.365  1.2166 -0.9827 -1.3302
 4396SOL     OW24646   0.218   3.032  14.126  0.3205  0.0892 -0.0354
 4396SOL    HW124647   0.302   2.998  14.096 -0.1490 -2.1337  1.1825
 4396SOL    HW224648   0.234   3.101  14.190 -0.5845  0.0800  0.1992
 4397SOL     OW24649   1.775   2.176   6.422 -0.3904  0.0548  0.2013
 4397SOL    HW124650   1.746   2.255   6.468  0.5131 -0.2676  1.3468
 4397SOL    HW224651   1.765   2.196   6.329  0.3890 -0.2906  0.0451
 4398SOL     OW24652   3.469   3.612   4.152  0.0780 -0.4353  1.1067
 4398SOL    HW124653   3.494   3.640   4.064 -0.9002  0.6425  1.1658
 4398SOL    HW224654   3.517   3.529   4.153 -0.6807 -0.8975 -0.5729
 4399SOL     OW24655   4.117   4.529  13.629  0.1136  0.1946 -0.0443
 4399SOL    HW124656   4.062   4.582  13.687 -1.4954 -1.0621 -0.4100
 4399SOL    HW224657   4.051   4.466  13.600  1.1829 -0.5319 -0.8983
 4400SOL     OW24658   0.695   1.282   4.006 -0.0625 -0.3126 -0.0644
 4400SOL    HW124659   0.679   1.376   4.001  0.4951 -0.2236 -0.1750
 4400SOL    HW224660   0.782   1.278   4.046 -0.7926 -0.7354  1.4849
 4401SOL     OW24661   1.372   0.399   7.058 -0.5650  0.3211  0.2014
 4401SOL    HW124662   1.450   0.395   7.001 -3.0104  1.2957 -3.2245
 4401SOL    HW224663   1.408   0.414   7.145  0.5582 -1.0514 -0.0147
 4402SOL     OW24664   3.105   1.651   3.655  0.2257  0.4546 -0.0217
 4402SOL    HW124665   3.022   1.699   3.648  0.6683  0.9840 -1.4446
 4402SOL    HW224666   3.118   1.647   3.750  1.2360  0.4304 -0.1674
 4403SOL     OW24667   2.559   3.652   6.438  0.2843  0.0839  0.1029
 4403SOL    HW124668   2.595   3.573   6.477 -0.3274  0.0324  0.5708
 4403SOL    HW224669   2.482   3.603   6.408  1.1233 -1.5914  0.7327
 4404SOL     OW24670   1.670   4.054   5.497 -0.3346  0.1519 -0.7476
 4404SOL    HW124671   1.603   4.020   5.438 -3.5895  3.8322  0.8733
 4404SOL    HW224672   1.619   4.128   5.530 -1.9395 -0.3116 -2.2017
 4405SOL     OW24673   2.839   0.447  12.222  0.2192 -0.7104  0.4724
 4405SOL    HW124674   2.834   0.540  12.203  1.0231 -0.8490 -0.4631
 4405SOL    HW224675   2.754   0.428  12.182  0.1567 -0.6130  0.5596
 4406SOL     OW24676   3.584   2.518   6.179  0.5706  0.7283  0.5576
 4406SOL    HW124677   3.633   2.545   6.101  0.3800  1.0398  0.5478
 4406SOL    HW224678   3.616   2.582   6.241  1.4842  0.5090  0.3158
 4407SOL     OW24679   0.607   2.068   3.624 -0.1797  0.6463 -0.0431
 4407SOL    HW124680   0.676   2.116   3.577  0.9398 -2.5779 -1.7034
 4407SOL    HW224681   0.635   1.977   3.614  0.9607  0.9483  0.4051
 4408SOL     OW24682   0.709   4.156   7.227  0.0655  0.2302  0.5922
 4408SOL    HW124683   0.740   4.085   7.284 -1.4951 -1.2109 -0.3694
 4408SOL    HW224684   0.672   4.213   7.294 -0.4993 -0.2250  0.6732
 4409SOL     OW24685   3.192   0.861   3.534 -0.1862 -0.0426 -0.1179
 4409SOL    HW124686   3.204   0.831   3.624  0.0281 -1.9092 -0.7747
 4409SOL    HW224687   3.270   0.916   3.520 -0.7259  1.3283  2.3340
 4410SOL     OW24688   1.853   3.816   8.060 -0.3802 -0.8123  0.2909
 4410SOL    HW124689   1.929   3.762   8.082  1.1728  1.0943 -0.3526
 4410SOL    HW224690   1.864   3.802   7.965 -0.3347  1.4546 -0.0237
 4411SOL     OW24691   0.746   0.820   5.426  0.0789  0.3613  0.4062
 4411SOL    HW124692   0.719   0.812   5.518  0.7146  3.5417  0.8659
 4411SOL    HW224693   0.676   0.771   5.382  0.5888 -0.7994  0.8664
 4412SOL     OW24694   0.274   4.061   2.639 -0.6453  0.2639 -0.4899
 4412SOL    HW124695   0.334   4.117   2.589  0.1043 -0.7214 -0.6934
 4412SOL    HW224696   0.233   4.124   2.698 -1.3280 -0.6354 -0.0035
 4413SOL     OW24697   0.297   3.887   9.266  0.6142 -0.4390 -0.1070
 4413SOL    HW124698   0.266   3.811   9.217 -0.0466 -0.0098 -0.3510
 4413SOL    HW224699   0.214   3.934   9.275  1.0288  0.7007 -2.3544
 4414SOL     OW24700   3.180   3.173   7.010  0.1503 -0.1981  0.7924
 4414SOL    HW124701   3.114   3.196   7.076 -2.1762 -2.2903 -0.8179
 4414SOL    HW224702   3.125   3.188   6.933  2.1925 -0.5182 -0.7073
 4415SOL     OW24703   3.525   4.624   2.163  0.3515  0.6514 -0.0350
 4415SOL    HW124704   3.463   4.589   2.226  2.6686 -2.2734  0.6014
 4415SOL    HW224705   3.564   4.548   2.121  2.2402  1.3160  0.4925
 4416SOL     OW24706   2.436   0.362   9.671  0.0694 -0.1266 -0.1139
 4416SOL    HW124707   2.384   0.420   9.615 -2.1216 -3.3936 -1.4268
 4416SOL    HW224708   2.394   0.279   9.646 -1.0044  0.9055 -1.7845
 4417SOL     OW24709   4.349   3.054  15.419 -0.6461 -0.1631  0.0006
 4417SOL    HW124710   4.303   3.127  15.461 -1.7704 -0.3175 -0.9471
 4417SOL    HW224711   4.359   3.095  15.333  0.2271  0.8514  0.5934
 4418SOL     OW24712   3.055   0.818   5.824  0.0895 -0.4723 -0.3721
 4418SOL    HW124713   3.066   0.758   5.898 -2.9864 -0.7707 -0.1503
 4418SOL    HW224714   2.964   0.847   5.827  0.3949  0.6052 -1.6309
 4419SOL     OW24715   1.895   0.608   2.690 -0.2235 -0.2131 -0.4895
 4419SOL    HW124716   1.912   0.684   2.745 -3.0843 -0.0111  0.0792
 4419SOL    HW224717   1.861   0.545   2.753 -2.5150 -0.8186 -2.3570
 4420SOL     OW24718   0.656   4.062   5.905 -0.0363 -0.2558  0.2565
 4420SOL    HW124719   0.574   4.068   5.953 -0.0963  0.4722  0.0628
 4420SOL    HW224720   0.636   4.000   5.835  0.5936 -1.6207  1.2837
 4421SOL     OW24721   1.475   1.584  11.556  0.0870 -0.1848  0.6450
 4421SOL    HW124722   1.564   1.614  11.576 -0.8703  1.8694  1.7894
 4421SOL    HW224723   1.483   1.490  11.571  3.9308  0.1039  0.4038
 4422SOL     OW24724   3.068   0.173   8.642 -0.7295 -0.5145  0.0154
 4422SOL    HW124725   3.025   0.259   8.642 -2.8243 -1.5434 -1.9604
 4422SOL    HW224726   3.000   0.105   8.638 -0.2888 -0.9267 -0.6188
 4423SOL     OW24727   3.573   0.504  16.019  0.3818 -0.1067 -0.1762
 4423SOL    HW124728   3.647   0.558  16.047  1.3225 -2.2869  1.5883
 4423SOL    HW224729   3.514   0.580  16.019  0.1552 -0.2904 -1.4289
 4424SOL     OW24730   2.005   0.185   9.471  0.5850 -0.2450 -0.3405
 4424SOL    HW124731   2.002   0.170   9.566  1.2051 -2.3244 -0.6395
 4424SOL    HW224732   1.911   0.196   9.458  0.7173  1.2082 -0.0848
 4425SOL     OW24733   1.287   1.706  10.539 -0.2443 -0.2375 -0.1145
 4425SOL    HW124734   1.231   1.733  10.612  1.3387  0.7948  0.7265
 4425SOL    HW224735   1.355   1.773  10.543 -1.3858  0.8581  0.9037
 4426SOL     OW24736   3.920   2.330   4.713 -0.3277  1.2128 -0.4779
 4426SOL    HW124737   3.884   2.275   4.643 -0.4745 -0.0728  0.6144
 4426SOL    HW224738   3.977   2.268   4.759 -1.2251  1.7445  1.3582
 4427SOL     OW24739   1.344   3.254   2.047  0.0554  0.2083 -0.4678
 4427SOL    HW124740   1.374   3.218   2.130  1.2729  0.1283 -0.9319
 4427SOL    HW224741   1.319   3.342   2.076  2.8888  1.4403 -1.7732
 4428SOL     OW24742   4.417   0.388  11.881  0.2000 -0.4438 -0.3671
 4428SOL    HW124743   4.369   0.471  11.874 -0.6728 -0.7688  1.6545
 4428SOL    HW224744   4.489   0.410  11.940 -0.2961  0.3185 -0.0458
 4429SOL     OW24745   0.507   2.755   0.724 -0.8766 -0.0954 -0.0349
 4429SOL    HW124746   0.493   2.745   0.629 -0.2970 -1.7708  0.0468
 4429SOL    HW224747   0.458   2.835   0.737  1.0797  1.4745 -2.2329
 4430SOL     OW24748   1.550   1.882   8.724  0.1565 -0.4173 -0.4363
 4430SOL    HW124749   1.518   1.936   8.796 -0.7117  0.0591 -1.1714
 4430SOL    HW224750   1.605   1.823   8.775 -0.0046 -0.1657  0.0345
 4431SOL     OW24751   1.511   1.728   4.163  0.8335  0.2073 -0.8375
 4431SOL    HW124752   1.417   1.714   4.179  1.6718 -0.2284  3.4455
 4431SOL    HW224753   1.555   1.703   4.244  1.3474  2.5352 -0.4151
 4432SOL     OW24754   1.688   2.163  11.720  0.3244  0.0673  0.0633
 4432SOL    HW124755   1.772   2.129  11.690  0.6425  0.6219  0.3183
 4432SOL    HW224756   1.638   2.160  11.639  1.3813  0.3527 -0.5962
 4433SOL     OW24757   2.639   1.574   0.468  0.5285  0.0011  0.6544
 4433SOL    HW124758   2.614   1.617   0.550 -1.9374 -2.9769  1.4599
 4433SOL    HW224759   2.632   1.637   0.397  1.7729 -1.2766 -0.6101
 4434SOL     OW24760   4.177   0.220  17.558  0.1093  0.0821  0.3620
 4434SOL    HW124761   4.149   0.309  17.582  0.5965  0.3173  0.0651
 4434SOL    HW224762   4.147   0.218  17.467  0.3464  0.7021  0.2651
 4435SOL     OW24763   4.369   0.900   6.280  0.4920 -0.6612  0.0843
 4435SOL    HW124764   4.423   0.949   6.218 -1.1680  2.2056  0.9195
 4435SOL    HW224765   4.439   0.884   6.344  0.2790  1.1807  0.7732
 4436SOL     OW24766   2.084   1.935  12.707 -0.6633  0.3920 -0.3817
 4436SOL    HW124767   2.109   1.919  12.616 -3.4547 -0.6301 -0.9607
 4436SOL    HW224768   2.000   1.980  12.698 -0.7395  0.9606  3.0985
 4437SOL     OW24769   1.427   3.443   9.712 -0.0124 -0.0322  0.3323
 4437SOL    HW124770   1.421   3.534   9.742 -1.5132  0.5261 -1.6769
 4437SOL    HW224771   1.440   3.457   9.618 -0.8135 -2.8251 -0.1970
 4438SOL     OW24772   3.239   0.400  12.608 -0.2587  0.0855  0.2506
 4438SOL    HW124773   3.300   0.467  12.576  1.4429 -0.8076  1.6657
 4438SOL    HW224774   3.302   0.331  12.628 -0.6464 -0.2061  0.4491
 4439SOL     OW24775   3.017   1.835   9.591  0.5571 -0.0085  0.3009
 4439SOL    HW124776   3.062   1.751   9.584 -0.2993 -0.4372 -0.0483
 4439SOL    HW224777   2.996   1.839   9.497 -2.8741 -2.1574  0.9484
 4440SOL     OW24778   0.379   1.894   1.444 -0.0852  0.4907  0.4227
 4440SOL    HW124779   0.421   1.852   1.368  0.0031  0.0724  0.7028
 4440SOL    HW224780   0.334   1.968   1.403 -2.6935 -1.4690 -0.2136
 4441SOL     OW24781   1.251   1.628  10.283 -0.8551 -0.0158  0.1069
 4441SOL    HW124782   1.342   1.602  10.267 -1.5718 -0.2298 -3.5508
 4441SOL    HW224783   1.260   1.674  10.366  0.4881  0.9381 -0.5782
 4442SOL     OW24784   1.731   0.486   9.181 -0.0596  0.5408 -0.7350
 4442SOL    HW124785   1.798   0.554   9.171 -0.3001  0.5518 -2.2874
 4442SOL    HW224786   1.738   0.438   9.098  0.8866 -0.1209 -0.2728
 4443SOL     OW24787   3.486   4.146   7.974 -0.3454 -0.1555  0.3556
 4443SOL    HW124788   3.412   4.135   7.915  0.8822  1.2082 -1.3931
 4443SOL    HW224789   3.528   4.062   7.953 -0.3452  0.2143 -1.0539
 4444SOL     OW24790   0.128   1.359   7.727  0.3256 -0.4551 -0.0370
 4444SOL    HW124791   0.187   1.401   7.789 -0.5146  1.2644 -0.4031
 4444SOL    HW224792   0.189   1.306   7.676  0.1790  0.0457 -0.7375
 4445SOL     OW24793   4.254   3.057   8.619 -0.3711 -0.0515 -0.0681
 4445SOL    HW124794   4.257   2.977   8.672  2.8992  1.9419  2.7946
 4445SOL    HW224795   4.334   3.041   8.569 -0.1786 -0.5611  0.4004
 4446SOL     OW24796   3.371   2.442   5.333  0.2840 -0.0648 -0.1788
 4446SOL    HW124797   3.422   2.400   5.264 -0.3455 -0.3934 -0.4503
 4446SOL    HW224798   3.373   2.373   5.399 -2.2701 -0.4609 -0.5149
 4447SOL     OW24799   3.817   4.218  14.812  0.2247  0.2577 -0.2877
 4447SOL    HW124800   3.910   4.203  14.797  0.7290  1.5799  1.4611
 4447SOL    HW224801   3.827   4.313  14.823  0.6466  0.1967 -0.1666
 4448SOL     OW24802   2.290   3.237   5.417  0.2280  0.5585 -0.1311
 4448SOL    HW124803   2.205   3.242   5.373  0.4772  1.4682 -0.5039
 4448SOL    HW224804   2.346   3.233   5.339  0.4106 -2.1858  0.1360
 4449SOL     OW24805   2.623   0.292   2.141 -0.6152 -0.2178 -0.8743
 4449SOL    HW124806   2.602   0.382   2.165  0.3781  0.1056 -1.2208
 4449SOL    HW224807   2.707   0.275   2.184  0.7899 -1.4929 -4.0857
 4450SOL     OW24808   3.735   3.619  14.250 -0.0884 -0.2910 -0.2968
 4450SOL    HW124809   3.645   3.630  14.220 -0.1557  2.8507  1.0710
 4450SOL    HW224810   3.734   3.607  14.345  0.9381  0.8206 -0.1488
 4451SOL     OW24811   1.697   2.604   5.735 -0.1515 -0.6744  0.6682
 4451SOL    HW124812   1.702   2.644   5.648  0.3770 -2.5313 -0.1667
 4451SOL    HW224813   1.709   2.684   5.786 -0.1880  1.2417 -2.3151
 4452SOL     OW24814   1.753   2.094   4.642 -0.5560 -0.2949 -0.0761
 4452SOL    HW124815   1.746   2.174   4.590  0.3162 -0.1654  0.0058
 4452SOL    HW224816   1.660   2.074   4.650 -0.7128  0.5448  0.1742
 4453SOL     OW24817   1.927   0.984   0.166  0.1652 -0.3299 -0.1925
 4453SOL    HW124818   1.841   0.999   0.207 -0.9461  0.1231 -2.7116
 4453SOL    HW224819   1.970   0.932   0.233 -1.0077  0.6905  1.3564
 4454SOL     OW24820   2.611   4.284  13.666  0.2788 -0.4536  0.2878
 4454SOL    HW124821   2.669   4.329  13.604  0.6841  0.2793  1.2063
 4454SOL    HW224822   2.605   4.340  13.743 -2.0473 -1.4465  0.8388
 4455SOL     OW24823   4.707   1.270  12.496 -0.1405  0.0029  0.1110
 4455SOL    HW124824   0.072   1.285  12.523 -0.2213 -1.4322  1.2109
 4455SOL    HW224825   4.706   1.180  12.464 -2.5172 -0.0134  0.1926
 4456SOL     OW24826   0.197   2.525   8.049 -0.7320 -0.6311 -0.5939
 4456SOL    HW124827   0.207   2.435   8.078 -0.0826 -0.1677  0.6422
 4456SOL    HW224828   0.287   2.555   8.058 -1.1295  0.0850  1.0091
 4457SOL     OW24829   2.114   0.637   5.124 -0.2372 -0.0858 -0.7437
 4457SOL    HW124830   2.089   0.585   5.047  1.0869 -0.5244 -0.8900
 4457SOL    HW224831   2.034   0.687   5.136 -0.9490 -1.4942  0.4323
 4458SOL     OW24832   2.294   0.125   3.732 -0.1025  0.7737  0.1549
 4458SOL    HW124833   2.311   0.073   3.810  0.5802 -1.0673 -1.2084
 4458SOL    HW224834   2.199   0.139   3.736 -0.2606 -0.3940  0.5255
 4459SOL     OW24835   0.390   2.158   7.205  0.9032  0.3947  0.9188
 4459SOL    HW124836   0.363   2.118   7.288 -0.1013  2.7892  1.7587
 4459SOL    HW224837   0.347   2.102   7.140 -1.5988 -0.4743  3.3268
 4460SOL     OW24838   2.860   4.648   6.810  0.0223 -0.5576 -0.2053
 4460SOL    HW124839   2.821   4.660   6.723  1.7601 -0.8159 -1.0304
 4460SOL    HW224840   2.817   4.567   6.834 -1.3063  0.3783  0.5417
 4461SOL     OW24841   2.706   2.534   1.601  0.0390  0.1535  0.2791
 4461SOL    HW124842   2.664   2.466   1.654  0.7942 -1.6361 -1.3862
 4461SOL    HW224843   2.635   2.554   1.540  1.3795  1.7599 -0.7566
 4462SOL     OW24844   2.474   3.321   2.144  0.2030 -0.4358  0.5685
 4462SOL    HW124845   2.421   3.348   2.219 -0.6588 -1.6935  0.4134
 4462SOL    HW224846   2.416   3.250   2.114  1.2333 -1.3862  0.8238
 4463SOL     OW24847   2.802   0.680   7.140  0.0214 -0.0511  0.3328
 4463SOL    HW124848   2.742   0.611   7.171 -0.3072  0.2902  0.4490
 4463SOL    HW224849   2.789   0.683   7.045 -0.0389 -1.4792  0.2932
 4464SOL     OW24850   2.401   3.188   9.585 -0.7920 -0.1098 -0.6170
 4464SOL    HW124851   2.478   3.244   9.576 -1.0562  0.0250 -2.0431
 4464SOL    HW224852   2.370   3.180   9.495  1.7292  2.2168 -1.6684
 4465SOL     OW24853   4.456   1.816   2.614 -0.5802  0.6273 -0.0949
 4465SOL    HW124854   4.519   1.824   2.686 -1.7296 -0.3187  1.0130
 4465SOL    HW224855   4.386   1.758   2.644 -0.1571 -0.0823 -0.4880
 4466SOL     OW24856   3.599   3.278   5.860  0.2069  0.2081 -0.3956
 4466SOL    HW124857   3.603   3.301   5.767  1.0716  0.0600 -0.3951
 4466SOL    HW224858   3.542   3.201   5.864  0.0786  0.3420  0.3681
 4467SOL     OW24859   0.572   1.199   9.278 -0.3513  0.2430 -0.1484
 4467SOL    HW124860   0.553   1.251   9.356  0.7810  1.6734 -0.8246
 4467SOL    HW224861   0.503   1.133   9.272 -0.7320  0.4779  1.7244
 4468SOL     OW24862   0.200   3.605  11.589 -0.3405  0.5596 -0.4992
 4468SOL    HW124863   0.128   3.635  11.645  1.0323  0.1367  1.4826
 4468SOL    HW224864   0.230   3.520  11.620  1.1771  1.4233  0.4076
 4469SOL     OW24865   0.302   0.786  16.351 -0.3935  0.3801 -0.7123
 4469SOL    HW124866   0.388   0.821  16.326 -0.0813 -1.1964 -1.7792
 4469SOL    HW224867   0.271   0.858  16.407  1.0074  0.0083  0.5667
 4470SOL     OW24868   4.173   2.670   3.693 -0.4239 -0.1179  0.0071
 4470SOL    HW124869   4.168   2.583   3.732  0.4426 -1.1575 -2.2315
 4470SOL    HW224870   4.129   2.725   3.758 -1.1300 -0.3640 -0.2715
 4471SOL     OW24871   4.542   3.083   2.778  0.6065  0.0104  0.0020
 4471SOL    HW124872   4.502   3.010   2.730 -1.6907  1.3465 -0.0989
 4471SOL    HW224873   4.503   3.155   2.729 -0.2384 -1.2120 -1.1516
 4472SOL     OW24874   2.565   2.183   3.548  1.2594  0.2586 -0.1441
 4472SOL    HW124875   2.547   2.276   3.536 -0.2938 -0.0362 -0.1984
 4472SOL    HW224876   2.529   2.157   3.463  0.5698  1.9998 -0.3896
 4473SOL     OW24877   0.422   4.240  12.612 -0.3159  0.0248  0.0795
 4473SOL    HW124878   0.421   4.249  12.517 -2.0439 -0.7215  0.0258
 4473SOL    HW224879   0.395   4.148  12.620  2.4621 -1.0040 -2.4551
 4474SOL     OW24880   2.470   3.214   7.660  0.3540 -0.3812  0.1460
 4474SOL    HW124881   2.498   3.301   7.633  0.5582  0.2114  2.2172
 4474SOL    HW224882   2.440   3.243   7.747 -0.1575  0.2865 -0.2493
 4475SOL     OW24883   4.181   0.239   1.103 -0.1610 -0.1938 -0.3062
 4475SOL    HW124884   4.124   0.243   1.026  0.6700 -1.5065 -0.9810
 4475SOL    HW224885   4.196   0.331   1.124  0.0183 -0.1693 -0.5379
 4476SOL     OW24886   0.696   2.923   3.605 -0.1860  0.1685  0.1793
 4476SOL    HW124887   0.636   2.938   3.678 -1.4144 -1.2147 -0.5280
 4476SOL    HW224888   0.753   2.999   3.613  1.6239 -1.5464  3.3101
 4477SOL     OW24889   1.997   0.843   2.850 -0.0784  0.2022  0.0667
 4477SOL    HW124890   1.926   0.858   2.913 -1.7529  1.3083 -2.0928
 4477SOL    HW224891   2.073   0.820   2.904  0.1879 -0.1962 -0.4843
 4478SOL     OW24892   2.752   1.244   9.920  0.4703  0.1648  0.3337
 4478SOL    HW124893   2.842   1.214   9.934  0.4913  0.0663 -0.0169
 4478SOL    HW224894   2.738   1.302   9.996 -0.7887  0.1638  0.0985
 4479SOL     OW24895   0.528   3.882   5.707 -0.3362  0.0200  0.1196
 4479SOL    HW124896   0.449   3.856   5.755 -0.8084  2.0252  0.4596
 4479SOL    HW224897   0.482   3.922   5.633  2.0094  2.9165  0.2305
 4480SOL     OW24898   3.495   1.631   6.935 -0.1089  0.3342 -0.0036
 4480SOL    HW124899   3.572   1.643   6.991 -0.2657 -1.3854  0.5640
 4480SOL    HW224900   3.423   1.675   6.980  1.4854  2.1138  0.8438
 4481SOL     OW24901   3.637   3.088   1.781  0.2832 -0.0007 -0.4025
 4481SOL    HW124902   3.565   3.036   1.816 -0.4069  1.2290  0.0229
 4481SOL    HW224903   3.682   3.024   1.725  1.5477 -2.4269  3.3573
 4482SOL     OW24904   1.621   1.073   2.365  0.0693 -0.2800 -0.5659
 4482SOL    HW124905   1.529   1.098   2.360 -0.7355 -3.6026 -2.1005
 4482SOL    HW224906   1.624   0.979   2.384  1.7591 -0.5246 -2.0252
 4483SOL     OW24907   1.709   1.317   6.023 -0.3469 -0.2930  0.3713
 4483SOL    HW124908   1.678   1.330   5.934 -0.7765  1.1272  0.7262
 4483SOL    HW224909   1.762   1.239   6.008 -0.3707 -0.6526  2.0663
 4484SOL     OW24910   1.279   3.105   2.769  0.2319  0.2984 -0.1624
 4484SOL    HW124911   1.370   3.086   2.747 -0.2952 -0.4224 -1.7427
 4484SOL    HW224912   1.286   3.120   2.863  0.7544  1.4566 -0.3903
 4485SOL     OW24913   0.757   3.586   9.514  0.5196  0.2118  0.2768
 4485SOL    HW124914   0.834   3.643   9.520  1.6620 -1.3999  0.9314
 4485SOL    HW224915   0.726   3.605   9.426  2.1528  0.8436 -0.1549
 4486SOL     OW24916   4.620   1.191   5.284 -0.4195  0.1902  0.1998
 4486SOL    HW124917   4.563   1.265   5.304 -0.9924 -0.1153 -0.3252
 4486SOL    HW224918   4.600   1.135   5.360 -0.8461  0.7049  0.4687
 4487SOL     OW24919   0.189   1.946   4.898 -0.2886  0.5701 -0.8547
 4487SOL    HW124920   0.271   1.906   4.869 -0.0019  1.3702 -1.1550
 4487SOL    HW224921   0.126   1.924   4.830 -1.6346  1.6859  0.0174
 4488SOL     OW24922   3.895   4.542   0.094  0.2851 -0.0205 -0.1796
 4488SOL    HW124923   3.881   4.632   0.122 -0.5340  0.1586 -1.1644
 4488SOL    HW224924   3.883   4.485   0.169 -0.0742  1.9688  1.2496
 4489SOL     OW24925   3.045   3.310   2.265  0.0896  0.0863  0.0775
 4489SOL    HW124926   3.114   3.365   2.302 -0.9228  1.2176  0.2885
 4489SOL    HW224927   2.988   3.287   2.339  1.7373 -0.4339  1.1846
 4490SOL     OW24928   0.917   1.846  12.265  0.2853  0.1613 -0.0288
 4490SOL    HW124929   0.916   1.772  12.325 -0.3783 -0.5654 -0.9322
 4490SOL    HW224930   0.976   1.813  12.197 -2.3407 -0.9746 -1.7499
 4491SOL     OW24931   2.457   2.986   7.299 -1.0013  0.3051  0.9352
 4491SOL    HW124932   2.415   3.044   7.363 -0.9723 -0.0163  1.2468
 4491SOL    HW224933   2.494   3.058   7.247  0.2821 -0.2487  1.0880
 4492SOL     OW24934   0.564   2.704   2.277 -0.3853  0.3831  0.3821
 4492SOL    HW124935   0.527   2.618   2.255  1.1498  0.4056 -2.2714
 4492SOL    HW224936   0.492   2.755   2.241 -0.2560  0.6779  0.5435
 4493SOL     OW24937   0.070   0.184  13.879 -0.2005  0.0188  0.1560
 4493SOL    HW124938   0.015   0.238  13.823  0.7030  0.4181 -0.3490
 4493SOL    HW224939   0.030   0.099  13.859 -0.0740  0.0641 -0.2860
 4494SOL     OW24940   2.931   4.550   5.500 -0.1241  0.2626  0.0831
 4494SOL    HW124941   3.026   4.565   5.508 -0.3015  2.0248 -1.1042
 4494SOL    HW224942   2.901   4.614   5.565 -1.3549 -1.6098  1.3270
 4495SOL     OW24943   1.846   4.281  15.332 -0.0065  0.5777 -0.1687
 4495SOL    HW124944   1.794   4.220  15.383  0.4417  0.3091 -0.0321
 4495SOL    HW224945   1.935   4.265  15.365  0.0246  0.0050 -0.5194
 4496SOL     OW24946   3.576   3.128   2.433 -0.7999  0.1096 -0.3503
 4496SOL    HW124947   3.594   3.049   2.382  1.3203 -0.3922  1.1494
 4496SOL    HW224948   3.545   3.097   2.518 -2.8961 -0.3045 -1.2780
 4497SOL     OW24949   2.777   2.473   1.922  0.5634  0.2116  0.4036
 4497SOL    HW124950   2.705   2.432   1.874  0.4309 -0.7781  1.4461
 4497SOL    HW224951   2.749   2.565   1.924 -1.4523 -0.3826 -0.7727
 4498SOL     OW24952   2.521   3.724   8.650 -0.0190 -0.1597  0.7200
 4498SOL    HW124953   2.586   3.657   8.631 -0.6849  0.0657 -2.3451
 4498SOL    HW224954   2.568   3.807   8.643 -0.1455 -0.2413 -0.8993
 4499SOL     OW24955   2.734   0.404   6.838  0.4427  0.1299  0.5829
 4499SOL    HW124956   2.661   0.376   6.893  1.5071 -1.0970  1.3767
 4499SOL    HW224957   2.787   0.324   6.832  3.1250  1.7196  3.3771
 4500SOL     OW24958   3.052   3.097  13.956  0.4787  0.3041 -0.6755
 4500SOL    HW124959   3.026   3.015  13.913  1.8393 -0.9928  0.9289
 4500SOL    HW224960   3.013   3.084  14.043  1.6595 -0.4615 -0.2615
 4501SOL     OW24961   3.184   2.232   3.780 -0.6325 -0.1557 -0.7219
 4501SOL    HW124962   3.191   2.140   3.805 -2.2459  0.9425  3.6827
 4501SOL    HW224963   3.092   2.229   3.755 -0.2492 -3.1081 -1.8407
 4502SOL     OW24964   3.543   3.027   8.473 -0.4326  0.9117 -0.2702
 4502SOL    HW124965   3.584   3.090   8.532 -0.2704  0.1630  0.4194
 4502SOL    HW224966   3.459   3.026   8.519 -0.5702  1.6210 -0.5123
 4503SOL     OW24967   4.590   3.223   3.796 -0.3328 -0.8037  0.1666
 4503SOL    HW124968   4.548   3.216   3.882  1.4550 -0.0568  1.1205
 4503SOL    HW224969   4.512   3.240   3.743 -0.1302 -2.4489 -0.6568
 4504SOL     OW24970   0.215   0.002   2.113  0.2348  0.9543  0.4330
 4504SOL    HW124971   0.129   4.707   2.150  0.2769  2.6499  1.5209
 4504SOL    HW224972   0.240   4.648   2.068 -0.5030 -0.1026  1.9172
 4505SOL     OW24973   1.335   3.850   7.852 -0.0410  0.4354 -0.2029
 4505SOL    HW124974   1.290   3.897   7.923 -1.3355 -0.7026 -0.2792
 4505SOL    HW224975   1.255   3.836   7.801 -0.3606 -2.7243  1.2171
 4506SOL     OW24976   2.744   3.355   8.555 -0.2976 -0.8009 -0.2945
 4506SOL    HW124977   2.770   3.422   8.492  0.3123 -0.1670  0.6292
 4506SOL    HW224978   2.734   3.419   8.626 -0.7922 -0.2949 -0.8217
 4507SOL     OW24979   3.586   3.693   6.725  0.2546  0.2404  0.3778
 4507SOL    HW124980   3.542   3.776   6.705 -0.0595  0.0811  0.4084
 4507SOL    HW224981   3.537   3.631   6.671  0.1579 -0.1259  0.8924
 4508SOL     OW24982   2.454   0.235   1.934  0.0365 -0.0171 -0.8030
 4508SOL    HW124983   2.499   0.280   1.862  1.2109 -0.8200 -0.5783
 4508SOL    HW224984   2.519   0.253   2.002 -0.6238 -1.6318  0.2424
 4509SOL     OW24985   3.281   3.565   1.427 -0.4533  0.0202 -0.4609
 4509SOL    HW124986   3.238   3.641   1.465  0.9122  0.8236 -0.5309
 4509SOL    HW224987   3.302   3.513   1.505  1.8873  0.8709 -0.5359
 4510SOL     OW24988   1.823   4.668   9.078  0.0632  0.2958  0.0242
 4510SOL    HW124989   1.861   4.694   9.162  4.3754 -0.0495 -1.8010
 4510SOL    HW224990   1.824   0.025   9.031 -2.3620  0.4131  0.1716
 4511SOL     OW24991   3.242   1.144  11.210  0.2511  0.4370 -0.2630
 4511SOL    HW124992   3.230   1.215  11.273  1.3806  1.3721 -1.1013
 4511SOL    HW224993   3.269   1.203  11.139  0.3819  0.8345  0.1133
 4512SOL     OW24994   3.897   2.375   2.168  0.4432  0.1412 -0.6207
 4512SOL    HW124995   3.861   2.369   2.256 -0.8199  0.5137 -1.1198
 4512SOL    HW224996   3.900   2.471   2.163  0.7855  0.1156 -0.9199
 4513SOL     OW24997   3.491   4.094   6.344  0.0484  0.4920 -0.1022
 4513SOL    HW124998   3.430   4.131   6.281  0.0654 -0.4571 -0.6861
 4513SOL    HW224999   3.546   4.055   6.276  0.8943  0.7315  0.4515
 4514SOL     OW25000   3.843   4.676   7.820  0.3879 -0.1358  0.3416
 4514SOL    HW125001   3.807   4.699   7.905  0.2168 -1.1128  0.5350
 4514SOL    HW225002   3.792   0.015   7.772 -1.8311 -0.5344  2.1802
 4515SOL     OW25003   1.670   2.538   5.218 -0.1472 -0.4960 -0.1867
 4515SOL    HW125004   1.634   2.465   5.167  2.3700 -0.8281 -1.5119
 4515SOL    HW225005   1.750   2.543   5.165  0.1890  1.5204  0.5101
 4516SOL     OW25006   0.115   0.406  13.203 -0.4574 -0.8283 -0.5361
 4516SOL    HW125007   0.088   0.344  13.135 -1.0726 -2.1216  0.8837
 4516SOL    HW225008   0.191   0.358  13.236 -1.4235 -1.7609  0.3512
 4517SOL     OW25009   4.097   0.950  14.004  1.0729  0.3871 -0.0178
 4517SOL    HW125010   4.079   1.007  13.930  0.4805 -1.2633 -1.1502
 4517SOL    HW225011   4.101   1.004  14.083  2.2981  2.2514 -1.3716
 4518SOL     OW25012   4.723   2.938   8.357 -0.3356  0.3196  0.4889
 4518SOL    HW125013   0.050   2.873   8.311 -0.3577 -0.6088  1.7550
 4518SOL    HW225014   0.018   2.908   8.446  2.2054 -1.5102 -0.7476
 4519SOL     OW25015   4.034   2.171   7.394  0.4986 -0.0710  0.4803
 4519SOL    HW125016   4.092   2.097   7.380  1.5843  1.2904 -2.2898
 4519SOL    HW225017   4.049   2.194   7.486 -0.1405 -0.6487  0.7356
 4520SOL     OW25018   2.625   3.044   2.650 -0.0627 -0.2901 -0.4834
 4520SOL    HW125019   2.576   2.963   2.637  1.3611 -1.3384  0.6750
 4520SOL    HW225020   2.597   3.074   2.564 -2.3245 -1.2366 -0.0962
 4521SOL     OW25021   1.297   0.739   5.379 -0.2274 -0.1292  0.3722
 4521SOL    HW125022   1.222   0.680   5.376 -1.5425  1.5695  0.1947
 4521SOL    HW225023   1.261   0.810   5.326  0.1896 -1.1337 -1.2390
 4522SOL     OW25024   0.140   4.472   4.034  0.1240  0.3030  0.3883
 4522SOL    HW125025   0.147   4.444   3.943  1.1323  0.7354  0.3349
 4522SOL    HW225026   0.181   4.403   4.086 -2.8392 -2.1652 -0.5435
 4523SOL     OW25027   3.329   1.353  11.058  0.2747  0.3610  0.9559
 4523SOL    HW125028   3.337   1.348  10.963 -1.6857 -1.1764  0.8741
 4523SOL    HW225029   3.311   1.445  11.075  0.3493  0.5516 -0.0232
 4524SOL     OW25030   2.866   1.415   3.759 -0.2125  0.4662 -0.1403
 4524SOL    HW125031   2.958   1.390   3.772  0.0402  0.9494 -0.9879
 4524SOL    HW225032   2.857   1.423   3.664  0.2716  0.5700 -0.1810
 4525SOL     OW25033   4.555   3.307   6.754  0.4237  0.7379 -0.9094
 4525SOL    HW125034   4.521   3.279   6.669  0.0770 -0.0853 -0.5071
 4525SOL    HW225035   4.495   3.260   6.812 -0.5624  0.6404 -2.0150
 4526SOL     OW25036   4.145   3.476  10.087  0.3629 -0.2626 -0.2105
 4526SOL    HW125037   4.159   3.455   9.995 -0.0398  2.2490 -0.8449
 4526SOL    HW225038   4.060   3.521  10.087  0.1226 -0.7264 -1.2636
 4527SOL     OW25039   2.589   3.392   3.175 -0.2661  0.5030  0.2255
 4527SOL    HW125040   2.555   3.458   3.114  3.2040  0.6947 -1.4530
 4527SOL    HW225041   2.618   3.439   3.253 -1.4620  1.3568  0.1614
 4528SOL     OW25042   3.628   4.669   5.471 -0.0865 -0.4765  0.0572
 4528SOL    HW125043   3.687   4.664   5.396  0.2841 -3.4453  0.5413
 4528SOL    HW225044   3.655   4.594   5.523  0.0799  1.5270  2.8910
 4529SOL     OW25045   0.098   2.766   8.977  0.0970  0.0749  0.6402
 4529SOL    HW125046   0.176   2.779   9.032  1.7624 -1.4776 -1.3214
 4529SOL    HW225047   0.135   2.748   8.891 -0.2441 -1.1698  0.7532
 4530SOL     OW25048   2.182   4.476  13.157 -0.5965 -0.0590  0.5080
 4530SOL    HW125049   2.208   4.434  13.075  0.0068  0.4148  0.4591
 4530SOL    HW225050   2.134   4.401  13.192 -1.5349  0.5119  0.4380
 4531SOL     OW25051   3.605   0.247  16.081 -0.6749  0.3000  0.0192
 4531SOL    HW125052   3.582   0.335  16.050  2.7651  0.8641 -0.9980
 4531SOL    HW225053   3.700   0.254  16.066 -0.4850 -2.1135  0.1697
 4532SOL     OW25054   0.056   2.965  13.223  0.1755 -0.1735 -0.1030
 4532SOL    HW125055   0.005   3.043  13.244 -1.3334 -1.1204 -0.2679
 4532SOL    HW225056   0.121   2.992  13.158  1.8468 -1.3772  1.0700
 4533SOL     OW25057   3.664   3.398   9.132 -0.2279 -0.5978  0.3124
 4533SOL    HW125058   3.727   3.461   9.165 -0.1125  0.8360 -2.5859
 4533SOL    HW225059   3.721   3.350   9.072  0.7207 -1.7099  2.1355
 4534SOL     OW25060   0.328   3.815  15.657 -0.4161 -0.2801 -0.5346
 4534SOL    HW125061   0.345   3.886  15.595  1.4465  0.6714  1.0783
 4534SOL    HW225062   0.245   3.785  15.618 -0.9296 -0.1347  0.4366
 4535SOL     OW25063   4.581   0.625   1.439 -0.5389  0.2417 -0.0154
 4535SOL    HW125064   4.562   0.716   1.463  2.3968  1.5902 -2.8156
 4535SOL    HW225065   4.608   0.642   1.349 -2.1495 -0.8127 -0.7030
 4536SOL     OW25066   1.331   2.244  13.742  0.7369 -0.2900 -0.4117
 4536SOL    HW125067   1.335   2.189  13.820 -0.2630  0.5484  0.2279
 4536SOL    HW225068   1.415   2.216  13.706  0.7353  0.4366 -0.9786
 4537SOL     OW25069   1.980   2.222   5.334  0.0385  0.0668 -0.6008
 4537SOL    HW125070   1.937   2.270   5.406 -0.5033  0.2371 -1.0318
 4537SOL    HW225071   1.935   2.278   5.271  2.0777  1.4277 -0.8569
 4538SOL     OW25072   0.737   0.603   0.921  0.0878  0.3696 -0.2757
 4538SOL    HW125073   0.756   0.527   0.976  0.2584  0.9510  0.4612
 4538SOL    HW225074   0.813   0.612   0.864  1.6349 -3.0545  1.2862
 4539SOL     OW25075   4.333   0.180   7.965 -0.1005 -0.0311  0.6018
 4539SOL    HW125076   4.383   0.121   8.021 -1.4968 -2.5267 -0.7752
 4539SOL    HW225077   4.326   0.119   7.892 -1.6932  0.3494  0.4328
 4540SOL     OW25078   1.741   4.519   9.705 -0.2549 -0.3387  0.6034
 4540SOL    HW125079   1.724   4.613   9.693  0.5198 -0.2962 -0.1932
 4540SOL    HW225080   1.828   4.509   9.665 -0.7974  0.0757 -0.6911
 4541SOL     OW25081   3.768   1.209   2.599  0.1853  0.6812  0.0986
 4541SOL    HW125082   3.843   1.268   2.605  0.6095  0.1341  0.2187
 4541SOL    HW225083   3.778   1.182   2.507 -1.2260 -0.7487  0.3689
 4542SOL     OW25084   0.373   1.363   7.559  0.3377  0.0278 -0.2353
 4542SOL    HW125085   0.455   1.397   7.596  0.7555  0.1625 -1.3016
 4542SOL    HW225086   0.401   1.335   7.472 -1.0483 -0.7351 -0.4238
 4543SOL     OW25087   4.028   1.972   4.333  0.2601 -0.0006 -0.4258
 4543SOL    HW125088   4.110   1.925   4.348 -1.3247 -2.8265 -0.6243
 4543SOL    HW225089   4.050   2.061   4.359  0.4012 -0.1985  0.1324
 4544SOL     OW25090   3.239   3.789  16.421 -0.0500  0.6760 -0.0769
 4544SOL    HW125091   3.177   3.800  16.492 -1.8976 -0.0815 -1.5842
 4544SOL    HW225092   3.319   3.747  16.453 -0.3225  0.2130 -0.0131
 4545SOL     OW25093   1.441   0.111   7.960  0.3669 -0.0218  0.4170
 4545SOL    HW125094   1.457   0.156   7.877  0.8609  0.1133  0.5849
 4545SOL    HW225095   1.526   0.108   8.003  0.2807 -1.2266  0.5098
 4546SOL     OW25096   3.533   4.605   3.697 -0.5770  0.0474 -0.1852
 4546SOL    HW125097   3.463   4.634   3.755  0.1542  2.7107 -0.6156
 4546SOL    HW225098   3.503   4.517   3.675 -0.1203  0.3157 -1.9372
 4547SOL     OW25099   1.802   0.809  13.785  0.2493 -0.0454  0.2200
 4547SOL    HW125100   1.789   0.767  13.700  1.3200 -1.9324  0.9802
 4547SOL    HW225101   1.837   0.895  13.762  0.2103  0.2738  1.3733
 4548SOL     OW25102   2.172   0.523   4.840  0.2560 -0.1544  0.1124
 4548SOL    HW125103   2.148   0.593   4.778  0.7619 -0.9327 -0.9440
 4548SOL    HW225104   2.125   0.442   4.823 -0.0168  0.2616 -1.1287
 4549SOL     OW25105   3.086   0.747   2.300 -0.4183 -0.2221  0.1436
 4549SOL    HW125106   3.121   0.835   2.313  0.5805 -0.9723  2.5151
 4549SOL    HW225107   2.999   0.777   2.271 -0.4504 -0.0926  0.3749
 4550SOL     OW25108   0.058   0.087   6.833  0.0176  0.1425 -0.0804
 4550SOL    HW125109   0.144   0.046   6.842 -0.3189 -0.7635 -0.8902
 4550SOL    HW225110   0.021   0.053   6.751  1.5199  0.2339 -0.7806
 4551SOL     OW25111   0.620   3.548   5.037  0.5704  0.0928  0.6352
 4551SOL    HW125112   0.581   3.545   4.950  0.7584  2.0204  0.4772
 4551SOL    HW225113   0.543   3.547   5.093  0.1039 -1.6615 -0.0524
 4552SOL     OW25114   4.421   0.922   5.472 -0.1080 -0.4522 -0.1067
 4552SOL    HW125115   4.419   0.838   5.426  0.1143 -1.3207  1.4458
 4552SOL    HW225116   4.516   0.928   5.462 -0.2654  1.7807 -0.2962
 4553SOL     OW25117   1.147   3.900   0.203  0.3380 -0.3711  0.4648
 4553SOL    HW125118   1.078   3.953   0.243  0.7003 -0.8065  1.6661
 4553SOL    HW225119   1.094   3.841   0.149  2.3416 -2.4407  0.7556
 4554SOL     OW25120   3.074   3.239   7.444  0.1820 -0.4196  0.1246
 4554SOL    HW125121   3.039   3.239   7.533 -1.7096  0.3772 -0.6059
 4554SOL    HW225122   3.069   3.331   7.419  1.3545 -0.5573 -0.6226
 4555SOL     OW25123   3.960   0.382   6.484  0.0188  0.4323  0.1074
 4555SOL    HW125124   3.940   0.301   6.438  0.1662 -0.5370  1.7535
 4555SOL    HW225125   3.903   0.368   6.559 -1.0740 -0.8032 -0.9617
 4556SOL     OW25126   1.477   2.084   6.436 -0.1559  0.4560 -0.2297
 4556SOL    HW125127   1.555   2.032   6.420 -0.5335 -0.9849  2.5642
 4556SOL    HW225128   1.404   2.027   6.411  0.3708 -0.4787  0.3359
 4557SOL     OW25129   0.658   1.654  16.732  0.0444  0.4180  0.3215
 4557SOL    HW125130   0.704   1.677  16.813 -1.0696  1.7102  0.5884
 4557SOL    HW225131   0.659   1.558  16.739 -0.6091  0.1950 -2.7277
 4558SOL     OW25132   0.914   0.033   7.081  0.2788 -0.6946  0.4026
 4558SOL    HW125133   0.947   0.097   7.144 -0.7351 -0.0558  0.2875
 4558SOL    HW225134   0.863   4.707   7.143 -0.8640 -0.3008 -0.1922
 4559SOL     OW25135   0.520   4.110   9.964  0.0303  0.1506 -0.1159
 4559SOL    HW125136   0.475   4.058   9.898  1.1862 -1.4112  0.3296
 4559SOL    HW225137   0.482   4.080  10.047  2.5434 -0.4196  0.8289
 4560SOL     OW25138   1.212   3.989  14.965  0.1657 -0.0152 -0.1381
 4560SOL    HW125139   1.175   4.075  14.943  1.6255  0.6989  0.1864
 4560SOL    HW225140   1.137   3.953  15.012 -0.2400  1.1637  0.1198
 4561SOL     OW25141   2.546   4.117  13.384  0.0875 -0.1856 -0.3883
 4561SOL    HW125142   2.495   4.186  13.426  0.9837  0.3710 -0.2147
 4561SOL    HW225143   2.473   4.072  13.341  0.0505  0.3271 -0.8670
 4562SOL     OW25144   4.628   3.546  15.052 -0.3980  0.6963 -0.7820
 4562SOL    HW125145   4.548   3.544  15.001 -1.6877  1.5027  1.2056
 4562SOL    HW225146   4.685   3.517  14.981  0.2360 -0.0958  0.0565
 4563SOL     OW25147   1.796   1.400   9.866 -0.5272 -0.1648 -1.0997
 4563SOL    HW125148   1.703   1.407   9.847 -0.5191 -0.7879 -1.3859
 4563SOL    HW225149   1.824   1.454   9.792  1.7803 -3.4401 -2.6670
 4564SOL     OW25150   2.871   3.432   7.901 -0.1551 -0.1428 -0.4539
 4564SOL    HW125151   2.919   3.475   7.972  0.0669 -1.5047  0.2069
 4564SOL    HW225152   2.827   3.507   7.860  0.8258  0.0246 -1.2214
 4565SOL     OW25153   4.212   1.374   8.898  0.3644  0.0378 -0.1679
 4565SOL    HW125154   4.190   1.443   8.835  0.0321 -0.5977 -0.7498
 4565SOL    HW225155   4.267   1.413   8.966 -0.5087 -2.1016  1.7765
 4566SOL     OW25156   1.751   1.824   4.947  0.4875  0.1406 -0.2355
 4566SOL    HW125157   1.795   1.807   5.030  0.3772 -0.1620 -0.2404
 4566SOL    HW225158   1.822   1.820   4.883 -0.2811 -0.0930 -1.0786
 4567SOL     OW25159   3.768   1.044   0.500  0.4075 -0.5714  0.8849
 4567SOL    HW125160   3.682   1.044   0.542 -0.3170 -0.5027 -0.5927
 4567SOL    HW225161   3.808   1.124   0.535  1.1475 -1.0107  1.0267
 4568SOL     OW25162   2.374   0.760   7.861  0.2630 -0.3586  0.2035
 4568SOL    HW125163   2.352   0.667   7.859  0.4365 -0.4253  1.1200
 4568SOL    HW225164   2.290   0.799   7.838  0.5387 -0.6740 -1.3332
 4569SOL     OW25165   1.627   2.281   2.456  0.3473 -0.3749  0.1489
 4569SOL    HW125166   1.612   2.367   2.493  1.1605  0.2365 -0.9301
 4569SOL    HW225167   1.697   2.294   2.391 -0.7563  2.4178 -0.4411
 4570SOL     OW25168   1.839   3.048   3.220 -0.3221 -0.3330 -0.7341
 4570SOL    HW125169   1.898   2.990   3.172  0.1957  0.7691 -1.4206
 4570SOL    HW225170   1.776   2.983   3.252  1.1733 -1.5194 -0.2323
 4571SOL     OW25171   2.004   0.197   3.996 -0.2486  0.5935  0.2382
 4571SOL    HW125172   2.079   0.255   3.982 -0.9290  0.9243 -2.0137
 4571SOL    HW225173   1.984   0.172   3.906  0.7264 -1.5715  0.6226
 4572SOL     OW25174   2.327   4.361   8.031  0.2938  0.3611 -0.3410
 4572SOL    HW125175   2.299   4.333   7.944  0.1766  0.8135 -0.4437
 4572SOL    HW225176   2.270   4.434   8.054  1.5617  1.1877  0.1916
 4573SOL     OW25177   2.067   0.568   3.576  0.1559 -0.7412  0.0306
 4573SOL    HW125178   2.127   0.551   3.648  0.2937 -1.4449 -0.2463
 4573SOL    HW225179   2.082   0.487   3.526  1.6598  0.4964 -1.5235
 4574SOL     OW25180   1.315   0.324   2.749  0.9180 -0.2217 -0.1674
 4574SOL    HW125181   1.405   0.350   2.730  1.1232 -0.3749  0.6175
 4574SOL    HW225182   1.264   0.394   2.706 -0.6411 -1.5791 -0.5465
 4575SOL     OW25183   1.489   1.076   7.453  0.3328 -0.1891 -0.0715
 4575SOL    HW125184   1.415   1.074   7.513  0.5102 -0.2309  0.1482
 4575SOL    HW225185   1.437   1.092   7.374  0.8856  1.3356 -0.1341
 4576SOL     OW25186   4.417   1.314   6.473  0.1458  0.1990  0.0169
 4576SOL    HW125187   4.348   1.259   6.436  0.0698 -0.0720  0.5538
 4576SOL    HW225188   4.459   1.245   6.524 -0.0821  0.6858  0.8640
 4577SOL     OW25189   3.381   1.920   5.241  0.4079  0.0966 -0.1383
 4577SOL    HW125190   3.434   1.847   5.209 -0.6437  0.5786 -2.9713
 4577SOL    HW225191   3.440   1.995   5.251  0.8868 -0.2595 -0.2591
 4578SOL     OW25192   0.950   3.605   7.822 -0.3817  0.0198 -0.4243
 4578SOL    HW125193   0.999   3.610   7.903 -1.3303  3.2905 -0.0447
 4578SOL    HW225194   0.950   3.512   7.802 -2.2645  0.3960 -2.1889
 4579SOL     OW25195   1.194   2.326  14.119 -0.4581  0.3892 -0.2659
 4579SOL    HW125196   1.176   2.278  14.039 -0.2559 -0.8293  0.4188
 4579SOL    HW225197   1.237   2.264  14.178 -0.3712 -1.8395 -2.6901
 4580SOL     OW25198   0.816   3.912  17.475 -0.4365 -0.1103  0.3755
 4580SOL    HW125199   0.856   3.964  17.544  0.2920 -1.9998  1.3700
 4580SOL    HW225200   0.884   3.913  17.408  1.3301  1.1692  2.2053
 4581SOL     OW25201   3.903   4.269   6.409  0.1519  0.2129 -0.1062
 4581SOL    HW125202   3.859   4.239   6.489  1.8038  0.2336  0.8242
 4581SOL    HW225203   3.983   4.219   6.424  0.7142  1.0840 -0.1810
 4582SOL     OW25204   2.892   1.831   3.691 -0.0960 -0.5752 -0.0335
 4582SOL    HW125205   2.805   1.845   3.654  0.2316  0.2683 -0.4740
 4582SOL    HW225206   2.871   1.831   3.785 -0.9434  2.3299 -0.2428
 4583SOL     OW25207   1.308   4.525  12.109 -0.1201  0.2770 -0.0902
 4583SOL    HW125208   1.373   4.473  12.156  0.3073  0.9268  0.0223
 4583SOL    HW225209   1.232   4.467  12.102  0.4077 -0.6151  1.5328
 4584SOL     OW25210   1.318   3.791   1.632 -0.5126  0.3754  0.0468
 4584SOL    HW125211   1.408   3.797   1.601 -0.6903 -1.6909 -0.8709
 4584SOL    HW225212   1.315   3.695   1.641 -0.7725  0.2949 -0.8892
 4585SOL     OW25213   4.153   4.405   0.982  0.0788 -0.6026 -0.6165
 4585SOL    HW125214   4.147   4.392   0.887 -0.4346  2.4415 -0.9960
 4585SOL    HW225215   4.249   4.413   0.981  0.0633 -0.3855 -0.4071
 4586SOL     OW25216   1.832   2.549   9.754 -0.0123 -0.3130  0.0557
 4586SOL    HW125217   1.863   2.530   9.665  2.8875 -1.3072  1.3057
 4586SOL    HW225218   1.736   2.550   9.749  0.0251 -0.4417 -0.7643
 4587SOL     OW25219   2.698   3.564   6.960 -0.4480 -0.3472 -0.4041
 4587SOL    HW125220   2.607   3.547   6.937 -0.4605  0.0288 -0.6387
 4587SOL    HW225221   2.697   3.658   6.940  1.4290 -0.1052  0.6500
 4588SOL     OW25222   0.562   2.683   4.935 -0.7935 -0.1583  1.2442
 4588SOL    HW125223   0.572   2.750   4.868 -3.3132 -1.0932 -0.0644
 4588SOL    HW225224   0.568   2.616   4.867 -0.2606  0.9705  0.1932
 4589SOL     OW25225   0.830   3.997  13.157 -0.0332  0.3693  0.2781
 4589SOL    HW125226   0.899   3.972  13.218 -1.0549 -0.3159  1.1559
 4589SOL    HW225227   0.792   4.068  13.210 -2.1040  1.1706 -2.2654
 4590SOL     OW25228   0.926   4.564   4.188  0.1389 -0.7407  0.0158
 4590SOL    HW125229   0.863   4.599   4.125  0.0162  0.0252  0.5570
 4590SOL    HW225230   0.894   4.583   4.276 -0.2108 -0.6584 -0.1322
 4591SOL     OW25231   3.510   0.565   9.821 -0.2801  0.1373 -0.1895
 4591SOL    HW125232   3.418   0.588   9.831 -0.3656 -0.9217  1.4281
 4591SOL    HW225233   3.505   0.555   9.726  2.3490  0.6937 -0.3974
 4592SOL     OW25234   1.523   4.416   9.975  0.0167 -0.3856  0.0349
 4592SOL    HW125235   1.521   4.506   9.945  0.3809  0.3264  2.1269
 4592SOL    HW225236   1.434   4.400  10.006 -0.0965 -1.0726 -0.6477
 4593SOL     OW25237   3.405   4.590   4.315  0.3471 -0.0499 -0.3964
 4593SOL    HW125238   3.322   4.609   4.272  0.1668 -1.2472 -0.5711
 4593SOL    HW225239   3.388   4.505   4.355 -2.3002  0.4167 -0.5625
 4594SOL     OW25240   4.440   4.723   8.563 -0.0299  0.2252 -0.0411
 4594SOL    HW125241   4.354   0.010   8.604  0.6254  0.2859  1.3273
 4594SOL    HW225242   4.474   4.677   8.640 -0.3894 -0.7679 -0.4887
 4595SOL     OW25243   1.785   2.692   8.159 -0.2136  0.2531  0.2775
 4595SOL    HW125244   1.805   2.598   8.159 -0.4305  0.2079 -0.7768
 4595SOL    HW225245   1.699   2.690   8.117 -0.4441  2.1808  0.6470
 4596SOL     OW25246   2.438   2.949   6.240  0.0878  0.3346  0.4636
 4596SOL    HW125247   2.445   3.042   6.219 -0.2387  0.3512  0.4277
 4596SOL    HW225248   2.517   2.916   6.198 -2.2286  0.7796 -4.2238
 4597SOL     OW25249   3.335   3.395   1.116  0.0469  0.2280 -0.9422
 4597SOL    HW125250   3.268   3.334   1.147  1.0556  1.0990  2.9217
 4597SOL    HW225251   3.302   3.410   1.028 -1.9584  0.6153 -0.1280
 4598SOL     OW25252   4.478   1.553   4.400 -0.8134  0.2602 -0.1257
 4598SOL    HW125253   4.557   1.528   4.447 -2.0963 -1.3037  1.2139
 4598SOL    HW225254   4.474   1.645   4.424 -0.6099  0.2861 -0.1924
 4599SOL     OW25255   2.050   2.984   3.458 -0.1335 -0.0012  0.2616
 4599SOL    HW125256   2.050   2.901   3.410 -1.1976  0.9236 -1.3161
 4599SOL    HW225257   1.966   2.974   3.502  0.6261  1.0982  1.9525
 4600SOL     OW25258   0.170   1.247  15.174  0.5434 -0.1641  0.0991
 4600SOL    HW125259   0.181   1.316  15.240 -1.6522  0.3318 -0.0376
 4600SOL    HW225260   0.113   1.189  15.225 -1.8829 -0.2770 -2.7324
 4601SOL     OW25261   0.630   2.477   7.797  0.1184 -0.3384 -0.1599
 4601SOL    HW125262   0.716   2.446   7.771  0.8956  0.2058  1.7644
 4601SOL    HW225263   0.591   2.410   7.853 -0.5256 -0.4295 -0.7185
 4602SOL     OW25264   2.368   4.484  12.703 -0.1027  0.2804  0.0298
 4602SOL    HW125265   2.345   4.566  12.747 -1.9627 -0.3338  0.1998
 4602SOL    HW225266   2.341   4.414  12.762  2.7640 -0.6946  0.1679
 4603SOL     OW25267   0.646   4.710   3.091  0.3849  0.2234 -0.1916
 4603SOL    HW125268   0.734   4.692   3.057 -0.1872  2.7509 -3.0234
 4603SOL    HW225269   0.640   0.078   3.076 -0.8726  0.4617  1.9408
 4604SOL     OW25270   0.045   3.805   6.896  0.2768  0.3921 -0.7397
 4604SOL    HW125271   0.002   3.721   6.912  0.4520  0.8947  2.4086
 4604SOL    HW225272   4.716   3.816   6.818 -2.1291 -1.0667  0.7203
 4605SOL     OW25273   0.759   4.326  12.098  0.2305  1.0259 -0.4908
 4605SOL    HW125274   0.737   4.314  12.190  2.9818  1.2463  0.1714
 4605SOL    HW225275   0.672   4.346  12.061 -0.3474 -2.0876 -0.8383
 4606SOL     OW25276   1.121   3.304   2.491 -0.3349  0.0090  0.3168
 4606SOL    HW125277   1.141   3.219   2.528 -0.4192  0.5503  1.5869
 4606SOL    HW225278   1.209   3.340   2.475  1.0762 -3.3320  0.7129
 4607SOL     OW25279   4.608   3.225   7.256 -0.3131  0.1141 -0.4209
 4607SOL    HW125280   4.538   3.164   7.233  0.4471 -0.3403 -1.5132
 4607SOL    HW225281   4.635   3.186   7.339 -0.2088  0.8578 -0.1017
 4608SOL     OW25282   4.694   1.634   7.842 -0.2221 -0.1122 -0.2026
 4608SOL    HW125283   4.612   1.614   7.797 -0.3095  0.6691 -0.3922
 4608SOL    HW225284   0.031   1.587   7.787 -0.7496 -0.9476 -0.0882
 4609SOL     OW25285   2.649   2.116  12.853 -0.3818 -0.0391 -0.0562
 4609SOL    HW125286   2.688   2.047  12.908 -1.1107  0.3642  0.9801
 4609SOL    HW225287   2.621   2.171  12.927 -1.0907  1.9504 -1.8273
 4610SOL     OW25288   2.502   2.697  15.415 -0.6612 -0.3917  0.0538
 4610SOL    HW125289   2.515   2.602  15.412  0.8054 -0.1362 -1.6218
 4610SOL    HW225290   2.587   2.729  15.386 -1.6476  2.0694 -0.1251
 4611SOL     OW25291   4.607   1.152  15.275 -0.2429 -0.3915 -0.3921
 4611SOL    HW125292   4.608   1.060  15.303  1.6492 -0.4139 -0.5810
 4611SOL    HW225293   4.529   1.156  15.220 -1.2194  1.4688  1.1439
 4612SOL     OW25294   3.283   3.093   2.854 -0.0378  0.1504 -0.0804
 4612SOL    HW125295   3.363   3.144   2.843  0.0964 -0.4641 -1.9227
 4612SOL    HW225296   3.315   3.003   2.855  1.8707  0.8535  1.7904
 4613SOL     OW25297   2.101   4.163   1.517  0.3052  0.3979  0.5665
 4613SOL    HW125298   2.028   4.102   1.505  0.5986  0.2052 -0.2578
 4613SOL    HW225299   2.047   4.241   1.510  2.0187  1.5658  0.3877
 4614SOL     OW25300   3.750   1.218  17.509  0.0461 -0.1085  0.1782
 4614SOL    HW125301   3.737   1.313  17.516 -1.0750 -0.4085  2.2049
 4614SOL    HW225302   3.812   1.213  17.437  1.2665 -0.0868  1.2333
 4615SOL     OW25303   1.785   3.301  10.415 -0.4878  0.7268 -0.3604
 4615SOL    HW125304   1.741   3.257  10.342  1.0005 -1.3783  0.0104
 4615SOL    HW225305   1.846   3.230  10.434 -0.6842  0.5917 -0.2260
 4616SOL     OW25306   3.322   2.127   1.550  0.2229  0.1259  0.3741
 4616SOL    HW125307   3.305   2.081   1.468 -0.6721  0.8350  0.1665
 4616SOL    HW225308   3.233   2.140   1.583 -0.7901 -2.0838 -1.5340
 4617SOL     OW25309   0.988   4.696  12.585 -0.5083  0.0920  0.3720
 4617SOL    HW125310   1.016   4.701  12.676 -2.1183  0.6043  0.8314
 4617SOL    HW225311   0.945   0.055  12.572 -1.1222  0.2684  3.5020
 4618SOL     OW25312   3.382   2.475   2.968  0.4419 -0.1519 -0.4238
 4618SOL    HW125313   3.363   2.568   2.981  0.3700 -0.0109 -1.4929
 4618SOL    HW225314   3.372   2.447   3.059  1.6849  0.0302 -0.2400
 4619SOL     OW25315   0.474   3.918   3.946 -0.3765 -0.0422  0.0926
 4619SOL    HW125316   0.467   3.841   3.889 -0.2180 -1.9183  2.5956
 4619SOL    HW225317   0.563   3.950   3.932 -0.6867  1.0269  0.6521
 4620SOL     OW25318   3.230   2.215  17.394 -0.5670  0.4515 -0.2033
 4620SOL    HW125319   3.256   2.191  17.305  0.1297 -1.1299  0.4417
 4620SOL    HW225320   3.291   2.161  17.444 -1.0472  0.1761  0.0828
 4621SOL     OW25321   1.695   0.711  16.286  0.5439  0.2823  0.2846
 4621SOL    HW125322   1.681   0.619  16.306 -1.8970  0.5448 -0.0973
 4621SOL    HW225323   1.757   0.747  16.349 -0.9210 -0.1045  1.9619
 4622SOL     OW25324   2.103   3.963   6.103 -1.0355 -0.2343 -0.5333
 4622SOL    HW125325   2.109   4.058   6.114 -0.2072 -0.2039 -1.2701
 4622SOL    HW225326   2.033   3.954   6.039  0.3784  0.0002 -2.1271
 4623SOL     OW25327   1.447   1.788  16.665  0.7852  0.0884 -0.5174
 4623SOL    HW125328   1.522   1.759  16.718  0.9172  0.3586 -0.5569
 4623SOL    HW225329   1.449   1.878  16.696 -0.4064  0.5305 -1.7518
 4624SOL     OW25330   1.491   2.049   4.028  0.2516  0.4934 -0.1577
 4624SOL    HW125331   1.467   2.023   4.117 -0.7885 -1.1434 -0.9209
 4624SOL    HW225332   1.459   1.975   3.977  2.0563 -1.3566  1.4077
 4625SOL     OW25333   1.864   3.692  14.475  0.1113  0.1200 -0.0507
 4625SOL    HW125334   1.794   3.744  14.435 -2.0918 -1.8708  1.2457
 4625SOL    HW225335   1.887   3.632  14.404  0.6775 -0.8080  0.9136
 4626SOL     OW25336   3.122   1.570   9.564 -0.6915  0.7122 -0.1289
 4626SOL    HW125337   3.072   1.499   9.603  1.0967 -0.2001  0.5014
 4626SOL    HW225338   3.191   1.569   9.630  2.2878 -1.1100 -3.2798
 4627SOL     OW25339   0.703   1.317   1.227 -0.1185  0.5147  0.0823
 4627SOL    HW125340   0.735   1.306   1.316  0.2601  3.0209  0.2618
 4627SOL    HW225341   0.696   1.228   1.194 -2.1800  0.2632  1.2261
 4628SOL     OW25342   1.385   1.311   5.948 -0.4549 -0.0256 -0.1658
 4628SOL    HW125343   1.462   1.343   5.900 -0.3328  0.0376  0.0719
 4628SOL    HW225344   1.339   1.262   5.880  2.1063  0.3007 -2.1548
 4629SOL     OW25345   3.253   3.010   3.821 -0.8520 -0.5706  0.2898
 4629SOL    HW125346   3.323   2.994   3.885  0.0674 -1.2946 -0.8796
 4629SOL    HW225347   3.177   3.031   3.874  0.3082 -0.7401  2.0288
 4630SOL     OW25348   1.274   2.521   9.083 -0.1599  0.2471 -0.0019
 4630SOL    HW125349   1.334   2.463   9.130 -0.2447 -0.2039 -0.4581
 4630SOL    HW225350   1.281   2.598   9.140 -2.6174  0.4574  0.0076
 4631SOL     OW25351   4.617   2.481  13.390 -0.7469  0.4343  0.0169
 4631SOL    HW125352   4.596   2.473  13.297 -0.1372 -0.4737 -0.0431
 4631SOL    HW225353   4.672   2.558  13.390 -1.2548  0.7994  0.1671
 4632SOL     OW25354   0.818   4.494  15.278 -0.1406  0.1283 -0.2209
 4632SOL    HW125355   0.801   4.520  15.368  0.0856  1.7105 -0.6368
 4632SOL    HW225356   0.772   4.559  15.225  0.8856  0.7864 -0.3141
 4633SOL     OW25357   2.985   1.786   7.613  0.1638  0.0015 -0.5670
 4633SOL    HW125358   3.032   1.744   7.540  0.1408  1.6435 -1.5217
 4633SOL    HW225359   3.025   1.747   7.690  0.5728  1.1494 -0.1997
 4634SOL     OW25360   0.550   3.416  11.724  0.0369  0.0528  0.3773
 4634SOL    HW125361   0.611   3.342  11.729 -0.5077 -0.5057 -1.1453
 4634SOL    HW225362   0.530   3.438  11.815  1.9521  0.7708  0.6389
 4635SOL     OW25363   0.121   0.468   6.446  0.4074 -0.5348  0.2191
 4635SOL    HW125364   0.148   0.516   6.368 -0.5623  0.4046  0.4628
 4635SOL    HW225365   0.029   0.447   6.431  0.3697  0.1461 -0.4963
 4636SOL     OW25366   2.796   0.618   6.024  0.6522 -0.2785 -0.5578
 4636SOL    HW125367   2.789   0.640   5.931  1.5789  0.2961 -0.4877
 4636SOL    HW225368   2.831   0.697   6.065  2.8941 -1.3729 -0.3510
 4637SOL     OW25369   2.955   3.524  11.794 -0.2791  0.0790  0.0356
 4637SOL    HW125370   2.951   3.565  11.708 -2.2368  0.9663  0.5374
 4637SOL    HW225371   3.019   3.454  11.779  0.0464  0.3684  0.0728
 4638SOL     OW25372   4.523   0.223   4.154 -0.0092 -0.4505 -0.4679
 4638SOL    HW125373   4.559   0.174   4.228  1.6207 -1.0691 -1.6499
 4638SOL    HW225374   4.430   0.202   4.158  0.1475 -1.0631  0.0096
 4639SOL     OW25375   1.178   1.660   7.710  0.0601  0.0088 -0.7585
 4639SOL    HW125376   1.176   1.695   7.799  1.2763 -1.6810 -0.0605
 4639SOL    HW225377   1.087   1.639   7.692 -0.6980  2.8317 -0.2108
 4640SOL     OW25378   3.625   0.308   9.904  0.3376  0.8182 -0.1576
 4640SOL    HW125379   3.640   0.268   9.819  0.0163  0.0179  0.1594
 4640SOL    HW225380   3.586   0.391   9.874  0.8548  1.0459 -0.1946
 4641SOL     OW25381   2.206   3.794   4.013 -0.3932  0.4663  0.2292
 4641SOL    HW125382   2.164   3.836   3.938  1.9387  2.8150  0.2312
 4641SOL    HW225383   2.286   3.769   3.967  1.6494  3.8635  2.0020
 4642SOL     OW25384   0.154   3.967  17.499  0.1777 -0.1938 -0.2841
 4642SOL    HW125385   0.238   3.926  17.478 -0.2293 -1.8342  1.2845
 4642SOL    HW225386   0.122   3.889  17.545  0.0305 -0.0965 -0.2224
 4643SOL     OW25387   1.717   1.011   0.614 -0.0166 -0.2720  0.3559
 4643SOL    HW125388   1.740   0.936   0.559  2.3067 -0.9719  2.2774
 4643SOL    HW225389   1.761   1.082   0.567 -0.4845 -0.6946 -0.7288
 4644SOL     OW25390   4.579   2.884   5.659  0.0514 -0.8656  0.0221
 4644SOL    HW125391   4.633   2.941   5.605 -1.3352  1.1533  0.7678
 4644SOL    HW225392   4.646   2.818   5.674  0.4840 -0.5013 -0.3237
 4645SOL     OW25393   0.105   4.161  10.337  0.0312 -0.3428  0.0170
 4645SOL    HW125394   0.186   4.212  10.344 -0.3802  0.5376 -1.6369
 4645SOL    HW225395   0.071   4.180  10.424  0.4820 -0.5355  0.2360
 4646SOL     OW25396   0.927   2.227   5.475 -0.4594  0.3876  0.1146
 4646SOL    HW125397   0.843   2.186   5.454 -0.4757  0.9869 -1.0302
 4646SOL    HW225398   0.985   2.193   5.407  0.6602  1.2282  0.6520
 4647SOL     OW25399   1.843   4.048   3.058  0.5388 -0.1329  0.0683
 4647SOL    HW125400   1.791   4.084   3.130  2.5099 -0.7808  1.7941
 4647SOL    HW225401   1.840   4.122   2.998  1.1315  1.3410  1.8608
 4648SOL     OW25402   1.205   1.036   2.254  0.2552  0.2200  0.2750
 4648SOL    HW125403   1.276   1.070   2.308  0.2764 -0.6293  0.7660
 4648SOL    HW225404   1.242   1.045   2.166 -3.2005 -0.8959 -1.2914
 4649SOL     OW25405   2.725   2.743   4.206 -0.2942  0.2089  0.3921
 4649SOL    HW125406   2.702   2.826   4.164 -0.3013  0.8322  1.6405
 4649SOL    HW225407   2.734   2.681   4.134  1.1731 -2.0190  2.5008
 4650SOL     OW25408   3.133   2.122  11.482 -0.0578 -0.3580 -0.2551
 4650SOL    HW125409   3.097   2.204  11.450 -0.3828 -1.2344 -2.1344
 4650SOL    HW225410   3.215   2.154  11.519  1.2066  0.2924 -3.6027
 4651SOL     OW25411   3.451   0.498  14.961  0.2433  0.6372 -0.3218
 4651SOL    HW125412   3.506   0.427  14.926  0.4663  1.2839 -1.2637
 4651SOL    HW225413   3.441   0.482  15.055 -1.6069  1.9167 -0.3175
 4652SOL     OW25414   0.459   0.433   1.936 -0.3184  0.0223  0.5598
 4652SOL    HW125415   0.365   0.438   1.918 -0.1152  1.7275 -0.0375
 4652SOL    HW225416   0.488   0.378   1.864 -2.3564 -2.9831  2.0432
 4653SOL     OW25417   4.107   3.166   7.136  0.3669  0.5159 -0.1674
 4653SOL    HW125418   4.094   3.244   7.189 -1.9664  2.9268 -4.3217
 4653SOL    HW225419   4.195   3.138   7.165 -0.4787 -1.5684  0.4132
 4654SOL     OW25420   2.347   3.079   0.419  0.4117 -0.5899 -0.2138
 4654SOL    HW125421   2.275   3.078   0.356  0.3609  0.1742 -0.1724
 4654SOL    HW225422   2.368   2.986   0.423 -0.0420 -0.6508  0.6602
 4655SOL     OW25423   3.353   2.555   5.709 -0.4116  0.0882  0.2357
 4655SOL    HW125424   3.299   2.480   5.734  0.4495 -0.0799  1.5707
 4655SOL    HW225425   3.362   2.604   5.790  1.0630 -1.2268  0.8626
 4656SOL     OW25426   1.486   2.324   6.300 -0.0246  0.0739  0.0246
 4656SOL    HW125427   1.486   2.392   6.367  0.1417  0.8585 -0.7714
 4656SOL    HW225428   1.484   2.244   6.352  1.5896  0.2879  0.4069
 4657SOL     OW25429   0.271   2.312  17.151 -0.2446 -0.1605 -0.0278
 4657SOL    HW125430   0.318   2.370  17.210 -0.9861  2.5099 -2.0820
 4657SOL    HW225431   0.181   2.312  17.186 -0.4306  1.6443 -0.5204
 4658SOL     OW25432   0.610   1.190   2.672  0.0439 -0.0424 -0.4718
 4658SOL    HW125433   0.545   1.133   2.711  1.4134 -0.9792  0.4073
 4658SOL    HW225434   0.587   1.275   2.710 -0.2230 -0.6258  0.6524
 4659SOL     OW25435   3.326   0.145   7.873 -0.1611  0.0645  0.1021
 4659SOL    HW125436   3.251   0.148   7.933 -0.6377  0.8384 -0.5280
 4659SOL    HW225437   3.327   0.072   7.812  1.8815 -2.4032  3.0918
 4660SOL     OW25438   4.394   1.788   3.750 -0.4994  0.0533 -0.1763
 4660SOL    HW125439   4.418   1.880   3.748  0.1487 -0.1100 -0.0206
 4660SOL    HW225440   4.376   1.759   3.661  1.7605  1.4826 -1.1036
 4661SOL     OW25441   0.515   3.517   4.761 -0.0341  0.4507  0.1162
 4661SOL    HW125442   0.539   3.451   4.696 -0.2864  1.1685 -0.6985
 4661SOL    HW225443   0.425   3.531   4.733  0.6190  0.8768 -1.7317
 4662SOL     OW25444   1.714   3.294   0.586 -0.4231 -0.7282 -0.3476
 4662SOL    HW125445   1.642   3.293   0.523 -0.9996  0.2018  0.3061
 4662SOL    HW225446   1.673   3.299   0.672  2.3367 -1.5421  1.0251
 4663SOL     OW25447   0.281   2.939  12.522  0.3889  0.1966  0.6048
 4663SOL    HW125448   0.257   2.896  12.441 -1.8623  3.9173 -0.6708
 4663SOL    HW225449   0.226   2.882  12.576  0.6205 -1.4454 -0.9321
 4664SOL     OW25450   2.598   4.559   1.301  0.3889 -0.3515 -0.1369
 4664SOL    HW125451   2.680   4.553   1.253 -0.0015 -0.2510 -0.8060
 4664SOL    HW225452   2.576   4.466   1.305 -1.3495  0.0890  0.4011
 4665SOL     OW25453   2.119   2.823   5.928 -0.1816 -0.3520 -0.3771
 4665SOL    HW125454   2.144   2.737   5.961 -0.1088  0.6482  2.1034
 4665SOL    HW225455   2.141   2.818   5.835  0.0824  1.0563 -0.3870
 4666SOL     OW25456   3.057   2.759   1.275 -0.2385 -0.0225  0.1154
 4666SOL    HW125457   3.030   2.746   1.366  0.7761  1.9953  0.6890
 4666SOL    HW225458   3.005   2.698   1.223 -0.1820  0.2857 -0.3085
 4667SOL     OW25459   4.403   2.016   6.822  0.6415  0.0376 -0.1214
 4667SOL    HW125460   4.494   2.035   6.803  0.2770 -0.0905 -2.0886
 4667SOL    HW225461   4.406   1.920   6.818 -0.6034 -0.0937  1.9555
 4668SOL     OW25462   2.479   1.101   6.009  0.0797 -0.4281 -0.3026
 4668SOL    HW125463   2.498   1.073   5.920  0.0374 -1.6456  0.0810
 4668SOL    HW225464   2.408   1.040   6.029 -1.0080  0.0231 -2.8252
 4669SOL     OW25465   3.605   3.505   5.415  0.0566 -0.1437 -0.0962
 4669SOL    HW125466   3.688   3.552   5.426  0.3040 -0.3650 -1.0283
 4669SOL    HW225467   3.536   3.568   5.393 -0.4958 -0.7675 -0.1086
 4670SOL     OW25468   1.251   3.166   0.917  0.2097 -0.6138 -0.5173
 4670SOL    HW125469   1.201   3.241   0.950  1.9425  0.4107 -0.2152
 4670SOL    HW225470   1.322   3.164   0.981 -0.4114 -1.4146  0.1429
 4671SOL     OW25471   0.356   2.485   8.543  0.4483  0.1380 -0.4291
 4671SOL    HW125472   0.319   2.409   8.498 -2.0365  0.5964  0.8731
 4671SOL    HW225473   0.423   2.500   8.476 -1.2789  2.2644 -1.6534
 4672SOL     OW25474   1.795   0.485   5.635  0.3556  0.4741  0.6062
 4672SOL    HW125475   1.713   0.533   5.641 -0.4176 -0.8710  0.8433
 4672SOL    HW225476   1.768   0.412   5.691 -0.3458 -0.4663 -0.9610
 4673SOL     OW25477   4.447   2.949   6.371 -0.4076  0.7218  0.2185
 4673SOL    HW125478   4.488   2.865   6.389 -0.6077  0.1662 -1.9205
 4673SOL    HW225479   4.492   2.982   6.293 -0.8103  1.0767  0.1317
 4674SOL     OW25480   2.975   4.059  13.386 -0.1689 -0.3254 -0.0010
 4674SOL    HW125481   2.916   4.106  13.327 -3.1719 -0.6007  2.7946
 4674SOL    HW225482   2.915   4.057  13.461  0.4192  0.2843  0.4887
 4675SOL     OW25483   3.630   4.540   6.835 -0.1765  0.1681  0.3354
 4675SOL    HW125484   3.648   4.593   6.758 -1.1549  1.5709  1.0728
 4675SOL    HW225485   3.679   4.582   6.906  0.0188  0.6086 -0.0638
 4676SOL     OW25486   1.331   3.437   4.516  0.6267 -0.3254  0.0267
 4676SOL    HW125487   1.269   3.379   4.471 -1.1128  3.0898 -2.0467
 4676SOL    HW225488   1.344   3.387   4.597 -1.1591  0.7719  0.9994
 4677SOL     OW25489   1.188   3.422   5.583  0.1231  0.0235  0.2181
 4677SOL    HW125490   1.155   3.481   5.651  0.1621  0.5663 -0.2276
 4677SOL    HW225491   1.281   3.442   5.576  0.2067 -0.3198  0.3658
 4678SOL     OW25492   2.284   3.058  16.542  0.3396 -0.2421  0.1551
 4678SOL    HW125493   2.360   3.112  16.561 -1.1075  1.5341  0.9609
 4678SOL    HW225494   2.300   3.030  16.452  0.1577  2.0170 -0.5785
 4679SOL     OW25495   1.008   1.424   3.237 -0.3441  0.1304 -0.0467
 4679SOL    HW125496   1.029   1.350   3.294 -1.3852 -1.4221 -1.7049
 4679SOL    HW225497   0.916   1.404   3.219  0.4444 -1.8254 -1.7561
 4680SOL     OW25498   3.381   2.789  17.148 -0.2318 -0.9276 -0.0571
 4680SOL    HW125499   3.423   2.745  17.222  0.6152 -1.3419 -0.7893
 4680SOL    HW225500   3.376   2.710  17.093  0.5199  0.4852 -2.1616
 4681SOL     OW25501   3.122   2.882  12.694  0.1293  0.0559  0.4653
 4681SOL    HW125502   3.201   2.929  12.721  0.6252  1.0451 -2.7933
 4681SOL    HW225503   3.154   2.792  12.701 -1.9436 -0.8582 -1.7120
 4682SOL     OW25504   0.147   0.869  12.379 -0.4962  0.1084  0.1551
 4682SOL    HW125505   0.237   0.836  12.378 -0.6453 -0.3290  1.2003
 4682SOL    HW225506   0.120   0.824  12.299  0.5742 -1.3580  0.6295
 4683SOL     OW25507   1.199   3.140  14.666 -0.0164  0.6101  0.0831
 4683SOL    HW125508   1.154   3.224  14.657 -0.8961  0.3066  1.6015
 4683SOL    HW225509   1.290   3.166  14.680 -0.3784  1.7680  0.2899
 4684SOL     OW25510   1.570   0.247   9.228  0.3677  0.1132 -0.1382
 4684SOL    HW125511   1.636   0.317   9.229 -0.2959  0.7692 -1.4670
 4684SOL    HW225512   1.524   0.281   9.151  0.7874  2.8390  0.8310
 4685SOL     OW25513   2.515   1.379  12.244  0.1329 -0.0046  1.0352
 4685SOL    HW125514   2.459   1.445  12.204 -0.3026 -1.1317 -0.2107
 4685SOL    HW225515   2.601   1.420  12.253 -0.7350  2.1368 -0.4485
 4686SOL     OW25516   4.494   0.328   1.141  0.4702 -0.1757 -0.6097
 4686SOL    HW125517   4.564   0.289   1.089  1.3179  1.2159 -0.4934
 4686SOL    HW225518   4.544   0.358   1.217 -0.4027 -2.7258  0.9856
 4687SOL     OW25519   1.685   0.806   9.078  0.0822 -0.6107  0.5670
 4687SOL    HW125520   1.680   0.803   9.173  4.6007 -0.3737  0.8302
 4687SOL    HW225521   1.778   0.782   9.081  0.3752  0.4088 -0.0026
 4688SOL     OW25522   2.173   2.659  12.079 -0.0867 -0.0581 -0.3110
 4688SOL    HW125523   2.137   2.720  12.144 -0.3110 -0.2174 -0.2876
 4688SOL    HW225524   2.121   2.689  12.005 -0.2201  3.0343  1.0355
 4689SOL     OW25525   0.608   0.072   2.296 -0.0006 -0.1764  0.3585
 4689SOL    HW125526   0.652   0.119   2.226  0.3784  0.9462  1.3588
 4689SOL    HW225527   0.614   4.714   2.250 -0.0635 -0.2591  0.4983
 4690SOL     OW25528   0.681   2.788  11.072  0.5269  0.1804 -0.5580
 4690SOL    HW125529   0.742   2.727  11.114  0.4437  0.9446  0.6846
 4690SOL    HW225530   0.703   2.772  10.980  0.4119 -1.2290 -0.3488
 4691SOL     OW25531   1.181   3.308  13.495  0.1529  0.0869  0.0251
 4691SOL    HW125532   1.150   3.238  13.552  0.5015  0.1777  0.3215
 4691SOL    HW225533   1.164   3.266  13.410 -2.2775  1.0558  0.0418
 4692SOL     OW25534   3.764   2.277   2.414  0.5291  0.5203  0.3058
 4692SOL    HW125535   3.812   2.202   2.381 -0.5862 -0.4428  0.8703
 4692SOL    HW225536   3.673   2.259   2.393 -0.1450  3.9865  0.2010
 4693SOL     OW25537   2.005   2.397   2.199  0.2858 -0.0870 -0.3711
 4693SOL    HW125538   1.961   2.474   2.235 -0.7726 -1.4969  1.3366
 4693SOL    HW225539   1.963   2.325   2.245 -1.0275  0.9503  0.0570
 4694SOL     OW25540   1.429   3.340   7.247 -0.5389  0.3765 -0.3092
 4694SOL    HW125541   1.467   3.301   7.169  0.8914 -3.3812  2.2619
 4694SOL    HW225542   1.361   3.274   7.262 -1.3661  1.0856 -0.9200
 4695SOL     OW25543   0.722   3.031   7.871  0.0019  0.0405 -0.2279
 4695SOL    HW125544   0.697   3.076   7.952  0.1303  1.3331 -0.9012
 4695SOL    HW225545   0.814   3.058   7.876 -0.8795  2.5745  2.7353
 4696SOL     OW25546   0.106   1.925  16.537 -0.5998  0.5176  0.9390
 4696SOL    HW125547   0.193   1.964  16.547 -0.1014 -1.1695  3.1485
 4696SOL    HW225548   0.068   1.977  16.466 -1.7620  1.5631  2.3310
 4697SOL     OW25549   3.152   2.518  11.041  1.0526 -0.4829  0.8211
 4697SOL    HW125550   3.134   2.583  10.973 -1.4601 -0.9400  1.0429
 4697SOL    HW225551   3.168   2.442  10.984 -1.0857  0.9801 -1.7110
 4698SOL     OW25552   0.300   1.105   7.869 -0.2422  0.2167 -0.1768
 4698SOL    HW125553   0.310   1.117   7.963  2.1350  2.2236 -0.6663
 4698SOL    HW225554   0.208   1.080   7.871  0.1404 -1.2568 -0.9611
 4699SOL     OW25555   4.302   0.688   0.055 -0.3150  0.2370  0.2842
 4699SOL    HW125556   4.315   0.725   0.142 -1.7320  0.3342  0.4463
 4699SOL    HW225557   4.276   0.599   0.080 -0.8881  0.2242 -0.3411
 4700SOL     OW25558   2.491   3.234   8.977  0.2319 -0.3624  0.3224
 4700SOL    HW125559   2.583   3.254   8.957 -0.4472  2.2607 -0.1178
 4700SOL    HW225560   2.470   3.185   8.898  0.7356 -0.1332  0.0465
 4701SOL     OW25561   0.451   3.677   3.682 -0.1772 -0.0027 -0.3356
 4701SOL    HW125562   0.379   3.740   3.678  0.2520  0.5659  0.8104
 4701SOL    HW225563   0.489   3.695   3.596 -0.2898  1.0207 -0.1684
 4702SOL     OW25564   0.420   2.932   0.478 -0.5484  0.0364 -0.1579
 4702SOL    HW125565   0.359   2.942   0.406 -0.4361 -0.1511 -0.2794
 4702SOL    HW225566   0.505   2.938   0.434 -1.2054  1.1175 -1.2609
 4703SOL     OW25567   1.081   0.789  15.843  0.0783  0.0004 -0.1328
 4703SOL    HW125568   1.135   0.807  15.767 -0.0795 -0.6895 -0.4097
 4703SOL    HW225569   1.087   0.878  15.878 -2.1502  0.2898 -0.4938
 4704SOL     OW25570   2.885   3.117   8.841  0.2890 -0.3407 -0.3791
 4704SOL    HW125571   2.808   3.115   8.784  0.9146  0.1740 -1.2411
 4704SOL    HW225572   2.917   3.027   8.831  1.1002  0.0552 -1.4420
 4705SOL     OW25573   2.507   2.062   6.616 -0.5574 -0.0622  0.1840
 4705SOL    HW125574   2.465   2.135   6.662 -0.9655  0.3482 -0.8373
 4705SOL    HW225575   2.431   2.007   6.596  0.3932 -0.2848 -2.7686
 4706SOL     OW25576   3.896   3.815   7.362 -0.5180 -0.4433 -0.4065
 4706SOL    HW125577   3.883   3.820   7.268  0.8182  1.3543 -0.4888
 4706SOL    HW225578   3.890   3.908   7.386  0.2863 -0.4345 -0.2445
 4707SOL     OW25579   3.071   3.516   7.371  0.1630  0.4968 -0.4223
 4707SOL    HW125580   3.045   3.589   7.315  0.1616  0.4836 -0.4388
 4707SOL    HW225581   3.166   3.529   7.362  0.3166  1.8425  2.8014
 4708SOL     OW25582   3.277   2.445   7.595 -0.2671 -0.0238  0.1268
 4708SOL    HW125583   3.230   2.472   7.516 -0.4915 -0.7522  0.0071
 4708SOL    HW225584   3.301   2.524   7.644 -0.7825  1.4962 -2.0737
 4709SOL     OW25585   3.667   4.238  10.069  0.7176 -0.1214  0.5819
 4709SOL    HW125586   3.629   4.185  10.140 -1.9126  0.8832 -0.0548
 4709SOL    HW225587   3.659   4.326  10.105 -0.7640  0.3797 -0.9488
 4710SOL     OW25588   3.213   3.056   3.413  0.5733 -0.0572 -0.2280
 4710SOL    HW125589   3.165   3.088   3.489  0.0370  0.9890 -1.0110
 4710SOL    HW225590   3.146   3.047   3.345  0.1156  0.4539  0.1677
 4711SOL     OW25591   3.838   3.256   5.109  0.3794  0.4382  0.0638
 4711SOL    HW125592   3.786   3.314   5.055 -1.4850 -1.7883 -0.5545
 4711SOL    HW225593   3.775   3.212   5.166 -0.4511  1.7145  0.1241
 4712SOL     OW25594   3.656   2.386   4.778 -0.0745 -0.7597  0.0961
 4712SOL    HW125595   3.741   2.354   4.746  0.4758 -0.5128  1.3128
 4712SOL    HW225596   3.684   2.465   4.826  0.5225 -0.9156  0.0130
 4713SOL     OW25597   2.468   4.647   4.427  0.4984 -0.2501 -0.0681
 4713SOL    HW125598   2.427   4.568   4.461  0.8306 -0.8322 -1.0133
 4713SOL    HW225599   2.399   4.709   4.453  1.5792  1.2535 -0.7530
 4714SOL     OW25600   1.511   0.233  16.345  0.0129 -0.4192 -0.5706
 4714SOL    HW125601   1.556   0.177  16.409 -0.9766  2.3258  2.4798
 4714SOL    HW225602   1.446   0.275  16.401  0.1895 -1.8090  0.6887
 4715SOL     OW25603   4.716   2.323   7.818  0.2486  0.0687  0.1278
 4715SOL    HW125604   4.699   2.229   7.831  0.9154 -0.0899 -0.1345
 4715SOL    HW225605   0.019   2.331   7.727  0.8721  0.4112  0.3541
 4716SOL     OW25606   2.897   3.616   2.749  0.0404  0.4302 -0.2925
 4716SOL    HW125607   2.852   3.690   2.708  0.0832  0.6708  0.0970
 4716SOL    HW225608   2.977   3.662   2.774  0.3899  0.0905 -0.7884
 4717SOL     OW25609   0.531   4.583   8.355  0.6534 -0.6211  0.0570
 4717SOL    HW125610   0.451   4.632   8.374 -0.6072 -1.5461 -2.8975
 4717SOL    HW225611   0.557   4.561   8.445 -0.1309 -1.6146  0.0415
 4718SOL     OW25612   3.777   0.605   4.780 -0.0307  0.2408  0.2842
 4718SOL    HW125613   3.699   0.660   4.778 -0.5085 -0.4726 -0.5514
 4718SOL    HW225614   3.749   0.524   4.822 -2.6396  1.5738  1.0626
 4719SOL     OW25615   0.069   0.881  15.024  0.1403  0.7184 -0.0432
 4719SOL    HW125616   0.007   0.809  15.019  0.9012  0.0385  0.3269
 4719SOL    HW225617   0.095   0.882  15.116  0.5242  0.5827 -0.1503
 4720SOL     OW25618   4.631   1.233  11.496  0.3546 -0.0250 -0.2072
 4720SOL    HW125619   4.631   1.309  11.554 -0.2086  1.0709 -1.6363
 4720SOL    HW225620   4.724   1.218  11.483  0.0753  1.1920 -3.6556
 4721SOL     OW25621   3.834   1.316   2.066 -0.1284  0.2677  0.2436
 4721SOL    HW125622   3.881   1.338   1.986 -0.6181  3.3360  0.7919
 4721SOL    HW225623   3.816   1.224   2.047 -1.9715  0.7470 -0.3229
 4722SOL     OW25624   3.736   3.670   6.943 -0.1616 -0.4561 -0.0218
 4722SOL    HW125625   3.729   3.577   6.962  1.0256 -0.4462  0.4348
 4722SOL    HW225626   3.691   3.679   6.859  0.9845  1.3615 -0.4373
 4723SOL     OW25627   4.228   1.357   7.742 -0.6505 -0.4858  0.5788
 4723SOL    HW125628   4.183   1.391   7.665 -0.0747  0.4297  0.6438
 4723SOL    HW225629   4.155   1.311   7.783 -0.5428 -0.0031  1.3160
 4724SOL     OW25630   3.469   0.874   6.528 -0.3107  0.0110  0.2095
 4724SOL    HW125631   3.426   0.960   6.527  0.7310  0.5480  2.1300
 4724SOL    HW225632   3.498   0.871   6.437  2.1052 -1.1022  1.0105
 4725SOL     OW25633   0.101   4.012  12.580 -0.2812 -0.0169  0.1674
 4725SOL    HW125634   0.195   4.030  12.574 -0.0996 -0.5248  1.5810
 4725SOL    HW225635   0.067   4.100  12.595  3.0974  1.3638 -0.1882
 4726SOL     OW25636   0.194   1.278   5.773 -0.6258 -0.4298 -0.4511
 4726SOL    HW125637   0.146   1.277   5.690  0.0498 -0.3229 -0.8422
 4726SOL    HW225638   0.151   1.351   5.817 -2.7182 -2.5011  0.9568
 4727SOL     OW25639   0.947   3.740   4.818 -0.2661 -0.1246 -0.0253
 4727SOL    HW125640   0.877   3.714   4.759 -0.8272 -1.7193  1.3335
 4727SOL    HW225641   0.987   3.653   4.825 -0.2198 -0.2481 -1.8140
 4728SOL     OW25642   1.404   2.402   5.295 -0.7117 -0.1026  0.1062
 4728SOL    HW125643   1.356   2.406   5.212 -0.1013  0.7659 -0.2089
 4728SOL    HW225644   1.465   2.476   5.288 -1.4351  0.4528 -0.4058
 4729SOL     OW25645   4.629   3.911   3.911  0.4659 -0.1552  0.1284
 4729SOL    HW125646   4.614   3.829   3.864 -0.8128  0.8319 -1.1891
 4729SOL    HW225647   4.676   3.966   3.847 -1.7938  1.1511 -0.4065
 4730SOL     OW25648   1.881   2.764   3.544 -0.1377  0.5677 -0.1656
 4730SOL    HW125649   1.881   2.809   3.629 -0.0703  1.6056 -0.7127
 4730SOL    HW225650   1.811   2.704   3.570  3.0926 -2.6720  1.0854
 4731SOL     OW25651   4.595   1.927  11.061 -0.5059  0.2854  0.0665
 4731SOL    HW125652   4.545   2.007  11.077 -0.3099  0.8785 -2.3567
 4731SOL    HW225653   4.560   1.870  11.129  0.7469 -3.6755 -2.6166
 4732SOL     OW25654   0.637   3.735  17.551  0.2864 -0.6516 -0.4686
 4732SOL    HW125655   0.703   3.798  17.522  1.9682 -2.0881  0.3152
 4732SOL    HW225656   0.690   3.659  17.572  1.3513  0.6170  1.4331
 4733SOL     OW25657   0.119   3.531   6.176 -0.2031  0.4390  0.5101
 4733SOL    HW125658   0.174   3.464   6.217  0.7574  0.8290 -0.1455
 4733SOL    HW225659   0.159   3.607   6.217 -0.3726  0.5675  0.4349
 4734SOL     OW25660   1.128   1.468   2.482 -0.0977 -0.5213 -0.0605
 4734SOL    HW125661   1.118   1.562   2.500  0.7692 -0.0385 -2.0525
 4734SOL    HW225662   1.040   1.436   2.464 -0.0121 -0.5704 -0.4008
 4735SOL     OW25663   3.111   0.675  14.943  0.3707 -0.3860  0.4856
 4735SOL    HW125664   3.149   0.681  15.030 -1.8048  2.5557  1.2243
 4735SOL    HW225665   3.188   0.687  14.888  1.0290  0.0640  1.5138
 4736SOL     OW25666   2.679   3.959  13.855 -0.3286 -0.0449  1.1186
 4736SOL    HW125667   2.682   4.030  13.919  0.5657  0.8831  0.0565
 4736SOL    HW225668   2.773   3.963  13.838 -0.3899 -1.0904  0.5211
 4737SOL     OW25669   1.206   1.906   6.488  0.1074 -0.1712  0.6257
 4737SOL    HW125670   1.151   1.915   6.410  1.6238  1.0275 -0.3223
 4737SOL    HW225671   1.271   1.838   6.469  0.0113 -0.5180  1.5753
 4738SOL     OW25672   0.616   2.943  12.408  0.1903  0.9197 -0.2019
 4738SOL    HW125673   0.629   2.906  12.496 -2.0008 -1.1306 -0.7386
 4738SOL    HW225674   0.643   3.032  12.430  1.1652  0.2570  1.2857
 4739SOL     OW25675   4.468   0.791  13.921  0.0096  0.0619  0.0562
 4739SOL    HW125676   4.511   0.731  13.860 -0.3411  0.5375 -0.6593
 4739SOL    HW225677   4.396   0.736  13.952  1.5215 -0.5731  2.4179
 4740SOL     OW25678   3.556   1.439   3.575  0.2710  0.1848  0.2999
 4740SOL    HW125679   3.464   1.451   3.553  0.3066  1.6352  0.9239
 4740SOL    HW225680   3.593   1.427   3.488  0.9373 -0.0952  0.6219
 4741SOL     OW25681   0.956   4.686  15.482 -0.3781 -0.3087  0.3487
 4741SOL    HW125682   0.891   4.641  15.537 -0.1594 -0.7938  0.2115
 4741SOL    HW225683   0.908   0.017  15.422  1.2526 -0.0592 -0.7101
 4742SOL     OW25684   0.459   4.710  17.303 -0.1564 -0.1557 -0.2869
 4742SOL    HW125685   0.383   4.720  17.360 -0.5585 -0.3008 -0.7883
 4742SOL    HW225686   0.533   4.717  17.362 -1.3833 -1.2693  1.3666
 4743SOL     OW25687   2.433   0.514   4.549 -0.0555 -0.3152 -0.2731
 4743SOL    HW125688   2.497   0.584   4.560 -0.4265  0.2161 -1.5051
 4743SOL    HW225689   2.472   0.444   4.602  1.4975  2.0516  1.6961
 4744SOL     OW25690   0.255   3.693   5.526  0.4645  0.0006 -0.1686
 4744SOL    HW125691   0.313   3.617   5.524  1.5700  0.8269  0.4859
 4744SOL    HW225692   0.173   3.654   5.555 -0.0738  2.6927  1.9011
 4745SOL     OW25693   1.442   0.657   8.659 -0.2978 -0.8477  0.2742
 4745SOL    HW125694   1.443   0.739   8.708  0.6049  0.1676 -1.4450
 4745SOL    HW225695   1.486   0.605   8.726  0.5376 -0.1213  0.2867
 4746SOL     OW25696   3.156   1.737   5.961  0.8217  0.0601  0.1340
 4746SOL    HW125697   3.232   1.692   5.924  0.3261 -0.3063 -0.4328
 4746SOL    HW225698   3.152   1.815   5.907  1.1854 -2.0382 -2.9100
 4747SOL     OW25699   4.379   1.611   9.865  0.3593 -0.0252 -0.3642
 4747SOL    HW125700   4.419   1.528   9.838  0.5322 -0.0583  0.0044
 4747SOL    HW225701   4.451   1.650   9.913 -0.8726  4.1636 -1.9580
 4748SOL     OW25702   3.690   0.846  11.351  0.2148 -0.4719 -0.0153
 4748SOL    HW125703   3.776   0.873  11.383 -0.6936  2.2943  0.0902
 4748SOL    HW225704   3.687   0.760  11.394 -1.0556  0.8663  2.5664
 4749SOL     OW25705   4.462   4.489   4.909 -0.0685 -0.3878 -0.1129
 4749SOL    HW125706   4.539   4.497   4.964 -0.4485  1.2386  0.1713
 4749SOL    HW225707   4.451   4.579   4.878  0.3869 -0.3902 -0.2866
 4750SOL     OW25708   2.260   0.982  10.579  0.2129  0.6729 -0.1601
 4750SOL    HW125709   2.191   1.035  10.539  0.9688  0.4383 -1.7696
 4750SOL    HW225710   2.330   1.016  10.523 -0.3588 -0.5864 -1.6479
 4751SOL     OW25711   0.979   4.574  11.828 -0.3503  0.2389 -0.6153
 4751SOL    HW125712   0.980   4.632  11.905 -2.4280  1.2643 -1.3783
 4751SOL    HW225713   1.065   4.592  11.791  0.4904 -0.1933  1.1082
 4752SOL     OW25714   0.272   1.802   3.767  0.3367 -0.2369  0.4508
 4752SOL    HW125715   0.211   1.827   3.837 -0.4747  0.5185 -0.5252
 4752SOL    HW225716   0.305   1.889   3.743  2.6386 -0.1909  3.7653
 4753SOL     OW25717   2.615   4.007  12.273 -0.1846 -0.0618 -0.0909
 4753SOL    HW125718   2.529   3.990  12.235 -0.4773  1.8863 -0.3287
 4753SOL    HW225719   2.662   3.943  12.221 -2.3247 -1.6702 -0.0521
 4754SOL     OW25720   1.542   2.361   4.727 -0.1884 -0.2708  0.0284
 4754SOL    HW125721   1.549   2.436   4.786  1.1438 -0.2989 -0.0867
 4754SOL    HW225722   1.575   2.393   4.643 -0.7106 -0.5418 -0.2778
 4755SOL     OW25723   3.721   1.365  11.192  0.6109 -0.5607  0.3039
 4755SOL    HW125724   3.640   1.378  11.242 -0.2428 -0.9592 -0.9821
 4755SOL    HW225725   3.746   1.286  11.240  1.3114 -0.2211  0.5032
 4756SOL     OW25726   2.797   0.563   1.063 -0.3126 -0.4685  0.3717
 4756SOL    HW125727   2.761   0.474   1.057 -1.2005 -0.0762 -0.0342
 4756SOL    HW225728   2.885   0.535   1.040 -2.1320 -1.1955 -5.6313
 4757SOL     OW25729   4.521   3.468   2.027  0.0443  0.5325  0.1950
 4757SOL    HW125730   4.557   3.388   2.066  0.1395  0.6780  0.4019
 4757SOL    HW225731   4.600   3.499   1.983 -0.4301  0.6557 -0.5821
 4758SOL     OW25732   1.282   3.815   7.288  0.0656 -0.3434 -0.2116
 4758SOL    HW125733   1.209   3.844   7.233  0.1578 -2.3140 -1.3861
 4758SOL    HW225734   1.356   3.839   7.232 -0.3688 -1.3496 -1.2250
 4759SOL     OW25735   2.890   2.452  12.223  0.0447  0.4648  0.0172
 4759SOL    HW125736   2.806   2.461  12.267 -0.0752  0.5870 -0.2372
 4759SOL    HW225737   2.918   2.542  12.206  1.9095 -0.2156 -0.5317
 4760SOL     OW25738   3.568   4.149   6.018  0.3626  0.4324 -0.7039
 4760SOL    HW125739   3.616   4.213   6.070  1.0089  0.2113 -1.0324
 4760SOL    HW225740   3.592   4.185   5.933 -0.8401  1.6053 -0.5415
 4761SOL     OW25741   2.189   1.655   7.369 -0.4690  0.2244 -0.6640
 4761SOL    HW125742   2.204   1.606   7.288 -1.1801 -0.9548 -0.0867
 4761SOL    HW225743   2.104   1.691   7.344 -1.5632 -0.9679  1.3454
 4762SOL     OW25744   0.052   4.521  16.192 -0.2633 -0.1638 -0.5915
 4762SOL    HW125745   0.059   4.548  16.100  0.6944 -0.1897 -0.5278
 4762SOL    HW225746   0.141   4.488  16.206 -1.0194 -0.8670  2.4005
 4763SOL     OW25747   4.681   0.545  11.290 -0.6429  0.0520 -0.4783
 4763SOL    HW125748   4.670   0.505  11.204  0.6740  1.0894 -1.1509
 4763SOL    HW225749   4.701   0.468  11.342  2.6698  0.3437 -1.2806
 4764SOL     OW25750   3.545   3.749  11.419 -0.2211 -0.3352 -0.7765
 4764SOL    HW125751   3.504   3.762  11.333 -2.6131 -1.6819  0.1384
 4764SOL    HW225752   3.560   3.655  11.407  0.4775 -0.1532 -1.2908
 4765SOL     OW25753   4.424   2.179   3.947  0.3387 -0.1072  0.1231
 4765SOL    HW125754   4.415   2.116   3.876  1.2771 -1.0138  0.8027
 4765SOL    HW225755   4.503   2.149   3.993  0.0352 -0.5900  0.3324
 4766SOL     OW25756   0.218   0.482   7.349  0.4563  0.0550  0.0089
 4766SOL    HW125757   0.258   0.567   7.364  1.8244 -0.4774 -0.6507
 4766SOL    HW225758   0.123   0.494   7.344  0.4650  0.5602  1.1389
 4767SOL     OW25759   2.009   3.218   9.436 -0.0870  0.2969  0.1743
 4767SOL    HW125760   1.928   3.202   9.485 -0.1643  2.9116  0.8717
 4767SOL    HW225761   1.985   3.297   9.388  2.6063  1.9185  1.5487
 4768SOL     OW25762   2.343   4.548   4.791 -0.0041 -0.6745  0.0323
 4768SOL    HW125763   2.401   4.474   4.770  0.6869 -0.5331  1.4394
 4768SOL    HW225764   2.276   4.534   4.724 -0.6129  1.0292  0.2855
 4769SOL     OW25765   0.689   3.606  14.491 -0.2733 -0.0574  0.1519
 4769SOL    HW125766   0.696   3.624  14.585 -1.3973 -0.1625  0.2570
 4769SOL    HW225767   0.702   3.696  14.460  1.3761 -0.2219  0.4179
 4770SOL     OW25768   0.238   0.972   5.658  0.1004 -0.2750 -0.1648
 4770SOL    HW125769   0.151   0.944   5.628 -0.6989  3.1008 -1.0716
 4770SOL    HW225770   0.267   0.896   5.707 -0.0233  0.7540  1.4842
 4771SOL     OW25771   2.225   2.696  11.300  0.5078  0.5073  0.1063
 4771SOL    HW125772   2.301   2.681  11.356 -0.5171 -1.0396  1.1207
 4771SOL    HW225773   2.259   2.760  11.239  1.1542  1.8176  1.8560
 4772SOL     OW25774   4.423   2.000   5.733 -0.1443 -0.3024 -0.0435
 4772SOL    HW125775   4.385   1.914   5.756 -1.0868 -0.0810 -0.7811
 4772SOL    HW225776   4.404   1.998   5.640  1.4987 -1.7305 -0.3471
 4773SOL     OW25777   1.721   4.094   9.110 -0.0282  0.0720  0.0554
 4773SOL    HW125778   1.774   4.035   9.164 -0.5671  1.5995  2.2374
 4773SOL    HW225779   1.643   4.039   9.103 -0.6970  0.3681  5.2995
 4774SOL     OW25780   4.076   4.284   8.203  0.4682  0.2025  0.4642
 4774SOL    HW125781   4.022   4.339   8.145  0.4330 -0.1992  0.1175
 4774SOL    HW225782   4.028   4.201   8.200 -2.7362  1.9821  2.3546
 4775SOL     OW25783   2.254   3.633  17.429  0.4860 -0.3493  0.0815
 4775SOL    HW125784   2.291   3.688  17.360 -1.5729  0.4974 -0.3360
 4775SOL    HW225785   2.329   3.594  17.474  2.7800  0.8844 -2.6756
 4776SOL     OW25786   2.551   1.924  15.823 -0.1279  1.4869  0.0203
 4776SOL    HW125787   2.599   1.845  15.849 -0.4839  0.9891 -0.8363
 4776SOL    HW225788   2.619   1.987  15.799  1.3038  0.7758  2.1834
 4777SOL     OW25789   0.767   4.672   5.109 -0.0112 -0.8126 -0.3615
 4777SOL    HW125790   0.786   0.036   5.083 -0.3195 -0.4281  0.7397
 4777SOL    HW225791   0.795   4.621   5.033 -0.5990 -0.6274 -0.7063
 4778SOL     OW25792   1.626   1.681  14.918 -0.6648  0.3751 -0.0194
 4778SOL    HW125793   1.612   1.719  14.832  3.4649 -0.4096 -1.0180
 4778SOL    HW225794   1.549   1.708  14.968 -0.0454  0.3706  0.9337
 4779SOL     OW25795   1.158   1.045  12.863 -0.2745  0.3740  0.1086
 4779SOL    HW125796   1.127   1.089  12.942 -1.4162  0.9566 -0.6666
 4779SOL    HW225797   1.095   1.078  12.799 -2.7853  0.5681  2.7259
 4780SOL     OW25798   0.733   1.866  14.531  0.0569  0.0266  0.2167
 4780SOL    HW125799   0.641   1.858  14.507 -0.4209  3.0042  1.0352
 4780SOL    HW225800   0.769   1.852  14.443 -0.9501 -1.4333  0.0576
 4781SOL     OW25801   1.594   2.498   8.395 -0.4626  0.3381 -0.4012
 4781SOL    HW125802   1.592   2.583   8.437 -1.1218  0.8627 -1.4982
 4781SOL    HW225803   1.502   2.499   8.369  0.2072 -0.4716 -2.7588
 4782SOL     OW25804   2.371   1.643   6.846 -0.4477 -0.3374 -0.3864
 4782SOL    HW125805   2.379   1.548   6.838  0.1222 -0.3866  0.7732
 4782SOL    HW225806   2.387   1.650   6.940  0.4475  1.1842 -0.6476
 4783SOL     OW25807   1.295   0.770  16.494  0.2251 -0.1420 -0.2906
 4783SOL    HW125808   1.350   0.806  16.424  0.8741  2.1394  1.3916
 4783SOL    HW225809   1.339   0.799  16.574 -1.7629  2.2531 -0.0686
 4784SOL     OW25810   2.216   2.108   6.626 -0.1842 -0.1344  0.2408
 4784SOL    HW125811   2.175   2.088   6.541  0.4529 -1.9242  0.3658
 4784SOL    HW225812   2.214   2.202   6.642  0.4044 -0.1176  0.2129
 4785SOL     OW25813   3.569   0.199   0.909  0.1948 -0.6327  0.6557
 4785SOL    HW125814   3.613   0.252   0.976 -2.6031 -0.3865  2.2989
 4785SOL    HW225815   3.624   0.121   0.915  1.0703 -0.1872 -1.5544
 4786SOL     OW25816   3.542   1.618   9.555  0.0417 -0.6867  0.3612
 4786SOL    HW125817   3.573   1.528   9.560 -0.9518 -1.0651 -0.4096
 4786SOL    HW225818   3.616   1.657   9.602  0.3283 -0.2174 -0.4845
 4787SOL     OW25819   4.379   1.832  11.813 -0.5961  0.5366 -0.2289
 4787SOL    HW125820   4.387   1.861  11.722 -1.2380  0.4494 -0.3154
 4787SOL    HW225821   4.284   1.832  11.826 -0.4726 -1.0226  0.7292
 4788SOL     OW25822   3.555   3.873  10.666  0.5572  0.0224 -0.2981
 4788SOL    HW125823   3.649   3.889  10.652  0.1579  1.6424 -1.0298
 4788SOL    HW225824   3.559   3.777  10.666 -0.2458 -0.0114  0.6798
 4789SOL     OW25825   0.032   1.589  11.553  0.0082 -1.0810  0.2062
 4789SOL    HW125826   4.695   1.532  11.597 -0.0497  0.1074  1.6424
 4789SOL    HW225827   0.074   1.537  11.484  0.4930 -1.4672  0.8007
 4790SOL     OW25828   3.913   4.243   7.804 -0.6475 -0.8042 -0.4062
 4790SOL    HW125829   3.969   4.175   7.842 -1.9274 -2.6902 -1.8412
 4790SOL    HW225830   3.853   4.261   7.876 -0.3507  0.6959 -0.5480
 4791SOL     OW25831   3.320   1.546   8.692  0.3921  0.2243  1.3100
 4791SOL    HW125832   3.360   1.633   8.690  2.0996 -0.5792  0.2683
 4791SOL    HW225833   3.227   1.567   8.692  0.2127 -0.5833 -4.4160
 4792SOL     OW25834   1.705   3.912   7.730  0.2093  0.0557 -0.0309
 4792SOL    HW125835   1.784   3.910   7.784 -1.2608 -0.6593  2.1060
 4792SOL    HW225836   1.734   3.986   7.676  1.1577  0.2100  0.6851
 4793SOL     OW25837   2.606   3.828  11.817  0.6187 -0.5329  0.1414
 4793SOL    HW125838   2.634   3.773  11.743  0.1479 -0.1529 -0.3184
 4793SOL    HW225839   2.521   3.852  11.780  0.9172 -1.0960 -0.9219
 4794SOL     OW25840   2.090   3.502   8.867  0.0560 -0.1533  0.5737
 4794SOL    HW125841   2.136   3.436   8.919 -1.2239 -0.9710  0.6721
 4794SOL    HW225842   2.168   3.556   8.851  0.0365 -0.3188 -0.0667
 4795SOL     OW25843   2.650   3.608   0.709 -0.0737  0.0197 -0.0546
 4795SOL    HW125844   2.565   3.623   0.668  0.1641 -1.5710 -1.1271
 4795SOL    HW225845   2.628   3.520   0.741 -1.6385  1.3217  2.5178
 4796SOL     OW25846   2.034   1.963   5.235  0.2752  0.2358  0.3078
 4796SOL    HW125847   2.068   2.009   5.159 -0.7269  0.8974  0.2736
 4796SOL    HW225848   1.998   2.036   5.284 -1.1379  0.1595 -0.6484
 4797SOL     OW25849   2.160   4.418   4.071 -0.5205  0.1680 -0.2822
 4797SOL    HW125850   2.144   4.479   4.143  0.5578  1.1304 -0.8534
 4797SOL    HW225851   2.239   4.375   4.107 -0.1102  1.8959  0.9060
 4798SOL     OW25852   0.766   0.821   5.940  0.0754  0.1501  0.3069
 4798SOL    HW125853   0.769   0.916   5.930 -0.4081  0.1979  0.6278
 4798SOL    HW225854   0.787   0.815   6.033 -1.0367 -2.0512  0.4178
 4799SOL     OW25855   3.317   0.431   8.450  0.0088 -0.2213  0.4279
 4799SOL    HW125856   3.312   0.337   8.436  0.0339 -0.3769  1.4504
 4799SOL    HW225857   3.331   0.471   8.365 -0.9654  0.2133  0.4596
 4800SOL     OW25858   3.902   3.620  10.049 -0.3038 -0.0977  0.0818
 4800SOL    HW125859   3.811   3.615  10.019 -0.2968  1.6238 -0.2220
 4800SOL    HW225860   3.907   3.688  10.116 -1.2853 -0.0072  0.0709
 4801SOL     OW25861   0.916   2.723   4.385  0.3023 -0.0682  0.1721
 4801SOL    HW125862   0.984   2.718   4.453  0.6307 -0.1936 -0.1694
 4801SOL    HW225863   0.849   2.767   4.437  1.0774 -3.5179  4.1632
 4802SOL     OW25864   2.130   3.034   0.240  0.4732  0.5132  0.2267
 4802SOL    HW125865   2.093   3.113   0.202  0.5509  0.8642  0.8869
 4802SOL    HW225866   2.125   2.976   0.164  0.6753  0.3464  0.3406
 4803SOL     OW25867   0.725   4.532  15.543 -0.2043  0.1624  0.4105
 4803SOL    HW125868   0.733   4.439  15.565  2.4273  0.9573  2.7069
 4803SOL    HW225869   0.633   4.550  15.563  0.5841  6.0844 -1.4264
 4804SOL     OW25870   0.336   1.531   3.308  0.4455 -0.3645 -0.0733
 4804SOL    HW125871   0.360   1.624   3.304 -0.1340 -0.3080 -2.2792
 4804SOL    HW225872   0.256   1.530   3.256  2.3230 -1.3238 -2.9402
 4805SOL     OW25873   4.214   0.799   0.311  0.1220 -0.6012  0.1138
 4805SOL    HW125874   4.128   0.792   0.351 -0.0368  1.6328  0.1551
 4805SOL    HW225875   4.248   0.882   0.343 -1.0287 -0.6000  1.3082
 4806SOL     OW25876   3.062   0.424   9.255  0.5903 -0.0391 -0.2086
 4806SOL    HW125877   3.037   0.383   9.172 -0.3802  3.7659 -1.7620
 4806SOL    HW225878   3.028   0.513   9.245  0.6344  0.1116  1.0166
 4807SOL     OW25879   4.279   2.444   7.595 -0.3607 -0.4446 -0.0576
 4807SOL    HW125880   4.330   2.483   7.666  0.8210 -0.4375 -0.8944
 4807SOL    HW225881   4.228   2.381   7.645  0.8018 -2.1697 -1.0062
 4808SOL     OW25882   1.994   3.308   0.538  0.2301  0.1480 -0.3500
 4808SOL    HW125883   1.907   3.339   0.563 -0.4415 -0.3722 -2.0471
 4808SOL    HW225884   1.968   3.224   0.501 -2.9041  1.4356 -1.0602
 4809SOL     OW25885   2.958   2.292   2.190 -0.4012 -0.7417  0.2997
 4809SOL    HW125886   2.884   2.246   2.150 -1.5594  1.8487 -0.5660
 4809SOL    HW225887   3.001   2.332   2.115 -1.0996  1.7762  1.2121
 4810SOL     OW25888   1.531   3.327   0.811 -0.3100  0.2147 -0.1781
 4810SOL    HW125889   1.454   3.364   0.767  0.0242  3.3588  1.8201
 4810SOL    HW225890   1.509   3.360   0.898  1.2024  1.0957 -0.1296
 4811SOL     OW25891   2.921   2.572   4.665 -0.2257 -0.0577  0.5353
 4811SOL    HW125892   2.874   2.540   4.587  0.0451 -0.2321  0.4438
 4811SOL    HW225893   2.883   2.657   4.686 -0.3077  0.3553 -1.2217
 4812SOL     OW25894   4.014   1.081  13.262  0.9369 -0.1021 -0.2854
 4812SOL    HW125895   3.945   1.050  13.203 -0.2273 -1.1490  1.6000
 4812SOL    HW225896   4.087   1.037  13.220  1.0363 -1.4698  1.3368
 4813SOL     OW25897   1.811   1.938   6.715 -0.9811  0.2185 -0.1187
 4813SOL    HW125898   1.838   2.020   6.757 -0.1219 -1.2195  2.1094
 4813SOL    HW225899   1.875   1.874   6.744 -0.4042  0.2294 -1.3331
 4814SOL     OW25900   0.810   4.602   7.276 -0.3534 -0.3610  0.1255
 4814SOL    HW125901   0.808   4.609   7.372  1.1999 -0.9008  0.2065
 4814SOL    HW225902   0.719   4.617   7.251 -0.6735 -0.5161  1.1646
 4815SOL     OW25903   4.219   2.577   1.442  0.1206 -0.1492 -0.0931
 4815SOL    HW125904   4.237   2.513   1.373  1.3153 -0.9565  0.9543
 4815SOL    HW225905   4.301   2.627   1.435 -0.1695  0.5696  1.5437
 4816SOL     OW25906   2.617   1.634  12.488 -0.1962  0.0629  0.6498
 4816SOL    HW125907   2.661   1.627  12.403 -0.5517  0.5090  0.4282
 4816SOL    HW225908   2.575   1.718  12.471 -0.1358  0.1726  1.0394
 4817SOL     OW25909   2.131   2.414   6.969  0.3005 -0.4749 -0.1805
 4817SOL    HW125910   2.051   2.450   7.008  0.0021 -2.4656  1.0206
 4817SOL    HW225911   2.198   2.466   7.013 -0.3209 -1.2573  1.6917
 4818SOL     OW25912   2.944   4.704   6.279 -0.3094 -0.2663  0.4898
 4818SOL    HW125913   3.035   4.697   6.306 -0.0859  0.6053 -0.0408
 4818SOL    HW225914   2.895   4.687   6.360  0.4753 -0.5776  0.8999
 4819SOL     OW25915   1.857   1.094   5.997  0.1841 -0.6481 -0.7481
 4819SOL    HW125916   1.930   1.150   5.972 -0.5852  0.6670 -0.0228
 4819SOL    HW225917   1.857   1.036   5.921  0.5855  0.3265 -1.4894
 4820SOL     OW25918   4.155   1.289   7.173 -0.5379  0.1616 -0.4370
 4820SOL    HW125919   4.108   1.255   7.097  1.7770  1.3477 -2.4078
 4820SOL    HW225920   4.237   1.239   7.170 -0.1892  0.7643 -0.7725
 4821SOL     OW25921   3.709   0.181   5.207  0.0857 -0.8778 -0.2186
 4821SOL    HW125922   3.788   0.181   5.261 -1.9884  1.5185  2.8181
 4821SOL    HW225923   3.741   0.142   5.126 -1.3099  1.3661 -1.8561
 4822SOL     OW25924   2.438   4.373   4.172  0.1037 -0.1450  0.0703
 4822SOL    HW125925   2.430   4.288   4.216 -2.3429 -0.8202 -1.6161
 4822SOL    HW225926   2.430   4.432   4.247 -0.8691  2.0773 -1.7972
 4823SOL     OW25927   2.350   0.524   3.394  0.2763 -0.7373 -0.5982
 4823SOL    HW125928   2.407   0.583   3.345 -0.9435  0.7623 -0.2287
 4823SOL    HW225929   2.271   0.518   3.340  0.2668  4.3252 -1.1201
 4824SOL     OW25930   0.024   1.727   8.884 -0.3444  0.1121  0.2420
 4824SOL    HW125931   4.678   1.781   8.918 -0.0273  2.2558 -2.5412
 4824SOL    HW225932   0.008   1.639   8.917 -1.3203 -0.0807 -0.7336
 4825SOL     OW25933   4.158   0.117  14.791 -0.4566  0.0528  0.1668
 4825SOL    HW125934   4.122   0.101  14.878  0.1255  0.2036  0.4363
 4825SOL    HW225935   4.208   0.036  14.783 -1.3543 -0.2457 -2.5135
 4826SOL     OW25936   0.424   0.736  15.410 -0.1592  0.7175  0.5363
 4826SOL    HW125937   0.409   0.829  15.424 -2.8597  0.6096 -1.4729
 4826SOL    HW225938   0.520   0.729  15.408 -0.1875  0.9462 -2.5091
 4827SOL     OW25939   4.278   0.536   2.429  0.5094 -0.1600  0.6373
 4827SOL    HW125940   4.232   0.613   2.463  2.7358  1.4718 -0.0228
 4827SOL    HW225941   4.364   0.577   2.428  0.2791  0.3128  0.3644
 4828SOL     OW25942   0.146   4.647   5.645  0.2114  0.3440 -0.3742
 4828SOL    HW125943   0.107   4.561   5.659 -1.7574  1.6650  2.3333
 4828SOL    HW225944   0.178   4.665   5.734  2.1224  1.3187 -1.2780
 4829SOL     OW25945   0.676   2.918   0.084 -0.0947 -0.4533 -0.1618
 4829SOL    HW125946   0.724   2.999   0.103 -2.0246  0.4771  0.7379
 4829SOL    HW225947   0.683   2.871   0.167 -0.1827  0.2167  0.2190
 4830SOL     OW25948   1.901   4.626   5.340 -0.4388  0.0598  0.2256
 4830SOL    HW125949   1.985   4.665   5.362 -0.4766  1.2208 -1.6815
 4830SOL    HW225950   1.880   4.565   5.410 -2.7761  1.0430  0.4044
 4831SOL     OW25951   4.351   1.030   0.133  0.2013 -0.1657 -0.1847
 4831SOL    HW125952   4.362   0.936   0.147  1.2582  0.0941  0.7315
 4831SOL    HW225953   4.343   1.038   0.038  1.0724  0.8394 -0.1618
 4832SOL     OW25954   2.550   2.987   5.583 -0.1829 -0.8386  0.1403
 4832SOL    HW125955   2.589   3.059   5.535  1.6328 -0.5606  2.0397
 4832SOL    HW225956   2.491   2.960   5.512 -0.7950 -0.3283  0.4575
 4833SOL     OW25957   3.171   1.892   3.481  0.2017  0.3427  0.4350
 4833SOL    HW125958   3.144   1.821   3.540  0.0784  0.5298  0.6057
 4833SOL    HW225959   3.089   1.942   3.474  0.6790  0.4737 -4.0237
 4834SOL     OW25960   2.840   4.407   9.803  0.7544  0.1757 -0.1765
 4834SOL    HW125961   2.897   4.484   9.804  1.2016 -0.1816  2.5426
 4834SOL    HW225962   2.788   4.414   9.883 -1.7030 -1.6938 -1.6205
 4835SOL     OW25963   1.041   1.030   6.546  0.0377 -0.0793 -0.0493
 4835SOL    HW125964   0.993   0.949   6.561 -0.6763  0.5511  1.0509
 4835SOL    HW225965   1.130   1.002   6.567 -0.4624 -2.5532 -1.2459
 4836SOL     OW25966   2.091   4.249   8.353  0.1864 -0.1070 -0.4877
 4836SOL    HW125967   2.047   4.181   8.404 -1.8758  0.9051 -0.9283
 4836SOL    HW225968   2.141   4.298   8.419  1.7945 -1.6717 -0.5370
 4837SOL     OW25969   4.054   2.557   5.720 -0.2839  0.2968  0.1154
 4837SOL    HW125970   4.097   2.616   5.782  1.3437 -0.3062 -0.4307
 4837SOL    HW225971   4.084   2.595   5.637  0.3297 -0.7512 -0.1383
 4838SOL     OW25972   1.257   2.603   3.739  0.1441 -0.0554  0.6759
 4838SOL    HW125973   1.245   2.537   3.671  3.6005 -0.2819  0.2807
 4838SOL    HW225974   1.351   2.610   3.754 -0.0471 -0.0852  1.8386
 4839SOL     OW25975   2.471   1.015   0.926 -0.2799 -0.4147 -0.4047
 4839SOL    HW125976   2.565   1.005   0.913 -0.0517  1.6070 -0.3136
 4839SOL    HW225977   2.471   1.097   0.977  0.2591 -0.7540  0.1315
 4840SOL     OW25978   0.507   0.450   1.057 -0.0765 -0.8081 -0.6887
 4840SOL    HW125979   0.448   0.402   0.999 -0.3089  0.4910 -1.5340
 4840SOL    HW225980   0.558   0.376   1.090  1.6633  0.7042  0.0346
 4841SOL     OW25981   0.933   3.175   6.363  0.5339  0.2150  0.8585
 4841SOL    HW125982   0.900   3.246   6.308  1.1982  1.0981  1.6031
 4841SOL    HW225983   0.876   3.103   6.336  1.6669  0.7060 -2.8345
 4842SOL     OW25984   2.052   0.913   6.758 -0.0204  0.0281 -0.1261
 4842SOL    HW125985   1.984   0.940   6.696  0.4834  0.9376 -0.2720
 4842SOL    HW225986   2.099   0.847   6.707 -1.4401  0.6233 -2.2415
 4843SOL     OW25987   1.881   0.017  10.292  0.2544 -0.2607 -0.2654
 4843SOL    HW125988   1.945   0.053  10.353 -0.4626  0.0141  0.3334
 4843SOL    HW225989   1.914   4.655  10.271  1.3661  0.9252 -3.4733
 4844SOL     OW25990   2.309   2.938   2.783 -0.2958  0.3038  0.2771
 4844SOL    HW125991   2.306   2.853   2.826 -1.3075 -0.5831 -1.5462
 4844SOL    HW225992   2.352   2.990   2.851  6.1283 -1.3871 -2.5608
 4845SOL     OW25993   2.873   0.949   9.589  0.2941 -0.1216 -0.5273
 4845SOL    HW125994   2.912   0.947   9.501  0.4258  1.2272 -0.4970
 4845SOL    HW225995   2.831   1.034   9.599  0.5769 -0.0144 -0.2572
 4846SOL     OW25996   4.538   0.819   5.730 -0.6856 -0.8688 -0.2189
 4846SOL    HW125997   4.489   0.781   5.657 -1.6641 -0.3918  0.1816
 4846SOL    HW225998   4.618   0.854   5.692 -0.0663  1.1097  2.9740
 4847SOL     OW25999   4.358   4.661   9.190 -0.2345  0.0027 -0.0355
 4847SOL    HW126000   4.425   4.612   9.237  1.9774  1.2601 -1.8953
 4847SOL    HW226001   4.361   0.026   9.219 -0.2823 -0.7284  2.2596
 4848SOL     OW26002   3.517   1.032   3.037 -0.1643 -0.4962  0.4049
 4848SOL    HW126003   3.464   1.059   2.961  2.1265 -0.1616 -1.0820
 4848SOL    HW226004   3.452   0.985   3.089 -0.3387 -0.0041  0.6297
 4849SOL     OW26005   3.657   4.150   2.763 -0.1834  0.3365  0.2007
 4849SOL    HW126006   3.629   4.198   2.686 -0.2780  3.3629  2.1204
 4849SOL    HW226007   3.731   4.205   2.790 -0.7003  0.2816  1.7669
 4850SOL     OW26008   3.964   3.727   9.729  0.2493  0.5969  0.0252
 4850SOL    HW126009   3.998   3.677   9.803 -2.2032 -0.0675  0.7041
 4850SOL    HW226010   3.976   3.812   9.771 -0.2830  0.7511 -0.1428
 4851SOL     OW26011   4.489   1.445   5.344 -0.2241  0.6779  0.0068
 4851SOL    HW126012   4.451   1.485   5.422  0.7941  0.1570  0.7602
 4851SOL    HW226013   4.576   1.484   5.352 -0.7479  1.5268  1.5504
 4852SOL     OW26014   2.469   3.104   2.411  0.7319  0.0880  0.3660
 4852SOL    HW126015   2.416   3.050   2.352 -3.1643  1.5921  2.4992
 4852SOL    HW226016   2.412   3.179   2.394 -0.6061 -1.0582 -0.2616
 4853SOL     OW26017   1.930   2.352   7.865  0.0022  0.6654  0.1481
 4853SOL    HW126018   1.917   2.295   7.789 -0.4939  1.5255 -0.4194
 4853SOL    HW226019   1.895   2.297   7.935 -0.4043  2.6242  1.4797
 4854SOL     OW26020   4.097   3.874   2.881 -0.3653 -0.2547 -0.5040
 4854SOL    HW126021   4.029   3.833   2.935 -0.0140  0.3820  0.4274
 4854SOL    HW226022   4.100   3.818   2.803 -2.1063  0.6412 -1.2169
 4855SOL     OW26023   4.516   3.793   9.246  0.3331 -0.4197 -0.2095
 4855SOL    HW126024   4.455   3.750   9.186  1.0956  0.3239 -1.5131
 4855SOL    HW226025   4.456   3.803   9.320 -0.5473  1.6560 -1.2010
 4856SOL     OW26026   0.005   2.204   9.676 -0.7310 -0.4711 -0.0659
 4856SOL    HW126027   4.705   2.212   9.584  1.4642 -1.1098 -0.7219
 4856SOL    HW226028   0.100   2.201   9.665 -0.5589  2.6268  0.4831
 4857SOL     OW26029   3.180   3.350  11.742  0.0300  0.2192 -0.2554
 4857SOL    HW126030   3.250   3.385  11.798 -0.9641 -2.1894  2.5038
 4857SOL    HW226031   3.162   3.269  11.791  0.6142  0.8552  1.0189
 4858SOL     OW26032   0.168   1.659   1.927 -0.4802 -0.2129 -0.4502
 4858SOL    HW126033   0.205   1.658   1.838  0.9193  2.4302  0.0966
 4858SOL    HW226034   0.209   1.737   1.964 -1.8225  0.1542  0.2405
 4859SOL     OW26035   2.546   0.750   4.022 -0.5508 -0.1119 -0.7105
 4859SOL    HW126036   2.539   0.664   4.063 -0.2867 -0.8300 -2.1718
 4859SOL    HW226037   2.479   0.793   4.075  0.0969 -0.6591  0.5334
 4860SOL     OW26038   3.523   2.924   5.822  0.3968 -0.1251 -0.2530
 4860SOL    HW126039   3.453   2.969   5.869  1.5881  0.4836  0.9018
 4860SOL    HW226040   3.511   2.947   5.729  0.0113  1.0857  0.0943
 4861SOL     OW26041   0.905   2.755   7.393 -0.1613  0.0031  0.2038
 4861SOL    HW126042   0.823   2.710   7.371 -1.3218  1.6414  1.1375
 4861SOL    HW226043   0.877   2.781   7.481 -1.4230  1.4530 -0.6336
 4862SOL     OW26044   2.132   3.216   7.008  0.3343  0.5273 -0.4358
 4862SOL    HW126045   2.148   3.308   6.988 -0.7654  1.0468  1.1091
 4862SOL    HW226046   2.205   3.175   6.963  0.2646 -0.7614  0.6097
 4863SOL     OW26047   1.616   4.704   3.247  0.6106 -0.0308  0.0664
 4863SOL    HW126048   1.636   0.057   3.197 -1.8706  2.1672  2.5949
 4863SOL    HW226049   1.530   0.004   3.278  1.5912  1.7166  1.2952
 4864SOL     OW26050   2.688   1.912   7.675  0.2663  0.0288  0.1416
 4864SOL    HW126051   2.775   1.875   7.664 -0.0337  0.7933 -4.5618
 4864SOL    HW226052   2.659   1.858   7.749 -0.5068  1.2385  0.7188
 4865SOL     OW26053   2.530   0.167   4.321 -0.0963 -0.0373 -0.2468
 4865SOL    HW126054   2.533   0.073   4.336 -1.8396  0.0607  0.6873
 4865SOL    HW226055   2.542   0.199   4.410  0.3057  3.4457 -1.5256
 4866SOL     OW26056   3.833   0.780   8.966 -0.0972  0.2942 -0.1279
 4866SOL    HW126057   3.836   0.767   9.061  1.2962  1.9572  0.0488
 4866SOL    HW226058   3.853   0.689   8.945 -0.6490 -0.2942  1.8871
 4867SOL     OW26059   4.582   3.546   8.546 -0.2472 -0.0372  0.2935
 4867SOL    HW126060   4.597   3.528   8.639 -1.2970 -0.9220  0.2956
 4867SOL    HW226061   4.603   3.639   8.540 -1.0308  0.2423  1.9884
 4868SOL     OW26062   3.641   4.480   7.664  0.1482 -0.2245 -0.3088
 4868SOL    HW126063   3.679   4.413   7.606  0.5359 -0.6563  0.4478
 4868SOL    HW226064   3.720   4.527   7.692 -0.0414 -0.4130  0.5252
 4869SOL     OW26065   3.956   4.529   6.742  0.0048 -0.2154  0.0239
 4869SOL    HW126066   3.862   4.517   6.757  0.2944 -0.6142  1.5023
 4869SOL    HW226067   3.961   4.608   6.688 -2.2932  0.4081  0.7413
 4870SOL     OW26068   3.449   0.945   3.827  0.2697 -0.6200 -0.1703
 4870SOL    HW126069   3.447   1.026   3.775  1.0817  1.2219  2.7334
 4870SOL    HW226070   3.511   0.971   3.895  0.4569 -0.0153 -0.5703
 4871SOL     OW26071   0.720   4.254   8.536  0.6168  0.5169  0.5317
 4871SOL    HW126072   0.698   4.165   8.510 -0.2991  1.1076 -0.7265
 4871SOL    HW226073   0.655   4.243   8.606  0.6002 -0.3593  0.3734
 4872SOL     OW26074   2.276   4.496   6.064 -0.1719  0.6079 -0.1279
 4872SOL    HW126075   2.322   4.560   6.011 -0.5704  2.4428  1.7321
 4872SOL    HW226076   2.331   4.417   6.059  2.6554  2.4771  1.1922
 4873SOL     OW26077   1.436   2.149   7.306 -0.2918 -0.6734  0.5798
 4873SOL    HW126078   1.422   2.239   7.337  1.6121  0.0867 -0.6870
 4873SOL    HW226079   1.402   2.092   7.374 -2.2026 -0.2756 -0.0553
 4874SOL     OW26080   1.960   3.282   2.995 -0.3921  0.1963  0.0638
 4874SOL    HW126081   1.934   3.345   2.928  0.3355 -0.8023 -1.1629
 4874SOL    HW226082   1.923   3.314   3.077 -1.0631  0.6704 -0.4266
 4875SOL     OW26083   2.112   3.817   3.655 -0.4878  0.4101 -0.4886
 4875SOL    HW126084   2.086   3.856   3.572  0.8219  1.6257 -0.3206
 4875SOL    HW226085   2.122   3.897   3.707  0.4789 -1.2540  1.8876
 4876SOL     OW26086   4.233   3.580  10.323 -0.0196 -0.2979 -0.0065
 4876SOL    HW126087   4.206   3.546  10.238 -4.7254 -1.9915  2.1395
 4876SOL    HW226088   4.320   3.615  10.303 -0.8818  1.8091 -0.0879
 4877SOL     OW26089   0.030   3.469  14.717 -0.5358 -0.4639 -0.1092
 4877SOL    HW126090   0.043   3.563  14.707 -0.6662 -0.6029 -1.5701
 4877SOL    HW226091   4.664   3.460  14.688 -0.5398  1.4176 -0.6767
 4878SOL     OW26092   3.283   4.572   8.659 -0.1363  0.2363 -0.3138
 4878SOL    HW126093   3.373   4.544   8.674 -0.3396  0.3215  1.1097
 4878SOL    HW226094   3.255   4.506   8.596  1.7644 -1.4195  0.5713
 4879SOL     OW26095   0.895   1.737   2.233 -0.0398  0.1956  0.4417
 4879SOL    HW126096   0.931   1.714   2.319 -0.3301 -0.9110  0.2616
 4879SOL    HW226097   0.821   1.678   2.230 -0.2841  0.6544 -1.9664
 4880SOL     OW26098   2.399   0.308   5.294  0.3771  0.1074 -0.2554
 4880SOL    HW126099   2.420   0.280   5.205 -0.6659 -1.7584  0.0852
 4880SOL    HW226100   2.341   0.382   5.278  0.9730 -0.3386 -4.6211
 4881SOL     OW26101   1.024   3.871   8.751 -0.1328  0.2511 -0.1306
 4881SOL    HW126102   0.969   3.942   8.719 -0.5993 -0.4634 -0.9286
 4881SOL    HW226103   1.047   3.911   8.835 -1.2824 -0.6609  0.6065
 4882SOL     OW26104   4.316   3.123  16.229  0.5597  0.0485 -0.5636
 4882SOL    HW126105   4.273   3.084  16.305 -2.9695  2.8924 -1.0641
 4882SOL    HW226106   4.262   3.194  16.194 -0.5172 -0.8525 -0.7447
 4883SOL     OW26107   4.369   0.190   9.833  0.2185 -0.1879  0.0077
 4883SOL    HW126108   4.361   0.229   9.920 -2.3544  1.5982 -1.0400
 4883SOL    HW226109   4.443   0.129   9.846  0.2677 -0.4273 -1.4783
 4884SOL     OW26110   4.064   0.805   6.218 -0.2355  0.0834 -0.6857
 4884SOL    HW126111   4.148   0.851   6.223 -0.1471 -0.1668  0.0286
 4884SOL    HW226112   4.011   0.856   6.280  0.3011 -2.4891  1.8611
 4885SOL     OW26113   2.284   1.957   3.935  0.2226 -0.2308  0.3132
 4885SOL    HW126114   2.367   2.002   3.918  0.5680 -1.2228 -0.6123
 4885SOL    HW226115   2.286   1.886   3.872  1.6730  2.4475 -2.6675
 4886SOL     OW26116   1.413   3.019   7.585  0.4558  0.3890  0.2916
 4886SOL    HW126117   1.423   3.113   7.571  3.1120  0.3436  1.7583
 4886SOL    HW226118   1.364   3.019   7.667 -2.5088 -0.9883 -1.5075
 4887SOL     OW26119   2.395   2.639   5.674  0.1192 -0.1043  0.0828
 4887SOL    HW126120   2.437   2.568   5.722  1.5326  0.6774 -0.0033
 4887SOL    HW226121   2.445   2.626   5.594 -2.3047 -1.1495 -1.2536
 4888SOL     OW26122   3.310   4.034   7.659  0.6668 -0.5825  0.2979
 4888SOL    HW126123   3.289   4.113   7.608  1.5528 -0.0263  0.8060
 4888SOL    HW226124   3.281   4.068   7.743 -0.1742 -2.7195  0.8594
 4889SOL     OW26125   0.092   3.448   1.478  0.1807  0.3719  0.1020
 4889SOL    HW126126   0.065   3.357   1.493  2.8200 -0.6888 -1.6195
 4889SOL    HW226127   0.098   3.476   1.569  1.4410  0.1152  0.0981
 4890SOL     OW26128   0.464   0.198   5.256 -0.4952 -0.0472  0.2856
 4890SOL    HW126129   0.453   0.113   5.215  1.3419 -0.6830  1.1161
 4890SOL    HW226130   0.438   0.171   5.344  1.9475 -2.1391  0.3701
 4891SOL     OW26131   3.792   3.561   3.776  0.0977  0.4219 -0.4762
 4891SOL    HW126132   3.878   3.534   3.807 -0.0983  1.1118  0.6645
 4891SOL    HW226133   3.748   3.480   3.751 -1.1505  1.1528 -0.6532
 4892SOL     OW26134   4.429   0.986  11.176  0.0708 -0.0855 -0.4818
 4892SOL    HW126135   4.431   0.989  11.272 -2.9768 -2.0580 -0.3493
 4892SOL    HW226136   4.367   0.913  11.175  1.1522 -1.0140  0.3414
 4893SOL     OW26137   2.118   1.415   3.444  0.4039 -0.2476 -0.0640
 4893SOL    HW126138   2.074   1.332   3.428  0.8654 -0.2861 -1.0930
 4893SOL    HW226139   2.140   1.392   3.534 -0.8546 -3.1688 -0.5110
 4894SOL     OW26140   0.698   2.835  13.533 -0.4746 -0.3327  0.0075
 4894SOL    HW126141   0.706   2.741  13.547  1.2483 -0.4004 -1.4126
 4894SOL    HW226142   0.790   2.862  13.525 -0.4012 -0.8988 -1.1319
 4895SOL     OW26143   3.709   3.516   2.203 -0.6938 -0.1706  0.1564
 4895SOL    HW126144   3.743   3.516   2.293  0.8866 -0.7609 -0.4318
 4895SOL    HW226145   3.638   3.453   2.204 -0.7119 -0.1346  1.6820
 4896SOL     OW26146   1.303   4.107  15.694  0.2885  0.5181 -0.1306
 4896SOL    HW126147   1.302   4.132  15.602  0.3943  0.7797 -0.0594
 4896SOL    HW226148   1.302   4.012  15.683 -0.5351  0.1325  3.0761
 4897SOL     OW26149   1.803   2.587   2.763 -0.7953  0.0518  0.0259
 4897SOL    HW126150   1.821   2.614   2.853 -1.0791  1.3177 -0.2910
 4897SOL    HW226151   1.708   2.578   2.758 -0.7890  0.1386 -0.2864
 4898SOL     OW26152   0.967   0.200  10.850  0.2113 -0.1499 -0.4682
 4898SOL    HW126153   0.961   0.150  10.769  3.4212 -0.9684 -0.1993
 4898SOL    HW226154   1.003   0.134  10.910  0.8226  0.5251 -0.0916
 4899SOL     OW26155   4.105   1.666   2.126 -0.2528  0.0439 -0.0318
 4899SOL    HW126156   4.156   1.730   2.176  1.5216 -0.8578 -0.6963
 4899SOL    HW226157   4.133   1.581   2.160  0.6511  0.2980 -0.1253
 4900SOL     OW26158   3.403   3.245   3.681  0.2859 -0.1826 -0.2444
 4900SOL    HW126159   3.374   3.166   3.728  1.6177  0.0520  0.9706
 4900SOL    HW226160   3.327   3.302   3.689 -0.2271 -0.8620 -0.2739
 4901SOL     OW26161   1.786   2.839  11.038  0.4707  0.0028 -0.6329
 4901SOL    HW126162   1.863   2.895  11.050  0.7615 -0.0935 -2.1775
 4901SOL    HW226163   1.734   2.875  11.110  0.8338  0.3495 -0.5380
 4902SOL     OW26164   3.415   4.103   2.013  0.0738  0.4604  0.5967
 4902SOL    HW126165   3.464   4.021   2.017 -0.8284 -0.1078 -0.0611
 4902SOL    HW226166   3.355   4.098   2.087  0.5598 -1.1003  0.8886
 4903SOL     OW26167   2.316   3.079   6.842  0.7964  0.3040 -0.4222
 4903SOL    HW126168   2.383   3.012   6.829  1.2198  0.8287 -0.9423
 4903SOL    HW226169   2.253   3.051   6.776 -0.8502 -0.8994  1.6873
 4904SOL     OW26170   1.337   3.758   4.963  0.0883  0.0245 -0.3470
 4904SOL    HW126171   1.416   3.794   5.005  0.3818  0.9400 -1.6612
 4904SOL    HW226172   1.357   3.759   4.869  1.7736 -1.5699 -0.0176
 4905SOL     OW26173   1.899   3.910   5.922 -0.0110  0.2854  0.7526
 4905SOL    HW126174   1.843   3.985   5.941  0.0027  0.5925 -0.3978
 4905SOL    HW226175   1.848   3.842   5.965 -1.1929  0.9396  0.3838
 4906SOL     OW26176   1.613   1.400  14.939 -0.5320 -0.5717 -0.0036
 4906SOL    HW126177   1.691   1.432  14.893 -0.6434  0.1907  0.3351
 4906SOL    HW226178   1.539   1.445  14.897  0.2008  1.2992  0.7234
 4907SOL     OW26179   2.757   4.257   1.842  0.1594 -0.3658 -0.6647
 4907SOL    HW126180   2.761   4.249   1.747  2.4518  1.2552 -0.6827
 4907SOL    HW226181   2.747   4.167   1.872 -0.1208  0.1804  0.8816
 4908SOL     OW26182   3.374   0.226   6.144  0.4206  0.1065 -0.3604
 4908SOL    HW126183   3.386   0.224   6.049 -1.8880  0.6788 -0.6694
 4908SOL    HW226184   3.457   0.267   6.166  0.5236  0.8777 -2.1647
 4909SOL     OW26185   4.368   1.248   3.235  0.3915 -0.2556  0.1165
 4909SOL    HW126186   4.347   1.203   3.316  1.2276  0.3182  0.6466
 4909SOL    HW226187   4.285   1.227   3.192  0.2319 -1.0629  0.8217
 4910SOL     OW26188   3.849   3.837   8.615  0.1918 -0.0698 -0.2577
 4910SOL    HW126189   3.848   3.844   8.711 -0.3026 -0.8665 -0.2009
 4910SOL    HW226190   3.943   3.831   8.604  0.1342 -1.6380  0.0265
 4911SOL     OW26191   2.025   1.984   6.024 -0.1790 -0.3357 -0.1718
 4911SOL    HW126192   2.062   1.989   5.935 -0.6726  1.5378 -0.2502
 4911SOL    HW226193   1.973   2.063   6.028 -1.3812 -1.0887 -1.0547
 4912SOL     OW26194   2.026   0.834   4.368  0.3603 -0.0084 -0.4328
 4912SOL    HW126195   2.058   0.903   4.309  2.9442  1.3076  2.5402
 4912SOL    HW226196   1.949   0.811   4.315  0.3359 -3.3228  1.0840
 4913SOL     OW26197   2.964   1.281   7.166 -0.0080 -0.7341 -0.0838
 4913SOL    HW126198   2.878   1.246   7.146 -0.7542  0.6987  0.5821
 4913SOL    HW226199   3.003   1.309   7.083 -0.9292 -1.2306 -0.6789
 4914SOL     OW26200   2.361   4.603   2.875  0.1687 -0.3576 -0.1131
 4914SOL    HW126201   2.389   4.512   2.859  0.9333 -0.1145 -0.1752
 4914SOL    HW226202   2.433   4.662   2.853  0.8666 -0.9683  0.5313
 4915SOL     OW26203   0.018   4.164   8.315 -0.0114 -0.1742 -0.4489
 4915SOL    HW126204   0.005   4.112   8.236  0.7974  0.7824 -1.1933
 4915SOL    HW226205   4.652   4.162   8.344 -0.2026 -0.9736 -1.1141
 4916SOL     OW26206   3.336   0.203   0.759  0.2445  0.6180 -0.0900
 4916SOL    HW126207   3.422   0.212   0.800 -0.6184 -0.5405  2.0260
 4916SOL    HW226208   3.348   0.210   0.665  0.6192  2.2806  0.0831
 4917SOL     OW26209   4.697   1.287   1.928  0.3612 -0.2808 -0.2285
 4917SOL    HW126210   4.695   1.191   1.923  0.2440 -0.2663 -0.4417
 4917SOL    HW226211   4.603   1.297   1.937  0.4598 -0.0265  0.4953
 4918SOL     OW26212   1.585   3.054  12.701  0.3573 -0.3100  0.8949
 4918SOL    HW126213   1.542   3.138  12.714  1.4404  0.6448 -1.8415
 4918SOL    HW226214   1.612   3.058  12.610 -0.7422  0.1457  0.5932
 4919SOL     OW26215   4.681   0.838   0.771 -0.0499 -0.1758 -0.0349
 4919SOL    HW126216   4.649   0.914   0.722 -1.4379 -1.4020 -0.9864
 4919SOL    HW226217   4.601   0.791   0.792 -0.5396  0.8138  0.3107
 4920SOL     OW26218   3.904   1.376   9.469 -0.5345  0.1277 -0.4833
 4920SOL    HW126219   3.973   1.314   9.495 -1.0641  0.5925  2.0281
 4920SOL    HW226220   3.955   1.457   9.464  1.2700 -0.8153  2.5716
 4921SOL     OW26221   4.028   3.295   2.340  0.3373 -0.6385 -0.3368
 4921SOL    HW126222   4.070   3.212   2.359 -0.1016 -0.4341  1.5271
 4921SOL    HW226223   3.973   3.266   2.266  1.1585 -0.5685 -0.9723
 4922SOL     OW26224   2.060   3.028   3.013 -0.0480 -0.4008  0.1059
 4922SOL    HW126225   2.032   3.119   3.015 -0.6593 -0.5816 -0.4440
 4922SOL    HW226226   2.131   3.036   2.950 -1.5171  0.9735 -1.3796
 4923SOL     OW26227   2.520   0.957   8.549  0.6714 -0.2633  0.1624
 4923SOL    HW126228   2.547   0.894   8.616  1.6814 -3.1980 -3.0459
 4923SOL    HW226229   2.605   0.987   8.517  0.8860 -0.1710  0.8110
 4924SOL     OW26230   1.409   3.302  16.762  0.6644  0.3047  0.4749
 4924SOL    HW126231   1.452   3.242  16.824  0.3342 -0.1023  0.3036
 4924SOL    HW226232   1.425   3.385  16.807 -0.8604 -0.0574  1.6674
 4925SOL     OW26233   4.048   4.241   4.085  0.1391 -0.2832  0.2034
 4925SOL    HW126234   4.134   4.238   4.043  0.5899 -0.6999  1.1596
 4925SOL    HW226235   4.020   4.151   4.069 -0.5578  0.3120 -1.9552
 4926SOL     OW26236   1.716   1.385   3.857 -0.4138 -0.5761 -0.1852
 4926SOL    HW126237   1.685   1.421   3.774 -0.3493 -1.5834 -0.6545
 4926SOL    HW226238   1.732   1.466   3.905  1.0269  0.7023 -2.8524
 4927SOL     OW26239   2.956   4.207   9.636 -0.0686  0.1630 -0.6068
 4927SOL    HW126240   2.896   4.255   9.693 -0.5757  0.5311 -1.4380
 4927SOL    HW226241   2.898   4.165   9.572 -1.3409  0.1788  0.5451
 4928SOL     OW26242   2.797   3.857   0.768 -0.2386  0.0259  0.7160
 4928SOL    HW126243   2.744   3.781   0.792 -0.8619  0.2011 -0.1153
 4928SOL    HW226244   2.733   3.887   0.703  0.8659 -0.0135 -0.3759
 4929SOL     OW26245   0.068   3.101   6.506  0.5179  0.3902  0.6330
 4929SOL    HW126246   0.158   3.130   6.520  0.6828  0.8298 -1.3704
 4929SOL    HW226247   0.032   3.188   6.490 -0.4460  0.2634  2.1983
 4930SOL     OW26248   2.784   2.674   5.975 -0.5617  0.1283  0.4814
 4930SOL    HW126249   2.737   2.741   5.925  0.8235  2.1360  1.8670
 4930SOL    HW226250   2.742   2.593   5.945 -0.5485  0.5026 -0.5689
 4931SOL     OW26251   1.409   1.856   6.017  0.1367 -0.1292  0.5905
 4931SOL    HW126252   1.358   1.840   5.938  1.3757  1.5863 -0.5618
 4931SOL    HW226253   1.346   1.819   6.079 -0.6757 -1.0371 -0.7927
 4932SOL     OW26254   0.134   0.405   5.093  0.2406 -0.6632  0.7208
 4932SOL    HW126255   0.148   0.474   5.158 -1.8555  1.7063 -1.3408
 4932SOL    HW226256   0.097   0.455   5.020 -0.4309  0.5582  1.8954
 4933SOL     OW26257   2.792   0.745  12.588 -0.2960 -0.2719 -0.4468
 4933SOL    HW126258   2.775   0.652  12.570 -0.4689  0.1884 -2.6839
 4933SOL    HW226259   2.796   0.784  12.501  2.4564 -1.3581 -0.8386
 4934SOL     OW26260   0.105   1.714  10.197 -0.1821  0.1931 -0.6819
 4934SOL    HW126261   0.084   1.675  10.282  0.7792 -0.1086 -0.5858
 4934SOL    HW226262   0.177   1.773  10.218  0.3361 -0.8152  0.3664
 4935SOL     OW26263   1.057   0.622  13.392  0.0105  0.1621  0.0501
 4935SOL    HW126264   1.046   0.668  13.308  1.0252  1.1328  0.4489
 4935SOL    HW226265   1.014   0.671  13.462  0.3027 -2.2156  1.8541
 4936SOL     OW26266   0.088   0.393  14.799 -0.1980  0.5178 -0.1651
 4936SOL    HW126267   0.068   0.300  14.808 -1.6450  0.7158 -1.3941
 4936SOL    HW226268   0.005   0.436  14.819  0.8649  2.7884 -0.6692
 4937SOL     OW26269   1.602   4.226   3.741  0.2195  0.0362 -0.0944
 4937SOL    HW126270   1.685   4.267   3.717 -1.0753  1.6629 -1.8920
 4937SOL    HW226271   1.565   4.207   3.654 -1.8450  0.4783  0.6954
 4938SOL     OW26272   0.691   2.913   5.850  0.2188  0.0214 -0.6406
 4938SOL    HW126273   0.752   2.984   5.869 -1.0872  1.4614 -1.7809
 4938SOL    HW226274   0.722   2.878   5.766  1.7856 -0.1870  0.0177
 4939SOL     OW26275   2.831   1.111   5.118  0.1313 -0.0624  0.9116
 4939SOL    HW126276   2.797   1.190   5.160  0.3318 -1.1462  3.1130
 4939SOL    HW226277   2.841   1.059   5.198 -0.1076  0.8795  1.5554
 4940SOL     OW26278   2.547   2.315   7.645 -0.0096 -0.5482  0.5004
 4940SOL    HW126279   2.492   2.393   7.649  1.8386  0.8069 -0.6212
 4940SOL    HW226280   2.490   2.254   7.597  0.3297  1.2576 -2.1936
 4941SOL     OW26281   4.091   4.692   0.353 -0.4562  0.3704 -0.3411
 4941SOL    HW126282   4.173   4.670   0.398 -0.7965 -0.3339 -0.0622
 4941SOL    HW226283   4.125   0.007   0.273  0.1435  1.0990  0.2975
 4942SOL     OW26284   2.537   4.608   7.019 -0.4612 -0.2341  0.2229
 4942SOL    HW126285   2.599   4.560   6.965  1.4456  0.0906  2.1409
 4942SOL    HW226286   2.586   4.599   7.101  1.3450  0.6898 -0.7803
 4943SOL     OW26287   1.565   0.997  13.803 -0.0774  0.0127 -0.2086
 4943SOL    HW126288   1.631   1.043  13.752 -0.9293  0.6093 -0.7747
 4943SOL    HW226289   1.582   0.906  13.779 -2.4057 -0.2126 -1.0180
 4944SOL     OW26290   1.490   1.756   3.084 -0.1210  0.3375  0.6809
 4944SOL    HW126291   1.401   1.760   3.050  0.2056  1.1285 -0.0927
 4944SOL    HW226292   1.515   1.664   3.092 -2.6984 -0.2231  2.1614
 4945SOL     OW26293   4.392   4.719   3.985  0.6326 -0.5510 -0.3881
 4945SOL    HW126294   4.395   4.640   4.039 -0.4862 -0.3490 -0.0248
 4945SOL    HW226295   4.483   4.725   3.957  0.7743  1.5216  0.5436
 4946SOL     OW26296   4.220   0.252   4.160 -0.0268  0.7117  0.5280
 4946SOL    HW126297   4.134   0.293   4.156 -1.0722 -1.4970  0.4287
 4946SOL    HW226298   4.191   0.185   4.222  0.1630  1.0151  0.9395
 4947SOL     OW26299   2.638   2.129   6.394  0.0604 -0.6472  0.3279
 4947SOL    HW126300   2.604   2.088   6.473 -1.5674  1.3843  0.6928
 4947SOL    HW226301   2.597   2.216   6.394 -0.0165 -0.6833  0.5134
 4948SOL     OW26302   1.771   1.663   8.801  0.1781 -0.0914 -0.1242
 4948SOL    HW126303   1.849   1.651   8.746  1.6043  1.3501  1.5848
 4948SOL    HW226304   1.802   1.741   8.848  0.8465  0.4601 -1.4771
 4949SOL     OW26305   0.934   4.595   5.583 -0.0107 -0.5731  0.0655
 4949SOL    HW126306   0.987   4.668   5.615  1.2574 -1.5862  0.3027
 4949SOL    HW226307   0.852   4.638   5.560  0.6180  1.2669  1.3181
 4950SOL     OW26308   3.613   1.041   0.930  0.0721  0.3452  0.1530
 4950SOL    HW126309   3.593   1.048   1.024  0.6143 -2.1600  0.4691
 4950SOL    HW226310   3.696   1.089   0.930  0.2375  0.1154  3.0187
 4951SOL     OW26311   3.147   4.608   4.297 -0.0017  0.8724  0.2145
 4951SOL    HW126312   3.056   4.588   4.320 -0.6536  1.9230 -1.4732
 4951SOL    HW226313   3.154   4.692   4.343 -1.0890  1.9674 -1.6210
 4952SOL     OW26314   3.735   4.154  11.656  0.3317 -0.3411 -0.2163
 4952SOL    HW126315   3.771   4.145  11.568  0.0089  2.2066 -0.6285
 4952SOL    HW226316   3.742   4.066  11.691 -2.0973 -0.0455  1.0213
 4953SOL     OW26317   2.914   1.611   5.224  0.6371 -0.9022 -0.1593
 4953SOL    HW126318   2.982   1.547   5.204  1.5295  0.0228 -0.0812
 4953SOL    HW226319   2.860   1.568   5.291  1.1116 -0.6485  0.3861
 4954SOL     OW26320   1.059   1.006   3.709 -0.5460 -0.0399  0.1787
 4954SOL    HW126321   1.075   1.099   3.696 -2.1982  0.0291 -1.3794
 4954SOL    HW226322   1.144   0.993   3.751 -1.2728  2.1902  2.3259
 4955SOL     OW26323   0.276   3.379   3.352 -0.0690 -0.2968  0.0424
 4955SOL    HW126324   0.266   3.473   3.369  0.2919 -0.4117  0.8501
 4955SOL    HW226325   0.208   3.368   3.285  1.7665 -3.5451 -1.2545
 4956SOL     OW26326   3.098   3.133   6.530  0.2847 -0.2298  0.1211
 4956SOL    HW126327   3.162   3.163   6.594  2.9260 -1.9826 -1.7144
 4956SOL    HW226328   3.052   3.074   6.589 -1.1673  0.5396 -0.2298
 4957SOL     OW26329   3.993   0.239   6.136  0.6945 -0.1760  0.5851
 4957SOL    HW126330   3.951   0.179   6.073  0.7330 -0.6704  1.0298
 4957SOL    HW226331   3.982   0.326   6.098 -0.2942  0.6207  2.7451
 4958SOL     OW26332   4.568   2.538   4.708 -0.5791 -0.4127  0.0197
 4958SOL    HW126333   4.557   2.611   4.768 -2.8412 -0.0433 -0.8609
 4958SOL    HW226334   4.489   2.530   4.655 -0.2283  1.2663 -0.7445
 4959SOL     OW26335   1.684   3.358  16.026 -0.3437  0.1680 -0.1400
 4959SOL    HW126336   1.668   3.451  16.038 -0.1568 -0.0151  1.5761
 4959SOL    HW226337   1.672   3.352  15.931  0.6650 -0.6318 -0.2275
 4960SOL     OW26338   2.982   3.069   5.545  0.4828 -0.0569  0.3102
 4960SOL    HW126339   2.908   3.066   5.484  2.2595 -0.8734 -1.7976
 4960SOL    HW226340   2.954   2.997   5.601 -1.1153  0.0712 -0.3339
 4961SOL     OW26341   4.412   1.647   2.374  0.3458  0.8291  0.2704
 4961SOL    HW126342   4.470   1.664   2.448  3.1845  1.5127 -2.1376
 4961SOL    HW226343   4.383   1.738   2.366 -1.6325  0.2186  0.4792
 4962SOL     OW26344   4.027   0.652   2.597  0.4405  0.0398  0.5125
 4962SOL    HW126345   3.939   0.619   2.611 -0.3062  1.7697  0.0178
 4962SOL    HW226346   4.081   0.586   2.639 -1.0221 -0.1867  2.0394
 4963SOL     OW26347   4.403   2.869   1.633 -0.1633 -0.1792 -0.6439
 4963SOL    HW126348   4.356   2.931   1.577  1.4689 -1.4723 -3.4986
 4963SOL    HW226349   4.425   2.795   1.575 -1.0395 -0.2494 -0.8890
 4964SOL     OW26350   4.235   3.480   7.149 -0.2642  0.6006  0.1591
 4964SOL    HW126351   4.283   3.493   7.230  1.1643 -2.4850 -0.1930
 4964SOL    HW226352   4.226   3.570   7.115  0.9510  0.5833 -0.2179
 4965SOL     OW26353   0.635   4.234  13.040  0.2200 -0.3814  0.1074
 4965SOL    HW126354   0.719   4.277  13.057 -0.9422  1.2783  1.6026
 4965SOL    HW226355   0.643   4.218  12.946 -1.3732  0.1448 -0.1186
 4966SOL     OW26356   3.606   3.290   4.500  0.3865 -0.0610 -0.2009
 4966SOL    HW126357   3.600   3.196   4.521 -2.4968  0.0533 -0.5129
 4966SOL    HW226358   3.630   3.336   4.581 -0.9608  1.3633 -0.6107
 4967SOL     OW26359   0.077   1.522   3.508  0.1676 -0.0053 -0.1512
 4967SOL    HW126360   4.712   1.506   3.533 -0.4854  2.9189 -0.5807
 4967SOL    HW226361   0.058   1.538   3.415 -1.0103  2.6632  0.5306
 4968SOL     OW26362   0.487   3.733   7.967 -0.2969 -0.0767 -0.0962
 4968SOL    HW126363   0.475   3.638   7.962 -0.5539 -0.0312 -0.3349
 4968SOL    HW226364   0.529   3.734   7.881 -1.8390  0.9294 -0.8460
 4969SOL     OW26365   3.811   0.082   6.018 -0.7127  0.0173  0.3299
 4969SOL    HW126366   3.797   0.173   5.990  0.8681  0.5611  1.2268
 4969SOL    HW226367   3.837   0.037   5.938  1.1894 -1.9275  2.0376
 4970SOL     OW26368   2.126   4.156  11.470 -0.0927  0.0323 -0.5340
 4970SOL    HW126369   2.120   4.132  11.377 -0.0158 -0.3054 -0.4539
 4970SOL    HW226370   2.107   4.073  11.513  0.9933  0.7124  1.2505
 4971SOL     OW26371   2.999   1.452   2.456 -0.3164  0.1122  0.2511
 4971SOL    HW126372   2.941   1.493   2.521 -0.5475 -1.9497  1.3392
 4971SOL    HW226373   3.081   1.501   2.469 -0.8503  1.0857 -0.0211
 4972SOL     OW26374   1.815   4.216   5.285  0.3860 -0.3931  0.4841
 4972SOL    HW126375   1.777   4.167   5.358  1.2897 -0.1008  1.1475
 4972SOL    HW226376   1.878   4.275   5.327  0.8786 -1.4329  1.1905
 4973SOL     OW26377   0.303   0.673  11.735 -0.2223  0.0497  0.5401
 4973SOL    HW126378   0.306   0.716  11.820  0.8794 -0.2135  0.6476
 4973SOL    HW226379   0.231   0.717  11.691  0.0994 -1.5598 -1.6267
 4974SOL     OW26380   4.077   1.336   8.223  0.2049  0.2724  0.2553
 4974SOL    HW126381   4.023   1.413   8.241 -1.5043 -0.8456 -0.0277
 4974SOL    HW226382   4.073   1.297   8.310  1.3120 -0.5736 -0.0665
 4975SOL     OW26383   2.323   1.115   4.932 -0.3208 -0.1285 -0.0928
 4975SOL    HW126384   2.241   1.114   4.980 -0.1301 -2.3839  0.2119
 4975SOL    HW226385   2.376   1.094   5.009 -0.0825 -1.9355 -0.7265
 4976SOL     OW26386   2.321   1.123   7.074 -0.3263 -0.4861  0.3775
 4976SOL    HW126387   2.344   1.062   7.004  2.1050 -1.6090  2.1519
 4976SOL    HW226388   2.240   1.164   7.044 -1.1146 -0.7531  2.1302
 4977SOL     OW26389   3.135   1.105   6.906  0.6888  0.0660 -0.3251
 4977SOL    HW126390   3.077   1.040   6.946 -1.2824  0.9864 -1.7244
 4977SOL    HW226391   3.091   1.114   6.822  1.3339 -0.4892 -0.7256
 4978SOL     OW26392   3.631   3.717   5.667  0.2558  0.2321  0.2610
 4978SOL    HW126393   3.684   3.670   5.603  2.6947  0.8124  1.8270
 4978SOL    HW226394   3.572   3.648   5.695  1.5358 -1.6792 -1.7261
 4979SOL     OW26395   4.579   0.410   6.421  0.0179  0.1046 -0.1220
 4979SOL    HW126396   4.599   0.320   6.395 -1.3049  0.3256 -1.9183
 4979SOL    HW226397   4.502   0.431   6.367 -1.0545 -1.7196  0.7349
 4980SOL     OW26398   2.428   3.499   1.207 -0.4792 -0.0378  1.1876
 4980SOL    HW126399   2.420   3.528   1.298 -3.0869  0.8984  0.6751
 4980SOL    HW226400   2.496   3.435   1.224 -1.6829 -1.7963 -0.6852
 4981SOL     OW26401   0.296   0.249   3.482 -0.3780 -0.1755  0.3412
 4981SOL    HW126402   0.281   0.336   3.520 -1.1561 -0.3497  0.4290
 4981SOL    HW226403   0.386   0.230   3.507  0.0018 -1.1813 -1.7729
 4982SOL     OW26404   4.041   4.453   7.667  0.5162  0.1397 -0.2229
 4982SOL    HW126405   3.992   4.526   7.628  0.7561  0.3751 -0.0849
 4982SOL    HW226406   3.975   4.416   7.726  0.3289  2.1441  0.8472
 4983SOL     OW26407   4.240   3.741   7.196  0.3320 -0.4395  0.4357
 4983SOL    HW126408   4.245   3.836   7.183 -0.6407 -0.3247  0.8838
 4983SOL    HW226409   4.224   3.752   7.290 -2.3593 -2.5282  0.2240
 4984SOL     OW26410   0.903   2.086  15.869 -0.4532 -0.1311  0.3165
 4984SOL    HW126411   0.980   2.125  15.828 -0.3658  0.6003  1.1943
 4984SOL    HW226412   0.831   2.123  15.817  1.7516  2.0596 -1.1638
 4985SOL     OW26413   4.339   4.472   4.109 -0.4452  0.3317  0.5589
 4985SOL    HW126414   4.429   4.440   4.119 -0.3200 -0.0186 -1.7223
 4985SOL    HW226415   4.311   4.428   4.029  2.2393  0.3295 -0.3791
 4986SOL     OW26416   0.400   0.538  15.723  0.1786  0.2303  0.1853
 4986SOL    HW126417   0.437   0.616  15.681  1.0682 -0.5995 -0.5728
 4986SOL    HW226418   0.455   0.518  15.799  0.4236 -0.4475 -0.1705
 4987SOL     OW26419   2.749   1.123  10.234 -0.4012 -0.4421  0.0689
 4987SOL    HW126420   2.837   1.161  10.239 -0.5205  0.0710 -1.6458
 4987SOL    HW226421   2.774   1.039  10.271  0.7967 -0.6826 -1.2907
 4988SOL     OW26422   2.257   3.161   9.322 -0.2498 -0.3940  0.3460
 4988SOL    HW126423   2.282   3.250   9.345 -0.9515 -0.9540  3.2082
 4988SOL    HW226424   2.178   3.150   9.375 -1.1263  0.3255 -0.7979
 4989SOL     OW26425   3.573   3.320   2.946 -0.2534 -0.5138 -0.5380
 4989SOL    HW126426   3.616   3.343   3.029  0.2386  0.4155 -1.0461
 4989SOL    HW226427   3.647   3.323   2.885 -0.6216 -1.2084 -1.0098
 4990SOL     OW26428   2.109   2.387   4.712  0.0426  0.4965 -0.7466
 4990SOL    HW126429   2.044   2.318   4.721 -0.5069  1.2059  0.7921
 4990SOL    HW226430   2.173   2.361   4.778  0.9810 -0.0456 -1.8764
 4991SOL     OW26431   0.878   4.668   0.209 -0.0227 -0.3485  1.1186
 4991SOL    HW126432   0.833   0.027   0.220  0.8935  0.1448  1.0318
 4991SOL    HW226433   0.833   4.620   0.279  0.1263 -1.5602  0.3823
 4992SOL     OW26434   3.380   4.077   5.062  0.3001  0.2866 -0.1065
 4992SOL    HW126435   3.422   3.994   5.039 -1.5426 -0.7169  0.1855
 4992SOL    HW226436   3.359   4.095   4.970  0.7014 -0.0668 -0.2682
 4993SOL     OW26437   3.204   0.667   8.834  0.3305  0.2450  0.1105
 4993SOL    HW126438   3.131   0.673   8.772  0.9495 -0.2334 -0.6826
 4993SOL    HW226439   3.198   0.744   8.890 -1.1312 -0.3039  0.7166
 4994SOL     OW26440   2.673   4.421  12.106  0.2195 -0.1360 -0.6123
 4994SOL    HW126441   2.744   4.358  12.097  0.7480  0.6191 -1.7203
 4994SOL    HW226442   2.690   4.468  12.187  0.3548  0.1960 -0.8325
 4995SOL     OW26443   0.626   1.502   9.458  0.7570 -0.2420  0.1218
 4995SOL    HW126444   0.689   1.532   9.393 -0.6641 -1.5997 -1.8616
 4995SOL    HW226445   0.679   1.460   9.527  3.3113 -1.0864 -2.3564
 4996SOL     OW26446   2.241   4.633   8.155 -0.2635  0.0995  0.2393
 4996SOL    HW126447   2.158   4.638   8.201 -1.2239 -0.4479 -1.4275
 4996SOL    HW226448   2.302   4.667   8.220 -1.3730 -0.0514  1.3375
 4997SOL     OW26449   2.113   4.245  13.282  0.6797  0.3208  0.5313
 4997SOL    HW126450   2.069   4.178  13.334  2.0527 -0.2623  0.9153
 4997SOL    HW226451   2.196   4.256  13.328  0.0883  1.2270  1.3890
 4998SOL     OW26452   0.655   3.285   2.426 -0.2302 -0.6201  0.3437
 4998SOL    HW126453   0.626   3.355   2.367  1.4206 -1.2526 -1.2521
 4998SOL    HW226454   0.630   3.201   2.387 -0.4441  0.2960 -1.4926
 4999SOL     OW26455   0.858   3.645   8.733  0.2869  0.1314 -0.1963
 4999SOL    HW126456   0.794   3.670   8.666 -2.6081 -1.7516  1.8925
 4999SOL    HW226457   0.902   3.727   8.757 -0.2096  0.6137 -0.9459
 5000SOL     OW26458   1.388   1.140  13.294 -0.3567  0.2387 -0.3293
 5000SOL    HW126459   1.387   1.085  13.372  5.0884  0.3810 -0.1452
 5000SOL    HW226460   1.365   1.076  13.227 -0.4637 -0.4318  0.3476
 5001SOL     OW26461   3.992   2.420   9.063 -0.4107  0.0745  0.0727
 5001SOL    HW126462   3.941   2.452   9.137 -0.3819 -2.8201  1.3196
 5001SOL    HW226463   3.938   2.443   8.988  2.6082  3.8319 -0.9644
 5002SOL     OW26464   1.210   2.822   7.086 -0.3953 -0.4207  0.4690
 5002SOL    HW126465   1.154   2.875   7.143 -0.6410  1.2545 -1.3353
 5002SOL    HW226466   1.295   2.848   7.123  0.1962  0.7153 -1.6882
 5003SOL     OW26467   2.079   0.243   6.561 -0.1572  0.8365 -0.0506
 5003SOL    HW126468   2.092   0.180   6.490  1.8809 -0.7831  1.7807
 5003SOL    HW226469   2.068   0.317   6.502 -1.5858  0.6257 -0.0468
 5004SOL     OW26470   4.207   2.323   7.247 -0.2019 -0.1104  0.0849
 5004SOL    HW126471   4.127   2.273   7.264 -0.0150 -0.3546  0.2487
 5004SOL    HW226472   4.253   2.250   7.205 -1.3811 -0.9204  0.1892
 5005SOL     OW26473   2.355   2.000   9.775 -0.4920  0.4043 -0.2678
 5005SOL    HW126474   2.260   1.994   9.789 -0.3174 -3.0874 -0.5600
 5005SOL    HW226475   2.385   2.012   9.865 -1.4647 -0.5936  0.1814
 5006SOL     OW26476   0.652   0.680   1.373  0.1920  0.6941 -0.5716
 5006SOL    HW126477   0.656   0.750   1.308 -1.4368  1.3981  0.0749
 5006SOL    HW226478   0.708   0.714   1.443 -0.8654 -1.3452  1.2483
 5007SOL     OW26479   4.552   0.613   2.475 -0.4615 -0.2701 -0.0517
 5007SOL    HW126480   4.613   0.580   2.541  0.7166  1.6766 -0.1598
 5007SOL    HW226481   4.511   0.685   2.522 -1.8408 -0.1105 -1.4929
 5008SOL     OW26482   0.434   0.457   4.160  0.5899 -0.4069  0.4402
 5008SOL    HW126483   0.517   0.505   4.153 -0.2607  1.1252  0.8637
 5008SOL    HW226484   0.456   0.383   4.104 -0.8585 -1.6140  1.4695
 5009SOL     OW26485   3.727   3.641   7.923 -0.0939  0.4445 -0.0977
 5009SOL    HW126486   3.678   3.600   7.852 -0.4990 -0.6120  0.7983
 5009SOL    HW226487   3.800   3.688   7.881 -0.1853 -0.3321 -1.1227
 5010SOL     OW26488   1.503   3.076   8.508 -0.4880 -0.4841 -0.0040
 5010SOL    HW126489   1.408   3.080   8.501 -0.5644 -3.0970 -0.5919
 5010SOL    HW226490   1.520   3.066   8.602  1.9683 -2.8849 -0.6734
 5011SOL     OW26491   2.927   3.553  12.051 -0.3682 -0.1737  0.0273
 5011SOL    HW126492   2.950   3.461  12.062  0.2310 -0.3688 -2.7344
 5011SOL    HW226493   2.928   3.550  11.955 -1.2434  0.3541 -0.0026
 5012SOL     OW26494   3.069   3.467   3.999 -0.0052  0.0026 -0.5170
 5012SOL    HW126495   3.037   3.554   3.975  0.9570  0.1960 -1.1215
 5012SOL    HW226496   2.987   3.420   3.985  0.7564 -2.4898  3.3135
 5013SOL     OW26497   3.171   4.392  11.829  0.9654 -0.6775  0.0403
 5013SOL    HW126498   3.123   4.434  11.901  2.3541  0.6383  0.2139
 5013SOL    HW226499   3.186   4.462  11.766 -1.6197  0.7067  0.9669
 5014SOL     OW26500   1.795   3.694   3.490  0.0034 -1.0989 -0.2861
 5014SOL    HW126501   1.878   3.672   3.448  2.5177  3.0732  2.5187
 5014SOL    HW226502   1.730   3.637   3.450  0.4653 -0.9018 -1.3159
 5015SOL     OW26503   1.450   4.459  11.255 -0.1481 -0.1175  0.2951
 5015SOL    HW126504   1.470   4.484  11.165  0.4064 -0.9003  0.1980
 5015SOL    HW226505   1.528   4.410  11.281  0.3222  0.9358  0.8688
 5016SOL     OW26506   2.960   0.933   9.316  0.1922 -0.5094  0.3935
 5016SOL    HW126507   2.999   1.010   9.276 -2.2784 -0.4012 -1.7937
 5016SOL    HW226508   2.882   0.932   9.261 -0.6771 -2.3056  1.6354
 5017SOL     OW26509   1.019   3.941   5.244 -0.6950  0.6027 -0.9572
 5017SOL    HW126510   0.968   3.884   5.186 -0.4749 -1.3895  0.8303
 5017SOL    HW226511   1.022   4.020   5.189 -0.7410  0.6997 -0.8206
 5018SOL     OW26512   0.251   0.920  17.365  0.0946  0.1311 -0.1559
 5018SOL    HW126513   0.298   0.919  17.448 -0.8767 -1.0418  0.3806
 5018SOL    HW226514   0.171   0.967  17.389  0.1151  0.9695 -1.7287
 5019SOL     OW26515   4.205   0.105   7.660 -0.1609 -0.0443  0.2570
 5019SOL    HW126516   4.149   0.052   7.715  1.0785 -2.7595 -1.0536
 5019SOL    HW226517   4.153   0.117   7.580 -0.3458  1.0595  0.5467
 5020SOL     OW26518   0.804   2.846   2.175 -0.3162  0.4109 -0.2724
 5020SOL    HW126519   0.721   2.839   2.128 -0.9399  0.6108  0.7982
 5020SOL    HW226520   0.842   2.772   2.128 -2.6394 -2.3889  2.2736
 5021SOL     OW26521   0.874   2.122  11.099 -0.2663  0.1733 -0.0278
 5021SOL    HW126522   0.892   2.087  11.012  1.5121  0.7506  0.1059
 5021SOL    HW226523   0.784   2.144  11.074  0.0453  0.8720 -0.5157
 5022SOL     OW26524   1.691   3.289   6.890  0.6460  0.0631 -0.3480
 5022SOL    HW126525   1.657   3.376   6.872 -1.1130 -0.5687 -0.0114
 5022SOL    HW226526   1.616   3.254   6.938  0.1253  1.4192 -0.1999
 5023SOL     OW26527   1.294   2.975   2.338 -0.5269  0.0139 -0.7622
 5023SOL    HW126528   1.228   3.026   2.292 -0.1154  2.8862  1.9054
 5023SOL    HW226529   1.370   3.032   2.327 -0.3630 -0.0393  0.1315
 5024SOL     OW26530   3.780   1.557   1.230 -0.1755  0.1115 -0.2240
 5024SOL    HW126531   3.743   1.640   1.200 -1.7700 -0.5086  0.0455
 5024SOL    HW226532   3.729   1.540   1.310 -1.0009  0.0040 -0.7695
 5025SOL     OW26533   4.591   1.012  12.744  0.0575 -0.1075 -0.0831
 5025SOL    HW126534   4.518   1.032  12.684 -0.0857 -0.9612 -0.1936
 5025SOL    HW226535   4.552   0.934  12.784  1.2131 -1.2800 -1.2243
 5026SOL     OW26536   4.543   0.268   3.647 -0.1300 -0.2201 -0.2751
 5026SOL    HW126537   4.621   0.245   3.697  0.7480  3.7604  0.2339
 5026SOL    HW226538   4.579   0.257   3.559 -0.9092  0.4580 -0.6814
 5027SOL     OW26539   3.341   1.895  10.205 -0.1393  0.5660 -0.1984
 5027SOL    HW126540   3.430   1.926  10.222  1.0128 -1.2512 -2.9880
 5027SOL    HW226541   3.344   1.865  10.114 -0.2760  1.1942 -0.4084
 5028SOL     OW26542   0.547   3.075  14.863 -0.1935 -0.5063  0.1989
 5028SOL    HW126543   0.557   3.021  14.784 -1.1763  0.0010 -0.2694
 5028SOL    HW226544   0.628   3.066  14.914 -0.2210  0.6529  0.4624
 5029SOL     OW26545   3.995   2.218   6.729  0.1238  0.1450 -0.4115
 5029SOL    HW126546   3.926   2.226   6.663 -0.4092 -2.3163 -0.1611
 5029SOL    HW226547   3.943   2.233   6.808 -1.0627 -0.1163 -1.1416
 5030SOL     OW26548   0.150   0.675  15.603  0.0256  0.3628  0.5156
 5030SOL    HW126549   0.137   0.750  15.661 -1.9658  0.6488 -0.3298
 5030SOL    HW226550   0.221   0.701  15.545  0.1152 -1.1976 -0.0666
 5031SOL     OW26551   2.122   1.246   4.450  0.5893 -0.5183 -0.4297
 5031SOL    HW126552   2.200   1.276   4.496  0.8836 -1.0478 -0.5845
 5031SOL    HW226553   2.080   1.189   4.515  1.3170  0.6777  1.0928
 5032SOL     OW26554   4.389   1.557   9.067  0.1552 -0.0446  0.4844
 5032SOL    HW126555   4.425   1.619   9.003 -0.5842  1.6465  1.6870
 5032SOL    HW226556   4.428   1.473   9.046 -4.7984 -1.4033 -3.2316
 5033SOL     OW26557   2.073   3.253  16.608  0.1244 -0.2441 -0.2636
 5033SOL    HW126558   2.121   3.178  16.573  0.0106 -1.0707  1.3041
 5033SOL    HW226559   1.994   3.210  16.642  0.2044 -1.5255 -1.7256
 5034SOL     OW26560   0.882   4.026  12.726  0.6381 -0.0795 -0.3646
 5034SOL    HW126561   0.896   4.106  12.776  0.1605 -0.6238  0.6354
 5034SOL    HW226562   0.791   4.036  12.700  1.1289  1.8764 -1.3196
 5035SOL     OW26563   0.086   4.286  12.943  0.2517  0.5788 -0.2465
 5035SOL    HW126564   0.126   4.367  12.974 -1.0706  1.6513 -1.3473
 5035SOL    HW226565   4.722   4.317  12.948  0.6684  1.4555  1.9865
 5036SOL     OW26566   0.670   3.827  15.535  0.1743  0.0597 -0.4629
 5036SOL    HW126567   0.623   3.764  15.481 -1.7790  1.5731 -0.5187
 5036SOL    HW226568   0.612   3.901  15.519  2.2800  1.9151  0.4207
 5037SOL     OW26569   3.362   2.514   6.548 -0.6507 -0.3454  0.2792
 5037SOL    HW126570   3.447   2.511   6.592  0.0661  0.7644 -1.0148
 5037SOL    HW226571   3.386   2.472   6.466 -1.1241 -0.2624  0.0957
 5038SOL     OW26572   1.614   2.032  14.902  0.0449 -0.2147 -0.1678
 5038SOL    HW126573   1.678   2.056  14.969 -0.0139  0.9550 -0.5188
 5038SOL    HW226574   1.665   2.000  14.828  2.3805  0.1898  1.2733
 5039SOL     OW26575   3.228   1.062   1.206  0.3247 -0.3441 -0.0836
 5039SOL    HW126576   3.137   1.035   1.200 -0.3657  1.4954  1.9171
 5039SOL    HW226577   3.246   1.060   1.300  2.0878  0.5463 -0.4000
 5040SOL     OW26578   4.287   0.545  10.558  0.0116  0.1997 -0.0700
 5040SOL    HW126579   4.287   0.641  10.560 -2.0748  0.1897  0.3769
 5040SOL    HW226580   4.194   0.531  10.541 -0.1760  0.3860  0.8116
 5041SOL     OW26581   1.279   0.658   3.063 -0.2519  0.3069  0.7115
 5041SOL    HW126582   1.255   0.697   3.147 -0.8758 -0.1193  0.7279
 5041SOL    HW226583   1.247   0.572   3.088  0.5668  0.0756  0.9370
 5042SOL     OW26584   0.230   0.332   2.977 -0.2537 -0.1456 -0.6187
 5042SOL    HW126585   0.166   0.389   2.935 -2.9083 -3.4471 -1.0933
 5042SOL    HW226586   0.299   0.317   2.912  0.7581  0.2656  0.3573
 5043SOL     OW26587   3.856   2.552   6.360 -0.2055  0.0140 -0.4965
 5043SOL    HW126588   3.771   2.594   6.351  0.2961  1.1154 -0.1421
 5043SOL    HW226589   3.904   2.635   6.356 -1.4244  0.7154 -0.7149
 5044SOL     OW26590   4.031   0.051  13.748  0.4264  0.1902  0.2695
 5044SOL    HW126591   4.118   0.092  13.742  0.5525 -0.2514 -1.0148
 5044SOL    HW226592   4.032   0.018  13.838  0.7975  0.2236  0.2772
 5045SOL     OW26593   1.732   4.191   8.853  0.5767  0.5527 -0.2294
 5045SOL    HW126594   1.761   4.276   8.885  1.0862 -0.5006  2.1640
 5045SOL    HW226595   1.756   4.139   8.930 -1.4283 -1.2704 -0.8250
 5046SOL     OW26596   2.512   0.292   6.967 -0.0993  0.1432  0.3021
 5046SOL    HW126597   2.527   0.212   7.017  1.7889  1.0698  1.2212
 5046SOL    HW226598   2.437   0.265   6.915 -0.7876  1.9720  0.3376
 5047SOL     OW26599   4.550   4.303  16.382 -0.2856 -0.3901 -0.0792
 5047SOL    HW126600   4.480   4.280  16.322  0.6802 -1.2963 -0.8554
 5047SOL    HW226601   4.543   4.399  16.386 -0.8604 -0.4022 -0.7710
 5048SOL     OW26602   3.387   1.146   4.826  0.2455  0.1319  0.6694
 5048SOL    HW126603   3.470   1.156   4.873 -1.6383 -0.0745  4.0711
 5048SOL    HW226604   3.393   1.220   4.766 -2.2062 -1.6235 -1.7477
 5049SOL     OW26605   3.301   3.277  11.359  0.3928  0.6288 -0.0263
 5049SOL    HW126606   3.289   3.281  11.264  1.3609 -1.6938 -0.2464
 5049SOL    HW226607   3.382   3.232  11.383  0.3256 -0.2233 -1.3547
 5050SOL     OW26608   3.455   0.401   9.298 -0.6505 -0.2641 -0.0576
 5050SOL    HW126609   3.394   0.452   9.244 -0.0457  2.6736  2.0227
 5050SOL    HW226610   3.424   0.315   9.268  0.8221  0.2075 -2.8535
 5051SOL     OW26611   2.983   2.866   5.112  0.5995  0.1485 -0.0905
 5051SOL    HW126612   2.978   2.961   5.118 -1.9490 -0.0419  0.6547
 5051SOL    HW226613   2.979   2.839   5.204 -0.2557  3.1018  0.7254
 5052SOL     OW26614   3.727   2.186   2.048 -0.6634 -0.3942 -0.5294
 5052SOL    HW126615   3.767   2.120   2.104 -0.9552 -1.9663 -2.1565
 5052SOL    HW226616   3.772   2.260   2.087 -0.6825  0.8526 -2.8537
 5053SOL     OW26617   3.701   3.824  14.721  0.2271  0.4920 -0.8299
 5053SOL    HW126618   3.614   3.784  14.729  1.8380 -2.4505  1.7700
 5053SOL    HW226619   3.710   3.866  14.806 -1.5823 -1.0313  0.1129
 5054SOL     OW26620   0.191   0.533  11.424  0.1291 -0.0522 -0.5186
 5054SOL    HW126621   0.175   0.513  11.516  0.9381 -0.1284 -0.3948
 5054SOL    HW226622   0.285   0.552  11.422 -0.2794  2.0799  0.1711
 5055SOL     OW26623   0.897   3.297   7.625 -0.2289  0.0853 -0.0001
 5055SOL    HW126624   0.877   3.290   7.718  1.0482  1.1645  0.3596
 5055SOL    HW226625   0.835   3.240   7.579 -0.0803 -0.4892  0.5037
 5056SOL     OW26626   1.978   2.877   9.350 -0.5516  0.5217  0.1594
 5056SOL    HW126627   1.936   2.796   9.378  2.8154 -1.2837 -0.0358
 5056SOL    HW226628   2.018   2.911   9.430  0.0880 -0.4604  0.2676
 5057SOL     OW26629   4.225   0.818  10.602 -0.4176 -0.2333 -0.3219
 5057SOL    HW126630   4.205   0.850  10.690  0.5317 -1.2386  0.2620
 5057SOL    HW226631   4.203   0.886  10.538  0.5310  0.4766  0.0990
 5058SOL     OW26632   0.252   1.176   3.958 -0.6618 -0.4456 -0.4676
 5058SOL    HW126633   0.200   1.154   4.035  1.3184 -2.2594  0.3308
 5058SOL    HW226634   0.234   1.101   3.902 -2.0001  0.0342 -0.6834
 5059SOL     OW26635   2.283   4.007  10.097  0.0382  0.1679 -0.4999
 5059SOL    HW126636   2.325   3.974  10.018  1.6654 -0.2408  0.5365
 5059SOL    HW226637   2.207   3.950  10.112  0.6358 -0.5215 -0.0827
 5060SOL     OW26638   4.622   2.208   7.210  0.0943 -0.0669  0.2537
 5060SOL    HW126639   4.553   2.213   7.277 -0.4832  1.8602 -0.4790
 5060SOL    HW226640   4.708   2.205   7.252 -1.6168 -3.3126  3.5625
 5061SOL     OW26641   4.479   0.529   8.643  0.0368 -0.4835 -0.0786
 5061SOL    HW126642   4.390   0.533   8.607 -1.0761 -3.0436  2.3742
 5061SOL    HW226643   4.470   0.456   8.705  1.3467 -0.6058 -0.0321
 5062SOL     OW26644   1.153   1.239   1.800  0.4021  0.3923  0.4960
 5062SOL    HW126645   1.157   1.147   1.773  2.6307  0.1372  1.6932
 5062SOL    HW226646   1.101   1.268   1.725  0.6786 -0.4702 -0.0381
 5063SOL     OW26647   3.983   2.905   3.559  0.3007 -0.7771 -0.1190
 5063SOL    HW126648   3.953   2.816   3.579 -0.9864 -0.0892  1.0492
 5063SOL    HW226649   3.947   2.923   3.473 -0.3406  1.3546  0.5940
 5064SOL     OW26650   1.749   1.700   7.154  0.3319  0.1338  0.1583
 5064SOL    HW126651   1.658   1.670   7.144  1.0173 -1.8083 -0.2604
 5064SOL    HW226652   1.798   1.626   7.118  0.2398 -0.3897  1.0874
 5065SOL     OW26653   4.307   2.460   5.361 -0.0576 -0.8187  0.4015
 5065SOL    HW126654   4.342   2.548   5.375  2.4628 -1.6529 -0.6590
 5065SOL    HW226655   4.232   2.491   5.310  2.6508  1.3892 -2.2370
 5066SOL     OW26656   4.353   1.134   8.606 -0.3085  0.2587 -0.2283
 5066SOL    HW126657   4.265   1.152   8.638  0.9124  1.2269  2.6289
 5066SOL    HW226658   4.392   1.111   8.691  0.8302 -1.4966 -1.1959
 5067SOL     OW26659   1.645   3.846   1.220 -0.3368 -0.4559 -0.2907
 5067SOL    HW126660   1.703   3.914   1.253 -2.1166 -0.7407  3.4050
 5067SOL    HW226661   1.574   3.897   1.181 -0.3101  1.5358  2.3274
 5068SOL     OW26662   2.906   1.869  15.349  0.4795 -0.2112  0.2700
 5068SOL    HW126663   2.919   1.805  15.279  0.3121  1.0145 -0.8865
 5068SOL    HW226664   2.993   1.866  15.387  0.8079 -0.1794 -0.4781
 5069SOL     OW26665   4.381   1.624  17.432 -0.1417 -0.1836  0.0896
 5069SOL    HW126666   4.348   1.634  17.343 -1.9117  1.0049  0.8711
 5069SOL    HW226667   4.346   1.705  17.470 -3.9001 -1.6556 -0.2870
 5070SOL     OW26668   4.415   0.764   0.789  0.4900 -0.8366 -0.3546
 5070SOL    HW126669   4.358   0.781   0.713 -0.6573 -2.2380  0.1947
 5070SOL    HW226670   4.379   0.683   0.826 -0.1503 -0.0885  0.6529
 5071SOL     OW26671   4.367   2.225   5.494  1.3187 -0.1176 -0.3867
 5071SOL    HW126672   4.371   2.161   5.423 -3.8103  0.3553 -1.1060
 5071SOL    HW226673   4.336   2.304   5.450 -1.4098 -0.5830  0.7175
 5072SOL     OW26674   2.014   4.134   5.740  0.2129 -0.4811  0.2599
 5072SOL    HW126675   1.961   4.125   5.819  2.1599 -2.0172  1.3914
 5072SOL    HW226676   2.105   4.115   5.764  0.3352 -0.9365 -0.5433
 5073SOL     OW26677   4.298   3.128   0.855 -0.3406  0.2349 -0.4489
 5073SOL    HW126678   4.337   3.215   0.869 -0.6045  0.1005  1.1833
 5073SOL    HW226679   4.291   3.132   0.760 -1.5545  0.0837 -0.3695
 5074SOL     OW26680   1.646   1.392   5.073  0.2847 -0.0937  0.3525
 5074SOL    HW126681   1.704   1.437   5.135 -0.2733  0.9165  0.1425
 5074SOL    HW226682   1.623   1.470   5.023 -0.5993  0.1712  1.1802
 5075SOL     OW26683   3.680   2.991   2.228 -0.4449  0.5298  0.6316
 5075SOL    HW126684   3.710   3.072   2.187 -0.8425  0.1264 -0.4627
 5075SOL    HW226685   3.743   2.929   2.192 -0.1780 -0.1640  2.2882
 5076SOL     OW26686   2.684   3.722  12.962  1.1162  0.3647 -0.5351
 5076SOL    HW126687   2.639   3.788  13.014  0.3426  1.3783 -2.4771
 5076SOL    HW226688   2.773   3.754  12.954  0.6523  2.0201  1.1291
 5077SOL     OW26689   1.247   2.594   5.766 -0.0420 -0.0065 -0.6635
 5077SOL    HW126690   1.307   2.663   5.737  0.3991 -0.8208 -1.6840
 5077SOL    HW226691   1.215   2.563   5.682 -1.6466 -1.2221  0.4054
 5078SOL     OW26692   4.574   0.909   6.436 -0.2812 -0.4390 -0.4274
 5078SOL    HW126693   4.661   0.877   6.411 -0.2470 -1.3551  0.8581
 5078SOL    HW226694   4.592   0.982   6.495 -0.0745 -1.4780  0.8099
 5079SOL     OW26695   3.852   2.211   5.657  0.3308  0.2502 -0.1216
 5079SOL    HW126696   3.808   2.128   5.636  1.0972  0.2110 -1.5882
 5079SOL    HW226697   3.810   2.242   5.737  0.4566  0.9103 -0.3165
 5080SOL     OW26698   2.074   1.158   5.068  0.0955  0.0624 -0.0600
 5080SOL    HW126699   2.051   1.126   5.155 -1.4669  0.0662 -0.4714
 5080SOL    HW226700   1.984   1.171   5.037 -0.0176  0.0558  0.2592
 5081SOL     OW26701   0.742   2.308   2.731  0.2481  1.1877  0.0295
 5081SOL    HW126702   0.664   2.263   2.763 -0.5827  2.5928 -0.0141
 5081SOL    HW226703   0.690   2.365   2.674 -1.6975 -1.0242 -0.3887
 5082SOL     OW26704   1.636   0.610   8.880 -0.3096  0.0828 -0.2154
 5082SOL    HW126705   1.654   0.651   8.965  2.2858  0.0690 -0.7625
 5082SOL    HW226706   1.719   0.627   8.836  1.2075 -4.6476  0.7077
 5083SOL     OW26707   0.981   0.572   5.576  0.4072  0.2020  0.8581
 5083SOL    HW126708   0.981   0.589   5.482 -2.2374  0.4160  0.8969
 5083SOL    HW226709   1.038   0.644   5.602 -0.2968  1.9161 -2.4028
 5084SOL     OW26710   4.017   2.732  11.746  0.6797  0.0181 -0.4707
 5084SOL    HW126711   3.999   2.728  11.652  0.3085 -1.2086 -0.3507
 5084SOL    HW226712   3.926   2.737  11.777  0.9152 -0.4531  0.3076
 5085SOL     OW26713   1.737   0.400   2.121 -0.2441  0.1970  0.1190
 5085SOL    HW126714   1.693   0.315   2.124  2.1986 -1.0864 -0.7268
 5085SOL    HW226715   1.825   0.370   2.099 -0.2831  0.0073  0.2237
 5086SOL     OW26716   4.505   2.380   6.783  0.2415  0.2170  0.1309
 5086SOL    HW126717   4.560   2.352   6.857 -0.6444  1.0774  1.1150
 5086SOL    HW226718   4.424   2.363   6.830  0.0778 -1.1553 -0.6659
 5087SOL     OW26719   3.479   2.064   3.888  0.2386  0.0037  0.4702
 5087SOL    HW126720   3.447   1.977   3.864 -0.9067  0.2795  0.9816
 5087SOL    HW226721   3.574   2.052   3.895  0.3092  1.1052  1.3289
 5088SOL     OW26722   3.258   0.697  15.187 -0.1251  0.0852 -0.1217
 5088SOL    HW126723   3.325   0.630  15.175  1.6068  1.2131  3.1029
 5088SOL    HW226724   3.281   0.741  15.269 -0.8543  1.7712 -0.8083
 5089SOL     OW26725   3.413   1.981   3.524 -0.2168  0.2343 -0.5428
 5089SOL    HW126726   3.418   1.941   3.611 -0.3442  0.9743 -0.1901
 5089SOL    HW226727   3.331   1.938   3.499 -0.7056  0.9491 -0.1644
 5090SOL     OW26728   2.605   1.311  13.899  0.6215 -0.3067 -0.1931
 5090SOL    HW126729   2.624   1.217  13.894  1.3943 -0.2249  1.3024
 5090SOL    HW226730   2.679   1.351  13.853 -0.3147  1.1947 -0.3876
 5091SOL     OW26731   2.292   0.628   4.337  0.0630  0.0583  0.1457
 5091SOL    HW126732   2.366   0.569   4.350  1.0507  1.4994  1.0355
 5091SOL    HW226733   2.260   0.643   4.426  1.5809 -1.1593  0.8894
 5092SOL     OW26734   3.959   1.570   2.954 -0.7063  0.0651 -0.1348
 5092SOL    HW126735   3.978   1.497   3.013 -1.6468  0.5515  0.7504
 5092SOL    HW226736   3.964   1.648   3.008  0.9319 -0.1810  0.0666
 5093SOL     OW26737   3.510   2.045  13.449  0.1624 -0.6640  0.0164
 5093SOL    HW126738   3.592   2.077  13.484  0.9511 -3.2301  0.5175
 5093SOL    HW226739   3.532   2.057  13.357 -0.3324 -1.0557 -0.1524
 5094SOL     OW26740   0.034   4.656   5.396 -0.4059  0.1755  0.1566
 5094SOL    HW126741   0.094   4.662   5.470 -0.5111 -0.1499  0.2694
 5094SOL    HW226742   0.085   4.598   5.340  0.2926  0.8029  0.1423
 5095SOL     OW26743   4.538   1.563  15.091  0.0607  0.3845  0.1495
 5095SOL    HW126744   4.480   1.632  15.125 -0.8338  0.1118 -0.8225
 5095SOL    HW226745   4.482   1.485  15.092  1.4296 -0.5965 -2.5349
 5096SOL     OW26746   3.884   2.330   7.855 -0.1735  0.2299  0.0480
 5096SOL    HW126747   3.871   2.422   7.834  1.5395  0.2518 -0.9377
 5096SOL    HW226748   3.791   2.304   7.854  0.3103 -1.4525 -2.4026
 5097SOL     OW26749   4.060   4.670  10.886  0.4118 -0.1888  0.2892
 5097SOL    HW126750   4.082   4.661  10.793 -1.5650  0.3134 -0.2349
 5097SOL    HW226751   4.009   0.024  10.876  1.9147  0.7000 -0.3747
 5098SOL     OW26752   0.463   4.551   7.277 -0.1841 -0.6616 -0.2237
 5098SOL    HW126753   0.383   4.604   7.284  1.7584  2.1945  0.4226
 5098SOL    HW226754   0.433   4.461   7.288 -3.3220  0.3763 -0.2791
 5099SOL     OW26755   2.490   3.782   3.552 -0.2875 -0.4853 -0.7501
 5099SOL    HW126756   2.492   3.745   3.464  0.2730 -1.7674 -0.2037
 5099SOL    HW226757   2.567   3.838   3.543 -1.6475  1.7768  1.6246
 5100SOL     OW26758   2.861   2.902   7.497  0.3823 -0.1903 -0.2413
 5100SOL    HW126759   2.782   2.949   7.525  1.5153  0.1344  2.3426
 5100SOL    HW226760   2.849   2.814   7.535  0.3361 -0.0958 -0.0360
 5101SOL     OW26761   0.049   0.198   5.485 -0.3821 -0.3582 -0.0941
 5101SOL    HW126762   0.010   0.110   5.485 -1.9485  0.3424 -0.6259
 5101SOL    HW226763   0.086   0.195   5.397  3.9283 -0.6585  1.7260
 5102SOL     OW26764   4.276   2.027  11.115 -0.6212 -0.3972  0.1754
 5102SOL    HW126765   4.292   1.990  11.029  2.5245 -0.4543  0.7882
 5102SOL    HW226766   4.238   2.112  11.093 -0.7230 -0.4797  0.0343
 5103SOL     OW26767   2.626   2.459  10.548  0.0403  0.0777  0.2192
 5103SOL    HW126768   2.578   2.540  10.562 -1.1932 -0.3229 -1.6740
 5103SOL    HW226769   2.680   2.458  10.628 -0.6405 -1.2924  0.6770
 5104SOL     OW26770   2.926   2.863  11.418 -0.3684 -0.2668 -0.2887
 5104SOL    HW126771   2.984   2.814  11.361  1.4217  0.7603  0.6320
 5104SOL    HW226772   2.991   2.925  11.452  1.2899 -0.6206 -2.7951
 5105SOL     OW26773   2.670   3.498  10.801 -0.1896 -0.4140 -0.0284
 5105SOL    HW126774   2.609   3.558  10.758  0.0588  1.3893  2.1490
 5105SOL    HW226775   2.699   3.548  10.878  1.3654 -0.3750 -0.6361
 5106SOL     OW26776   1.369   3.422  13.710 -0.9402  0.2548 -0.0912
 5106SOL    HW126777   1.317   3.491  13.669  0.2175  0.6083 -0.9689
 5106SOL    HW226778   1.318   3.341  13.700 -2.6103  1.4199 -0.9426
 5107SOL     OW26779   2.615   0.409   2.831 -0.7000  0.0271  0.2096
 5107SOL    HW126780   2.596   0.473   2.763 -1.1971  2.3307  2.5209
 5107SOL    HW226781   2.639   0.341   2.768 -0.4180 -0.7557  1.1507
 5108SOL     OW26782   0.784   1.443   8.108 -0.4812  0.4932 -0.2536
 5108SOL    HW126783   0.815   1.471   8.194 -0.2442  0.9491 -0.4918
 5108SOL    HW226784   0.730   1.371   8.140 -0.3737  1.4529  2.0419
 5109SOL     OW26785   4.147   1.208   0.424  0.4452  0.2546  0.3514
 5109SOL    HW126786   4.089   1.155   0.370 -2.6954  0.6215  3.4054
 5109SOL    HW226787   4.178   1.278   0.366  0.1937 -1.0349 -1.3425
 5110SOL     OW26788   2.492   1.752   9.728  0.4884 -0.2574  0.0203
 5110SOL    HW126789   2.428   1.786   9.666 -0.1867  1.2725  1.5505
 5110SOL    HW226790   2.558   1.821   9.722  0.4728 -0.1764  0.8557
 5111SOL     OW26791   0.048   1.302  10.251  0.0834 -0.5210  0.7421
 5111SOL    HW126792   0.028   1.371  10.315 -0.3455  0.2174 -0.1747
 5111SOL    HW226793   4.697   1.313  10.194  0.9503  1.8789  0.0264
 5112SOL     OW26794   1.115   1.248   3.695  0.3390  0.4217  0.7400
 5112SOL    HW126795   1.067   1.315   3.646  1.7685  1.6163  0.9879
 5112SOL    HW226796   1.158   1.311   3.753 -0.9283  1.1800  0.8711
 5113SOL     OW26797   3.876   0.122   6.357  0.6087  0.0748 -0.2350
 5113SOL    HW126798   3.798   0.083   6.319  1.5901 -0.9666 -1.1899
 5113SOL    HW226799   3.920   0.157   6.280  1.5547 -0.8701 -0.1238
 5114SOL     OW26800   0.634   2.626  11.864  0.3139 -0.1938  0.1908
 5114SOL    HW126801   0.617   2.697  11.802  1.4086  0.4346  0.6204
 5114SOL    HW226802   0.623   2.545  11.815 -1.1127  0.2863 -0.2867
 5115SOL     OW26803   3.893   2.084   9.611 -0.3095  0.3209 -0.1262
 5115SOL    HW126804   3.931   2.008   9.656 -0.2803 -0.7159 -1.9045
 5115SOL    HW226805   3.933   2.156   9.659 -0.6232 -0.7455  1.7668
 5116SOL     OW26806   1.460   0.260   4.331 -0.0573 -0.0071 -0.3114
 5116SOL    HW126807   1.421   0.313   4.400 -0.4704 -1.1781  0.3459
 5116SOL    HW226808   1.520   0.197   4.370  0.0913  0.0679 -0.4202
 5117SOL     OW26809   3.676   4.315   8.718  0.2783  0.0638 -0.4275
 5117SOL    HW126810   3.683   4.273   8.804 -0.9776  0.1151 -0.3081
 5117SOL    HW226811   3.735   4.267   8.660 -0.7910 -0.2309 -1.2665
 5118SOL     OW26812   2.440   1.138   3.108 -0.2983  1.2584 -0.2071
 5118SOL    HW126813   2.435   1.068   3.174  0.4317  2.0449  0.6895
 5118SOL    HW226814   2.520   1.116   3.060  0.9000 -0.1611  2.3784
 5119SOL     OW26815   2.778   3.668   7.784  0.3534 -0.6173 -0.1219
 5119SOL    HW126816   2.857   3.722   7.783  0.0575 -0.1171  4.3604
 5119SOL    HW226817   2.705   3.728   7.771  1.2233  0.5511  0.3158
 5120SOL     OW26818   1.456   0.333   3.243  0.2769  0.0468  0.0042
 5120SOL    HW126819   1.428   0.245   3.220  0.8167 -0.5410  1.5831
 5120SOL    HW226820   1.376   0.387   3.245  0.2408  0.0440 -1.8242
 5121SOL     OW26821   4.539   4.249   5.498 -0.3504  0.1435 -0.1248
 5121SOL    HW126822   4.572   4.161   5.517 -1.5081  0.1720  2.0408
 5121SOL    HW226823   4.446   4.253   5.523  0.0763  0.8637  1.3460
 5122SOL     OW26824   0.084   3.376   5.929 -0.5193 -0.2757  0.6677
 5122SOL    HW126825   0.116   3.413   6.011 -0.1449 -0.7362  0.7306
 5122SOL    HW226826   0.016   3.436   5.899 -0.9419 -0.5223  1.1263
 5123SOL     OW26827   4.249   2.391   2.624  0.2765 -0.2328 -0.2856
 5123SOL    HW126828   4.224   2.301   2.647  1.5319 -0.5394 -0.1484
 5123SOL    HW226829   4.203   2.392   2.540  0.0972  0.6906 -0.1691
 5124SOL     OW26830   0.063   1.757   6.840  0.2948 -0.3464 -0.0768
 5124SOL    HW126831   4.714   1.795   6.793  1.5212  1.3902 -0.6200
 5124SOL    HW226832   0.019   1.734   6.922  0.4092  1.6731  0.5710
 5125SOL     OW26833   0.216   1.100   0.378 -0.0048  0.2649 -0.4619
 5125SOL    HW126834   0.210   1.195   0.392  1.6867  0.3042  0.0368
 5125SOL    HW226835   0.129   1.073   0.405  0.4427 -0.0011  0.7050
 5126SOL     OW26836   3.494   1.750   2.756 -0.0192  0.0057  0.5033
 5126SOL    HW126837   3.436   1.738   2.831  0.8626 -1.4945  0.9510
 5126SOL    HW226838   3.569   1.698   2.786 -0.5584  0.3923  2.5180
 5127SOL     OW26839   0.675   1.352  17.477 -0.3352  0.1808  0.4991
 5127SOL    HW126840   0.714   1.346  17.565  0.1384 -2.1062  0.1461
 5127SOL    HW226841   0.587   1.386  17.495  0.6687  3.2020 -0.3805
 5128SOL     OW26842   0.025   3.855   3.260  0.1920  0.2031  0.6080
 5128SOL    HW126843   0.112   3.849   3.220  1.3259 -0.7908  3.2628
 5128SOL    HW226844   4.712   3.801   3.191  0.7828 -0.3796  0.7429
 5129SOL     OW26845   1.863   2.345   5.535 -0.2279  0.2662 -0.6341
 5129SOL    HW126846   1.775   2.335   5.501 -0.9635 -0.0594  1.3458
 5129SOL    HW226847   1.853   2.330   5.629 -2.7651 -0.5606 -1.0290
 5130SOL     OW26848   2.295   1.586   8.387  0.1311 -0.3841 -0.3443
 5130SOL    HW126849   2.258   1.508   8.427 -3.6372  1.4339 -0.3448
 5130SOL    HW226850   2.228   1.598   8.320  0.2041 -1.5821 -0.6262
 5131SOL     OW26851   2.398   4.001   6.709  0.2836  0.1616  0.8296
 5131SOL    HW126852   2.491   3.980   6.699  0.2667 -0.1307  1.2554
 5131SOL    HW226853   2.356   3.944   6.645  0.0940  2.2488 -0.8928
 5132SOL     OW26854   2.606   2.088   9.640  0.0907  0.6364 -0.9008
 5132SOL    HW126855   2.650   2.136   9.711  0.0280 -0.7080  0.0527
 5132SOL    HW226856   2.527   2.056   9.683  0.8426 -0.8447 -0.6270
 5133SOL     OW26857   4.103   3.210   5.576 -0.5909  0.1493 -0.2847
 5133SOL    HW126858   4.072   3.245   5.659 -0.0597 -0.2951  0.0986
 5133SOL    HW226859   4.138   3.128   5.611 -2.4095 -0.7675 -0.5839
 5134SOL     OW26860   3.001   2.330  10.068  0.6838 -0.1510 -0.1820
 5134SOL    HW126861   2.990   2.426  10.063 -1.1476 -0.3663 -0.6552
 5134SOL    HW226862   2.917   2.294  10.038 -0.0951  1.5545 -0.1135
 5135SOL     OW26863   2.704   2.569   2.691 -0.2100  0.0181 -0.3233
 5135SOL    HW126864   2.798   2.553   2.682  0.2821  3.2164 -0.9865
 5135SOL    HW226865   2.677   2.508   2.623  0.7663 -0.9313  0.1264
 5136SOL     OW26866   1.865   2.922   5.083 -0.3652  0.5375  0.4810
 5136SOL    HW126867   1.941   2.975   5.062 -0.1673  0.4294  0.9207
 5136SOL    HW226868   1.813   2.987   5.131  1.7944  1.3844  1.6305
 5137SOL     OW26869   0.272   0.877   4.990  0.2668 -0.0421  0.4126
 5137SOL    HW126870   0.322   0.897   4.911 -0.9314 -0.4545 -0.4467
 5137SOL    HW226871   0.276   0.955   5.045  1.1429  1.4445 -1.7583
 5138SOL     OW26872   2.516   3.816   4.884  0.0752  0.2151  0.2405
 5138SOL    HW126873   2.575   3.796   4.957  1.0157 -0.6705 -0.7599
 5138SOL    HW226874   2.454   3.869   4.934 -0.1003 -0.5150  0.8012
 5139SOL     OW26875   1.010   0.801  16.684 -0.1043 -0.1091 -0.2394
 5139SOL    HW126876   1.021   0.775  16.592 -3.8256  0.6613 -0.9058
 5139SOL    HW226877   1.049   0.888  16.691 -0.0390 -0.2313  0.8720
 5140SOL     OW26878   0.656   0.401  11.669 -0.0153  0.2379 -0.1729
 5140SOL    HW126879   0.728   0.375  11.727 -0.9558 -1.2826  0.3130
 5140SOL    HW226880   0.659   0.347  11.590 -1.4694 -2.9609  1.9549
 5141SOL     OW26881   0.917   3.506   6.531 -0.0160 -0.3427 -0.1629
 5141SOL    HW126882   0.979   3.438   6.506 -1.4817 -1.5980 -0.3860
 5141SOL    HW226883   0.902   3.502   6.626 -0.9013  2.2483 -0.1674
 5142SOL     OW26884   3.422   3.468   8.997 -0.6982 -0.2996  0.2592
 5142SOL    HW126885   3.405   3.474   9.091  1.0264 -0.0970  0.5560
 5142SOL    HW226886   3.515   3.455   9.015 -0.7659  0.1678  0.9161
 5143SOL     OW26887   2.490   2.519   6.087 -0.4621  0.5674 -0.8890
 5143SOL    HW126888   2.492   2.428   6.115 -2.3174  0.5723 -0.7260
 5143SOL    HW226889   2.552   2.558   6.149 -1.7417 -0.7295  1.1734
 5144SOL     OW26890   3.089   2.795   8.268 -0.0445  0.5112  0.3542
 5144SOL    HW126891   3.024   2.748   8.216 -0.0208  0.4154  0.4106
 5144SOL    HW226892   3.062   2.887   8.266 -1.6060  0.0241 -0.5734
 5145SOL     OW26893   0.964   0.759   9.152  0.0668 -0.3319 -0.0949
 5145SOL    HW126894   0.982   0.692   9.086 -3.1634  1.2903 -2.6780
 5145SOL    HW226895   0.869   0.760   9.164  0.0764  0.3843 -0.1219
 5146SOL     OW26896   4.406   1.557   5.574  0.0952 -0.3535  0.2388
 5146SOL    HW126897   4.366   1.616   5.638  0.6097 -0.9875  1.1420
 5146SOL    HW226898   4.497   1.559   5.603  0.3580  0.8455 -0.7123
 5147SOL     OW26899   2.230   2.861  10.120 -0.1169 -0.1889  0.5906
 5147SOL    HW126900   2.244   2.767  10.131  0.7022 -0.1051  0.2734
 5147SOL    HW226901   2.252   2.887  10.209  0.0873  1.1991  0.1387
 5148SOL     OW26902   0.690   4.656  12.309  0.6314  0.0839 -0.4601
 5148SOL    HW126903   0.672   4.676  12.217  1.2370  3.0404  0.0537
 5148SOL    HW226904   0.785   4.665  12.301  0.7804  0.8116  2.1571
 5149SOL     OW26905   2.107   0.791  11.632 -0.2887 -0.1584  0.3223
 5149SOL    HW126906   2.201   0.807  11.645 -0.4890  0.4257  1.1075
 5149SOL    HW226907   2.079   0.838  11.554  2.0523 -0.7065 -0.8315
 5150SOL     OW26908   4.190   0.357   4.748 -0.3485  0.5292 -0.3325
 5150SOL    HW126909   4.145   0.335   4.829  1.3418 -0.2908  0.3884
 5150SOL    HW226910   4.124   0.420   4.719 -0.2381  0.6524 -0.3149
 5151SOL     OW26911   1.749   3.265   9.585 -0.4217 -0.4131  0.2083
 5151SOL    HW126912   1.656   3.286   9.582 -0.4542 -0.4304  1.1122
 5151SOL    HW226913   1.746   3.195   9.651 -1.0564  2.4566  3.2076
 5152SOL     OW26914   2.704   1.603   1.769  0.1991  0.1033  0.6744
 5152SOL    HW126915   2.788   1.561   1.750 -0.4199 -0.6087 -0.5370
 5152SOL    HW226916   2.667   1.543   1.833  0.5935  0.2419  1.0293
 5153SOL     OW26917   0.216   0.630  17.363 -0.5053  0.1783 -0.4535
 5153SOL    HW126918   0.309   0.608  17.357 -0.2148  0.5523  2.7030
 5153SOL    HW226919   0.213   0.726  17.369 -0.4120  0.1471  0.1257
 5154SOL     OW26920   0.544   2.981  14.210  0.2175 -0.0524  0.1520
 5154SOL    HW126921   0.561   3.055  14.269  0.2481 -0.9488  1.2854
 5154SOL    HW226922   0.564   3.030  14.131 -0.3449 -2.2636 -1.3672
 5155SOL     OW26923   4.140   4.302  16.371  0.3103 -0.0016  0.0539
 5155SOL    HW126924   4.184   4.381  16.403 -2.5978  1.0440  1.4947
 5155SOL    HW226925   4.200   4.283  16.299  0.9982  0.0961  0.5992
 5156SOL     OW26926   0.653   3.165   5.369  0.0399 -0.2942  0.0591
 5156SOL    HW126927   0.684   3.246   5.328 -1.7504 -0.3084 -1.3644
 5156SOL    HW226928   0.678   3.180   5.460  0.0238 -0.0601  0.0240
 5157SOL     OW26929   3.875   4.316   5.295  0.0411  0.2123 -0.3214
 5157SOL    HW126930   3.910   4.351   5.213  1.1565  0.2227  0.1568
 5157SOL    HW226931   3.876   4.401   5.338 -2.7496  0.2029 -0.2531
 5158SOL     OW26932   0.762   1.288   3.174 -0.2035 -0.5070  0.4809
 5158SOL    HW126933   0.673   1.299   3.208 -0.7210 -0.0150 -1.0743
 5158SOL    HW226934   0.751   1.210   3.120 -0.3933  1.4994 -2.3781
 5159SOL     OW26935   0.319   3.124   4.509  0.3083 -0.4078 -0.2841
 5159SOL    HW126936   0.345   3.098   4.420 -0.5574  1.7704 -1.1776
 5159SOL    HW226937   0.228   3.097   4.518 -0.0525  1.6130  2.0601
 5160SOL     OW26938   1.404   4.227   7.221  0.3018  0.1658 -0.0123
 5160SOL    HW126939   1.393   4.154   7.160 -1.1345  0.2264  0.1579
 5160SOL    HW226940   1.393   4.306   7.167  0.9752 -0.3009 -0.8237
 5161SOL     OW26941   2.470   1.916  12.973 -0.1386 -0.2429 -0.6789
 5161SOL    HW126942   2.416   1.855  13.022 -0.0903 -0.9197 -1.4813
 5161SOL    HW226943   2.472   1.873  12.888 -2.3067  0.8091 -1.2499
 5162SOL     OW26944   0.181   4.571  14.143  0.0015  0.2291  0.2135
 5162SOL    HW126945   0.123   4.624  14.197  0.7120 -0.2178  1.4179
 5162SOL    HW226946   0.113   4.535  14.087  1.7238 -0.9670 -1.1076
 5163SOL     OW26947   3.444   4.462   9.241  0.5326 -0.1007  0.0256
 5163SOL    HW126948   3.387   4.506   9.304 -1.6763 -2.3902 -0.3791
 5163SOL    HW226949   3.510   4.529   9.224 -1.4420  2.1281  1.2766
 5164SOL     OW26950   3.193   4.617   5.067  0.2293 -0.1734  0.4201
 5164SOL    HW126951   3.240   4.688   5.110  0.1555 -0.1745  0.5037
 5164SOL    HW226952   3.261   4.570   5.020  0.0719 -0.6548  0.6758
 5165SOL     OW26953   3.119   2.315   4.313 -0.3446  0.4720  0.1559
 5165SOL    HW126954   3.160   2.358   4.388 -0.7239  0.9283  0.1081
 5165SOL    HW226955   3.151   2.373   4.243  0.8651  1.1413  1.2683
 5166SOL     OW26956   4.681   0.955   1.136 -0.0013  0.4959  0.1120
 5166SOL    HW126957   0.033   1.001   1.105  0.0112  0.1630 -0.3605
 5166SOL    HW226958   4.615   1.015   1.172  0.8725  0.4347  1.8241
 5167SOL     OW26959   4.356   2.529   5.873  0.1504 -0.0635  0.0454
 5167SOL    HW126960   4.334   2.447   5.829  0.9820 -1.5315  2.4101
 5167SOL    HW226961   4.441   2.548   5.834  0.9417  1.9498  2.8233
 5168SOL     OW26962   1.107   2.702   3.228 -0.4018  0.1437  0.1661
 5168SOL    HW126963   1.164   2.658   3.164  1.9078  0.1971  2.1632
 5168SOL    HW226964   1.176   2.718   3.293 -0.2122  1.0013 -0.2413
 5169SOL     OW26965   1.980   4.510   4.655 -1.0305 -0.4212 -0.1019
 5169SOL    HW126966   1.982   4.429   4.707  1.0098  1.2176  2.3275
 5169SOL    HW226967   1.947   4.563   4.727 -0.2166 -2.1472  1.5428
 5170SOL     OW26968   4.381   3.984   8.427 -0.7272  0.0392 -0.2789
 5170SOL    HW126969   4.294   4.005   8.395 -1.6625 -2.5864  0.5307
 5170SOL    HW226970   4.428   4.062   8.398  1.8332 -2.1903 -2.1545
 5171SOL     OW26971   3.974   1.511   3.626 -0.2223 -0.0959 -0.0456
 5171SOL    HW126972   4.026   1.488   3.703 -0.9055  0.4150  0.5729
 5171SOL    HW226973   3.960   1.605   3.633 -0.6960 -0.1942  0.3170
 5172SOL     OW26974   2.055   0.413  11.967 -0.2839  0.1033 -0.1615
 5172SOL    HW126975   2.043   0.349  12.037  1.6561 -0.7149 -0.5571
 5172SOL    HW226976   2.098   0.486  12.011  2.4693 -0.3414 -2.1015
 5173SOL     OW26977   4.636   0.258   2.375 -0.2643 -0.2677 -0.0506
 5173SOL    HW126978   4.612   0.337   2.423 -3.3385 -0.4895 -1.2316
 5173SOL    HW226979   4.725   0.277   2.346 -0.7788  0.1916 -1.3263
 5174SOL     OW26980   1.738   4.502   4.362 -0.2423 -0.2622  0.4518
 5174SOL    HW126981   1.740   4.457   4.447 -1.6237  0.2005  0.7143
 5174SOL    HW226982   1.709   4.431   4.305  3.3152 -0.5959 -0.9628
 5175SOL     OW26983   2.046   1.431   0.033  0.4183 -0.0936 -0.0173
 5175SOL    HW126984   2.053   1.447  17.644  2.0365 -0.2436  0.0861
 5175SOL    HW226985   1.985   1.357   0.034 -0.6696  0.8053 -0.8469
 5176SOL     OW26986   1.931   4.002   8.294  0.0852  0.1044 -0.0222
 5176SOL    HW126987   1.919   3.913   8.260 -2.2354  1.0249 -1.5807
 5176SOL    HW226988   1.998   4.033   8.234  0.8711  0.2867  0.9378
 5177SOL     OW26989   3.356   1.816   8.139  0.2905  0.2545  0.4567
 5177SOL    HW126990   3.315   1.744   8.188 -1.0032  1.8988  1.7691
 5177SOL    HW226991   3.287   1.882   8.150  0.3263  0.7617 -2.2978
 5178SOL     OW26992   3.192   3.085   8.854 -0.5422 -0.2778 -0.0983
 5178SOL    HW126993   3.103   3.079   8.887 -0.2752  0.3202  0.7409
 5178SOL    HW226994   3.247   3.130   8.918  2.3588 -2.0532 -1.3001
 5179SOL     OW26995   4.571   1.422   3.129  0.3651 -0.4446 -0.3194
 5179SOL    HW126996   4.508   1.356   3.156 -0.9896 -0.1076 -2.6273
 5179SOL    HW226997   4.610   1.443   3.214  2.5551 -1.3659 -1.0982
 5180SOL     OW26998   1.334   0.186   4.675 -0.0422  0.1492  0.0117
 5180SOL    HW126999   1.374   0.273   4.666  1.8036 -0.7207 -0.1734
 5180SOL    HW227000   1.393   0.142   4.736 -0.3537  1.2287  1.1024
 5181SOL     OW27001   1.975   2.692   4.954 -0.7934 -0.1099 -0.8714
 5181SOL    HW127002   1.919   2.744   5.012  1.3811  3.5957 -2.1075
 5181SOL    HW227003   2.064   2.723   4.968 -0.9780  1.0927 -2.2944
 5182SOL     OW27004   2.160   3.375   1.152  0.3239 -0.1439 -0.4967
 5182SOL    HW127005   2.235   3.397   1.207 -1.4248  0.2318  1.7175
 5182SOL    HW227006   2.092   3.380   1.220  0.1271  0.9541 -0.7645
 5183SOL     OW27007   0.917   0.001   4.437 -0.3738  0.3668  0.0036
 5183SOL    HW127008   0.963   0.080   4.466  1.9189 -1.2598  0.8690
 5183SOL    HW227009   0.841   0.043   4.399  1.6257  2.5182 -1.6095
 5184SOL     OW27010   1.797   0.578   9.518 -0.0004 -0.1073 -0.2981
 5184SOL    HW127011   1.748   0.497   9.532  0.6877 -0.4042  0.4059
 5184SOL    HW227012   1.782   0.614   9.605 -0.0196  0.8622 -0.7117
 5185SOL     OW27013   0.813   4.126  15.242  0.7148 -0.5677 -0.5541
 5185SOL    HW127014   0.777   4.190  15.304  2.2016 -0.7727  0.5297
 5185SOL    HW227015   0.750   4.056  15.262 -0.5058  0.2626 -1.5431
 5186SOL     OW27016   0.589   4.293   7.019 -0.6138 -0.1856 -0.5389
 5186SOL    HW127017   0.616   4.250   7.100 -1.3135 -0.0733 -0.2464
 5186SOL    HW227018   0.668   4.326   6.978 -1.1673  0.7242 -0.8763
 5187SOL     OW27019   4.692   2.307   2.635  0.4921  0.1050 -0.0658
 5187SOL    HW127020   4.719   2.284   2.546 -1.3610  0.5410 -0.7381
 5187SOL    HW227021   0.050   2.320   2.679  0.0065  2.3020  0.1841
 5188SOL     OW27022   0.284   3.180  14.350  0.7756 -0.2733  0.1763
 5188SOL    HW127023   0.327   3.256  14.389  0.1498  0.5672 -0.7960
 5188SOL    HW227024   0.206   3.220  14.312  0.7133  1.3973  2.0432
 5189SOL     OW27025   1.787   2.738  13.729 -0.7916 -0.0518 -0.4794
 5189SOL    HW127026   1.817   2.813  13.782 -0.0235 -0.9939  0.4069
 5189SOL    HW227027   1.853   2.730  13.660  1.2115  0.4745  1.3758
 5190SOL     OW27028   1.128   1.977   6.220  0.2903 -0.3967 -0.7651
 5190SOL    HW127029   1.133   1.892   6.174 -1.1347 -0.2169 -1.2562
 5190SOL    HW227030   1.164   2.032   6.150  1.2702  0.9434  0.8202
 5191SOL     OW27031   0.821   0.169   7.489 -0.2260 -0.5695 -0.0056
 5191SOL    HW127032   0.892   0.106   7.483  0.1692 -0.0585 -0.5982
 5191SOL    HW227033   0.809   0.204   7.401  0.5458  1.2650  0.6187
 5192SOL     OW27034   0.675   3.704   7.747 -0.0343  0.6300  0.3098
 5192SOL    HW127035   0.709   3.737   7.663  1.2883 -0.6066  0.3665
 5192SOL    HW227036   0.752   3.691   7.801  0.8873  2.4665 -0.5608
 5193SOL     OW27037   2.219   1.615   4.645  0.0734 -0.0303 -1.0727
 5193SOL    HW127038   2.246   1.703   4.620 -0.3687  0.6137  0.7005
 5193SOL    HW227039   2.141   1.613   4.701 -0.9429  1.0704 -2.4516
 5194SOL     OW27040   1.376   0.809   8.166 -0.6806 -0.0700  0.3656
 5194SOL    HW127041   1.319   0.764   8.104 -0.5491  0.9329 -0.4870
 5194SOL    HW227042   1.458   0.765   8.141  0.8167  2.1935  1.2931
 5195SOL     OW27043   0.252   1.316  16.306 -0.0579  0.1869  0.5854
 5195SOL    HW127044   0.193   1.276  16.369 -0.7072  0.8327  0.3884
 5195SOL    HW227045   0.240   1.262  16.228 -0.2714  1.9397 -0.5915
 5196SOL     OW27046   3.827   1.062   2.807  0.0200 -0.1942 -0.4011
 5196SOL    HW127047   3.772   0.991   2.773 -0.7490 -0.2650  1.0174
 5196SOL    HW227048   3.805   1.126   2.739  1.9584  0.8655 -0.0332
 5197SOL     OW27049   0.407   1.585   8.428  0.2297 -0.0700  0.0579
 5197SOL    HW127050   0.412   1.681   8.423 -0.1579 -0.0059  0.8956
 5197SOL    HW227051   0.469   1.572   8.501  2.2998 -1.1121 -1.9007
 5198SOL     OW27052   2.316   4.015  13.220  0.4525  0.2346 -0.3022
 5198SOL    HW127053   2.278   4.088  13.172  0.4465 -0.6896 -1.7079
 5198SOL    HW227054   2.339   3.950  13.153 -1.1004 -0.5162 -0.1140
 5199SOL     OW27055   2.857   0.231   2.311  0.2888  0.0837  0.2035
 5199SOL    HW127056   2.910   0.171   2.363  0.5375  0.6212  0.5646
 5199SOL    HW227057   2.919   0.271   2.249 -1.0491 -0.6108 -1.5943
 5200SOL     OW27058   1.412   2.948  12.140 -0.3996 -0.2041  0.0426
 5200SOL    HW127059   1.362   2.900  12.074 -0.8722 -0.0372  0.2840
 5200SOL    HW227060   1.349   3.013  12.170 -2.3393 -2.3425  0.5716
 5201SOL     OW27061   2.408   0.202   5.019  0.7008  0.6965  0.1895
 5201SOL    HW127062   2.499   0.204   4.989  0.0646  1.4161 -1.6498
 5201SOL    HW227063   2.363   0.213   4.935 -1.8109 -0.5157  1.3747
 5202SOL     OW27064   0.591   2.661  12.183  0.5048 -0.0879  0.0990
 5202SOL    HW127065   0.564   2.663  12.091  1.2461 -0.8626 -0.1318
 5202SOL    HW227066   0.554   2.577  12.210 -1.1561  0.7574  0.4364
 5203SOL     OW27067   2.990   2.466   7.492 -0.0208 -0.2047 -0.1726
 5203SOL    HW127068   2.952   2.407   7.557  0.6775  0.0978  0.5110
 5203SOL    HW227069   2.964   2.547   7.536 -0.6361 -0.4719 -0.0450
 5204SOL     OW27070   3.226   2.720   6.205 -0.1528 -0.5992  0.1298
 5204SOL    HW127071   3.189   2.791   6.152 -0.7876 -1.5597 -0.6989
 5204SOL    HW227072   3.190   2.729   6.293 -1.1186 -3.5466  0.0152
 5205SOL     OW27073   0.849   1.746  16.900  0.3015 -0.4703  0.0164
 5205SOL    HW127074   0.924   1.720  16.953 -1.0955 -1.9255  1.2823
 5205SOL    HW227075   0.831   1.834  16.935 -0.6119  0.4788 -2.8747
 5206SOL     OW27076   1.504   3.146   4.518  0.4086 -0.3624  0.1505
 5206SOL    HW127077   1.458   3.171   4.598  3.7397  0.7381  1.7180
 5206SOL    HW227078   1.577   3.104   4.564  1.0145  2.5439  1.8962
 5207SOL     OW27079   1.406   0.121   1.847 -0.1489 -0.5120 -0.4504
 5207SOL    HW127080   1.501   0.137   1.850 -0.4772  1.5099 -0.8851
 5207SOL    HW227081   1.380   0.163   1.765  1.6791 -0.1388 -0.8367
 5208SOL     OW27082   3.615   2.156   3.499 -0.2620  0.3745  0.6904
 5208SOL    HW127083   3.575   2.235   3.535  0.0511  0.4352  0.8977
 5208SOL    HW227084   3.541   2.095   3.511 -0.8583  0.4709 -2.6643
 5209SOL     OW27085   0.240   2.161   3.495  0.6897  0.1156  0.2426
 5209SOL    HW127086   0.323   2.202   3.471 -0.0746  1.1225 -0.6860
 5209SOL    HW227087   0.269   2.096   3.558 -0.1229 -0.1294  0.3573
 5210SOL     OW27088   3.794   2.179   6.130 -0.3204  0.2262 -0.0178
 5210SOL    HW127089   3.738   2.197   6.055  1.2194  3.6554 -0.3527
 5210SOL    HW227090   3.855   2.252   6.117  1.3102 -1.3246 -1.0483
 5211SOL     OW27091   1.691   3.142  16.183  0.9207  0.2436  0.2778
 5211SOL    HW127092   1.785   3.156  16.193  0.9735 -0.1955  0.3909
 5211SOL    HW227093   1.671   3.213  16.122 -1.2167  0.2153  0.9230
 5212SOL     OW27094   3.624   0.706   9.429 -0.3003  0.1467 -0.1595
 5212SOL    HW127095   3.572   0.709   9.348  0.0755  0.1294 -0.4003
 5212SOL    HW227096   3.580   0.776   9.477 -0.7678 -0.4698  0.3013
 5213SOL     OW27097   0.540   4.340   7.917  0.6069 -0.4580  0.2730
 5213SOL    HW127098   0.493   4.359   7.998  2.2936 -0.5731  1.2884
 5213SOL    HW227099   0.515   4.249   7.901 -2.7382  0.8065 -1.8267
 5214SOL     OW27100   4.447   3.186   3.025 -0.0436 -0.4406 -0.0413
 5214SOL    HW127101   4.450   3.125   2.951 -0.4418 -0.7923  0.2342
 5214SOL    HW227102   4.494   3.133   3.090 -1.0245  0.6514  1.5334
 5215SOL     OW27103   4.601   4.353   4.142 -0.1215  0.0563  0.7971
 5215SOL    HW127104   4.608   4.264   4.106  1.4158  1.0634 -1.4058
 5215SOL    HW227105   4.693   4.379   4.142 -0.3585  0.8337  2.4614
 5216SOL     OW27106   4.357   0.809   2.253 -0.4603  0.1265 -0.0444
 5216SOL    HW127107   4.287   0.847   2.306 -0.8522 -1.4141  0.5438
 5216SOL    HW227108   4.329   0.820   2.162 -0.9157 -1.1424 -0.0635
 5217SOL     OW27109   1.360   4.059   7.005 -0.3515 -0.2539 -0.4531
 5217SOL    HW127110   1.281   4.009   7.024 -0.1879 -0.4673 -0.3379
 5217SOL    HW227111   1.346   4.073   6.911 -0.2885  0.9990 -0.2830
 5218SOL     OW27112   3.245   3.604   5.158  0.5135 -0.5407  0.3015
 5218SOL    HW127113   3.197   3.567   5.232  0.5289 -1.3940 -0.1134
 5218SOL    HW227114   3.191   3.680   5.136 -1.1134 -1.9895 -0.6799
 5219SOL     OW27115   1.206   3.581   5.142  0.6182  0.3810  0.0339
 5219SOL    HW127116   1.172   3.623   5.222  0.7623 -2.4843  1.6253
 5219SOL    HW227117   1.198   3.660   5.089 -1.0181  0.2588  0.0891
 5220SOL     OW27118   0.472   0.963   2.031  0.2821  0.2193  0.0599
 5220SOL    HW127119   0.411   0.890   2.016 -1.4116  1.9235 -1.2540
 5220SOL    HW227120   0.415   1.036   2.055  0.2118 -0.7069  2.7290
 5221SOL     OW27121   1.288   0.431   9.466 -0.4295  0.3625 -0.1734
 5221SOL    HW127122   1.332   0.469   9.390  0.5492 -2.4449 -1.0058
 5221SOL    HW227123   1.207   0.408   9.421 -0.6455 -0.6397  0.7209
 5222SOL     OW27124   2.695   4.391   2.170 -0.1701 -0.2182  0.5122
 5222SOL    HW127125   2.722   4.371   2.260 -0.7916 -1.2374  0.4730
 5222SOL    HW227126   2.635   4.320   2.148  1.4465 -2.4664  3.2334
 5223SOL     OW27127   2.245   0.787   0.236  0.0888  0.1603 -0.3904
 5223SOL    HW127128   2.337   0.772   0.213  0.7917  0.0894  2.4508
 5223SOL    HW227129   2.212   0.714   0.183  1.7573 -0.9211  0.0468
 5224SOL     OW27130   0.804   2.828  12.260  0.0775  0.4565 -0.1233
 5224SOL    HW127131   0.733   2.854  12.319  0.1466 -0.2888  0.2957
 5224SOL    HW227132   0.754   2.771  12.202  1.9055 -2.5451  1.2487
 5225SOL     OW27133   0.654   4.101   4.296  0.2636 -0.2672 -0.0553
 5225SOL    HW127134   0.577   4.084   4.240  1.5032  0.7143 -2.0603
 5225SOL    HW227135   0.666   4.025   4.353 -1.7272 -1.2243 -0.8929
 5226SOL     OW27136   2.342   2.288   2.727  0.0462  0.4810 -0.5154
 5226SOL    HW127137   2.387   2.205   2.715 -0.0048  0.3206  0.4568
 5226SOL    HW227138   2.300   2.284   2.640 -0.7815  0.9440 -0.1410
 5227SOL     OW27139   1.848   4.449   7.596 -0.1050 -0.2216 -0.4718
 5227SOL    HW127140   1.776   4.512   7.585 -0.4446 -0.1733  2.0417
 5227SOL    HW227141   1.857   4.420   7.505 -0.2407  1.5501 -1.0544
 5228SOL     OW27142   3.062   3.992   7.122  0.0573 -0.0346  0.0154
 5228SOL    HW127143   3.112   3.972   7.042  0.0915 -0.2729  0.0964
 5228SOL    HW227144   3.118   4.062   7.154 -0.2567 -0.4879  1.5542
 5229SOL     OW27145   1.014   2.450   9.311 -0.0198 -0.6416  0.5962
 5229SOL    HW127146   1.093   2.400   9.331 -0.4497 -2.4614 -2.2427
 5229SOL    HW227147   1.056   2.526   9.272  0.0146 -1.3582 -0.7433
 5230SOL     OW27148   4.203   3.846  16.654  0.0107  0.7367  0.1681
 5230SOL    HW127149   4.161   3.859  16.739 -0.3718 -0.3023  0.1356
 5230SOL    HW227150   4.194   3.937  16.624  0.8098  0.1510 -1.8622
 5231SOL     OW27151   4.505   4.253   6.594  0.2192 -0.3866 -0.4350
 5231SOL    HW127152   4.528   4.335   6.550  1.3922 -1.1153 -1.1816
 5231SOL    HW227153   4.491   4.202   6.514 -1.8754 -1.6712  0.7414
 5232SOL     OW27154   4.607   0.015   2.705  0.0075 -0.1664 -0.4361
 5232SOL    HW127155   4.678   0.003   2.768 -1.2092 -0.6128  0.8522
 5232SOL    HW227156   4.655   0.012   2.622  0.5020  1.5538 -0.2179
 5233SOL     OW27157   4.494   1.560  10.417  0.0147  0.1716  0.8611
 5233SOL    HW127158   4.424   1.499  10.393  0.4646  0.2000 -0.5334
 5233SOL    HW227159   4.469   1.627  10.353  1.0307  0.5554  0.8589
 5234SOL     OW27160   2.650   4.421  17.206  0.6549  0.0306  0.1691
 5234SOL    HW127161   2.640   4.460  17.293 -0.4227 -1.9781  0.9348
 5234SOL    HW227162   2.697   4.340  17.226  3.1208  1.0707 -1.4219
 5235SOL     OW27163   3.962   0.107  10.089 -0.2412  0.2664 -0.2358
 5235SOL    HW127164   4.048   0.083  10.054  0.0661  1.5958 -0.4011
 5235SOL    HW227165   3.913   0.057  10.024 -0.8602 -1.2755  1.4220
 5236SOL     OW27166   3.269   2.179   3.339 -0.0389  0.5545  0.3197
 5236SOL    HW127167   3.334   2.214   3.278 -1.5829  3.4863  0.3047
 5236SOL    HW227168   3.318   2.122   3.397  0.5662  0.3300 -0.4261
 5237SOL     OW27169   4.688   2.784  15.789  0.6930  0.2702 -0.3677
 5237SOL    HW127170   4.592   2.790  15.789  0.6528 -0.7145  1.6595
 5237SOL    HW227171   4.703   2.857  15.728 -0.6102 -0.9355 -2.1223
 5238SOL     OW27172   2.868   2.738   1.514  0.0301 -0.2415 -0.7652
 5238SOL    HW127173   2.944   2.713   1.566  2.0278  0.8168 -3.1975
 5238SOL    HW227174   2.826   2.651   1.513  4.5744 -2.4313  0.8870
 5239SOL     OW27175   1.519   2.353  16.673  0.3755  0.3330  0.5480
 5239SOL    HW127176   1.559   2.299  16.605 -0.0002  0.7905 -0.0320
 5239SOL    HW227177   1.430   2.366  16.640  1.2893  2.3257 -1.0990
 5240SOL     OW27178   3.111   3.539   4.779 -0.1414  0.1513  0.2403
 5240SOL    HW127179   3.144   3.625   4.753 -2.0855  0.5853 -0.7641
 5240SOL    HW227180   3.178   3.479   4.746  1.0426  1.9264 -0.5938
 5241SOL     OW27181   1.212   1.421   3.040  0.1490 -0.6162 -0.1173
 5241SOL    HW127182   1.176   1.487   2.981 -0.5555  1.0986  2.2186
 5241SOL    HW227183   1.150   1.414   3.113 -0.1025 -0.5938 -0.3288
 5242SOL     OW27184   4.235   1.831   1.822  0.0567  0.0052  0.3103
 5242SOL    HW127185   4.146   1.797   1.828  0.5454 -1.4301 -0.5817
 5242SOL    HW227186   4.241   1.865   1.733  3.5447 -1.1741  0.0716
 5243SOL     OW27187   4.293   2.940   6.051 -0.0881 -0.0344  0.0256
 5243SOL    HW127188   4.379   2.960   6.088  0.2458 -2.3831  0.5634
 5243SOL    HW227189   4.248   2.896   6.123 -0.6804 -0.2373 -0.4660
 5244SOL     OW27190   1.885   1.811   2.555 -0.6538 -0.1606  0.0923
 5244SOL    HW127191   1.811   1.821   2.616  0.4141 -0.7309  1.4759
 5244SOL    HW227192   1.843   1.808   2.469 -1.9923  0.8789  0.7080
 5245SOL     OW27193   3.493   0.190  17.182 -0.3207  0.4462 -0.0697
 5245SOL    HW127194   3.513   0.279  17.152 -1.4320  1.4464  2.1728
 5245SOL    HW227195   3.482   0.205  17.276 -0.5293 -3.8978  0.5599
 5246SOL     OW27196   2.032   2.264  13.640 -0.3947  0.2014  0.0284
 5246SOL    HW127197   2.083   2.325  13.587 -0.4570  0.6274  0.4590
 5246SOL    HW227198   1.985   2.325  13.696 -3.9586 -2.2909 -0.1975
 5247SOL     OW27199   4.403   1.031   0.392  0.4153  0.1895 -0.3925
 5247SOL    HW127200   4.326   1.085   0.412 -0.3983 -0.5714 -1.4603
 5247SOL    HW227201   4.406   1.046   0.297  1.0678 -1.5736 -0.6407
 5248SOL     OW27202   1.107   2.330  16.189 -0.3276  0.6426 -0.4801
 5248SOL    HW127203   1.047   2.404  16.178 -3.6926 -2.0635 -0.5448
 5248SOL    HW227204   1.063   2.257  16.146  0.7254  0.0041 -0.4719
 5249SOL     OW27205   3.315   1.508   3.493  0.6562  0.4130  0.7986
 5249SOL    HW127206   3.248   1.473   3.435  1.2696 -1.3416  1.1618
 5249SOL    HW227207   3.261   1.558   3.554 -1.5260 -0.4789 -0.3900
 5250SOL     OW27208   3.100   3.662   5.593 -0.8379 -0.1297  0.7973
 5250SOL    HW127209   3.014   3.689   5.561 -1.1983 -1.1835  0.9130
 5250SOL    HW227210   3.145   3.747   5.593 -0.2071 -0.4626  0.4738
 5251SOL     OW27211   0.051   3.818   2.024 -0.3442  0.3269  0.2037
 5251SOL    HW127212   0.055   3.740   1.969  0.2900  0.0758  0.6061
 5251SOL    HW227213   4.682   3.822   2.033 -0.3179 -2.4042  1.7472
 5252SOL     OW27214   3.309   3.337   9.798  0.1612 -0.2030 -0.2351
 5252SOL    HW127215   3.259   3.419   9.787 -1.5171 -1.0189  1.4320
 5252SOL    HW227216   3.380   3.372   9.852 -0.1474  0.7717 -0.4476
 5253SOL     OW27217   3.125   4.338  14.934  0.7434 -0.0334 -0.6459
 5253SOL    HW127218   3.151   4.311  15.022 -0.8747 -1.4307 -0.5946
 5253SOL    HW227219   3.031   4.353  14.943  0.5176 -1.4916 -0.5238
 5254SOL     OW27220   2.819   0.554   3.026 -0.3195  0.7069  0.2631
 5254SOL    HW127221   2.787   0.644   3.032  2.4873  2.0894 -5.0952
 5254SOL    HW227222   2.840   0.538   3.118 -0.4250  1.6282  0.4457
 5255SOL     OW27223   0.999   2.258   2.803 -0.3449  0.1179  0.0189
 5255SOL    HW127224   0.912   2.288   2.777  0.1867  0.8552 -0.9073
 5255SOL    HW227225   1.030   2.319   2.869  2.4409 -1.2194 -0.0375
 5256SOL     OW27226   0.700   0.201   8.297  0.1825  0.6483 -0.1808
 5256SOL    HW127227   0.717   0.109   8.275  0.6701  1.0219 -1.3362
 5256SOL    HW227228   0.700   0.229   8.206 -1.9546 -0.2531 -0.4776
 5257SOL     OW27229   3.421   0.858  11.337 -0.4723 -0.6704 -0.3401
 5257SOL    HW127230   3.430   0.832  11.245  1.1489 -0.1204 -0.3363
 5257SOL    HW227231   3.515   0.854  11.358 -0.5097  1.1675  0.2281
 5258SOL     OW27232   1.933   0.252  12.165 -0.6709 -0.5805 -0.3509
 5258SOL    HW127233   1.907   0.211  12.082  0.6718  1.0460 -1.5683
 5258SOL    HW227234   1.875   0.208  12.227 -2.7701 -0.1347 -1.9608
 5259SOL     OW27235   3.587   1.179   4.566 -0.4706  0.6964  0.0339
 5259SOL    HW127236   3.673   1.216   4.587  0.6164 -2.6252  1.5550
 5259SOL    HW227237   3.527   1.252   4.579 -0.9163  0.1646  0.9558
 5260SOL     OW27238   0.137   3.328   7.686  0.3635 -0.5143 -0.1115
 5260SOL    HW127239   0.218   3.312   7.734 -1.0302 -0.8320  2.0996
 5260SOL    HW227240   0.134   3.241   7.646 -1.6359 -1.0284  1.1761
 5261SOL     OW27241   3.366   2.724   8.232  0.6472  0.4334  0.4798
 5261SOL    HW127242   3.274   2.750   8.234  0.4282 -0.1272 -1.8976
 5261SOL    HW227243   3.369   2.659   8.161 -0.0762  0.6596  0.2429
 5262SOL     OW27244   3.271   3.918  10.697  0.5716 -0.3180 -0.2157
 5262SOL    HW127245   3.362   3.896  10.680  1.0766  1.2608  0.3958
 5262SOL    HW227246   3.244   3.955  10.613 -2.1429 -0.3456  0.6341
 5263SOL     OW27247   3.560   4.498   9.823 -0.0197  0.8208 -0.5806
 5263SOL    HW127248   3.505   4.576   9.832 -0.2031  0.4384  1.6011
 5263SOL    HW227249   3.527   4.443   9.894  0.3513  0.3404 -0.7804
 5264SOL     OW27250   0.938   3.220   2.783  0.2204  0.5879 -0.0718
 5264SOL    HW127251   0.918   3.153   2.849 -0.4857  0.0282 -0.8573
 5264SOL    HW227252   1.002   3.279   2.822  2.4061 -2.2174  0.6344
 5265SOL     OW27253   4.403   3.182  12.581 -0.5097  0.0344  0.0006
 5265SOL    HW127254   4.441   3.263  12.546  2.5036 -1.7749 -0.9181
 5265SOL    HW227255   4.342   3.228  12.638 -0.6605  0.7820 -0.7652
 5266SOL     OW27256   3.200   2.156   6.344  0.0227 -0.2733  0.0642
 5266SOL    HW127257   3.131   2.162   6.278 -0.9200  1.2107  1.1905
 5266SOL    HW227258   3.166   2.211   6.414  3.1602  0.1762  1.2495
 5267SOL     OW27259   3.801   3.905  10.117 -0.3393  0.3587  0.2503
 5267SOL    HW127260   3.714   3.909  10.157 -0.7710 -0.2689 -0.6192
 5267SOL    HW227261   3.855   3.861  10.182  0.0284  1.8385  0.9582
 5268SOL     OW27262   1.029   1.059  12.103 -0.3016 -0.6134 -0.2814
 5268SOL    HW127263   1.116   1.098  12.105 -1.0073  0.8499  1.3427
 5268SOL    HW227264   1.062   0.972  12.126  0.4460 -0.4544 -0.7175
 5269SOL     OW27265   2.458   4.058  13.781 -0.3678  0.3741 -0.2031
 5269SOL    HW127266   2.500   4.129  13.734  0.5856 -0.2088 -0.2346
 5269SOL    HW227267   2.537   4.014  13.812 -0.0732  0.4246 -0.8919
 5270SOL     OW27268   3.533   1.438  10.511  0.3866  0.4828  0.1198
 5270SOL    HW127269   3.448   1.482  10.510 -0.7698 -1.7671 -1.3650
 5270SOL    HW227270   3.559   1.459  10.600  2.1486 -0.0345 -0.2803
 5271SOL     OW27271   2.529   1.645   8.689  0.2004  0.4681  0.4493
 5271SOL    HW127272   2.533   1.670   8.596  0.1474 -0.4596  0.1974
 5271SOL    HW227273   2.516   1.730   8.730 -0.1570  0.0587  1.1718
 5272SOL     OW27274   3.279   0.539   2.483  0.0929 -0.1224  0.0874
 5272SOL    HW127275   3.328   0.485   2.544 -0.8710 -0.6175  0.4167
 5272SOL    HW227276   3.321   0.624   2.497 -2.2316  1.3553 -1.9044
 5273SOL     OW27277   4.559   3.781  14.453 -0.2985 -0.2529 -0.1563
 5273SOL    HW127278   4.503   3.785  14.376  0.9054  0.1459 -1.0086
 5273SOL    HW227279   4.549   3.871  14.484  0.2124  0.2729 -1.5188
 5274SOL     OW27280   3.904   1.581   4.522 -0.4266 -0.2677 -0.2327
 5274SOL    HW127281   3.950   1.572   4.438  0.0224  1.9975 -0.2242
 5274SOL    HW227282   3.977   1.560   4.581  1.8185 -0.2067 -2.9894
 5275SOL     OW27283   1.721   0.008   9.337  0.0347 -0.1096 -0.3853
 5275SOL    HW127284   1.647   0.055   9.297  1.2066  1.0467 -1.1904
 5275SOL    HW227285   1.752   0.070   9.402  1.1812 -0.0810 -0.9576
 5276SOL     OW27286   1.487   0.477   4.570  0.4921 -0.1331  0.4831
 5276SOL    HW127287   1.476   0.537   4.496  0.0030  0.4499  1.0302
 5276SOL    HW227288   1.423   0.501   4.636 -0.3829  0.1373 -0.4557
 5277SOL     OW27289   2.632   1.569  14.365 -0.1253 -0.0882 -0.3909
 5277SOL    HW127290   2.646   1.658  14.331 -0.5514  0.0576 -0.1737
 5277SOL    HW227291   2.648   1.530  14.279 -1.1803  2.9461 -1.9815
 5278SOL     OW27292   1.308   1.486   6.930 -0.1144  0.3124 -0.8626
 5278SOL    HW127293   1.240   1.545   6.963  0.9589  1.5553 -0.8486
 5278SOL    HW227294   1.343   1.453   7.012  0.3382 -0.0264 -1.1934
 5279SOL     OW27295   3.668   1.729   8.519  0.5415  0.9488 -0.0656
 5279SOL    HW127296   3.704   1.683   8.443  0.6278  0.7407  0.0972
 5279SOL    HW227297   3.609   1.784   8.469 -0.6743  0.0410  0.3654
 5280SOL     OW27298   1.717   3.972   9.915 -0.4328 -0.4042  0.2220
 5280SOL    HW127299   1.688   3.963   9.824  1.7926  1.6299 -0.7098
 5280SOL    HW227300   1.804   3.934   9.931 -0.1583 -0.0215 -0.3388
 5281SOL     OW27301   1.578   1.600   2.794 -0.2666 -0.2413  0.5225
 5281SOL    HW127302   1.535   1.685   2.800 -1.2529 -0.5502 -2.1926
 5281SOL    HW227303   1.557   1.573   2.704 -1.4749  3.0666 -0.1931
 5282SOL     OW27304   0.563   0.689  16.194 -0.6772  0.3178  0.3216
 5282SOL    HW127305   0.657   0.673  16.192 -0.9365 -1.2001  0.6787
 5282SOL    HW227306   0.529   0.618  16.248 -0.8423  1.6743  2.0095
 5283SOL     OW27307   0.897   3.611   5.345  0.6087  0.6637 -0.1633
 5283SOL    HW127308   0.841   3.686   5.327 -0.2290  0.0460 -0.1369
 5283SOL    HW227309   0.972   3.664   5.369 -0.5117  2.3297 -0.3600
 5284SOL     OW27310   2.287   0.552   7.605  0.0507  0.4073  0.1292
 5284SOL    HW127311   2.243   0.563   7.689  1.6616  0.5714  0.9627
 5284SOL    HW227312   2.378   0.526   7.618 -0.5776 -1.6757  0.4480
 5285SOL     OW27313   3.742   4.466   5.625 -0.3913  0.0854 -0.1747
 5285SOL    HW127314   3.725   4.385   5.672  1.9455  0.8515  1.9980
 5285SOL    HW227315   3.764   4.524   5.698 -0.5250  1.1370 -0.9743
 5286SOL     OW27316   0.920   0.909   4.479 -0.7536  0.6278  0.4106
 5286SOL    HW127317   0.926   0.816   4.460 -0.8969  0.2436  2.2711
 5286SOL    HW227318   1.010   0.942   4.484 -0.0015 -1.1562 -1.5243
 5287SOL     OW27319   0.084   0.221  15.798 -0.1889  0.0431 -0.0412
 5287SOL    HW127320   0.111   0.199  15.709  0.2606  1.0306 -0.1508
 5287SOL    HW227321   0.067   0.315  15.787  0.7790  0.3636  1.1664
 5288SOL     OW27322   1.309   1.349  11.056 -0.4274 -0.4484 -0.3834
 5288SOL    HW127323   1.261   1.392  11.128  0.4729 -0.6693  0.3538
 5288SOL    HW227324   1.250   1.274  11.062  1.4778 -2.0235 -1.6968
 5289SOL     OW27325   3.957   4.562   8.725 -0.2261  0.0341  0.1809
 5289SOL    HW127326   3.885   4.611   8.685  1.3134  0.3993 -2.1419
 5289SOL    HW227327   3.999   4.539   8.642  1.8721 -0.4110  1.3765
 5290SOL     OW27328   2.065   2.083   6.365 -0.2880  0.2169  0.1806
 5290SOL    HW127329   1.978   2.070   6.403 -0.2425 -2.5548 -0.7079
 5290SOL    HW227330   2.039   2.155   6.307 -1.8157  0.8171  1.6143
 5291SOL     OW27331   0.541   0.241   1.339 -0.8584  0.0744 -0.0316
 5291SOL    HW127332   0.528   0.248   1.244  0.9468  0.6028 -0.2385
 5291SOL    HW227333   0.617   0.184   1.347 -1.5856 -1.4281 -3.4981
 5292SOL     OW27334   0.966   3.938   4.349  0.3385 -0.1836  0.1478
 5292SOL    HW127335   0.891   3.981   4.391  0.6565  0.6095 -0.1096
 5292SOL    HW227336   0.951   3.845   4.369  0.4644 -0.8183 -2.7500
 5293SOL     OW27337   1.460   0.052  12.279  0.0519  0.1631 -0.2258
 5293SOL    HW127338   1.542   0.005  12.297 -0.1634  0.0771  0.5368
 5293SOL    HW227339   1.473   0.132  12.330  1.1032  0.1698 -0.5040
 5294SOL     OW27340   2.684   0.097   8.954  0.1250 -0.1576 -0.1086
 5294SOL    HW127341   2.779   0.087   8.964  0.4538  2.1582 -0.7583
 5294SOL    HW227342   2.658   0.131   9.040 -1.2288 -1.5323  0.0176
 5295SOL     OW27343   4.423   4.642   4.348  0.3565  0.1521 -0.3974
 5295SOL    HW127344   4.474   4.595   4.282 -1.0590 -0.2270 -1.2191
 5295SOL    HW227345   4.485   4.712   4.370 -1.7274  3.2739 -4.3969
 5296SOL     OW27346   3.467   4.236  11.719  0.5517 -0.0608  0.2211
 5296SOL    HW127347   3.445   4.163  11.661 -1.1587  0.5905  0.0634
 5296SOL    HW227348   3.559   4.249  11.693  0.3078  3.3619  1.1700
 5297SOL     OW27349   1.704   0.043   9.813  0.5082  0.7510 -0.2699
 5297SOL    HW127350   1.623   0.090   9.827  0.1898  0.2464 -0.4139
 5297SOL    HW227351   1.729   0.019   9.902 -0.0715  0.6637 -0.1322
 5298SOL     OW27352   0.823   0.893   3.784  0.7906 -0.3488 -0.7538
 5298SOL    HW127353   0.888   0.963   3.773  0.8780 -0.3605 -0.3218
 5298SOL    HW227354   0.746   0.947   3.803  0.2069 -1.3232 -0.4100
 5299SOL     OW27355   2.648   3.649   4.578  0.1639 -0.3115 -0.3416
 5299SOL    HW127356   2.705   3.725   4.574 -0.0756 -0.2148 -1.7170
 5299SOL    HW227357   2.597   3.676   4.654  1.2220  2.5947 -0.6824
 5300SOL     OW27358   4.367   3.435   0.871  0.2555 -0.0053  0.0572
 5300SOL    HW127359   4.401   3.415   0.784 -0.4549 -1.1069  0.0390
 5300SOL    HW227360   4.334   3.522   0.850 -0.1687  0.4819  2.7727
 5301SOL     OW27361   0.097   0.738   9.331 -0.1385  0.4011  0.1831
 5301SOL    HW127362   0.074   0.824   9.298 -0.1192 -0.8852 -3.1637
 5301SOL    HW227363   0.184   0.752   9.370  0.1294  0.5361 -0.4676
 5302SOL     OW27364   1.209   0.808   6.974 -1.2509  0.0001 -0.4321
 5302SOL    HW127365   1.146   0.878   6.954  0.0882  1.2662 -0.2163
 5302SOL    HW227366   1.289   0.837   6.930 -0.8477 -0.8174 -0.2386
 5303SOL     OW27367   0.004   0.605   4.941 -0.2851  0.4842  0.1182
 5303SOL    HW127368   4.725   0.698   4.966 -0.8306  0.0802  1.5147
 5303SOL    HW227369   4.635   0.590   4.943 -0.1746 -0.2655 -0.3589
 5304SOL     OW27370   3.009   4.261   6.342  0.0478  0.6907  0.3333
 5304SOL    HW127371   2.938   4.230   6.286 -0.6292 -0.0891  1.6326
 5304SOL    HW227372   3.052   4.178   6.364 -0.7863  0.9860  3.0412
 5305SOL     OW27373   0.069   3.501   3.974 -0.3246 -0.6427  0.1855
 5305SOL    HW127374   0.128   3.426   3.977  1.6958  0.9476  0.1364
 5305SOL    HW227375   4.716   3.458   4.008 -0.7187  2.6002  3.3763
 5306SOL     OW27376   0.268   0.663   5.149  0.1056  0.2368  0.0066
 5306SOL    HW127377   0.267   0.743   5.096 -0.3621 -0.0857 -0.4643
 5306SOL    HW227378   0.267   0.696   5.239  1.6555 -1.4613  0.6329
 5307SOL     OW27379   3.413   4.389   9.574  0.0857 -0.2681 -0.2432
 5307SOL    HW127380   3.496   4.379   9.622  0.7078  0.0002 -1.2524
 5307SOL    HW227381   3.349   4.382   9.645 -1.0649  2.7358 -0.9533
 5308SOL     OW27382   2.912   0.360  16.220 -0.1579 -0.4577  0.4127
 5308SOL    HW127383   2.865   0.345  16.301  0.1048 -3.4753 -0.0110
 5308SOL    HW227384   2.878   0.442  16.183  2.0841 -0.7774 -2.3894
 5309SOL     OW27385   0.044   3.702  17.590  0.0747  0.2722  0.1612
 5309SOL    HW127386   4.676   3.718  17.600  0.1778 -0.8851  2.9799
 5309SOL    HW227387   0.047   3.616  17.549 -0.9271 -0.4135  1.5560
 5310SOL     OW27388   0.296   0.407   5.800  0.8182 -0.1579 -0.4453
 5310SOL    HW127389   0.305   0.487   5.748 -2.6650 -0.2700 -1.2606
 5310SOL    HW227390   0.208   0.426   5.834  0.8682  0.2426 -0.5313
 5311SOL     OW27391   2.260   3.878   0.237  0.1173  0.5525 -0.4510
 5311SOL    HW127392   2.317   3.813   0.198  0.2626 -0.3651  1.2926
 5311SOL    HW227393   2.205   3.908   0.164  1.9132  1.6334 -1.3628
 5312SOL     OW27394   3.570   4.010  13.039  0.2004  0.3375 -0.6580
 5312SOL    HW127395   3.480   3.987  13.063  0.8496 -1.2156  0.2332
 5312SOL    HW227396   3.555   4.104  13.032 -2.1256 -0.2589 -4.0724
 5313SOL     OW27397   1.597   0.947   0.889  0.0250 -0.1251  0.0798
 5313SOL    HW127398   1.633   0.899   0.815  0.6206  0.5647 -0.0756
 5313SOL    HW227399   1.618   1.039   0.875 -0.8285  0.0125 -0.3386
 5314SOL     OW27400   0.386   0.459  15.413  0.3491 -0.1821 -0.3352
 5314SOL    HW127401   0.380   0.538  15.467 -0.8707 -0.1115 -0.5836
 5314SOL    HW227402   0.415   0.505  15.335 -0.7114  1.4567  0.2168
 5315SOL     OW27403   2.702   2.743   1.919  0.0881 -0.1675  0.0864
 5315SOL    HW127404   2.726   2.835   1.928  1.3367 -0.3671 -1.1663
 5315SOL    HW227405   2.652   2.749   1.838  0.8542  0.3138 -0.3592
 5316SOL     OW27406   1.600   2.238   5.438  0.7210 -0.1996  0.0184
 5316SOL    HW127407   1.554   2.272   5.361  0.9791 -0.1607 -0.1198
 5316SOL    HW227408   1.545   2.247   5.515  1.3839 -0.2686  0.4985
 5317SOL     OW27409   2.720   3.333   8.876  0.0962  0.4454 -0.5495
 5317SOL    HW127410   2.796   3.275   8.867  0.9450  1.8847 -2.6112
 5317SOL    HW227411   2.749   3.415   8.916  2.2939 -0.3816 -0.4085
 5318SOL     OW27412   4.527   0.540  10.122  0.2098 -0.3388  0.9416
 5318SOL    HW127413   4.541   0.445  10.119 -0.9787 -0.4933  0.5717
 5318SOL    HW227414   4.506   0.546  10.215 -2.6686 -1.7308  0.3748
 5319SOL     OW27415   3.885   0.633   5.911  0.4383  0.3438  0.0995
 5319SOL    HW127416   3.825   0.562   5.936 -0.9365  2.0283  1.5948
 5319SOL    HW227417   3.926   0.585   5.839 -1.4927  1.7658 -1.9560
 5320SOL     OW27418   1.902   3.931  12.030 -0.0742 -0.0678 -0.2145
 5320SOL    HW127419   1.968   3.997  12.007  1.1127 -1.2498 -0.1938
 5320SOL    HW227420   1.816   3.972  12.018  0.7884  0.9386 -2.8673
 5321SOL     OW27421   1.256   0.306  12.290  0.1775  0.3485  0.2699
 5321SOL    HW127422   1.242   0.220  12.252  0.1794  0.2858  0.4134
 5321SOL    HW227423   1.329   0.304  12.352  1.2241  1.5755 -0.9200
 5322SOL     OW27424   0.225   0.838   4.399 -0.7567  0.0473  0.0667
 5322SOL    HW127425   0.178   0.846   4.481 -1.3997  1.0548 -0.4118
 5322SOL    HW227426   0.230   0.930   4.374 -0.5225  1.0437  3.8540
 5323SOL     OW27427   4.354   0.556   6.808  0.3160 -0.2764  0.3123
 5323SOL    HW127428   4.428   0.585   6.754 -0.7963 -0.5992 -1.3867
 5323SOL    HW227429   4.342   0.475   6.759 -1.7588  0.1148  0.1677
 5324SOL     OW27430   2.033   4.294   4.852  0.4973  0.1172  0.0157
 5324SOL    HW127431   2.125   4.270   4.849  1.2316  2.7555  1.8402
 5324SOL    HW227432   2.008   4.249   4.932 -1.5630  1.2094  0.0010
 5325SOL     OW27433   3.348   3.644   9.532 -0.2033  0.0195 -0.1263
 5325SOL    HW127434   3.286   3.715   9.513  0.2769  0.2250 -0.9238
 5325SOL    HW227435   3.308   3.603   9.608  0.3169 -1.5203 -0.6914
 5326SOL     OW27436   3.608   3.517   7.178 -0.2359 -1.0613 -0.1219
 5326SOL    HW127437   3.627   3.437   7.130  2.0979 -1.7374  1.9758
 5326SOL    HW227438   3.624   3.486   7.267 -0.8517  1.2171  0.7871
 5327SOL     OW27439   0.069   0.306   8.420  0.2878  0.0826  0.0368
 5327SOL    HW127440   0.079   0.318   8.514 -4.0589 -0.1749  0.5075
 5327SOL    HW227441   0.069   0.396   8.387  1.2367  0.4171  0.9271
 5328SOL     OW27442   0.176   2.786   7.371 -0.2587 -0.1015  0.4800
 5328SOL    HW127443   0.139   2.810   7.286  0.1594  1.6595  0.7867
 5328SOL    HW227444   0.163   2.872   7.410 -3.7221 -1.2406  1.8900
 5329SOL     OW27445   1.734   1.460   3.379  0.3061  0.1100  0.2267
 5329SOL    HW127446   1.776   1.430   3.459  0.0125  1.3799  0.8642
 5329SOL    HW227447   1.792   1.527   3.342 -0.4081 -0.2815 -1.5912
 5330SOL     OW27448   3.445   2.065  12.005  0.5377  0.1367  0.4856
 5330SOL    HW127449   3.436   2.089  12.097  0.4535  2.8603 -0.2313
 5330SOL    HW227450   3.352   2.048  11.992 -0.2438  2.2191  3.4198
 5331SOL     OW27451   0.480   1.490   2.699 -0.4498  0.1128 -0.0253
 5331SOL    HW127452   0.562   1.509   2.654  0.3436 -1.8436  0.6136
 5331SOL    HW227453   0.449   1.580   2.709  0.7658  0.5232 -0.0091
 5332SOL     OW27454   1.836   4.143   6.854 -0.2540 -0.3696 -0.1164
 5332SOL    HW127455   1.866   4.080   6.919 -1.8699  0.1242  1.1280
 5332SOL    HW227456   1.908   4.157   6.792 -0.2659 -2.4687 -0.5785
 5333SOL     OW27457   1.409   3.512   9.462  0.3536  0.1259 -0.1342
 5333SOL    HW127458   1.343   3.574   9.429 -2.3152 -1.8077  1.5373
 5333SOL    HW227459   1.415   3.455   9.385  4.3366  0.2261  0.1483
 5334SOL     OW27460   0.591   3.848  15.856 -0.6546  0.4749  0.1351
 5334SOL    HW127461   0.600   3.808  15.770  1.0830  1.0114  0.0715
 5334SOL    HW227462   0.527   3.788  15.893  0.1968 -1.5440 -1.7050
 5335SOL     OW27463   3.495   2.047   8.757  0.4113  0.0564  0.3933
 5335SOL    HW127464   3.418   2.102   8.771  0.1268 -0.1911 -0.2007
 5335SOL    HW227465   3.556   2.105   8.712  0.3982  0.7541  1.2820
 5336SOL     OW27466   0.401   2.049   7.499 -0.6241 -0.4273  0.0439
 5336SOL    HW127467   0.353   2.035   7.581 -2.9362  2.5372 -0.8041
 5336SOL    HW227468   0.487   2.054   7.540 -0.3430  1.0679 -0.7352
 5337SOL     OW27469   0.673   2.171   4.891  0.1583  0.1383 -0.7619
 5337SOL    HW127470   0.616   2.164   4.968  3.3723 -1.0853  1.5096
 5337SOL    HW227471   0.759   2.196   4.925 -0.3684  1.1233 -0.1821
 5338SOL     OW27472   0.341   0.852   6.515 -0.1146 -0.0909  0.3575
 5338SOL    HW127473   0.374   0.902   6.441  1.6222 -0.3752  0.9494
 5338SOL    HW227474   0.275   0.911   6.551 -1.1493 -1.9301  1.4737
 5339SOL     OW27475   4.635   0.371   3.127 -0.1720 -0.4176 -0.2610
 5339SOL    HW127476   4.622   0.437   3.058 -2.4014 -0.8073 -0.2199
 5339SOL    HW227477   4.581   0.420   3.189  2.8809  0.0377  2.0111
 5340SOL     OW27478   0.580   0.466   7.726  0.1011 -1.1505 -0.1987
 5340SOL    HW127479   0.632   0.483   7.647  1.2679  2.5292  1.3762
 5340SOL    HW227480   0.618   0.384   7.760 -0.6867  0.0265  3.5475
 5341SOL     OW27481   0.528   0.725   5.261  0.2142 -0.3883  0.1228
 5341SOL    HW127482   0.467   0.719   5.188  1.1428 -1.1306 -0.5933
 5341SOL    HW227483   0.552   0.632   5.267 -0.0708 -0.5139 -0.7914
 5342SOL     OW27484   3.794   1.295   0.569 -0.4563  0.7699  0.2285
 5342SOL    HW127485   3.856   1.365   0.548 -0.3921  1.3169  2.2084
 5342SOL    HW227486   3.809   1.278   0.662  1.6699 -1.8207 -0.6109
 5343SOL     OW27487   1.700   0.796  12.297 -0.2621 -0.1799 -0.4931
 5343SOL    HW127488   1.684   0.790  12.202  0.1423 -1.5847 -0.4806
 5343SOL    HW227489   1.656   0.721  12.337 -0.9435  0.3081 -0.3151
 5344SOL     OW27490   3.048   4.620   8.824 -0.3060 -0.3352 -0.0221
 5344SOL    HW127491   3.053   4.533   8.785 -0.3055 -0.4409  0.2148
 5344SOL    HW227492   3.138   4.651   8.809 -0.4452 -1.1592 -2.6194
 5345SOL     OW27493   4.371   3.236   6.941  0.5015 -0.0303 -0.5356
 5345SOL    HW127494   4.362   3.171   7.011  0.3001 -0.7243 -1.1943
 5345SOL    HW227495   4.331   3.312   6.982  0.8108  1.1289 -2.3869
 5346SOL     OW27496   0.713   0.481  15.631 -0.2426  0.1953  0.1515
 5346SOL    HW127497   0.768   0.445  15.701  2.4180 -1.6284 -2.8936
 5346SOL    HW227498   0.736   0.573  15.624 -1.6101  0.2939 -3.0647
 5347SOL     OW27499   4.091   4.395  10.171  0.2852 -0.0583 -0.2632
 5347SOL    HW127500   4.047   4.362  10.093 -1.5301  0.0658  0.7087
 5347SOL    HW227501   4.059   4.334  10.237  0.7145 -2.5663 -2.3708
 5348SOL     OW27502   1.230   0.004   2.940  0.8227 -0.0070  0.0504
 5348SOL    HW127503   1.212   0.015   2.846  1.1587  1.1797  0.1229
 5348SOL    HW227504   1.257   4.637   2.944 -1.2718 -0.6576 -1.1141
 5349SOL     OW27505   2.290   3.424   9.309  0.2000 -0.3022 -0.4102
 5349SOL    HW127506   2.366   3.473   9.277  0.6169  0.2344  1.4107
 5349SOL    HW227507   2.222   3.479   9.271  1.0808  1.2811  0.3114
 5350SOL     OW27508   4.473   0.380   7.881  1.0394 -0.0632 -0.6339
 5350SOL    HW127509   4.412   0.321   7.925  1.5293 -0.2364 -0.1827
 5350SOL    HW227510   4.541   0.398   7.946 -1.8970  0.6590  2.2230
 5351SOL     OW27511   0.099   2.669   5.108  0.4508  0.0068 -0.2617
 5351SOL    HW127512   0.030   2.603   5.100 -0.6901  1.0510  0.9756
 5351SOL    HW227513   0.163   2.611   5.149 -1.5701 -0.0692  2.7894
 5352SOL     OW27514   0.531   0.501   6.308  0.4838 -0.4408  0.1804
 5352SOL    HW127515   0.584   0.469   6.235 -1.4797  1.1217 -1.9583
 5352SOL    HW227516   0.442   0.505   6.271  0.4093  0.5233  0.4408
 5353SOL     OW27517   3.566   1.631   0.431 -0.0411 -0.6185 -0.3186
 5353SOL    HW127518   3.623   1.561   0.398  1.3966 -0.0501  0.9643
 5353SOL    HW227519   3.517   1.652   0.351  1.2713  1.8776 -0.4820
 5354SOL     OW27520   4.243   2.846   9.890  0.1606  0.2963  0.1402
 5354SOL    HW127521   4.336   2.860   9.875  0.5526 -0.5006  1.8719
 5354SOL    HW227522   4.227   2.880   9.978 -0.8089  2.9128 -1.0503
 5355SOL     OW27523   2.723   3.594  16.287  0.1335 -0.4495  0.7007
 5355SOL    HW127524   2.721   3.510  16.241 -4.8483 -1.2954  2.4349
 5355SOL    HW227525   2.696   3.660  16.224 -1.4121  0.7700  2.6507
 5356SOL     OW27526   4.262   1.377  14.921 -0.1102 -0.4392  0.6600
 5356SOL    HW127527   4.357   1.372  14.907  0.1894  1.3220  2.0523
 5356SOL    HW227528   4.241   1.462  14.882 -0.2342 -0.4703  0.6595
 5357SOL     OW27529   3.172   0.131   6.281 -0.0220 -0.3363 -0.6397
 5357SOL    HW127530   3.249   0.161   6.232 -0.2060  2.0061  0.4915
 5357SOL    HW227531   3.193   0.159   6.370  1.8759  0.2801 -1.2902
 5358SOL     OW27532   3.798   1.488   8.031  0.3536 -0.1884 -0.3310
 5358SOL    HW127533   3.794   1.395   8.051 -3.4839  0.5822  2.5293
 5358SOL    HW227534   3.749   1.498   7.949  0.1328  2.1458  0.0831
 5359SOL     OW27535   0.071   0.589   7.675 -0.2393  0.0377 -0.6485
 5359SOL    HW127536   0.082   0.637   7.757 -2.2977 -0.5335 -0.0496
 5359SOL    HW227537   0.157   0.550   7.657 -1.0343 -1.6243 -0.8677
 5360SOL     OW27538   3.067   3.388  11.453  0.5207  0.4050 -0.5982
 5360SOL    HW127539   3.148   3.355  11.416 -0.1364 -1.2509 -0.5381
 5360SOL    HW227540   3.065   3.348  11.540 -3.1698  0.7103 -0.5198
 5361SOL     OW27541   3.452   2.782  12.533  0.4268  0.5436 -0.2867
 5361SOL    HW127542   3.515   2.848  12.562  0.7604  0.2622 -0.3844
 5361SOL    HW227543   3.500   2.702  12.515 -1.6236 -0.8565  0.3829
 5362SOL     OW27544   0.032   0.905   7.030  0.5912 -0.0942  0.5779
 5362SOL    HW127545   4.700   0.887   6.956  0.2525  1.5887  0.4300
 5362SOL    HW227546   4.712   0.979   7.070 -2.1865 -1.1019 -0.7397
 5363SOL     OW27547   3.183   2.854   4.937 -0.5392 -0.1118 -0.4568
 5363SOL    HW127548   3.106   2.850   4.993  0.8937 -3.3478  1.3099
 5363SOL    HW227549   3.232   2.775   4.962 -2.0010 -0.9612 -0.2654
 5364SOL     OW27550   0.417   1.038   2.773 -0.2816  0.1875  0.2550
 5364SOL    HW127551   0.326   1.046   2.745 -0.2102 -0.5369 -0.1780
 5364SOL    HW227552   0.418   0.945   2.796 -1.0655  0.4431  1.3488
 5365SOL     OW27553   4.663   4.694   3.995  0.1585  0.1690  0.3306
 5365SOL    HW127554   4.710   4.620   3.955 -0.3329 -0.1049  0.2646
 5365SOL    HW227555   0.009   0.022   4.028 -0.1796  0.9748 -0.2583
 5366SOL     OW27556   4.185   0.680   7.275  0.8641  0.0538 -0.0220
 5366SOL    HW127557   4.274   0.715   7.273  0.7894  0.2293 -0.3035
 5366SOL    HW227558   4.170   0.681   7.180 -1.3630  1.1051  0.3360
 5367SOL     OW27559   1.156   0.132   6.826  0.1540  0.2379 -0.2693
 5367SOL    HW127560   1.081   0.190   6.821 -1.5974 -2.1235 -1.2281
 5367SOL    HW227561   1.186   0.140   6.917 -0.8522  2.4053 -0.1246
 5368SOL     OW27562   1.779   1.181   4.964  0.5352 -0.4394 -0.0260
 5368SOL    HW127563   1.740   1.252   5.015 -2.2312  0.1194 -2.9324
 5368SOL    HW227564   1.734   1.208   4.883 -0.1250  0.1746  0.5455
 5369SOL     OW27565   3.980   3.632   1.907 -0.9824 -0.0466  0.0079
 5369SOL    HW127566   4.063   3.665   1.942 -1.1652 -0.5733  0.9395
 5369SOL    HW227567   3.978   3.667   1.818  0.0446 -1.5202 -0.6113
 5370SOL     OW27568   1.773   2.147   5.118 -0.2963  0.1359  0.4535
 5370SOL    HW127569   1.696   2.197   5.092 -0.4044 -0.5433 -0.5478
 5370SOL    HW227570   1.739   2.091   5.187 -2.3532  0.9055  0.0600
 5371SOL     OW27571   2.866   3.577   5.981  0.2483  0.1048 -0.0876
 5371SOL    HW127572   2.822   3.649   6.026 -0.5540 -0.2420 -0.3206
 5371SOL    HW227573   2.947   3.570   6.033  0.5631 -0.8717 -0.7105
 5372SOL     OW27574   1.823   1.640   0.065  0.1044 -0.1737  0.5364
 5372SOL    HW127575   1.796   1.729   0.088 -1.1023  0.3750 -2.9397
 5372SOL    HW227576   1.782   1.590   0.135 -0.4935  0.6206  0.7405
 5373SOL     OW27577   2.606   4.623   9.546 -0.1373 -0.2846  0.3483
 5373SOL    HW127578   2.687   4.649   9.588  1.1311 -1.4401 -1.3620
 5373SOL    HW227579   2.636   4.587   9.463 -0.6042  0.4617 -0.1442
 5374SOL     OW27580   0.182   4.034  10.776  0.6086  0.1783 -0.6314
 5374SOL    HW127581   0.150   4.037  10.686  0.7750 -0.3362 -0.7077
 5374SOL    HW227582   0.248   3.964  10.773 -0.5681 -0.9165 -0.9597
 5375SOL     OW27583   2.369   1.482   1.362 -0.6981 -0.3649 -0.5560
 5375SOL    HW127584   2.339   1.407   1.413  1.1229 -0.0249  1.0210
 5375SOL    HW227585   2.432   1.530   1.416  1.0552  0.6557 -3.4934
 5376SOL     OW27586   1.625   3.710  14.078  0.3486  0.1297 -0.1445
 5376SOL    HW127587   1.710   3.677  14.049  0.1194 -0.8351  0.2513
 5376SOL    HW227588   1.568   3.641  14.045 -1.1431  1.6999 -0.8182
 5377SOL     OW27589   3.881   4.639   5.304 -1.2174  0.3095 -0.2756
 5377SOL    HW127590   3.886   4.676   5.216 -0.7141  0.5622 -0.1370
 5377SOL    HW227591   3.948   4.698   5.337  1.1125 -2.6716  0.3233
 5378SOL     OW27592   4.104   0.755   8.176 -0.0014 -0.1412 -0.0342
 5378SOL    HW127593   4.164   0.828   8.160  2.5265 -1.7080  2.2490
 5378SOL    HW227594   4.080   0.729   8.087  0.3942  1.3795 -0.5842
 5379SOL     OW27595   3.373   1.091   2.816 -0.0405 -0.0257  0.3295
 5379SOL    HW127596   3.377   0.998   2.793 -0.5329  0.1466 -0.4788
 5379SOL    HW227597   3.437   1.133   2.759  0.7202  1.4907  2.3164
 5380SOL     OW27598   0.876   1.061  16.023  0.3562 -0.0231 -0.3745
 5380SOL    HW127599   0.968   1.078  16.004  1.4465 -2.5986  2.5334
 5380SOL    HW227600   0.851   1.153  16.012 -1.9762 -0.6064  0.0120
 5381SOL     OW27601   4.375   3.962   2.187 -0.0024  0.4910 -0.0300
 5381SOL    HW127602   4.334   3.956   2.273  1.1223 -0.8139  0.4068
 5381SOL    HW227603   4.438   3.891   2.184 -3.0627 -2.2846  1.0050
 5382SOL     OW27604   3.973   1.694   7.670  0.2571 -0.1204 -0.1725
 5382SOL    HW127605   3.953   1.733   7.755  0.4767  0.5852 -0.4480
 5382SOL    HW227606   3.927   1.755   7.613 -0.3141 -1.7055 -1.3951
 5383SOL     OW27607   0.481   0.573   2.719 -0.2254 -0.1531  0.3816
 5383SOL    HW127608   0.539   0.507   2.758  0.6121  1.2365  1.4964
 5383SOL    HW227609   0.528   0.588   2.637  0.7251 -2.7867  0.4305
 5384SOL     OW27610   3.720   0.209   5.617 -0.2331  0.2111  0.4277
 5384SOL    HW127611   3.666   0.130   5.609  0.3931 -0.0075 -1.5572
 5384SOL    HW227612   3.664   0.286   5.610 -2.8419 -1.6958  0.2916
 5385SOL     OW27613   1.293   3.177   6.813 -0.4773 -0.1377 -0.4047
 5385SOL    HW127614   1.258   3.194   6.726  0.2179 -0.1486 -0.6812
 5385SOL    HW227615   1.280   3.083   6.822 -0.3654  0.0867  2.1591
 5386SOL     OW27616   2.956   1.541   4.508 -0.0899  0.0087 -0.0997
 5386SOL    HW127617   2.905   1.493   4.573 -0.9998 -0.5991 -1.2745
 5386SOL    HW227618   2.910   1.624   4.517 -2.3246 -1.1099 -1.5089
 5387SOL     OW27619   3.699   1.742   2.508 -0.2791  0.1015  0.1874
 5387SOL    HW127620   3.764   1.680   2.542  0.4084  0.5453 -0.3393
 5387SOL    HW227621   3.672   1.694   2.430 -0.3463  0.4839 -0.0200
 5388SOL     OW27622   4.444   4.440  10.155 -0.5176 -0.6877 -0.0514
 5388SOL    HW127623   4.458   4.393  10.237 -3.3142 -0.0025  0.8247
 5388SOL    HW227624   4.399   4.514  10.196 -0.5170 -1.9496  2.2572
 5389SOL     OW27625   3.937   0.262   0.957 -0.0397  0.2617  0.0883
 5389SOL    HW127626   3.895   0.333   1.007  2.6091  0.9047  1.4138
 5389SOL    HW227627   3.888   0.182   0.972  0.5503  0.4781  3.1941
 5390SOL     OW27628   4.079   1.676   8.321  0.2436  0.2933 -0.5510
 5390SOL    HW127629   4.042   1.638   8.241 -1.3993 -1.3518  0.9975
 5390SOL    HW227630   4.169   1.694   8.294 -0.4178  1.6775 -1.8558
 5391SOL     OW27631   1.884   1.349   1.130 -0.3407 -0.4478  0.1154
 5391SOL    HW127632   1.970   1.348   1.173  0.4573 -1.2369 -1.5205
 5391SOL    HW227633   1.917   1.360   1.041 -1.0729  1.2772  0.0513
 5392SOL     OW27634   3.801   1.974  13.578  0.3958  0.2993 -0.0286
 5392SOL    HW127635   3.768   1.997  13.665 -0.8261  3.3519 -1.2923
 5392SOL    HW227636   3.787   1.879  13.575  1.4417  0.0979  1.3857
 5393SOL     OW27637   3.848   3.103  16.003 -0.5817 -0.1025  0.0218
 5393SOL    HW127638   3.882   3.044  15.936  0.6700 -0.2904  0.8361
 5393SOL    HW227639   3.808   3.052  16.073  0.8724  2.3108  2.6013
 5394SOL     OW27640   4.037   3.917   9.025  0.3252 -0.2877  0.5479
 5394SOL    HW127641   4.001   3.881   9.105  0.3902 -1.5334  0.0126
 5394SOL    HW227642   4.106   3.967   9.069 -0.4797  1.8160 -0.5760
 5395SOL     OW27643   4.454   3.180   6.538 -0.0214 -0.0415 -0.6680
 5395SOL    HW127644   4.371   3.142   6.569 -0.3360  1.3812  0.2342
 5395SOL    HW227645   4.489   3.101   6.495 -1.9154 -1.3842  0.2558
 5396SOL     OW27646   3.929   4.604  16.612 -0.0780 -0.3766  0.3120
 5396SOL    HW127647   3.879   4.560  16.681 -1.5329  3.1270  1.4707
 5396SOL    HW227648   3.858   4.661  16.583  1.0116  0.5161 -0.5897
 5397SOL     OW27649   2.349   0.194   2.884 -0.1792 -0.1668  0.2533
 5397SOL    HW127650   2.375   0.231   2.968 -1.4524 -0.3498  0.7278
 5397SOL    HW227651   2.431   0.155   2.854 -0.7749 -1.4620  0.3171
 5398SOL     OW27652   4.596   1.669  13.704  0.0433  0.3165 -0.1002
 5398SOL    HW127653   4.523   1.612  13.728  0.2939  0.1785  0.3349
 5398SOL    HW227654   4.654   1.644  13.776 -3.9553  2.0090  3.6824
 5399SOL     OW27655   3.846   0.576   8.423 -0.6311 -0.1332 -0.4446
 5399SOL    HW127656   3.752   0.565   8.433 -0.5659 -0.1253  0.2016
 5399SOL    HW227657   3.870   0.484   8.418  1.4589  0.3473  0.7218
 5400SOL     OW27658   2.524   0.054   6.738 -0.3069 -0.2679 -0.7407
 5400SOL    HW127659   2.494   4.725   6.810 -0.2494  4.6540  3.0042
 5400SOL    HW227660   2.439   0.092   6.716 -0.1266  0.4093 -0.2621
 5401SOL     OW27661   2.661   2.784   3.809 -0.2630 -0.1752 -0.2311
 5401SOL    HW127662   2.687   2.766   3.718  0.9769  3.0560 -0.5330
 5401SOL    HW227663   2.570   2.794   3.781 -0.3601  2.3397  0.9257
 5402SOL     OW27664   1.524   1.706   7.892 -0.1258  0.8395  0.3146
 5402SOL    HW127665   1.612   1.744   7.896 -0.0879  1.0388 -2.3085
 5402SOL    HW227666   1.526   1.639   7.961 -1.7054 -0.4475 -0.8963
 5403SOL     OW27667   1.177   4.522   9.662  0.6761  0.0265  0.2916
 5403SOL    HW127668   1.160   4.615   9.680 -0.2536 -0.2459  0.8340
 5403SOL    HW227669   1.250   4.513   9.723  1.5554 -1.2808 -0.9466
 5404SOL     OW27670   4.247   2.770   7.573  0.4230  0.8686 -0.7143
 5404SOL    HW127671   4.204   2.704   7.519  1.2057 -0.6093  0.4618
 5404SOL    HW227672   4.330   2.786   7.529  0.7799 -0.4804 -0.5104
 5405SOL     OW27673   1.519   2.745   9.434 -0.2007  0.2004 -0.3066
 5405SOL    HW127674   1.459   2.674   9.458  0.6464 -0.3096  0.2949
 5405SOL    HW227675   1.529   2.801   9.511 -1.4240 -0.6366  0.4594
 5406SOL     OW27676   2.444   2.055   7.910  0.0015  0.1140 -0.2752
 5406SOL    HW127677   2.350   2.056   7.896 -0.1173  0.4162  0.5748
 5406SOL    HW227678   2.452   1.960   7.921 -0.9899  0.0988  0.3154
 5407SOL     OW27679   2.997   3.308   7.688  0.3523 -0.2212 -0.2737
 5407SOL    HW127680   3.034   3.397   7.695  1.4058 -0.6671 -0.1767
 5407SOL    HW227681   2.924   3.312   7.750 -0.4336  1.1507 -1.2795
 5408SOL     OW27682   0.760   4.619   3.920  0.4260  0.6799 -0.2155
 5408SOL    HW127683   0.754   4.528   3.892  1.1357  0.2584  0.9627
 5408SOL    HW227684   0.669   4.636   3.942  0.0186  0.4335 -1.7501
 5409SOL     OW27685   2.272   3.927   7.368 -0.2290 -0.7577  0.1279
 5409SOL    HW127686   2.240   3.837   7.375  0.5156 -1.0162  0.2167
 5409SOL    HW227687   2.243   3.956   7.282 -1.5218 -2.5471 -0.0373
 5410SOL     OW27688   0.378   2.883  14.378 -0.0918  0.0944  0.3244
 5410SOL    HW127689   0.424   2.909  14.299 -0.6723  1.9516  0.5987
 5410SOL    HW227690   0.302   2.843  14.338  0.8362 -0.0378 -1.2841
 5411SOL     OW27691   1.119   4.559   0.638 -0.5926 -0.6934  0.4240
 5411SOL    HW127692   1.191   4.496   0.645 -0.9061 -1.0274  0.6641
 5411SOL    HW227693   1.137   4.610   0.559 -0.5555 -0.1595  0.7775
 5412SOL     OW27694   0.511   3.299   6.962  0.5236 -0.1858  0.3570
 5412SOL    HW127695   0.437   3.322   6.906 -0.0813 -0.7868  0.9186
 5412SOL    HW227696   0.512   3.205   6.944  2.8503 -0.0087 -0.4331
 5413SOL     OW27697   1.614   4.415   7.817 -0.0190 -0.5533  0.7458
 5413SOL    HW127698   1.542   4.461   7.859  0.6566  1.0576  0.1696
 5413SOL    HW227699   1.690   4.432   7.874  0.5880  0.4946 -0.3699
 5414SOL     OW27700   4.057   2.239   7.647  0.3038  0.5071 -0.0856
 5414SOL    HW127701   4.095   2.154   7.670 -0.5900  0.0809 -0.1929
 5414SOL    HW227702   4.004   2.264   7.723  2.1859  0.3158  1.2800
 5415SOL     OW27703   2.387   3.292   2.778  0.1037 -0.2641 -0.2892
 5415SOL    HW127704   2.417   3.213   2.733  0.8561 -0.0124 -0.2111
 5415SOL    HW227705   2.361   3.258   2.864  1.8762  1.3445  0.8776
 5416SOL     OW27706   3.862   1.275   3.552  0.1184 -0.2607  0.6840
 5416SOL    HW127707   3.925   1.344   3.574 -0.2982  0.4916 -0.4274
 5416SOL    HW227708   3.802   1.328   3.499 -0.8469 -1.7733  0.2611
 5417SOL     OW27709   4.665   2.073   3.610 -0.0591  0.1776 -0.7223
 5417SOL    HW127710   0.016   2.108   3.566 -0.2867  0.8872 -0.5426
 5417SOL    HW227711   4.711   2.054   3.692 -1.0923  0.9375  0.0375
 5418SOL     OW27712   0.626   3.242  10.257  0.4957 -1.0427  0.1810
 5418SOL    HW127713   0.560   3.197  10.205 -0.7736  2.0062 -0.8406
 5418SOL    HW227714   0.705   3.188  10.250  0.9823 -0.4436  0.9982
 5419SOL     OW27715   4.410   3.475   6.237  0.8237  0.3786 -0.0717
 5419SOL    HW127716   4.427   3.409   6.170 -1.4896 -0.5170  0.2163
 5419SOL    HW227717   4.385   3.403   6.294 -0.7175 -0.1867 -1.4526
 5420SOL     OW27718   1.485   2.003   4.301 -0.3756  0.4346  0.3186
 5420SOL    HW127719   1.428   1.991   4.378 -1.5592 -1.6367 -0.8778
 5420SOL    HW227720   1.500   1.909   4.286  0.3481  0.0539  3.3544
 5421SOL     OW27721   1.344   0.442   8.253  0.5341  0.0564 -0.1695
 5421SOL    HW127722   1.386   0.456   8.168 -1.7926 -1.0299 -1.4814
 5421SOL    HW227723   1.327   0.348   8.246  1.9883 -0.1107 -1.5197
 5422SOL     OW27724   4.556   3.002   6.113  0.5650  0.9016  0.7454
 5422SOL    HW127725   4.601   2.919   6.100 -1.3396  0.0035 -0.1700
 5422SOL    HW227726   4.621   3.066   6.143 -0.3886  1.8657  0.7694
 5423SOL     OW27727   3.897   3.201   8.417 -0.9680 -0.0318 -0.6049
 5423SOL    HW127728   3.834   3.130   8.433  0.2466 -1.1403 -0.7722
 5423SOL    HW227729   3.904   3.217   8.323  0.9220  1.5295 -0.1854
 5424SOL     OW27730   4.287   4.442   8.330 -0.2375 -0.1603 -0.4068
 5424SOL    HW127731   4.232   4.389   8.273  2.3542  0.4716 -3.5270
 5424SOL    HW227732   4.311   4.517   8.274 -1.7953 -0.7701 -1.8880
 5425SOL     OW27733   0.660   1.194   8.158 -0.5444  0.5160  0.3430
 5425SOL    HW127734   0.570   1.177   8.187 -1.4588 -0.7452 -3.2106
 5425SOL    HW227735   0.710   1.131   8.208  1.0212  0.9863 -0.6398
 5426SOL     OW27736   1.480   4.052   4.840  0.1995  0.2787  0.2604
 5426SOL    HW127737   1.532   4.099   4.905 -0.4977  1.9960 -0.4248
 5426SOL    HW227738   1.518   3.964   4.836 -0.4453  0.0704 -1.4114
 5427SOL     OW27739   2.180   4.134   4.479 -0.1921 -0.4511  0.3923
 5427SOL    HW127740   2.088   4.112   4.469 -0.3379  0.5601 -0.4746
 5427SOL    HW227741   2.220   4.051   4.453  0.8447 -0.2024  1.1735
 5428SOL     OW27742   4.308   2.087   1.686  0.7827  0.3686  0.1204
 5428SOL    HW127743   4.302   2.153   1.617  2.3508  0.4341  0.0533
 5428SOL    HW227744   4.397   2.054   1.672 -0.6046 -2.9132 -0.9019
 5429SOL     OW27745   1.648   1.424  10.678 -0.6036  0.1329  0.1939
 5429SOL    HW127746   1.680   1.334  10.670  1.0495  0.7744 -0.5004
 5429SOL    HW227747   1.556   1.403  10.663  0.1298 -1.4541 -2.1507
 5430SOL     OW27748   4.217   1.847   7.042 -0.0553  0.5826  0.3494
 5430SOL    HW127749   4.200   1.829   6.950  1.8664 -1.9761  0.5081
 5430SOL    HW227750   4.266   1.766   7.056  0.8310  0.9227 -0.7505
 5431SOL     OW27751   4.468   0.005   8.117 -0.0173  0.1339  0.1714
 5431SOL    HW127752   4.510   0.071   8.174  0.5394 -1.3226  1.4684
 5431SOL    HW227753   4.541   4.670   8.107 -1.1722 -0.6930 -2.9448
 5432SOL     OW27754   3.197   0.641  13.538 -0.7660 -0.2283  0.1997
 5432SOL    HW127755   3.273   0.613  13.590 -1.1912 -1.1930  0.3016
 5432SOL    HW227756   3.147   0.690  13.604 -0.7973  2.4094 -1.7862
 5433SOL     OW27757   3.753   1.649   8.270 -0.3030  0.0413  0.0954
 5433SOL    HW127758   3.769   1.733   8.228 -2.3849 -0.8245 -2.4515
 5433SOL    HW227759   3.768   1.595   8.192 -0.2856 -2.3154  1.7290
 5434SOL     OW27760   4.129   1.822   8.690  0.0616  0.1492 -0.3943
 5434SOL    HW127761   4.102   1.859   8.606 -0.3788 -0.4074 -0.4979
 5434SOL    HW227762   4.099   1.890   8.750  0.6288  2.0189 -2.2479
 5435SOL     OW27763   3.200   2.528  10.726  0.1541  0.3696  0.1011
 5435SOL    HW127764   3.208   2.511  10.632  0.0863 -2.7057  0.6451
 5435SOL    HW227765   3.281   2.484  10.754  1.2037  1.4825 -1.1626
 5436SOL     OW27766   2.273   3.058   7.526  0.0348 -0.5535  0.3074
 5436SOL    HW127767   2.214   3.132   7.513 -0.0548 -0.7087 -0.1839
 5436SOL    HW227768   2.331   3.092   7.593  0.8519 -0.8369 -0.2506
 5437SOL     OW27769   0.722   0.355   7.233  0.1212 -0.0906 -0.5800
 5437SOL    HW127770   0.701   0.324   7.145 -0.6012 -3.9967  0.9836
 5437SOL    HW227771   0.648   0.414   7.252 -0.2270  0.2676 -3.0696
 5438SOL     OW27772   4.595   1.427  11.724 -0.0522 -0.5153 -0.2753
 5438SOL    HW127773   4.572   1.342  11.762 -0.5164 -0.0750  0.4074
 5438SOL    HW227774   4.560   1.484  11.792 -1.0290 -2.1214  0.5738
 5439SOL     OW27775   0.447   0.099   8.784  0.3104 -0.0630  0.4655
 5439SOL    HW127776   0.516   0.109   8.719 -2.6029  2.6137 -2.2186
 5439SOL    HW227777   0.373   0.132   8.733  1.6340  0.7764 -0.8977
 5440SOL     OW27778   0.272   3.040  17.188 -0.1313 -0.7566  0.1394
 5440SOL    HW127779   0.277   2.968  17.125  0.6780 -0.4580 -0.1412
 5440SOL    HW227780   0.177   3.026  17.194 -0.4667  0.8766 -1.3788
 5441SOL     OW27781   0.075   3.631   7.344 -0.2017  0.0192 -0.0730
 5441SOL    HW127782   0.067   3.725   7.324  2.7679  0.6291  1.5839
 5441SOL    HW227783   0.003   3.602   7.288 -0.2707 -1.0115  0.5509
 5442SOL     OW27784   1.681   2.664   0.184 -0.0680 -0.2261  0.2471
 5442SOL    HW127785   1.722   2.625   0.107 -1.5524 -3.6691  1.2010
 5442SOL    HW227786   1.589   2.668   0.157 -0.2450 -3.4657  0.3757
 5443SOL     OW27787   0.693   3.884  15.182 -0.1951 -0.3021 -0.4856
 5443SOL    HW127788   0.618   3.940  15.163 -0.2218 -0.4283 -0.7507
 5443SOL    HW227789   0.651   3.800  15.201 -0.6874 -0.2666 -1.3925
 5444SOL     OW27790   0.461   2.641   8.965  0.0478 -0.3036  0.3232
 5444SOL    HW127791   0.407   2.563   8.951  0.2865 -0.6864  1.5429
 5444SOL    HW227792   0.523   2.636   8.892 -0.6077  1.3023 -0.3364
 5445SOL     OW27793   2.440   4.347   3.643  0.1086 -0.2623  0.5179
 5445SOL    HW127794   2.490   4.374   3.720 -1.4790 -2.8700  2.4923
 5445SOL    HW227795   2.499   4.356   3.569 -0.5452 -1.2983 -0.1447
 5446SOL     OW27796   1.815   4.456   2.907  0.2422 -0.3895  0.5512
 5446SOL    HW127797   1.901   4.430   2.941  0.3666 -0.4949  0.1566
 5446SOL    HW227798   1.829   4.534   2.854 -1.2725 -0.5152 -0.0351
 5447SOL     OW27799   1.848   2.684   6.576 -0.4360 -0.3706 -0.4356
 5447SOL    HW127800   1.932   2.653   6.543  1.5605  3.0720  1.3984
 5447SOL    HW227801   1.809   2.607   6.616  2.5883 -2.4859 -1.5743
 5448SOL     OW27802   1.966   3.326   4.249  0.4566  0.1219  0.1637
 5448SOL    HW127803   1.884   3.374   4.241  0.2793 -0.3464 -0.8681
 5448SOL    HW227804   1.945   3.255   4.187  1.7384 -0.2152  0.1093
 5449SOL     OW27805   0.969   2.470   4.051  0.1002 -0.1276 -0.1837
 5449SOL    HW127806   1.023   2.548   4.037 -0.8946  0.3967 -1.1241
 5449SOL    HW227807   0.903   2.499   3.988  0.6328  0.8219 -0.3068
 5450SOL     OW27808   1.067   0.929  11.822 -0.5842  0.2484 -0.1391
 5450SOL    HW127809   1.157   0.944  11.794 -0.2581  0.2455  0.8829
 5450SOL    HW227810   1.072   0.833  11.827  0.7477  0.3165 -0.0645
 5451SOL     OW27811   0.294   4.334   7.320 -0.1803  0.4045  0.0541
 5451SOL    HW127812   0.205   4.334   7.285  0.1930  0.0537 -0.8797
 5451SOL    HW227813   0.281   4.303   7.410  1.8022 -1.9078 -0.4519
 5452SOL     OW27814   3.549   2.772  14.862 -0.0629 -0.1596 -0.6442
 5452SOL    HW127815   3.509   2.686  14.875  1.2006 -0.5412  0.7486
 5452SOL    HW227816   3.494   2.804  14.790  0.1960 -2.8491 -2.0286
 5453SOL     OW27817   2.395   3.363   4.101  1.1395 -0.2944  0.6157
 5453SOL    HW127818   2.378   3.402   4.015 -0.1835 -0.9278  0.5935
 5453SOL    HW227819   2.366   3.432   4.160 -2.3436 -1.0821 -0.1623
 5454SOL     OW27820   1.609   1.334   5.771  0.4072  0.1486  0.0624
 5454SOL    HW127821   1.552   1.289   5.709  2.3071  0.1773 -1.7210
 5454SOL    HW227822   1.639   1.404   5.713 -2.8875 -0.0696 -1.8902
 5455SOL     OW27823   0.659   0.278  17.579 -0.8219 -0.2797 -0.1572
 5455SOL    HW127824   0.580   0.289  17.633 -1.6593  0.4115 -1.5271
 5455SOL    HW227825   0.678   0.184  17.587  0.3262 -0.0663 -0.3930
 5456SOL     OW27826   3.374   2.495   7.925 -0.1033  0.2064 -0.0455
 5456SOL    HW127827   3.313   2.425   7.951  0.2177  0.6555  1.9006
 5456SOL    HW227828   3.322   2.544   7.862  1.0586 -1.0369 -2.0015
 5457SOL     OW27829   4.295   1.320   5.637  0.1231  0.2488  0.1692
 5457SOL    HW127830   4.337   1.397   5.599  0.8509 -0.5656 -0.6710
 5457SOL    HW227831   4.278   1.347   5.727 -0.9724 -1.2975  0.4322
 5458SOL     OW27832   0.640   2.645   0.310  0.2973 -0.2062  0.0644
 5458SOL    HW127833   0.594   2.599   0.381 -0.6831  1.6649  0.6443
 5458SOL    HW227834   0.679   2.572   0.261  1.3158 -1.1258  2.2456
 5459SOL     OW27835   1.934   0.288   3.005  0.0218  0.3715 -0.1257
 5459SOL    HW127836   1.918   0.369   2.957 -2.2101 -1.6126 -2.7586
 5459SOL    HW227837   1.996   0.254   2.940  1.1538  1.2503  0.5014
 5460SOL     OW27838   0.477   3.507  10.272  0.6139 -0.1282 -0.1446
 5460SOL    HW127839   0.550   3.480  10.327  1.2511  1.8054 -0.0213
 5460SOL    HW227840   0.431   3.423  10.267 -0.3246  0.3737 -0.0436
 5461SOL     OW27841   3.762   0.781   2.002  0.1079 -0.1467 -0.0069
 5461SOL    HW127842   3.737   0.713   1.939  0.6580 -1.7326  1.5162
 5461SOL    HW227843   3.788   0.720   2.071  0.8345  0.2041  0.0248
 5462SOL     OW27844   4.581   4.617   3.353  0.3515  0.4094 -0.7393
 5462SOL    HW127845   4.493   4.611   3.315 -0.7126  3.9902  1.0848
 5462SOL    HW227846   4.616   4.686   3.297 -0.4246  0.7316 -0.8345
 5463SOL     OW27847   2.336   2.426   8.183 -0.2225 -0.2574  0.0858
 5463SOL    HW127848   2.272   2.497   8.191  1.6249  1.4314 -0.0295
 5463SOL    HW227849   2.316   2.389   8.097 -0.6127  0.9170 -0.3239
 5464SOL     OW27850   0.489   3.132   4.741 -0.3124 -0.7753 -0.0878
 5464SOL    HW127851   0.415   3.127   4.681 -1.0840 -1.9657  0.9530
 5464SOL    HW227852   0.538   3.197   4.691  0.5771  1.2211  3.3326
 5465SOL     OW27853   0.528   4.317  15.311 -0.0999  0.3134  0.6072
 5465SOL    HW127854   0.587   4.392  15.300  1.2147 -0.5827  1.4177
 5465SOL    HW227855   0.446   4.357  15.283 -0.2877 -1.6048 -1.5906
 5466SOL     OW27856   3.408   0.702   8.552  0.4605  0.5130 -0.1960
 5466SOL    HW127857   3.400   0.629   8.491 -0.1204 -0.1444  0.6772
 5466SOL    HW227858   3.498   0.693   8.585  1.0429 -1.0703 -2.2249
 5467SOL     OW27859   1.967   3.259   4.728  0.0650  0.4150 -0.2881
 5467SOL    HW127860   2.045   3.204   4.718 -0.0277  0.4602 -1.2867
 5467SOL    HW227861   1.913   3.216   4.662 -1.8337  3.4466 -0.7326
 5468SOL     OW27862   3.640   1.592   5.789  0.0615  0.1052 -0.2636
 5468SOL    HW127863   3.727   1.597   5.747  0.2289 -2.0204 -0.1617
 5468SOL    HW227864   3.665   1.552   5.872 -1.0316  0.4320  0.2134
 5469SOL     OW27865   4.154   2.074  12.309 -0.2449 -0.2211 -0.0075
 5469SOL    HW127866   4.096   2.018  12.258  0.3136 -0.3140 -0.5378
 5469SOL    HW227867   4.093   2.141  12.338 -1.4510 -0.7828 -1.2462
 5470SOL     OW27868   3.504   0.433   7.495 -0.4420  0.0230  0.1825
 5470SOL    HW127869   3.506   0.341   7.468  0.2054 -0.0763  0.5758
 5470SOL    HW227870   3.475   0.483   7.419  2.5276 -1.5485 -2.0062
 5471SOL     OW27871   2.742   4.126   7.462 -0.8442  0.1131 -0.0975
 5471SOL    HW127872   2.704   4.145   7.547 -1.4529  2.5453 -0.9105
 5471SOL    HW227873   2.681   4.055   7.445 -1.4561  0.6472 -0.1261
 5472SOL     OW27874   0.550   1.375   0.232  0.4572 -0.4431  0.3564
 5472SOL    HW127875   0.555   1.312   0.160  0.8638 -0.1221  0.1008
 5472SOL    HW227876   0.462   1.357   0.265  0.7022 -0.5036  0.9789
 5473SOL     OW27877   4.244   3.952   7.640 -0.2674 -0.5311 -0.1955
 5473SOL    HW127878   4.267   3.885   7.577  0.4423  0.3802 -0.9077
 5473SOL    HW227879   4.177   3.909   7.693 -0.4573  1.3860  1.1747
 5474SOL     OW27880   3.589   1.554   2.317  0.0892  0.3990 -0.3957
 5474SOL    HW127881   3.667   1.536   2.264 -0.1471 -1.8696  0.0034
 5474SOL    HW227882   3.552   1.467   2.334 -1.5299  0.6706 -2.4960
 5475SOL     OW27883   3.053   3.569   6.176 -0.1935  0.1669 -0.1778
 5475SOL    HW127884   2.984   3.564   6.242 -0.7777  0.1365 -0.7870
 5475SOL    HW227885   3.119   3.514   6.219  0.3873  3.2180  2.8294
 5476SOL     OW27886   3.525   2.800   2.589  0.4858 -0.0127 -0.3481
 5476SOL    HW127887   3.451   2.860   2.601  2.7115  2.1051  2.9067
 5476SOL    HW227888   3.595   2.857   2.622  3.3857 -3.2365 -0.9211
 5477SOL     OW27889   2.772   0.305   1.056  0.2207  0.2969  0.0058
 5477SOL    HW127890   2.838   0.270   0.997 -1.1856 -0.8823 -0.8748
 5477SOL    HW227891   2.722   0.233   1.096 -0.1096  0.2725 -0.4489
 5478SOL     OW27892   1.513   3.015   9.485 -0.0445  0.0567  0.6146
 5478SOL    HW127893   1.429   3.042   9.448 -0.3174  0.7948  1.7554
 5478SOL    HW227894   1.569   3.042   9.413 -0.2446 -2.5180 -0.4911
 5479SOL     OW27895   0.913   2.807   5.709 -0.4040 -0.4060 -0.1541
 5479SOL    HW127896   0.987   2.866   5.695 -1.7409  1.3456  0.2610
 5479SOL    HW227897   0.941   2.716   5.722 -1.2040 -0.6805 -0.3370
 5480SOL     OW27898   2.989   0.079   2.507 -0.1467  0.1733  0.2423
 5480SOL    HW127899   3.072   0.044   2.475  0.3010 -1.7278  3.4667
 5480SOL    HW227900   3.012   0.114   2.593  0.0933 -1.5589  0.8778
 5481SOL     OW27901   2.258   0.062   4.522 -0.1843  0.1585  0.1130
 5481SOL    HW127902   2.263   0.089   4.614  1.0042 -0.8399  0.3340
 5481SOL    HW227903   2.230   0.141   4.475  1.1970 -0.2633 -1.4072
 5482SOL     OW27904   4.176   3.889   1.953 -0.8398 -0.1954  0.4586
 5482SOL    HW127905   4.250   3.943   1.982 -2.0233  0.9585  1.3027
 5482SOL    HW227906   4.162   3.832   2.028 -0.9895 -1.1986 -0.3333
 5483SOL     OW27907   3.479   0.911  15.771 -0.2719  0.3868 -0.1888
 5483SOL    HW127908   3.466   1.003  15.796  1.0233  0.7339 -0.8024
 5483SOL    HW227909   3.485   0.920  15.676 -0.4806 -1.2863 -0.3716
 5484SOL     OW27910   0.913   1.292   0.222  0.4785 -0.1586  0.6771
 5484SOL    HW127911   0.841   1.245   0.180  1.9734 -0.6995 -1.3020
 5484SOL    HW227912   0.864   1.372   0.243  0.0550  0.0440 -1.0821
 5485SOL     OW27913   3.741   3.291   6.468 -0.4327 -0.6165 -0.2819
 5485SOL    HW127914   3.824   3.255   6.500 -0.0936 -0.4735 -0.9993
 5485SOL    HW227915   3.693   3.275   6.549  0.8196 -0.2177  0.5283
 5486SOL     OW27916   1.163   2.798  11.145 -0.2029  0.6401  0.4581
 5486SOL    HW127917   1.072   2.823  11.131 -0.4681 -2.2855 -2.9181
 5486SOL    HW227918   1.166   2.776  11.238 -2.1374 -2.2405 -0.1616
 5487SOL     OW27919   1.654   2.676   6.371  0.2355  0.2711  0.3540
 5487SOL    HW127920   1.702   2.696   6.452 -0.0470 -1.8123  1.0208
 5487SOL    HW227921   1.585   2.742   6.370  0.4138  0.4416 -0.9168
 5488SOL     OW27922   1.768   1.087   5.518  0.0079 -0.0305  0.0058
 5488SOL    HW127923   1.820   1.167   5.531 -1.9670  1.6129 -2.2179
 5488SOL    HW227924   1.679   1.122   5.526  0.8182  1.5748  2.0892
 5489SOL     OW27925   2.834   3.728   2.453 -0.0910  0.2772  0.1452
 5489SOL    HW127926   2.876   3.758   2.372 -0.4124 -1.6095 -0.7230
 5489SOL    HW227927   2.802   3.644   2.421  2.2745  0.1384 -1.9005
 5490SOL     OW27928   4.568   3.633   5.065 -0.2574  0.3174  0.3987
 5490SOL    HW127929   4.640   3.589   5.019  0.8937 -0.4417  2.9536
 5490SOL    HW227930   4.512   3.556   5.077  1.0006 -1.0501 -2.5721
 5491SOL     OW27931   0.823   3.985  13.798  0.7307  0.1101 -0.1059
 5491SOL    HW127932   0.807   4.077  13.819  0.7901 -0.4885  2.4873
 5491SOL    HW227933   0.774   3.941  13.867  0.4817  2.3101  1.1097
 5492SOL     OW27934   0.335   4.100  10.485  0.1357  0.2181  0.4922
 5492SOL    HW127935   0.344   4.071  10.394 -2.1962 -0.1619  0.3811
 5492SOL    HW227936   0.369   4.021  10.529  0.4773  0.9367  1.5052
 5493SOL     OW27937   1.311   2.583   9.518  0.2181  0.5923 -0.5141
 5493SOL    HW127938   1.294   2.496   9.481 -0.4427 -0.5078  2.3078
 5493SOL    HW227939   1.338   2.558   9.607 -0.6485 -0.1036 -0.4469
 5494SOL     OW27940   2.644   4.416   9.357 -0.2296 -0.2855  0.1910
 5494SOL    HW127941   2.726   4.402   9.404 -1.2824 -0.6463  1.9238
 5494SOL    HW227942   2.655   4.390   9.265  1.3296 -1.1204  0.6126
 5495SOL     OW27943   0.986   1.860   2.989 -0.0438  0.3005 -0.0093
 5495SOL    HW127944   0.945   1.806   3.057  0.4282  0.6950  0.5895
 5495SOL    HW227945   0.911   1.915   2.967  0.3580  1.4636  1.4870
 5496SOL     OW27946   4.396   3.143  17.314 -0.3341  0.0319  0.1656
 5496SOL    HW127947   4.472   3.096  17.348 -0.6202  0.3902  1.2753
 5496SOL    HW227948   4.420   3.173  17.226 -0.5828 -1.2382 -0.3396
 5497SOL     OW27949   2.467   1.664  10.275 -0.1339 -0.1416 -0.0627
 5497SOL    HW127950   2.405   1.734  10.257 -0.3603 -0.5521 -0.8737
 5497SOL    HW227951   2.437   1.581  10.238  0.2240 -0.2483 -0.1151
 5498SOL     OW27952   3.550   1.384   6.876 -0.2294 -0.1609  0.0421
 5498SOL    HW127953   3.535   1.473   6.909  1.9944  0.5164 -0.7069
 5498SOL    HW227954   3.467   1.338   6.888  0.2184 -0.8233  0.5791
 5499SOL     OW27955   3.962   0.529   3.856 -0.2136  0.2157 -0.2885
 5499SOL    HW127956   3.888   0.513   3.797 -0.0132 -0.7968 -0.2634
 5499SOL    HW227957   4.017   0.455   3.830  1.0864  0.6201  1.2957
 5500SOL     OW27958   3.575   3.876   7.897 -0.7345  0.4441 -0.2312
 5500SOL    HW127959   3.626   3.813   7.948  0.6608  1.4663 -0.3896
 5500SOL    HW227960   3.649   3.914   7.850  1.0966  1.6417  3.6273
 5501SOL     OW27961   2.783   1.180   5.528 -0.3830 -1.0946 -0.9985
 5501SOL    HW127962   2.870   1.160   5.561 -0.3585  0.3085 -0.2460
 5501SOL    HW227963   2.775   1.273   5.506  0.6332 -0.4396  1.4227
 5502SOL     OW27964   1.270   2.742   4.855 -0.2214 -0.4050  0.0072
 5502SOL    HW127965   1.230   2.700   4.778  1.6841  0.5057 -1.4681
 5502SOL    HW227966   1.203   2.796   4.896 -0.3369 -1.4566  1.1910
 5503SOL     OW27967   1.306   2.233   6.641 -0.0414  0.4292  0.4492
 5503SOL    HW127968   1.244   2.177   6.688 -0.8778  0.6584 -0.3995
 5503SOL    HW227969   1.361   2.168   6.597  1.2160  2.2304 -0.6438
 5504SOL     OW27970   0.188   1.362  14.372 -0.3430 -0.4820  0.2029
 5504SOL    HW127971   0.146   1.363  14.458 -1.9352 -1.3910 -0.5527
 5504SOL    HW227972   0.112   1.387  14.319  0.8809 -1.0660 -1.8074
 5505SOL     OW27973   3.874   2.180  12.421 -0.7532  0.3466  0.7088
 5505SOL    HW127974   3.901   2.109  12.480  2.0221  0.4097 -0.4871
 5505SOL    HW227975   3.819   2.141  12.353 -0.1973  0.4437  0.2079
 5506SOL     OW27976   0.916   1.288   6.161  0.3655  0.5678 -0.6160
 5506SOL    HW127977   0.939   1.333   6.242 -0.4596 -0.2042  0.0470
 5506SOL    HW227978   1.001   1.279   6.117 -0.4039  0.0165 -1.9939
 5507SOL     OW27979   3.428   1.729   3.275  0.1610 -0.2439  0.1289
 5507SOL    HW127980   3.396   1.670   3.343 -0.1496 -1.3431 -0.9615
 5507SOL    HW227981   3.506   1.763   3.318 -1.7220  1.1528  2.4205
 5508SOL     OW27982   3.941   1.776   3.581 -0.2315 -0.1950 -0.2539
 5508SOL    HW127983   3.848   1.796   3.587  0.1452  1.4688 -0.0849
 5508SOL    HW227984   3.980   1.863   3.588  0.5358 -0.5603  0.0782
 5509SOL     OW27985   4.333   0.993   3.058  0.4270 -0.1789 -0.6930
 5509SOL    HW127986   4.373   1.040   3.131  0.5660 -1.2601 -0.0730
 5509SOL    HW227987   4.389   1.013   2.982  1.6483 -2.3780 -0.3784
 5510SOL     OW27988   2.992   1.036  14.963  0.0053  0.2507  0.0634
 5510SOL    HW127989   3.068   1.092  14.948 -0.0277  0.4654  0.6876
 5510SOL    HW227990   3.009   0.961  14.906 -3.4465 -1.6567  1.5253
 5511SOL     OW27991   1.497   2.278   1.986 -0.1685 -0.4819 -0.3384
 5511SOL    HW127992   1.417   2.226   1.992 -0.3145 -0.1223  0.8914
 5511SOL    HW227993   1.472   2.351   1.929  0.8206  0.5301  0.5201
 5512SOL     OW27994   4.002   0.258   3.119 -0.6055 -0.0265 -0.1450
 5512SOL    HW127995   4.061   0.187   3.093 -0.0900  0.6133 -0.7008
 5512SOL    HW227996   4.049   0.339   3.099 -0.0844  0.2051  1.9188
 5513SOL     OW27997   3.282   2.308   7.296 -0.0278  0.3103  0.0356
 5513SOL    HW127998   3.361   2.320   7.243  0.1433  0.3087  0.2921
 5513SOL    HW227999   3.331   2.244   7.346 -1.8203 -1.6106 -0.6883
 5514SOL     OW28000   0.656   1.562   2.198  0.3432  0.5058  0.0066
 5514SOL    HW128001   0.601   1.561   2.120  0.1793 -0.7769  0.1346
 5514SOL    HW228002   0.599   1.620   2.247 -2.1346  0.2655 -2.5777
 5515SOL     OW28003   1.580   1.935   1.639 -0.0341  0.1425 -0.1109
 5515SOL    HW128004   1.575   1.920   1.545  2.5540 -0.4138 -0.1476
 5515SOL    HW228005   1.668   1.971   1.649  0.6608 -1.8587  0.8340
 5516SOL     OW28006   4.637   1.562   0.951  0.2394 -0.3831  0.0119
 5516SOL    HW128007   4.555   1.520   0.926  0.3223 -1.1304  0.9729
 5516SOL    HW228008   4.705   1.502   0.920  0.2560 -0.9972  1.2399
 5517SOL     OW28009   2.773   4.277   8.687 -0.1498  0.0134  0.2018
 5517SOL    HW128010   2.866   4.301   8.694  0.5036 -2.5811  0.3919
 5517SOL    HW228011   2.785   4.212   8.618 -0.6696  1.0995 -0.8948
 5518SOL     OW28012   1.593   0.032   5.570 -0.1223  0.0172  0.1034
 5518SOL    HW128013   1.657   4.689   5.590  1.8919  1.3022 -1.9534
 5518SOL    HW228014   1.551   0.050   5.654  2.3641 -0.2504  1.4361
 5519SOL     OW28015   3.958   0.235   2.480 -0.0400 -0.0524 -0.1526
 5519SOL    HW128016   3.885   0.293   2.457  0.7792  1.2280  0.4827
 5519SOL    HW228017   3.907   0.155   2.494  0.1493 -0.1629 -0.0948
 5520SOL     OW28018   0.436   0.800  15.980  0.5926  0.2112  0.4738
 5520SOL    HW128019   0.485   0.754  16.049 -0.9830  0.6840  1.8957
 5520SOL    HW228020   0.502   0.811  15.912  0.5547  5.0140  1.2741
 5521SOL     OW28021   0.684   0.617   4.173  0.1363 -0.5372  0.4361
 5521SOL    HW128022   0.775   0.634   4.197  0.1656  0.5158 -0.4090
 5521SOL    HW228023   0.701   0.603   4.079 -0.8563 -0.8217  0.3006
 5522SOL     OW28024   4.070   1.005   2.734  0.1385 -0.2173  0.5375
 5522SOL    HW128025   3.988   1.009   2.784  0.2466 -0.2088  0.7125
 5522SOL    HW228026   4.108   0.930   2.780  2.4684  1.0134  0.6042
 5523SOL     OW28027   1.382   3.653   6.261  0.1513  0.0874 -0.7996
 5523SOL    HW128028   1.408   3.699   6.341 -0.0510 -1.5300  0.1970
 5523SOL    HW228029   1.469   3.617   6.245  0.6310  0.4323  0.9346
 5524SOL     OW28030   1.744   0.584   3.901  0.2192 -0.0859 -0.2679
 5524SOL    HW128031   1.696   0.565   3.821 -0.6275  1.9549 -0.2392
 5524SOL    HW228032   1.745   0.499   3.944  0.2845 -0.2489 -0.5935
 5525SOL     OW28033   3.295   1.358   1.663  0.1638  0.5396  0.2462
 5525SOL    HW128034   3.344   1.380   1.584 -0.7487  1.5065 -0.0525
 5525SOL    HW228035   3.346   1.411   1.725 -0.1934  0.3192  0.7304
 5526SOL     OW28036   0.015   4.418  17.674  0.0850 -0.1209  0.3009
 5526SOL    HW128037   0.035   4.363   0.046 -0.3043 -1.7867 -0.8030
 5526SOL    HW228038   0.085   4.399  17.611 -2.1669 -1.2765 -1.8459
 5527SOL     OW28039   0.507   1.168  15.463 -0.3197 -0.3608  0.1210
 5527SOL    HW128040   0.547   1.118  15.392 -1.3395 -2.0789  0.7571
 5527SOL    HW228041   0.572   1.138  15.526  2.1002  2.6685 -0.9030
 5528SOL     OW28042   0.995   2.715   5.329 -0.5779  0.2582 -0.7939
 5528SOL    HW128043   0.958   2.793   5.288  0.4240  2.2821  2.1163
 5528SOL    HW228044   0.941   2.713   5.407  2.8054 -1.8225  1.5072
 5529SOL     OW28045   4.112   2.936   3.262  0.4971 -0.4959  0.2587
 5529SOL    HW128046   4.024   2.970   3.247  0.6982  0.8517  2.0866
 5529SOL    HW228047   4.102   2.866   3.327  0.1818 -1.0947 -0.4330
 5530SOL     OW28048   2.413   4.102   8.583 -0.1566  0.0522  0.1277
 5530SOL    HW128049   2.482   4.040   8.603 -1.3608 -0.6212  2.2453
 5530SOL    HW228050   2.331   4.058   8.606  0.7002 -3.1901 -2.9635
 5531SOL     OW28051   4.713   1.623  12.268 -0.1005  0.3750  0.1314
 5531SOL    HW128052   4.627   1.661  12.249 -1.1341 -1.5205  1.1118
 5531SOL    HW228053   0.029   1.642  12.183  0.7656  3.1060  1.1484
 5532SOL     OW28054   4.290   2.393   1.237 -0.3130 -0.1645 -0.3104
 5532SOL    HW128055   4.231   2.334   1.285  1.9360 -2.8277 -0.8262
 5532SOL    HW228056   4.243   2.419   1.158 -0.1007  2.3324  0.3940
 5533SOL     OW28057   2.897   0.439  11.625 -0.5113  0.1776  0.2775
 5533SOL    HW128058   2.884   0.371  11.559 -1.2399 -0.4882  1.1073
 5533SOL    HW228059   2.844   0.502  11.576  0.9823  0.4703 -0.9474
 5534SOL     OW28060   2.472   1.496   4.658  0.1195  0.6242 -0.0942
 5534SOL    HW128061   2.382   1.530   4.650 -0.0034  0.0340 -1.1053
 5534SOL    HW228062   2.470   1.498   4.754  2.2900 -1.3088 -0.0371
 5535SOL     OW28063   0.193   2.253   6.554  0.3048 -0.0204  0.3702
 5535SOL    HW128064   0.167   2.194   6.483  1.2194  0.2123 -0.1603
 5535SOL    HW228065   0.166   2.340   6.525 -0.5441 -0.3186  0.2654
 5536SOL     OW28066   1.215   0.564   5.990 -0.0737  0.2580 -0.3058
 5536SOL    HW128067   1.179   0.557   6.078 -0.1862 -0.6470 -0.4329
 5536SOL    HW228068   1.159   0.634   5.957  0.3613  0.8004  0.0873
 5537SOL     OW28069   1.550   4.335   5.131  0.1965  0.2293  0.0073
 5537SOL    HW128070   1.555   4.416   5.080  0.0923  0.4611  0.3592
 5537SOL    HW228071   1.503   4.364   5.210 -3.7421 -0.3644 -2.1374
 5538SOL     OW28072   0.174   3.042   7.465 -0.2410  0.0770  0.5906
 5538SOL    HW128073   0.178   3.135   7.444 -1.4346 -0.3014 -1.3142
 5538SOL    HW228074   0.123   3.042   7.546  0.1573 -1.2271  0.8494
 5539SOL     OW28075   2.660   1.258  15.272  0.7089 -0.4678  0.2298
 5539SOL    HW128076   2.734   1.219  15.224 -0.0901 -0.4240 -1.0273
 5539SOL    HW228077   2.706   1.285  15.352  1.0878  0.2017 -0.2216
 5540SOL     OW28078   4.172   2.228   4.027 -0.0538  0.1769  0.8289
 5540SOL    HW128079   4.131   2.143   4.010  2.0443 -0.6616 -0.0761
 5540SOL    HW228080   4.265   2.204   4.024 -0.3702 -0.9884  0.1140
 5541SOL     OW28081   0.285   4.382  16.200 -0.6023 -0.3807  0.2079
 5541SOL    HW128082   0.352   4.314  16.214 -0.4363 -0.6025 -1.6790
 5541SOL    HW228083   0.341   4.459  16.193 -1.0379  0.0281  1.3062
 5542SOL     OW28084   4.578   4.413   6.404 -0.2919  0.5132  0.0171
 5542SOL    HW128085   4.565   4.366   6.322 -0.4559  1.5818 -0.5748
 5542SOL    HW228086   4.618   4.496   6.378  0.8257 -0.4061 -1.2113
 5543SOL     OW28087   4.350   3.896   0.661 -0.1393  0.1326 -0.2663
 5543SOL    HW128088   4.428   3.916   0.609  0.6847 -1.8645  0.2276
 5543SOL    HW228089   4.285   3.905   0.591  0.8240  2.7871 -0.8558
 5544SOL     OW28090   3.652   0.787  14.442  0.4192 -0.2718 -0.2173
 5544SOL    HW128091   3.702   0.860  14.406  1.8767 -1.7735 -1.2279
 5544SOL    HW228092   3.708   0.711  14.427  1.4724  0.9686 -2.4490
 5545SOL     OW28093   4.315   2.874   4.819  0.3007 -0.2499 -0.3522
 5545SOL    HW128094   4.400   2.897   4.783  1.3967  0.1361  2.4547
 5545SOL    HW228095   4.271   2.838   4.742  0.3371 -1.0397 -0.0036
 5546SOL     OW28096   1.795   2.353   4.506  0.1233  0.0989 -0.3283
 5546SOL    HW128097   1.745   2.362   4.424  0.7922 -0.7577 -0.8336
 5546SOL    HW228098   1.797   2.445   4.532  0.2020 -0.4612  1.5856
 5547SOL     OW28099   1.653   2.929   1.451  0.1477 -0.1143  0.3199
 5547SOL    HW128100   1.631   2.836   1.442  1.4890 -0.5791  1.8848
 5547SOL    HW228101   1.680   2.959   1.364  1.1302 -2.1846 -0.0781
 5548SOL     OW28102   2.443   3.450   3.816 -0.3690 -0.1318 -0.3609
 5548SOL    HW128103   2.465   3.541   3.839  2.2260 -0.3712 -1.8828
 5548SOL    HW228104   2.362   3.470   3.769 -0.6561  0.5579  0.4281
 5549SOL     OW28105   4.570   4.298   9.821 -0.0793  0.3869  0.0652
 5549SOL    HW128106   4.538   4.295   9.911  2.7741  0.2894  1.0809
 5549SOL    HW228107   4.641   4.234   9.817 -0.0325  0.5776 -2.0294
 5550SOL     OW28108   2.321   1.848   0.057 -0.3474 -0.4864 -0.4736
 5550SOL    HW128109   2.410   1.822   0.035  0.3615  0.4496  1.3139
 5550SOL    HW228110   2.288   1.779   0.113  1.4925 -0.1591  1.0022
 5551SOL     OW28111   4.189   4.620   8.112  0.0821 -0.1194 -0.0699
 5551SOL    HW128112   4.148   4.706   8.121 -0.4594 -0.0109 -3.6703
 5551SOL    HW228113   4.281   4.644   8.101 -0.2234  1.3778  0.5885
 5552SOL     OW28114   4.473   0.731   2.734  0.4923 -0.0226 -0.4662
 5552SOL    HW128115   4.488   0.821   2.761  1.2883 -0.2863 -0.0176
 5552SOL    HW228116   4.378   0.732   2.745  0.3123 -2.8456 -1.6540
 5553SOL     OW28117   2.413   0.626  12.834  0.0635 -0.3978 -0.5263
 5553SOL    HW128118   2.425   0.568  12.910 -1.5579  0.2521  0.2256
 5553SOL    HW228119   2.424   0.713  12.873  0.8054 -0.8449  0.2601
 5554SOL     OW28120   1.109   0.278   8.033 -0.5157 -0.2821 -0.0105
 5554SOL    HW128121   1.132   0.258   7.942 -0.2014  2.7600 -0.5823
 5554SOL    HW228122   1.041   0.213   8.053  0.2920 -0.6901  1.3763
 5555SOL     OW28123   1.936   3.765  14.080  0.2516  0.0967 -0.2164
 5555SOL    HW128124   1.886   3.806  14.150 -3.0324  0.4301 -2.7223
 5555SOL    HW228125   2.001   3.833  14.064 -0.9657  0.2745 -4.4196
 5556SOL     OW28126   2.064   2.182   4.457 -0.4887 -0.4588 -0.5619
 5556SOL    HW128127   2.063   2.187   4.361 -2.6247  0.2756 -0.5046
 5556SOL    HW228128   1.987   2.236   4.475 -0.6649 -0.3762 -1.5686
 5557SOL     OW28129   3.954   2.086   9.308 -0.3458 -0.3343 -0.3274
 5557SOL    HW128130   3.893   2.012   9.308 -1.5643  0.6696 -0.1357
 5557SOL    HW228131   3.944   2.109   9.400 -0.5608 -0.7859 -0.2366
 5558SOL     OW28132   1.979   1.800   3.010  0.0141  0.7079 -0.0958
 5558SOL    HW128133   1.929   1.730   2.969 -0.3489  1.3230 -0.6977
 5558SOL    HW228134   1.916   1.831   3.075  0.8526 -0.4278  1.2830
 5559SOL     OW28135   1.865   0.857  14.072  0.7271  0.8422 -0.3540
 5559SOL    HW128136   1.953   0.821  14.059 -0.3946 -2.0150 -0.0588
 5559SOL    HW228137   1.826   0.814  13.996  0.4930  0.6282 -0.1153
 5560SOL     OW28138   4.323   2.259   5.151  0.6806  0.7459  0.2168
 5560SOL    HW128139   4.344   2.178   5.197  2.2998 -0.0870 -1.9956
 5560SOL    HW228140   4.361   2.335   5.195  2.4434 -0.1741  0.2462
 5561SOL     OW28141   1.082   4.198   6.083 -0.0018  0.1203  0.1463
 5561SOL    HW128142   1.048   4.138   6.017  1.0267  0.4716 -0.7212
 5561SOL    HW228143   1.013   4.263   6.095 -0.2010 -0.2142  0.8051
 5562SOL     OW28144   0.792   3.156   0.125  0.4784 -1.0850  0.0498
 5562SOL    HW128145   0.870   3.205   0.150 -0.6632  0.3269  0.8859
 5562SOL    HW228146   0.728   3.215   0.166 -0.7496 -2.3410 -0.0592
 5563SOL     OW28147   3.532   1.825   9.223 -0.0062 -0.5449 -0.0244
 5563SOL    HW128148   3.448   1.809   9.265 -1.1286  1.0457 -1.6903
 5563SOL    HW228149   3.558   1.911   9.255 -3.0623  0.2413  0.3134
 5564SOL     OW28150   2.985   3.219   3.187 -0.1114  0.0057  0.2539
 5564SOL    HW128151   2.890   3.230   3.187  0.1967  2.7269  0.5739
 5564SOL    HW228152   2.991   3.175   3.102 -1.1800 -0.8715  0.6243
 5565SOL     OW28153   4.486   3.698  17.685  0.1130 -0.4472  0.1346
 5565SOL    HW128154   4.399   3.678   0.015  1.2868 -1.5575  2.4903
 5565SOL    HW228155   4.474   3.790  17.662 -0.0617  0.4488  3.7852
 5566SOL     OW28156   4.204   1.328   7.430 -0.3725 -0.1585  0.0890
 5566SOL    HW128157   4.177   1.314   7.340  0.1467 -1.4586  0.1283
 5566SOL    HW228158   4.131   1.368   7.477 -0.1783 -1.7412  1.7669
 5567SOL     OW28159   3.754   0.471  12.258 -0.2491 -0.1603  0.3336
 5567SOL    HW128160   3.702   0.550  12.268  0.0334 -0.0536  0.9829
 5567SOL    HW228161   3.718   0.436  12.177 -1.3643 -0.9708  1.1797
 5568SOL     OW28162   4.240   0.892  10.013  0.4438 -0.0672  0.4759
 5568SOL    HW128163   4.283   0.807  10.001  0.6869  0.3709 -1.6941
 5568SOL    HW228164   4.155   0.866  10.048  0.6356  0.3728  1.2757
 5569SOL     OW28165   3.599   0.392   4.645 -0.1672  0.0423  0.6528
 5569SOL    HW128166   3.598   0.435   4.731 -1.8635  1.8637 -0.2649
 5569SOL    HW228167   3.506   0.368   4.652 -0.3898  0.9981  0.9652
 5570SOL     OW28168   3.976   1.922   8.467 -0.3988  0.4500  0.3365
 5570SOL    HW128169   3.983   1.845   8.409  1.3345  1.4690 -0.8204
 5570SOL    HW228170   3.915   1.981   8.424  1.1364  1.8493  0.0713
 5571SOL     OW28171   3.393   1.997  16.225 -0.2035 -0.1991 -0.2485
 5571SOL    HW128172   3.310   2.039  16.248  1.2302  2.2532  0.3904
 5571SOL    HW228173   3.376   1.978  16.133 -0.1186 -0.7369 -0.1549
 5572SOL     OW28174   0.922   1.211  10.383 -0.2172  0.4512  0.6438
 5572SOL    HW128175   0.957   1.296  10.411  0.9523 -0.9685  3.4456
 5572SOL    HW228176   0.829   1.234  10.380 -0.4910 -0.5566  1.9481
 5573SOL     OW28177   0.755   0.258   5.604 -0.1030  0.5121  0.0131
 5573SOL    HW128178   0.788   0.252   5.514  1.0597  2.6797  0.2938
 5573SOL    HW228179   0.743   0.166   5.625 -1.3155  0.0099 -2.8332
 5574SOL     OW28180   1.147   4.181   4.946 -0.1767 -0.1453  0.8685
 5574SOL    HW128181   1.109   4.256   4.901  1.7416 -1.8821 -3.6752
 5574SOL    HW228182   1.150   4.120   4.872  1.0962 -1.2420  1.8102
 5575SOL     OW28183   0.581   1.760   5.416 -0.1585 -0.5619  0.2092
 5575SOL    HW128184   0.602   1.723   5.330  0.0066  0.7057 -0.3101
 5575SOL    HW228185   0.651   1.737   5.476  1.5178  2.0867 -0.7110
 5576SOL     OW28186   3.075   2.174   8.523 -0.2487 -0.0113 -0.0503
 5576SOL    HW128187   3.012   2.243   8.541  1.3746  1.0900  1.4750
 5576SOL    HW228188   3.121   2.171   8.607 -0.6593 -0.3583  0.1609
 5577SOL     OW28189   2.127   0.796  12.971 -0.2910 -0.5632 -0.1460
 5577SOL    HW128190   2.131   0.748  12.889 -1.5895 -1.0942  0.0961
 5577SOL    HW228191   2.216   0.829  12.982 -0.3298 -1.5138  3.1108
 5578SOL     OW28192   4.132   4.231   7.254  0.2405  0.5843  0.7707
 5578SOL    HW128193   4.184   4.264   7.327 -0.0778  1.1004  0.7614
 5578SOL    HW228194   4.101   4.311   7.212  0.4063 -0.1184 -0.7141
 5579SOL     OW28195   0.886   0.760   4.996 -0.1154  0.4076 -0.8387
 5579SOL    HW128196   0.977   0.751   5.023  0.1324  2.2767 -1.0245
 5579SOL    HW228197   0.901   0.777   4.903  1.6405  2.2620 -0.2139
 5580SOL     OW28198   4.107   2.937   1.982  0.0136 -0.7230  0.5304
 5580SOL    HW128199   4.196   2.972   1.988 -1.2893  2.6365  0.0191
 5580SOL    HW228200   4.109   2.895   1.896  1.0474 -0.9958  0.6854
 5581SOL     OW28201   2.568   2.072   5.097 -0.6703  0.4521  0.5544
 5581SOL    HW128202   2.566   2.055   5.003 -0.8171 -1.9388  0.9921
 5581SOL    HW228203   2.641   2.020   5.132 -0.7262  0.1100  0.1634
 5582SOL     OW28204   4.554   4.313  13.986  0.0320 -0.0195  0.4016
 5582SOL    HW128205   4.519   4.402  13.998  1.2333  0.6440 -0.9654
 5582SOL    HW228206   4.634   4.342  13.942  1.0882 -0.3551  2.0923
 5583SOL     OW28207   0.396   4.059   4.194 -0.0985 -0.1627  0.7513
 5583SOL    HW128208   0.412   3.997   4.265 -0.4411 -0.8749  0.2098
 5583SOL    HW228209   0.425   4.013   4.115 -1.0260 -1.7321  1.3250
 5584SOL     OW28210   4.139   4.113   0.568  0.3101 -0.2476  0.7333
 5584SOL    HW128211   4.214   4.103   0.510  0.7846  0.6876  1.1797
 5584SOL    HW228212   4.080   4.052   0.524 -0.9882 -0.2948  2.5489
 5585SOL     OW28213   2.788   2.948   9.273  0.0946  0.2566 -0.8315
 5585SOL    HW128214   2.748   2.931   9.358 -0.4965 -0.4132 -1.2477
 5585SOL    HW228215   2.766   2.863   9.234  1.2829  0.7733 -2.5925
 5586SOL     OW28216   4.650   2.478  15.964 -0.2532  0.1134  0.0835
 5586SOL    HW128217   4.554   2.481  15.962 -0.2284  1.7714  1.0081
 5586SOL    HW228218   4.679   2.518  15.882 -0.6050  0.9868  0.3830
 5587SOL     OW28219   4.408   3.277   8.999  0.0780  0.1605  0.1119
 5587SOL    HW128220   4.402   3.191   9.041  1.7247  0.0727  0.1659
 5587SOL    HW228221   4.369   3.253   8.915 -1.8708 -1.9497  1.6189
 5588SOL     OW28222   0.802   2.636   2.828 -0.0875 -0.1788 -0.0948
 5588SOL    HW128223   0.708   2.650   2.814  0.1313  1.2739 -0.1223
 5588SOL    HW228224   0.796   2.541   2.835  0.3293 -0.1552  0.5438
 5589SOL     OW28225   3.852   1.278   8.825  0.5727 -0.2753  0.5318
 5589SOL    HW128226   3.829   1.185   8.829  1.9400 -0.6955 -1.4327
 5589SOL    HW228227   3.785   1.318   8.771  1.6394  0.8021  0.0079
 5590SOL     OW28228   4.514   1.367  10.122  0.5796  0.7101 -0.3571
 5590SOL    HW128229   4.534   1.461  10.122  1.8453  0.4438 -0.3154
 5590SOL    HW228230   4.444   1.369  10.187  1.2736  1.4909  0.3613
 5591SOL     OW28231   3.890   4.106   8.188 -0.0042 -0.5537  0.1667
 5591SOL    HW128232   3.825   4.072   8.249 -0.6379  1.0029  0.3410
 5591SOL    HW228233   3.840   4.163   8.129  1.7853  0.4554 -0.3780
 5592SOL     OW28234   2.523   2.080   3.816 -0.4760 -0.5872  0.2387
 5592SOL    HW128235   2.596   2.018   3.826  1.4950  1.5824 -0.6051
 5592SOL    HW228236   2.527   2.117   3.728  1.4596 -0.8228  0.2133
 5593SOL     OW28237   3.229   0.691   3.313 -0.4019 -0.0906 -0.1545
 5593SOL    HW128238   3.263   0.606   3.341 -0.0182  0.6046  1.4797
 5593SOL    HW228239   3.200   0.733   3.394  2.6227  2.0238 -0.1692
 5594SOL     OW28240   3.810   4.119   8.558 -0.3753 -0.2267 -0.0534
 5594SOL    HW128241   3.868   4.083   8.626 -0.3591  1.2488  0.7169
 5594SOL    HW228242   3.753   4.044   8.540 -1.5598  1.0212 -1.4761
 5595SOL     OW28243   2.895   3.940   7.738 -0.1877 -0.1441 -0.3551
 5595SOL    HW128244   2.953   3.884   7.687  1.1214 -0.8887  1.9706
 5595SOL    HW228245   2.946   4.019   7.758  0.2089 -0.6137  0.4863
 5596SOL     OW28246   3.326   0.379   4.654  0.4143  0.4991  0.0800
 5596SOL    HW128247   3.300   0.460   4.698  1.0187  1.2755 -0.9942
 5596SOL    HW228248   3.301   0.397   4.564  0.2949  0.6716  0.1476
 5597SOL     OW28249   0.470   2.798  11.717  1.2321 -0.0253 -1.1467
 5597SOL    HW128250   0.394   2.794  11.659 -0.8469  1.0102  1.4925
 5597SOL    HW228251   0.451   2.888  11.746 -0.8272 -1.1844  1.1317
 5598SOL     OW28252   3.463   2.552   1.838  0.3724  0.0761 -0.4924
 5598SOL    HW128253   3.461   2.469   1.789  0.3448  0.3793 -1.0012
 5598SOL    HW228254   3.555   2.573   1.825  0.4202 -1.0831 -2.0410
 5599SOL     OW28255   0.576   0.861  15.744  0.0622  0.3358 -0.9637
 5599SOL    HW128256   0.604   0.933  15.687 -1.1974  1.4451 -0.1781
 5599SOL    HW228257   0.650   0.801  15.747 -1.3220 -1.3717 -0.8909
 5600SOL     OW28258   0.136   4.215   9.885  0.3714 -0.0154 -0.6739
 5600SOL    HW128259   0.078   4.140   9.876  1.5744 -0.8399 -1.5980
 5600SOL    HW228260   0.116   4.240   9.975  0.0531 -0.5250 -0.6035
 5601SOL     OW28261   1.867   2.397   5.814 -0.3085 -0.1795  0.2571
 5601SOL    HW128262   1.895   2.414   5.904 -1.9254  0.5300  0.6209
 5601SOL    HW228263   1.810   2.471   5.795 -0.6294 -0.6786 -0.7252
 5602SOL     OW28264   2.051   1.249   5.924  0.0359  0.0796  0.4390
 5602SOL    HW128265   2.028   1.320   5.983  1.3473  1.4951 -0.7526
 5602SOL    HW228266   2.083   1.293   5.845  0.2200  0.6343  0.8217
 5603SOL     OW28267   4.686   0.957   0.365 -0.5078  0.5763  0.1755
 5603SOL    HW128268   0.023   0.888   0.387  0.9122  1.0117 -2.5477
 5603SOL    HW228269   4.633   0.966   0.445 -0.0088 -1.8999  0.7924
 5604SOL     OW28270   0.953   2.394   2.428 -0.4912 -0.1667  0.2025
 5604SOL    HW128271   0.871   2.435   2.401 -0.8072 -2.2032 -1.9328
 5604SOL    HW228272   1.002   2.470   2.460 -2.0775  0.2906  1.4876
 5605SOL     OW28273   3.030   2.047  10.510  0.0962 -0.3987  0.2355
 5605SOL    HW128274   3.049   2.076  10.599 -2.3664  2.6051 -0.2142
 5605SOL    HW228275   2.957   2.101  10.481  0.1233 -0.1791  0.5790
 5606SOL     OW28276   3.734   4.254   8.016 -0.5124  0.7319 -0.6576
 5606SOL    HW128277   3.643   4.234   7.995 -0.9397  0.0403  1.9272
 5606SOL    HW228278   3.742   4.344   8.044  0.9642  1.0127 -1.9528
 5607SOL     OW28279   3.779   4.562   9.532  0.4948  0.2777  0.4663
 5607SOL    HW128280   3.847   4.625   9.556 -1.2175  2.5759 -0.6831
 5607SOL    HW228281   3.710   4.620   9.500 -0.8902 -1.5441  0.1176
 5608SOL     OW28282   2.164   4.151  12.219  0.4621  0.0114  0.0338
 5608SOL    HW128283   2.249   4.108  12.215 -0.3488 -1.4714 -1.3289
 5608SOL    HW228284   2.191   4.242  12.235 -1.7465  0.4022  1.6120
 5609SOL     OW28285   3.542   3.666   1.809  0.8878  0.2631 -0.1031
 5609SOL    HW128286   3.579   3.703   1.729  0.6187  3.0141  1.0594
 5609SOL    HW228287   3.592   3.587   1.834 -0.1914 -0.4528 -0.1995
 5610SOL     OW28288   1.330   1.960  13.507  0.2641 -0.5103 -0.0147
 5610SOL    HW128289   1.354   1.941  13.597  1.2235 -1.5475 -0.4732
 5610SOL    HW228290   1.235   1.950  13.501  0.1551  1.1154 -1.0090
 5611SOL     OW28291   3.965   1.975   2.800 -0.5068  0.2765  0.2060
 5611SOL    HW128292   3.996   1.906   2.742  2.2380 -0.0088  2.0141
 5611SOL    HW228293   3.986   1.939   2.886  2.2221  1.1522 -0.1052
 5612SOL     OW28294   2.992   3.003  16.766  0.2876  0.7696  0.7345
 5612SOL    HW128295   3.070   3.050  16.735  0.8130  0.3375  1.3935
 5612SOL    HW228296   2.994   3.023  16.860 -2.1190  0.3777  0.8458
 5613SOL     OW28297   2.234   3.767   4.766 -0.0808 -0.1717 -0.1740
 5613SOL    HW128298   2.237   3.817   4.848  1.5701  1.1634 -1.0257
 5613SOL    HW228299   2.326   3.739   4.764 -0.0359 -0.0944  1.2428
 5614SOL     OW28300   3.003   4.468  12.565 -0.3656  0.3226 -0.0248
 5614SOL    HW128301   2.984   4.490  12.656 -1.5021  0.8990 -0.3864
 5614SOL    HW228302   3.091   4.501  12.546 -0.6111  0.7690 -0.4092
 5615SOL     OW28303   3.577   2.097   5.729  0.3320  0.2753 -0.2157
 5615SOL    HW128304   3.635   2.044   5.785  0.8621  0.2749 -0.7654
 5615SOL    HW228305   3.497   2.087   5.780 -0.3228  0.0124 -1.3098
 5616SOL     OW28306   3.381   3.938   6.521  0.4091 -0.0636 -0.1348
 5616SOL    HW128307   3.434   4.011   6.489  2.2616 -1.5706 -0.5291
 5616SOL    HW228308   3.392   3.865   6.460 -0.7262  0.2545 -0.7195
 5617SOL     OW28309   3.614   0.561   4.439 -0.5350 -0.1465  0.2161
 5617SOL    HW128310   3.607   0.521   4.526  0.2900  1.3569  0.9599
 5617SOL    HW228311   3.630   0.478   4.394 -1.6712  0.1995 -0.8305
 5618SOL     OW28312   0.461   1.537   6.089  0.5255 -0.3900  0.1572
 5618SOL    HW128313   0.525   1.470   6.066  1.1620 -0.4440  2.1227
 5618SOL    HW228314   0.392   1.482   6.126  0.7262 -0.1451  0.9056
 5619SOL     OW28315   3.340   0.707  14.802  0.6927 -0.1783  0.3677
 5619SOL    HW128316   3.387   0.626  14.823  1.1764 -0.1693 -0.6760
 5619SOL    HW228317   3.344   0.703  14.707 -2.7907 -1.1638  0.2957
 5620SOL     OW28318   3.801   0.334  10.130  0.8174  0.3178  0.0735
 5620SOL    HW128319   3.739   0.322  10.058  0.6427 -0.0575  0.2834
 5620SOL    HW228320   3.870   0.268  10.115  0.6076 -0.0250  0.6304
 5621SOL     OW28321   3.347   2.051   7.869  0.2337  0.1205 -0.0121
 5621SOL    HW128322   3.269   2.084   7.914 -1.1543 -1.4252 -1.3101
 5621SOL    HW228323   3.347   2.102   7.788  0.9807  0.2419  0.0580
 5622SOL     OW28324   3.362   1.562  14.398  0.1715  0.0147  0.1631
 5622SOL    HW128325   3.383   1.607  14.316 -2.8701  1.2264  0.0325
 5622SOL    HW228326   3.269   1.538  14.393 -0.2297  1.8162 -1.0526
 5623SOL     OW28327   4.489   4.198   7.652 -0.0818 -0.2175  0.7862
 5623SOL    HW128328   4.502   4.259   7.725 -3.2244  0.7034  0.5584
 5623SOL    HW228329   4.407   4.152   7.671 -0.8217 -0.7240 -3.7139
 5624SOL     OW28330   3.295   0.105   8.764  0.0523  0.0072  0.1120
 5624SOL    HW128331   3.304   0.034   8.701 -1.6184 -2.0466  2.1756
 5624SOL    HW228332   3.213   0.143   8.732  2.0592  1.3364 -3.4856
 5625SOL     OW28333   0.693   2.773   8.075  0.6503  0.3617 -0.2648
 5625SOL    HW128334   0.789   2.778   8.066  0.8391  0.3879  1.9281
 5625SOL    HW228335   0.668   2.846   8.018 -0.0325  0.0376 -0.3837
 5626SOL     OW28336   1.122   2.283   5.655 -0.1652 -0.0805 -0.0275
 5626SOL    HW128337   1.058   2.233   5.603  0.4465 -0.2059 -0.6703
 5626SOL    HW228338   1.129   2.217   5.724  0.4534 -0.2721 -0.2667
 5627SOL     OW28339   2.942   4.233   9.285 -0.1242  0.7602 -0.3903
 5627SOL    HW128340   2.955   4.317   9.327 -0.1261  1.3951 -1.6538
 5627SOL    HW228341   2.865   4.200   9.332 -0.8842  0.5814 -1.7547
 5628SOL     OW28342   4.131   1.126  14.960 -0.3124  0.1829 -0.1125
 5628SOL    HW128343   4.134   1.214  14.924 -2.1593 -0.4354 -1.8353
 5628SOL    HW228344   4.084   1.078  14.892 -0.1845  0.5377 -0.4503
 5629SOL     OW28345   2.570   2.002   6.983  0.1539  0.6846  0.2641
 5629SOL    HW128346   2.612   1.978   7.065 -0.7409 -4.2322 -0.6624
 5629SOL    HW228347   2.481   2.028   7.007 -0.9867 -0.2374 -2.9123
 5630SOL     OW28348   0.317   0.551   9.170  0.3993 -0.2735 -0.1298
 5630SOL    HW128349   0.262   0.576   9.096 -2.0158  1.6765  2.3248
 5630SOL    HW228350   0.270   0.471   9.193  0.6547 -0.8602 -1.6275
 5631SOL     OW28351   4.533   3.738   1.843  0.3116 -0.0260  0.1002
 5631SOL    HW128352   4.556   3.737   1.750  3.6236 -2.2179  0.9199
 5631SOL    HW228353   4.585   3.666   1.879 -2.7453 -3.0649 -1.5904
 5632SOL     OW28354   1.562   0.662   8.367 -0.4296 -0.1902  0.0543
 5632SOL    HW128355   1.486   0.613   8.334  0.3406 -0.3197 -1.4907
 5632SOL    HW228356   1.536   0.672   8.459 -0.9032  1.5749 -0.2693
 5633SOL     OW28357   4.653   3.232  17.014 -0.1907 -0.1930  0.7049
 5633SOL    HW128358   4.563   3.265  17.020  0.2146  0.5905  2.5346
 5633SOL    HW228359   4.693   3.291  17.077  1.1300 -1.2992  0.9087
 5634SOL     OW28360   4.037   4.301   6.864  0.2653  0.4356  0.4563
 5634SOL    HW128361   4.021   4.382   6.815 -0.1859  0.6606  0.9810
 5634SOL    HW228362   4.112   4.264   6.817  0.6509 -0.0205  1.4234
 5635SOL     OW28363   3.536   4.546   5.975  0.0528  0.1704  0.1181
 5635SOL    HW128364   3.596   4.620   5.966 -0.2480  0.2379 -1.3166
 5635SOL    HW228365   3.515   4.524   5.884 -1.5974 -0.4984  0.6439
 5636SOL     OW28366   3.924   0.448   5.718 -0.4452  0.1419  0.4988
 5636SOL    HW128367   3.943   0.364   5.676 -0.7789 -0.1492  0.9359
 5636SOL    HW228368   3.920   0.508   5.643  1.9046  0.1020  0.3425
 5637SOL     OW28369   3.005   3.745  11.612 -0.4753  0.1893 -0.1338
 5637SOL    HW128370   3.099   3.755  11.601 -0.7779  0.3179 -2.6428
 5637SOL    HW228371   2.984   3.838  11.605  0.4998  0.4870  1.0028
 5638SOL     OW28372   2.932   0.687   9.693 -0.1559 -0.2346 -0.2889
 5638SOL    HW128373   2.901   0.776   9.679 -1.4831 -0.7946 -0.9036
 5638SOL    HW228374   2.878   0.660   9.766 -1.7064  0.2252 -1.2760
 5639SOL     OW28375   0.330   4.067   2.953  0.0694  0.3317  0.4303
 5639SOL    HW128376   0.416   4.088   2.917  0.7885 -0.2445  1.8268
 5639SOL    HW228377   0.269   4.104   2.888  1.4446  1.6870 -0.0901
 5640SOL     OW28378   3.523   1.537  15.913  0.2988  0.0040  0.1488
 5640SOL    HW128379   3.523   1.587  15.831  0.0895  0.1359  0.2275
 5640SOL    HW228380   3.606   1.489  15.910  0.3148  0.1184 -1.2628
 5641SOL     OW28381   2.727   0.490   8.902  0.4937 -0.1632  0.1803
 5641SOL    HW128382   2.741   0.556   8.834  0.1006 -1.4955 -1.1899
 5641SOL    HW228383   2.755   0.532   8.983  4.0503 -1.3716 -0.4508
 5642SOL     OW28384   3.970   4.063   0.829  0.0865  0.3317 -0.2772
 5642SOL    HW128385   3.968   4.123   0.904  0.5524  0.4917 -0.3920
 5642SOL    HW228386   4.022   4.097   0.756 -1.8466  1.4785 -1.1517
 5643SOL     OW28387   4.338   0.463   7.645 -0.2781  0.0147 -0.6890
 5643SOL    HW128388   4.397   0.538   7.650  0.2855 -0.6023  1.8454
 5643SOL    HW228389   4.396   0.411   7.700  3.1331  1.3226 -3.0523
 5644SOL     OW28390   0.500   1.495   1.198  0.4228 -0.4815  0.3231
 5644SOL    HW128391   0.572   1.432   1.204  0.3109 -0.6089  0.3126
 5644SOL    HW228392   0.426   1.434   1.203  1.2516 -1.6820 -2.0367
 5645SOL     OW28393   3.542   2.327  14.454 -0.9214 -0.4687  0.2962
 5645SOL    HW128394   3.609   2.340  14.386 -2.1025 -3.6523 -1.4891
 5645SOL    HW228395   3.582   2.275  14.524 -0.6345  1.9509  1.9356
 5646SOL     OW28396   4.056   0.100  15.617  0.6252  0.3635  0.1287
 5646SOL    HW128397   4.005   0.021  15.598 -1.1881  0.8702  2.9435
 5646SOL    HW228398   4.100   0.073  15.698 -0.2347  1.1580  0.8596
 5647SOL     OW28399   1.248   2.827  13.373 -0.3670 -0.3167  0.3227
 5647SOL    HW128400   1.269   2.736  13.351 -0.1726 -0.6775  1.9527
 5647SOL    HW228401   1.244   2.872  13.289  1.6681  1.3139  1.1027
 5648SOL     OW28402   2.566   0.272   7.553 -0.3830  0.4507 -0.2311
 5648SOL    HW128403   2.508   0.307   7.621  0.6437  2.6037 -0.4693
 5648SOL    HW228404   2.637   0.335   7.552  1.0004 -1.1239 -3.9591
 5649SOL     OW28405   1.882   4.206   2.273  0.5416 -0.4240  0.0556
 5649SOL    HW128406   1.957   4.220   2.214 -1.4994  3.4481 -1.6631
 5649SOL    HW228407   1.893   4.115   2.299 -0.3869 -1.2090 -2.2582
 5650SOL     OW28408   3.580   4.234   1.329 -0.1208  0.1347 -0.4768
 5650SOL    HW128409   3.540   4.314   1.364 -1.4822 -0.8301  0.1609
 5650SOL    HW228410   3.653   4.232   1.391 -0.5591 -1.0929 -0.0196
 5651SOL     OW28411   0.474   0.643  17.380 -0.2969 -0.1386  1.0490
 5651SOL    HW128412   0.555   0.592  17.389  0.7957  1.6571  1.2816
 5651SOL    HW228413   0.513   0.731  17.383 -0.0645 -0.2303  0.7451
 5652SOL     OW28414   0.700   2.775   1.805 -0.1729 -0.0305  0.0777
 5652SOL    HW128415   0.643   2.823   1.865  0.4127  0.3777  0.3058
 5652SOL    HW228416   0.712   2.697   1.858 -0.9569 -0.1602  0.0604
 5653SOL     OW28417   1.222   1.722   1.972  0.0527 -0.0726  0.4806
 5653SOL    HW128418   1.297   1.715   1.912  1.1209  2.1484  1.5845
 5653SOL    HW228419   1.179   1.636   1.967  0.3938 -0.3733  2.6936
 5654SOL     OW28420   3.775   2.270   8.906  0.0289 -0.6987  0.2298
 5654SOL    HW128421   3.760   2.217   8.828 -2.7378  0.1677  0.1962
 5654SOL    HW228422   3.711   2.250   8.974 -1.3106  1.1117 -0.5011
 5655SOL     OW28423   0.589   4.003   0.295  0.4472 -0.0741  0.2417
 5655SOL    HW128424   0.552   4.006   0.207  0.0705 -0.2734  0.3972
 5655SOL    HW228425   0.680   3.975   0.279 -0.6400 -2.6842 -1.3311
 5656SOL     OW28426   4.314   1.584  15.316 -0.4314 -0.0783  0.1830
 5656SOL    HW128427   4.225   1.583  15.281  0.8385 -0.5544 -3.0497
 5656SOL    HW228428   4.356   1.662  15.281 -0.8164  0.7787  1.6589
 5657SOL     OW28429   0.485   2.911   2.537  0.3330  0.0715 -0.0524
 5657SOL    HW128430   0.522   2.832   2.497  1.2359  1.2066 -1.4691
 5657SOL    HW228431   0.490   2.973   2.464  2.3480  1.2678  1.1051
 5658SOL     OW28432   2.335   3.834   3.129 -0.4877  0.3113  0.4675
 5658SOL    HW128433   2.260   3.869   3.081  0.5989 -1.0137 -2.1766
 5658SOL    HW228434   2.350   3.895   3.202 -1.4986  2.4746 -1.1519
 5659SOL     OW28435   2.157   3.319   7.512  0.1257 -0.6264 -0.1945
 5659SOL    HW128436   2.097   3.372   7.459  0.4284 -1.2365 -1.1569
 5659SOL    HW228437   2.122   3.351   7.595 -0.6174  1.8249 -1.4370
 5660SOL     OW28438   4.182   2.602   2.943 -0.0967  0.2983 -0.2550
 5660SOL    HW128439   4.147   2.691   2.952  0.8355  0.7777 -1.3684
 5660SOL    HW228440   4.102   2.554   2.965  0.3892 -0.8544 -0.9867
 5661SOL     OW28441   2.732   4.643  10.913  0.1807 -0.5233  0.1901
 5661SOL    HW128442   2.778   4.723  10.937  3.9345 -2.6744  0.1963
 5661SOL    HW228443   2.693   4.652  10.825 -0.5822  0.3412  0.6162
 5662SOL     OW28444   1.112   3.601   2.755 -0.2781 -0.2802  0.1291
 5662SOL    HW128445   1.139   3.528   2.699  1.6386  0.5729 -0.0464
 5662SOL    HW228446   1.120   3.556   2.839  0.4933 -2.2001 -0.9605
 5663SOL     OW28447   0.521   3.055   8.539 -0.3093 -0.2750 -0.3549
 5663SOL    HW128448   0.507   3.103   8.621  0.1923  0.4508 -0.6947
 5663SOL    HW228449   0.520   3.124   8.472 -0.2841  0.3221  0.2614
 5664SOL     OW28450   1.385   0.398   9.720 -0.2204 -0.2310  0.2276
 5664SOL    HW128451   1.355   0.412   9.630 -0.0895 -1.0396  0.0568
 5664SOL    HW228452   1.388   0.487   9.753 -2.2352  0.0202 -0.2803
 5665SOL     OW28453   1.686   4.506   8.089 -0.2236 -0.1369 -0.6261
 5665SOL    HW128454   1.614   4.533   8.146  1.0144  2.6421 -0.3932
 5665SOL    HW228455   1.766   4.497   8.141 -0.0205  2.8050 -0.4050
 5666SOL     OW28456   3.250   2.951   4.231 -0.0462  0.2544 -0.4254
 5666SOL    HW128457   3.172   2.949   4.176 -0.5150 -1.2823  0.2989
 5666SOL    HW228458   3.296   3.027   4.196  1.1219  1.0463  2.8537
 5667SOL     OW28459   0.469   3.706   7.255  0.3127  0.1497 -0.0989
 5667SOL    HW128460   0.384   3.670   7.280 -0.2476  2.6883  1.7382
 5667SOL    HW228461   0.445   3.772   7.190 -2.9328 -0.9056  0.0674
 5668SOL     OW28462   2.916   2.204  12.421 -0.0492  0.4957 -0.4832
 5668SOL    HW128463   2.827   2.234  12.440 -0.7435 -2.1118  0.4084
 5668SOL    HW228464   2.954   2.201  12.509  1.7275 -2.5798 -1.3691
 5669SOL     OW28465   3.651   2.729   6.340 -0.2735 -0.4402  0.0975
 5669SOL    HW128466   3.709   2.799   6.370 -1.0989 -0.9852  3.0025
 5669SOL    HW228467   3.586   2.789   6.303  0.1631  0.3623  0.6435
 5670SOL     OW28468   3.146   3.790   1.498  0.3336  0.0920  0.2450
 5670SOL    HW128469   3.118   3.853   1.431 -0.6594 -0.2487  0.3285
 5670SOL    HW228470   3.184   3.848   1.565 -0.3542  1.2197 -0.3323
 5671SOL     OW28471   0.607   4.612  15.869  0.2500  0.0534 -0.1314
 5671SOL    HW128472   0.665   4.600  15.794 -0.1019 -0.6246 -0.2827
 5671SOL    HW228473   0.669   4.662  15.924 -1.3559 -0.3472  2.0160
 5672SOL     OW28474   1.302   4.228   1.090  0.2910  0.1474  0.5086
 5672SOL    HW128475   1.228   4.201   1.145  0.3231 -0.8210  0.0947
 5672SOL    HW228476   1.257   4.290   1.032  0.1676 -0.2058  0.2229
 5673SOL     OW28477   4.509   1.432   2.611 -0.5598  0.0962  0.2093
 5673SOL    HW128478   4.584   1.393   2.566 -0.6495 -0.6848  0.7373
 5673SOL    HW228479   4.549   1.448   2.696  0.0125 -1.5011  0.2324
 5674SOL     OW28480   1.835   3.743  10.038  0.4425  0.2272 -0.5841
 5674SOL    HW128481   1.811   3.672   9.978  0.6679 -0.4016  0.0660
 5674SOL    HW228482   1.758   3.749  10.095  0.9180  1.6273 -0.0961
 5675SOL     OW28483   2.392   3.478   1.500 -0.3943 -0.9331 -0.1318
 5675SOL    HW128484   2.373   3.472   1.593 -1.5454 -0.1348 -0.3107
 5675SOL    HW228485   2.353   3.564   1.480  3.4604  1.3429  2.1878
 5676SOL     OW28486   0.029   2.375  14.630  0.0989 -0.4216 -0.1145
 5676SOL    HW128487   4.659   2.368  14.634  0.2679 -2.3637  0.6821
 5676SOL    HW228488   0.035   2.420  14.546  1.4379  2.0419  1.3093
 5677SOL     OW28489   0.188   3.331  12.876 -0.1353  0.8370  0.1846
 5677SOL    HW128490   0.178   3.412  12.826  1.9009  1.0044  0.0532
 5677SOL    HW228491   0.177   3.359  12.967  1.4071  1.1147  0.2876
 5678SOL     OW28492   4.470   4.150  15.194 -0.3208 -0.4954  0.2116
 5678SOL    HW128493   4.421   4.096  15.132 -0.5872  0.2225 -0.2004
 5678SOL    HW228494   4.396   4.170  15.251  0.6890  1.3897  0.8725
 5679SOL     OW28495   3.827   1.325   8.434  0.7405  0.0709 -0.1536
 5679SOL    HW128496   3.830   1.235   8.466 -0.2047  0.3287  0.6376
 5679SOL    HW228497   3.809   1.300   8.343  0.3389 -0.4642  0.0751
 5680SOL     OW28498   2.179   1.214   3.112  0.7274  0.0351 -0.1353
 5680SOL    HW128499   2.260   1.164   3.120  0.7028  0.2261  1.2940
 5680SOL    HW228500   2.199   1.304   3.086  1.1944 -0.4272 -1.4159
 5681SOL     OW28501   0.571   2.202   5.621 -0.1440 -0.5971 -0.3720
 5681SOL    HW128502   0.517   2.275   5.650  0.9709 -0.3165  1.0192
 5681SOL    HW228503   0.650   2.227   5.669 -1.3526  0.4989  1.0346
 5682SOL     OW28504   2.056   4.127  11.938 -0.0256  0.0071  0.3435
 5682SOL    HW128505   2.043   4.194  11.870 -0.4164  0.0635  0.4771
 5682SOL    HW228506   2.107   4.166  12.009  0.0598 -0.3987  0.5058
 5683SOL     OW28507   1.801   4.194   2.603 -0.7575  0.4406  1.1363
 5683SOL    HW128508   1.748   4.126   2.560  1.3819 -0.2939 -0.3334
 5683SOL    HW228509   1.771   4.191   2.694  1.1659  1.4704  1.7869
 5684SOL     OW28510   3.712   3.766  10.361  0.7163  0.5548 -0.5689
 5684SOL    HW128511   3.799   3.773  10.401  0.5314 -0.9331  0.1335
 5684SOL    HW228512   3.678   3.836  10.416  3.8615  0.9891  0.7977
 5685SOL     OW28513   0.775   0.496   5.718  0.1818 -0.3726  0.0413
 5685SOL    HW128514   0.761   0.405   5.692 -0.1103 -0.7772  1.5993
 5685SOL    HW228515   0.859   0.517   5.677  0.3360  0.3474  0.7245
 5686SOL     OW28516   1.607   0.720   8.010  0.3720  0.1581  0.4042
 5686SOL    HW128517   1.622   0.631   7.978  0.1370 -0.2614  1.4744
 5686SOL    HW228518   1.637   0.773   7.936  0.9004 -0.2310  0.3353
 5687SOL     OW28519   0.011   3.072   5.485  0.0437  0.9242  0.1243
 5687SOL    HW128520   4.684   3.151   5.472 -1.5764 -0.3130 -0.8137
 5687SOL    HW228521   0.098   3.109   5.474  0.1606  1.2240  1.9746
 5688SOL     OW28522   1.761   0.932   4.220  0.1615  0.7825  0.9689
 5688SOL    HW128523   1.734   0.967   4.135 -0.9311  0.5386  1.2228
 5688SOL    HW228524   1.744   1.005   4.279  2.5881  1.6679  0.5663
 5689SOL     OW28525   4.403   3.420   5.127 -0.2878 -0.4019  0.3544
 5689SOL    HW128526   4.349   3.470   5.188  0.0101  1.0624 -0.5839
 5689SOL    HW228527   4.353   3.425   5.046  0.5745 -1.2662 -0.2472
 5690SOL     OW28528   3.795   1.861   7.227  0.5236  0.2554  0.6807
 5690SOL    HW128529   3.714   1.899   7.193 -0.1762 -2.4080 -0.6277
 5690SOL    HW228530   3.821   1.810   7.150  0.7661  0.5389  0.5748
 5691SOL     OW28531   2.507   1.120  10.022 -0.2928 -0.0717 -0.0035
 5691SOL    HW128532   2.455   1.082  10.093  0.9192 -0.9435  0.4243
 5691SOL    HW228533   2.593   1.124  10.065  0.7403 -0.6070 -2.0245
 5692SOL     OW28534   1.312   4.025   5.108  0.1389  0.2913 -0.2058
 5692SOL    HW128535   1.290   3.950   5.053 -0.7786 -0.4853  1.2332
 5692SOL    HW228536   1.253   4.089   5.069  1.3003  0.8410 -1.0537
 5693SOL     OW28537   3.372   1.989   5.879 -0.5574  0.0248 -0.1925
 5693SOL    HW128538   3.347   1.966   5.968  1.4849 -0.7485  0.1745
 5693SOL    HW228539   3.285   1.970   5.845 -1.7696 -1.5694  3.8619
 5694SOL     OW28540   0.174   0.048   8.682  0.5259 -0.0184 -0.1576
 5694SOL    HW128541   0.155   0.140   8.700  0.4816 -0.2844  1.1102
 5694SOL    HW228542   0.141   0.003   8.759  1.0412 -3.0113 -1.6818
 5695SOL     OW28543   4.470   0.340   5.260  0.5811 -0.2054 -0.4810
 5695SOL    HW128544   4.558   0.380   5.263 -0.1543  1.1480  2.8814
 5695SOL    HW228545   4.494   0.255   5.296 -0.6132 -0.2230  0.2442
 5696SOL     OW28546   4.585   3.986   8.149  0.1309 -0.1703 -0.7288
 5696SOL    HW128547   4.530   3.934   8.208  0.8051 -0.6149 -0.4991
 5696SOL    HW228548   4.651   3.920   8.131  0.6192  0.1684 -0.1756
 5697SOL     OW28549   0.514   2.316   0.708  0.0333 -0.2533 -0.8125
 5697SOL    HW128550   0.606   2.335   0.687  0.1594  1.2262  1.1446
 5697SOL    HW228551   0.501   2.369   0.786  3.4686  0.8365 -0.9535
 5698SOL     OW28552   1.118   3.299   7.017  0.5783  0.6478  0.7666
 5698SOL    HW128553   1.199   3.283   6.970 -0.1504  2.2976 -1.0342
 5698SOL    HW228554   1.119   3.235   7.089 -2.3438 -0.0789  0.1884
 5699SOL     OW28555   4.086   1.126   3.162  0.0078 -0.1659  0.0757
 5699SOL    HW128556   4.124   1.051   3.118  1.2719  2.7804 -3.8720
 5699SOL    HW228557   4.045   1.089   3.240  0.7660 -2.4103 -0.5937
 5700SOL     OW28558   3.083   1.687  14.564  0.6834 -0.2604 -0.6710
 5700SOL    HW128559   2.995   1.725  14.573  0.4447 -1.0884  0.4288
 5700SOL    HW228560   3.115   1.751  14.500  2.3976 -0.9430 -0.4968
 5701SOL     OW28561   2.392   4.585   3.857  0.2594 -0.1235 -0.0658
 5701SOL    HW128562   2.417   4.623   3.941 -1.3561 -0.5423  0.6094
 5701SOL    HW228563   2.437   4.501   3.871 -0.3969 -0.9215 -2.7135
 5702SOL     OW28564   2.514   0.408   6.665  0.2373 -0.3570 -0.7314
 5702SOL    HW128565   2.589   0.409   6.724  0.1755  1.4260 -0.6761
 5702SOL    HW228566   2.556   0.410   6.579 -2.1503 -0.9383 -1.9196
 5703SOL     OW28567   1.975   1.051   0.771  0.0669  0.0457 -0.1671
 5703SOL    HW128568   1.883   1.066   0.747 -0.8994 -4.9695  0.4811
 5703SOL    HW228569   1.972   0.964   0.810 -0.4989 -0.0009 -0.3106
 5704SOL     OW28570   4.585   2.678   6.876 -0.0777 -0.4008  0.5494
 5704SOL    HW128571   4.557   2.604   6.930 -2.1219  1.0596  1.5103
 5704SOL    HW228572   4.674   2.649   6.858 -0.4340 -0.7123 -0.7300
 5705SOL     OW28573   1.276   1.092   6.143  0.3182 -0.3263 -0.0309
 5705SOL    HW128574   1.237   1.167   6.188  1.6012  0.3469 -0.0417
 5705SOL    HW228575   1.352   1.135   6.105  0.4714  0.0931  0.7379
 5706SOL     OW28576   1.725   3.344   9.178  0.2389  0.4349  0.0694
 5706SOL    HW128577   1.803   3.358   9.232 -0.4334  0.8276  0.9289
 5706SOL    HW228578   1.758   3.379   9.095 -1.9856 -0.4600 -1.2109
 5707SOL     OW28579   2.930   1.163  15.201 -0.2365 -0.0514  0.3552
 5707SOL    HW128580   2.994   1.125  15.261  0.3118 -2.9234 -2.0366
 5707SOL    HW228581   2.955   1.130  15.115  0.7728 -0.3764  0.7783
 5708SOL     OW28582   4.215   1.681   7.328 -0.1689 -0.2711 -0.4815
 5708SOL    HW128583   4.278   1.629   7.278 -1.3482 -1.1853 -1.0041
 5708SOL    HW228584   4.168   1.720   7.254  0.2126  1.2074  0.0427
 5709SOL     OW28585   3.690   2.610   7.642  0.0334 -0.6696  0.3485
 5709SOL    HW128586   3.670   2.517   7.633 -0.7891 -0.1284 -3.5726
 5709SOL    HW228587   3.724   2.606   7.731 -0.1979  1.0000  0.5111
 5710SOL     OW28588   1.008   1.919   7.664  0.5409  0.0444  0.3400
 5710SOL    HW128589   1.015   1.866   7.585 -2.0777 -2.1868  1.6176
 5710SOL    HW228590   0.922   1.881   7.684  1.2429 -0.2299  2.9135
 5711SOL     OW28591   2.656   1.496  11.109  0.0386 -0.0205 -0.5140
 5711SOL    HW128592   2.635   1.589  11.097 -1.0136 -0.2900 -0.8101
 5711SOL    HW228593   2.751   1.497  11.100  0.1988 -1.3162  1.0915
 5712SOL     OW28594   1.228   3.817   5.674 -0.7956 -0.1883  0.2867
 5712SOL    HW128595   1.237   3.832   5.769  1.2212 -0.2534  0.1048
 5712SOL    HW228596   1.158   3.751   5.670  1.3732 -2.4707  0.2167
 5713SOL     OW28597   2.246   0.712   2.740  0.1351  0.1189 -0.1113
 5713SOL    HW128598   2.164   0.747   2.706 -0.1127 -1.2966 -0.9895
 5713SOL    HW228599   2.307   0.786   2.740  0.6077 -0.2596 -1.9458
 5714SOL     OW28600   0.055   3.068   7.715  0.5584  0.5100 -0.4578
 5714SOL    HW128601   4.713   3.111   7.768  0.0602 -0.5574 -0.2188
 5714SOL    HW228602   0.041   2.978   7.747 -2.0000  0.3566 -2.0378
 5715SOL     OW28603   1.581   2.942  13.467 -0.3442  0.4557 -0.2961
 5715SOL    HW128604   1.617   2.990  13.542  1.5082  0.9497 -1.5046
 5715SOL    HW228605   1.558   2.863  13.517 -2.4580 -0.5946 -2.9609
 5716SOL     OW28606   3.308   3.037  10.662 -0.2824 -0.3789  0.1764
 5716SOL    HW128607   3.377   3.034  10.729  1.0439 -2.6582 -1.2787
 5716SOL    HW228608   3.255   2.963  10.692 -0.0373 -0.2181  1.0155
 5717SOL     OW28609   1.004   2.432   5.190 -0.1263  0.4246 -0.9889
 5717SOL    HW128610   1.089   2.459   5.157  1.4857 -0.6052  2.3654
 5717SOL    HW228611   0.965   2.515   5.217 -2.5228 -1.3023  0.8148
 5718SOL     OW28612   0.947   0.007  12.048  0.2586  0.0127  0.2737
 5718SOL    HW128613   0.944   4.694  12.135 -1.4047 -2.9355 -1.0844
 5718SOL    HW228614   0.929   0.097  12.072  1.1091 -0.4190  2.5121
 5719SOL     OW28615   4.034   2.850   2.932 -0.0163 -0.4011 -0.0055
 5719SOL    HW128616   3.963   2.875   2.992  0.5936  0.9543  0.1677
 5719SOL    HW228617   3.993   2.788   2.872 -1.5547 -0.0442  0.6594
 5720SOL     OW28618   1.379   3.690  12.725 -0.0375 -0.0891  0.3987
 5720SOL    HW128619   1.422   3.639  12.793  1.8539 -0.5611 -1.1547
 5720SOL    HW228620   1.334   3.752  12.783 -0.6360  0.0269 -0.2027
 5721SOL     OW28621   1.714   1.296  12.174 -0.4261 -0.2787 -0.2965
 5721SOL    HW128622   1.672   1.211  12.165 -0.0226 -0.7775  2.5612
 5721SOL    HW228623   1.800   1.276  12.136 -0.8369 -1.0790 -0.8147
 5722SOL     OW28624   4.179   2.605   7.992 -0.0258 -0.3140  0.8953
 5722SOL    HW128625   4.147   2.518   7.968  1.1643 -1.4317  3.2361
 5722SOL    HW228626   4.154   2.666   7.923 -1.1001 -0.6467  0.9851
 5723SOL     OW28627   1.805   0.936   1.092 -0.0618 -0.1337 -0.0790
 5723SOL    HW128628   1.854   0.881   1.031 -2.0008 -0.1421 -1.6298
 5723SOL    HW228629   1.718   0.925   1.054 -1.1725 -0.4286  2.5608
 5724SOL     OW28630   2.349   1.900   8.225  0.6215 -0.3582  0.2380
 5724SOL    HW128631   2.410   1.862   8.162 -1.0633 -2.2188 -0.2659
 5724SOL    HW228632   2.311   1.959   8.160 -0.6884 -0.8575  0.5441
 5725SOL     OW28633   2.608   1.738  10.861 -0.6187  0.0077  0.3646
 5725SOL    HW128634   2.648   1.794  10.795  0.1419  0.1067  0.9109
 5725SOL    HW228635   2.631   1.652  10.825 -0.1013  0.6798 -0.8990
 5726SOL     OW28636   1.619   0.482  11.382 -0.3049 -0.5945  0.1823
 5726SOL    HW128637   1.652   0.398  11.413 -0.2289 -1.2862 -1.8189
 5726SOL    HW228638   1.527   0.471  11.406 -0.0844  2.7254  2.6355
 5727SOL     OW28639   4.599   1.238   7.225 -0.3163  0.2456  0.0714
 5727SOL    HW128640   4.629   1.246   7.315 -2.4746  0.3078  0.7874
 5727SOL    HW228641   4.629   1.318   7.181  0.0270 -0.7178 -1.4457
 5728SOL     OW28642   2.482   3.774   9.450 -0.2943 -0.2745  0.5903
 5728SOL    HW128643   2.494   3.862   9.417 -2.4570  0.2230  1.0882
 5728SOL    HW228644   2.398   3.786   9.495 -1.9262 -1.2603 -2.1481
 5729SOL     OW28645   3.226   0.163   7.318  0.1857 -0.2939  0.1731
 5729SOL    HW128646   3.262   0.237   7.270 -0.9715 -0.3924 -0.8330
 5729SOL    HW228647   3.256   0.177   7.408  0.0350  0.9584  0.0283
 5730SOL     OW28648   1.602   3.575   3.312 -0.3583 -0.0372  0.3614
 5730SOL    HW128649   1.559   3.648   3.268  0.3169  0.7271  0.9687
 5730SOL    HW228650   1.630   3.512   3.246  2.3916 -0.2277  1.6948
 5731SOL     OW28651   1.562   3.974   6.413  0.3171 -0.2810 -0.1875
 5731SOL    HW128652   1.484   4.017   6.448 -0.3779 -1.7625  0.0762
 5731SOL    HW228653   1.551   3.888   6.453 -1.0890  0.6254  1.4176
 5732SOL     OW28654   0.571   1.213   6.674  0.0740  0.2075  0.3789
 5732SOL    HW128655   0.534   1.184   6.590 -0.6285 -0.1790  0.8248
 5732SOL    HW228656   0.547   1.157   6.747 -0.7498  1.0984  0.7991
 5733SOL     OW28657   4.023   2.637   3.355 -0.4640 -0.6168  0.5208
 5733SOL    HW128658   3.982   2.633   3.441 -0.5201  1.5764  0.6113
 5733SOL    HW228659   4.104   2.589   3.372 -0.6662 -1.4277 -0.8057
 5734SOL     OW28660   4.012   2.582   4.677  0.7676 -0.5713  0.1325
 5734SOL    HW128661   4.007   2.491   4.705  2.2797 -0.0976  1.9018
 5734SOL    HW228662   3.958   2.575   4.598  1.0119  0.7600 -0.1581
 5735SOL     OW28663   2.854   2.552   4.378 -0.2608  0.6731 -0.1660
 5735SOL    HW128664   2.946   2.580   4.375  0.1169 -0.5601  0.1597
 5735SOL    HW228665   2.818   2.619   4.320 -1.6714 -1.5946 -1.8919
 5736SOL     OW28666   3.120   1.365   7.647  0.0637  0.1698  0.3056
 5736SOL    HW128667   3.052   1.351   7.713  0.0426  1.2136  0.5181
 5736SOL    HW228668   3.084   1.308   7.580  1.0424 -0.9138  0.7015
 5737SOL     OW28669   2.706   0.870  12.806 -0.2480 -0.3648 -0.1072
 5737SOL    HW128670   2.763   0.941  12.776  0.9454 -1.4562 -0.4451
 5737SOL    HW228671   2.723   0.798  12.745  0.8131  1.9501 -2.5538
 5738SOL     OW28672   2.386   2.160  14.966  0.3496  0.3813 -0.4366
 5738SOL    HW128673   2.443   2.225  14.923  1.4760  0.0733  0.5998
 5738SOL    HW228674   2.325   2.212  15.017  0.6185  0.9626 -0.7007
 5739SOL     OW28675   4.690   0.396   8.066 -0.7684 -0.4950  0.0467
 5739SOL    HW128676   4.689   0.486   8.099  0.6251 -1.1341  1.8291
 5739SOL    HW228677   0.035   0.398   8.002 -1.4027 -1.9818 -0.6946
 5740SOL     OW28678   2.302   1.613   3.416 -0.1208 -0.3059  0.5892
 5740SOL    HW128679   2.262   1.543   3.365 -3.4698  3.5986 -2.0528
 5740SOL    HW228680   2.267   1.590   3.502  0.3469 -1.0565  0.5796
 5741SOL     OW28681   1.423   3.578  11.965 -0.6911 -0.0419 -0.4742
 5741SOL    HW128682   1.515   3.594  11.986 -0.9783  0.2146  0.5981
 5741SOL    HW228683   1.388   3.509  12.021 -1.2471 -0.0956 -0.8837
 5742SOL     OW28684   0.325   1.676   0.515 -0.4775 -0.2536 -0.1751
 5742SOL    HW128685   0.237   1.692   0.479 -0.7401  0.8830  0.9822
 5742SOL    HW228686   0.305   1.653   0.606  0.4899  0.2371  0.1532
 5743SOL     OW28687   0.425   1.046   8.653 -0.3020 -0.0992 -0.0556
 5743SOL    HW128688   0.377   0.986   8.710 -1.5334 -1.5743 -2.6370
 5743SOL    HW228689   0.430   1.114   8.719 -1.6665 -0.0519  0.0122
 5744SOL     OW28690   3.835   4.197   6.700 -0.2773  0.1693  0.3039
 5744SOL    HW128691   3.854   4.104   6.688 -0.0341  0.2203  0.2868
 5744SOL    HW228692   3.884   4.228   6.776 -0.0008 -0.1123  0.2417
 5745SOL     OW28693   4.129   4.329   0.724  0.0825  0.4979 -0.5338
 5745SOL    HW128694   4.137   4.249   0.671 -1.8844 -0.6367  0.8403
 5745SOL    HW228695   4.125   4.391   0.652 -2.0724  0.0830 -0.7875
 5746SOL     OW28696   3.215   4.219   0.456 -0.6928  0.5106  0.1864
 5746SOL    HW128697   3.233   4.135   0.413 -0.1538  1.5199 -1.5425
 5746SOL    HW228698   3.196   4.190   0.546 -2.2032  0.6215 -0.1072
 5747SOL     OW28699   3.415   1.811   3.811 -0.4381 -0.1535  0.6674
 5747SOL    HW128700   3.496   1.770   3.779 -0.3635  0.3857  0.1607
 5747SOL    HW228701   3.375   1.733   3.850  0.4511 -1.3478 -0.7786
 5748SOL     OW28702   0.451   0.828   7.936 -0.7128 -0.1043 -0.5823
 5748SOL    HW128703   0.417   0.918   7.942  1.0258  0.7407 -3.3564
 5748SOL    HW228704   0.447   0.815   8.031  0.3857  1.2219 -0.3550
 5749SOL     OW28705   3.673   3.686   6.411  0.2208  0.6352 -0.0481
 5749SOL    HW128706   3.690   3.645   6.327 -1.3731  1.9413 -1.0099
 5749SOL    HW228707   3.725   3.626   6.465  1.3643  0.0732 -1.7822
 5750SOL     OW28708   1.410   3.131   9.094 -0.3251  0.1501  0.3989
 5750SOL    HW128709   1.398   3.122   8.999 -0.9211 -1.0910  0.5930
 5750SOL    HW228710   1.380   3.046   9.125 -0.1482  0.5092  1.5603
 5751SOL     OW28711   3.853   1.076   5.841  0.3278  0.0417 -0.7703
 5751SOL    HW128712   3.812   1.048   5.759  1.6499  1.6998 -1.9946
 5751SOL    HW228713   3.906   1.005   5.879  0.8299  0.0022 -1.5515
 5752SOL     OW28714   0.085   2.510  14.396  0.1444  0.1288 -0.3540
 5752SOL    HW128715   0.009   2.529  14.341  1.9275 -0.1638 -2.9060
 5752SOL    HW228716   0.095   2.424  14.354  0.2089 -0.6566  1.2471
 5753SOL     OW28717   0.150   4.546  15.530  0.2232  0.3487  0.5750
 5753SOL    HW128718   0.196   4.630  15.520  0.9399 -0.3840 -2.2032
 5753SOL    HW228719   0.151   4.517  15.439 -0.1798 -2.2142  1.3852
 5754SOL     OW28720   3.541   0.901   9.064  0.1429  1.2583  0.2576
 5754SOL    HW128721   3.623   0.941   9.095  0.4211  1.6908 -1.0392
 5754SOL    HW228722   3.497   0.882   9.146  1.4007 -0.4389  0.5309
 5755SOL     OW28723   2.698   2.536   6.809  0.2091 -0.0181 -0.5319
 5755SOL    HW128724   2.688   2.441   6.813  3.2388 -0.2328  2.4971
 5755SOL    HW228725   2.616   2.565   6.770  1.2170 -0.8615 -3.2281
 5756SOL     OW28726   3.699   1.965  15.349 -0.0525 -0.7186  0.2149
 5756SOL    HW128727   3.630   2.023  15.317 -2.7889 -1.5817  4.5763
 5756SOL    HW228728   3.657   1.900  15.405 -1.7985 -1.3984 -1.9241
 5757SOL     OW28729   1.195   3.035   4.348 -0.4531  0.5407 -0.3110
 5757SOL    HW128730   1.181   3.123   4.383 -0.3714 -0.2809  1.7876
 5757SOL    HW228731   1.281   3.044   4.307 -2.2086  1.2763 -3.8201
 5758SOL     OW28732   1.417   3.380   6.621 -0.2779  0.4371  0.5396
 5758SOL    HW128733   1.405   3.291   6.654 -1.1574 -0.0138 -1.0066
 5758SOL    HW228734   1.481   3.367   6.551  2.6109  0.0386  3.2573
 5759SOL     OW28735   4.496   0.818   7.317 -0.1820  0.6595  0.5403
 5759SOL    HW128736   4.583   0.790   7.345  0.1233  4.0750  3.0415
 5759SOL    HW228737   4.485   0.762   7.240  0.5664 -0.1957  1.0568
 5760SOL     OW28738   1.605   3.481   6.237  0.4985 -0.1085 -0.3404
 5760SOL    HW128739   1.554   3.403   6.257 -2.4520  1.2011 -2.6533
 5760SOL    HW228740   1.677   3.450   6.182  0.7803 -0.8969  0.4840
 5761SOL     OW28741   4.685   0.755   9.984 -0.6473  0.7374 -0.0081
 5761SOL    HW128742   4.651   0.825  10.040 -0.4561 -0.0263  1.0677
 5761SOL    HW228743   4.656   0.674  10.028 -1.0185  1.2718  0.7267
 5762SOL     OW28744   1.103   2.081   7.200 -0.2411 -0.0369  0.4535
 5762SOL    HW128745   1.171   2.037   7.252  0.0964  0.1605  0.1851
 5762SOL    HW228746   1.144   2.167   7.208  0.2274 -0.2278  0.1284
 5763SOL     OW28747   0.841   0.759  15.736 -0.1965  0.0591  0.0471
 5763SOL    HW128748   0.927   0.755  15.777  0.0038  0.4388 -0.3304
 5763SOL    HW228749   0.850   0.827  15.668  1.9775 -0.3153 -0.0349
 5764SOL     OW28750   4.643   2.795   7.758 -0.6477 -0.2171  0.3942
 5764SOL    HW128751   4.696   2.746   7.696 -1.1115 -1.0540  0.6663
 5764SOL    HW228752   4.661   2.734   7.829  0.5718 -0.7367 -0.3760
 5765SOL     OW28753   0.472   4.460   4.774 -0.4431 -0.4434  0.5590
 5765SOL    HW128754   0.534   4.394   4.742 -0.5097  0.7584 -2.0577
 5765SOL    HW228755   0.483   4.448   4.868 -1.2078  0.0034  0.7021
 5766SOL     OW28756   2.558   1.875   8.816 -0.1702 -0.0500 -0.2991
 5766SOL    HW128757   2.549   1.960   8.774  2.3678  0.3449  0.0037
 5766SOL    HW228758   2.530   1.897   8.906 -0.1473  0.5915 -0.4493
 5767SOL     OW28759   2.635   2.982  15.897  0.5050  0.0098 -0.3159
 5767SOL    HW128760   2.728   2.968  15.880  1.0611 -0.1593  2.9205
 5767SOL    HW228761   2.612   2.889  15.899  0.5743  0.0460  1.3908
 5768SOL     OW28762   2.014   2.518   8.597 -0.2541  0.1241 -0.2917
 5768SOL    HW128763   1.972   2.456   8.538 -1.0288 -0.8982  1.3478
 5768SOL    HW228764   2.072   2.457   8.642  0.2384 -2.3852 -4.2945
 5769SOL     OW28765   3.006   1.910   8.926  0.3244 -0.0927  0.1275
 5769SOL    HW128766   3.063   1.953   8.863 -0.0050  0.7399  0.4061
 5769SOL    HW228767   3.071   1.871   8.984  0.9651 -0.2070 -0.6647
 5770SOL     OW28768   3.033   2.289  10.847 -0.3887 -0.5785  0.5690
 5770SOL    HW128769   2.985   2.210  10.872  1.5968 -2.0120 -0.0878
 5770SOL    HW228770   3.119   2.250  10.827  0.3731  1.7173 -0.6364
 5771SOL     OW28771   2.679   0.007   1.980  0.1986 -0.0503 -0.9373
 5771SOL    HW128772   2.700   0.036   1.891 -2.3290 -0.9617 -1.8210
 5771SOL    HW228773   2.699   0.090   2.022  0.6571 -1.5069  1.7615
 5772SOL     OW28774   1.558   2.657   9.116  0.3290 -0.2429  0.1610
 5772SOL    HW128775   1.559   2.660   9.020 -0.9609  0.2601  0.1651
 5772SOL    HW228776   1.642   2.692   9.145 -1.0858  2.1340  1.3288
 5773SOL     OW28777   2.626   2.765   9.147  0.0912  0.3959  0.0007
 5773SOL    HW128778   2.595   2.855   9.143 -0.7803  0.0535 -0.8518
 5773SOL    HW228779   2.542   2.722   9.161 -0.0738  0.8808  0.5266
 5774SOL     OW28780   0.620   2.917   8.996  0.5939  0.0126  0.1182
 5774SOL    HW128781   0.582   3.004   9.007  0.0273 -0.1918 -0.2321
 5774SOL    HW228782   0.568   2.890   8.920 -0.0678 -1.4567  1.0810
 5775SOL     OW28783   2.945   0.227   7.291 -0.3867 -0.3031 -0.2322
 5775SOL    HW128784   2.935   0.185   7.206  0.6185 -0.9969 -0.0146
 5775SOL    HW228785   3.040   0.237   7.304 -0.7954  1.1368  1.6105
 5776SOL     OW28786   2.250   3.184  10.211 -0.2106  0.5357  0.1145
 5776SOL    HW128787   2.271   3.106  10.263 -1.4269  1.2824  1.7543
 5776SOL    HW228788   2.171   3.162  10.163 -0.8975 -0.0148  1.4900
 5777SOL     OW28789   3.466   4.638   7.183  0.5882  0.6685  0.7458
 5777SOL    HW128790   3.433   4.607   7.267  0.5257 -2.0097 -0.2616
 5777SOL    HW228791   3.557   4.647   7.210  0.5008 -1.0791  1.5975
 5778SOL     OW28792   3.413   4.701   6.441  0.0912 -0.3583 -0.3501
 5778SOL    HW128793   3.409   4.624   6.385  0.9969 -0.2785 -0.5357
 5778SOL    HW228794   3.498   4.695   6.485 -0.0642 -1.1223 -0.1642
 5779SOL     OW28795   4.211   0.234   4.508 -0.3644  0.2255 -0.5810
 5779SOL    HW128796   4.172   0.271   4.587  0.4116 -2.3046  0.9920
 5779SOL    HW228797   4.293   0.281   4.488 -0.0295 -0.5986 -1.1756
 5780SOL     OW28798   3.461   1.007   2.076 -0.2176  0.4298  0.1875
 5780SOL    HW128799   3.371   0.977   2.061 -0.5004  1.3375  0.1061
 5780SOL    HW228800   3.491   0.926   2.119 -0.6013 -0.5072 -1.2972
 5781SOL     OW28801   0.196   3.399   4.774 -0.3588 -0.0223  0.1161
 5781SOL    HW128802   0.253   3.401   4.852 -1.0894  2.3024  0.5975
 5781SOL    HW228803   0.140   3.475   4.792 -1.5852 -1.0320  0.5219
 5782SOL     OW28804   3.966   2.883   9.363  0.1383 -0.0586 -0.1697
 5782SOL    HW128805   3.878   2.905   9.392  0.0048 -1.2201  0.2723
 5782SOL    HW228806   3.958   2.788   9.363 -0.1295 -0.0357  0.0709
 5783SOL     OW28807   3.197   1.283   2.917  0.5831 -0.2065 -0.2768
 5783SOL    HW128808   3.261   1.263   2.848  1.2687 -0.6818  0.4999
 5783SOL    HW228809   3.217   1.219   2.985 -0.3140  0.8832  1.0028
 5784SOL     OW28810   1.974   1.199   2.807 -0.1785  0.5974  0.2368
 5784SOL    HW128811   1.978   1.161   2.895 -0.5165  0.2881  0.1213
 5784SOL    HW228812   2.027   1.278   2.814 -2.3069  1.9637  0.8012
 5785SOL     OW28813   0.883   4.470   8.886  0.1010 -0.4755  0.8693
 5785SOL    HW128814   0.913   4.445   8.799 -1.7515 -1.4798  0.5252
 5785SOL    HW228815   0.878   4.387   8.932  2.0320 -0.8845  0.3476
 5786SOL     OW28816   3.443   0.075   9.834  0.2020 -0.5035  0.2678
 5786SOL    HW128817   3.490   0.119   9.763  1.2804 -2.3665 -0.1674
 5786SOL    HW228818   3.406   0.151   9.879 -0.5940 -1.3901  1.1075
 5787SOL     OW28819   1.972   2.487   5.178  0.2091  0.9124  0.1649
 5787SOL    HW128820   1.994   2.544   5.105  1.0516 -0.1368 -0.3938
 5787SOL    HW228821   2.059   2.452   5.199  0.5507  2.5049  1.4047
 5788SOL     OW28822   3.385   0.790  10.043  0.3694 -0.9293  0.7730
 5788SOL    HW128823   3.425   0.861   9.994  0.5241 -1.5272  0.0456
 5788SOL    HW228824   3.354   0.745   9.965  3.0713 -0.6018 -0.4756
 5789SOL     OW28825   1.966   2.852  13.479 -0.1581 -0.1284 -0.2633
 5789SOL    HW128826   2.050   2.885  13.447 -0.2724 -0.3978 -0.8512
 5789SOL    HW228827   1.913   2.931  13.472 -2.3950 -1.5867  0.2605
 5790SOL     OW28828   1.845   4.647   0.163 -0.1454 -0.8136  0.0452
 5790SOL    HW128829   1.761   4.603   0.172 -1.0647  1.1399  1.0368
 5790SOL    HW228830   1.843   4.691   0.248 -1.7956 -1.7237  0.4759
 5791SOL     OW28831   2.645   2.062   4.464 -0.1428  0.0799  0.5398
 5791SOL    HW128832   2.579   2.094   4.403 -0.0793  0.6050  0.7478
 5791SOL    HW228833   2.726   2.104   4.434  0.2801 -1.2347 -0.1673
 5792SOL     OW28834   3.560   3.700   1.371  0.1250  0.1929 -0.5667
 5792SOL    HW128835   3.542   3.786   1.333 -1.9289  0.1075  0.2378
 5792SOL    HW228836   3.615   3.716   1.447 -0.4435  4.5717 -1.0715
 5793SOL     OW28837   2.998   4.073   7.995 -0.0403 -0.6026  0.6003
 5793SOL    HW128838   2.909   4.037   8.003  0.0993 -1.7791 -3.1396
 5793SOL    HW228839   3.009   4.121   8.077 -2.8280  1.3719 -0.1629
 5794SOL     OW28840   0.223   3.707   2.213  0.0716 -0.3159 -0.5073
 5794SOL    HW128841   0.158   3.740   2.151  0.4813  1.4077 -0.0236
 5794SOL    HW228842   0.189   3.766   2.280 -1.2497  0.3252 -1.7371
 5795SOL     OW28843   2.713   1.069  14.885 -0.7877  0.1261  0.4780
 5795SOL    HW128844   2.726   1.105  14.797  0.7675 -0.8518  0.2905
 5795SOL    HW228845   2.805   1.080  14.912 -0.8492  1.1268  0.2788
 5796SOL     OW28846   1.286   4.011  13.941  0.2796  0.2323  0.1213
 5796SOL    HW128847   1.215   3.950  13.926  1.7433 -1.1001 -1.3357
 5796SOL    HW228848   1.250   4.095  13.971  1.7874  0.9967 -0.2106
 5797SOL     OW28849   2.552   0.449   1.197 -0.7749  0.1735  0.3140
 5797SOL    HW128850   2.637   0.470   1.160 -0.6618 -1.5604 -0.4251
 5797SOL    HW228851   2.571   0.362   1.233  0.8125 -0.7152 -2.6478
 5798SOL     OW28852   3.321   0.734  14.003  0.2449  0.5080 -0.2597
 5798SOL    HW128853   3.342   0.655  13.954 -0.6230  0.2009 -0.1368
 5798SOL    HW228854   3.362   0.717  14.087  3.3338 -0.0175 -1.8689
 5799SOL     OW28855   3.810   0.903  11.125  0.4609  0.1275 -0.9359
 5799SOL    HW128856   3.763   0.863  11.198  0.0687 -0.9853 -1.8077
 5799SOL    HW228857   3.735   0.944  11.082  0.5464 -0.8286 -1.9953
 5800SOL     OW28858   2.762   0.696  12.160  0.0023 -0.6158 -0.2519
 5800SOL    HW128859   2.669   0.703  12.180 -0.3358 -0.4023 -1.8468
 5800SOL    HW228860   2.760   0.745  12.077 -3.5675 -1.1729 -0.4698
 5801SOL     OW28861   4.084   2.990   4.921 -0.1991  0.0339  0.5750
 5801SOL    HW128862   4.066   3.062   4.861 -0.4577  0.0833  0.7129
 5801SOL    HW228863   4.171   2.961   4.892 -0.6109  0.0761 -0.7103
 5802SOL     OW28864   3.185   1.615   1.528 -0.0201  0.4000  0.3151
 5802SOL    HW128865   3.138   1.666   1.462  0.4553 -0.3368 -0.5947
 5802SOL    HW228866   3.127   1.539   1.523  0.2464  0.1663  0.8182
 5803SOL     OW28867   3.381   4.627   0.498 -0.4934 -0.5042  0.0824
 5803SOL    HW128868   3.403   4.540   0.532 -1.2587  0.4249  2.9928
 5803SOL    HW228869   3.299   4.612   0.450  0.1474  1.3871 -1.5815
 5804SOL     OW28870   0.665   4.399  17.529 -0.1850  0.0866  0.2121
 5804SOL    HW128871   0.689   4.400  17.621 -1.2359  0.1431  0.4810
 5804SOL    HW228872   0.722   4.338  17.481  1.0026  1.1377  0.2790
 5805SOL     OW28873   4.626   0.632  11.872 -0.0962 -0.7114  0.3850
 5805SOL    HW128874   4.673   0.583  11.940  1.1830 -0.7702 -0.5518
 5805SOL    HW228875   4.580   0.687  11.935 -0.0809 -0.3146  0.0506
 5806SOL     OW28876   1.363   1.601   5.664  0.2680  0.6954  0.5639
 5806SOL    HW128877   1.446   1.559   5.687 -0.3773 -0.9540 -0.0456
 5806SOL    HW228878   1.326   1.534   5.605 -1.1411  2.4713 -0.5497
 5807SOL     OW28879   2.556   4.632   4.091  0.2008  0.0474  0.2098
 5807SOL    HW128880   2.480   4.667   4.137 -1.1976 -0.8176 -1.4834
 5807SOL    HW228881   2.554   4.537   4.105 -0.3420  0.1387  0.7423
 5808SOL     OW28882   4.468   0.044   4.914 -0.1605  0.5390 -0.1401
 5808SOL    HW128883   4.547   0.067   4.963 -0.7892  0.8934  0.7128
 5808SOL    HW228884   4.453   0.123   4.862 -2.1591  0.3486  0.1514
 5809SOL     OW28885   4.675   2.518   8.603  0.6076 -0.5971 -0.1772
 5809SOL    HW128886   0.019   2.454   8.622  0.8048 -0.3585 -0.0987
 5809SOL    HW228887   4.599   2.460   8.610  1.5643 -2.3459 -3.9273
 5810SOL     OW28888   4.013   2.148   8.200 -0.1234  0.0642 -0.1134
 5810SOL    HW128889   3.971   2.120   8.281 -0.4746  1.0094  0.0258
 5810SOL    HW228890   4.067   2.073   8.174 -0.1969  0.7594 -2.2296
 5811SOL     OW28891   1.342   2.699   8.058 -0.1689  0.1226  0.1398
 5811SOL    HW128892   1.278   2.758   8.097  1.6779  1.8659  0.5316
 5811SOL    HW228893   1.324   2.697   7.964 -1.7422 -1.3731  0.4766
 5812SOL     OW28894   3.845   1.500  17.207  0.2076  0.1255  0.1600
 5812SOL    HW128895   3.753   1.527  17.201  0.7662  2.2610  1.3581
 5812SOL    HW228896   3.843   1.427  17.145 -2.1911  0.1960  0.1588
 5813SOL     OW28897   2.140   3.190   4.452 -0.2118  0.1253  0.0368
 5813SOL    HW128898   2.076   3.255   4.423  0.1921  0.3680 -0.3157
 5813SOL    HW228899   2.152   3.131   4.378  0.8433  1.0188 -0.5159
 5814SOL     OW28900   2.933   3.037   6.276  0.2345 -0.0298  0.7177
 5814SOL    HW128901   2.853   3.078   6.243  0.8591  1.8795  1.5366
 5814SOL    HW228902   2.992   3.110   6.296  2.4019 -1.0652 -1.7716
 5815SOL     OW28903   1.592   2.839   2.465  0.4966 -0.0933  0.0655
 5815SOL    HW128904   1.672   2.866   2.510 -0.1672  0.9513  0.6131
 5815SOL    HW228905   1.633   2.805   2.386  0.2696  0.2282 -0.1897
 5816SOL     OW28906   1.720   1.993   8.399 -0.2606  0.9139 -0.3251
 5816SOL    HW128907   1.697   1.934   8.328  1.3893  0.2056 -0.2852
 5816SOL    HW228908   1.787   1.938   8.440 -2.0630 -0.1493  1.2014
 5817SOL     OW28909   2.826   1.458   5.481 -0.0792 -0.7131 -0.2147
 5817SOL    HW128910   2.915   1.459   5.517  0.2581  0.0194 -1.0796
 5817SOL    HW228911   2.787   1.523   5.540  0.2522 -0.3699 -0.3728
 5818SOL     OW28912   1.170   0.263   7.746  0.1867 -0.1074  0.2806
 5818SOL    HW128913   1.165   0.240   7.653 -1.1384  0.2829  0.2588
 5818SOL    HW228914   1.224   0.341   7.732 -1.8663  1.1576 -0.6644
 5819SOL     OW28915   3.701   1.947   6.273  0.6410  0.2426  0.0958
 5819SOL    HW128916   3.632   1.997   6.317 -0.4949 -2.3460  1.2945
 5819SOL    HW228917   3.750   2.024   6.245  0.4966  0.6991  1.0931
 5820SOL     OW28918   3.698   3.850   5.228  0.2868  0.4608 -0.8066
 5820SOL    HW128919   3.659   3.825   5.144 -0.1795 -1.5886  0.0313
 5820SOL    HW228920   3.715   3.943   5.209  1.3750  0.1024 -1.5608
 5821SOL     OW28921   2.863   1.998  11.945 -0.1384 -0.3340  0.2447
 5821SOL    HW128922   2.892   2.069  12.002  1.2854 -1.3717  0.8195
 5821SOL    HW228923   2.802   2.042  11.886 -0.3399  1.4463  1.7814
 5822SOL     OW28924   0.349   1.422  13.751  0.0222 -0.0873 -0.3727
 5822SOL    HW128925   0.288   1.491  13.774  2.5834  0.9837  3.1733
 5822SOL    HW228926   0.371   1.398  13.841  2.0994  0.3684 -0.7627
 5823SOL     OW28927   0.349   4.212   5.596  0.0165  0.2399 -0.0865
 5823SOL    HW128928   0.350   4.120   5.570 -0.3920  0.0820  0.4580
 5823SOL    HW228929   0.282   4.198   5.662  1.2753 -0.7724  0.9898
 5824SOL     OW28930   4.083   4.033   6.049 -0.1680 -0.5156  0.5628
 5824SOL    HW128931   4.031   3.963   6.089 -0.7611 -0.2155  0.3224
 5824SOL    HW228932   4.019   4.095   6.013  1.4119 -0.0342 -1.4256
 5825SOL     OW28933   4.381   1.094  10.421 -0.3994  0.1906 -0.0699
 5825SOL    HW128934   4.391   1.017  10.364  0.7292  0.9137 -0.8469
 5825SOL    HW228935   4.435   1.059  10.493  0.6531  2.0060  0.0234
 5826SOL     OW28936   4.275   0.368  17.256  0.4867 -0.2756  0.2350
 5826SOL    HW128937   4.336   0.368  17.182  1.7503  2.2878  1.2793
 5826SOL    HW228938   4.255   0.275  17.253  0.4603 -0.2905  0.8323
 5827SOL     OW28939   3.414   4.677  17.045 -0.1845 -0.2156 -0.8333
 5827SOL    HW128940   3.330   4.695  17.002  0.3695  1.1033 -1.3717
 5827SOL    HW228941   3.428   0.034  17.091 -0.3187 -0.7867  0.2268
 5828SOL     OW28942   4.697   4.698  12.126 -0.2024  0.3047  0.4268
 5828SOL    HW128943   4.721   4.701  12.033  0.1853 -0.5785  0.4996
 5828SOL    HW228944   4.652   0.057  12.131 -0.8850 -0.0353  0.0130
 5829SOL     OW28945   1.087   4.124  15.958 -0.3381 -0.0252  0.2367
 5829SOL    HW128946   1.126   4.166  16.035  1.7536  2.0034 -1.8988
 5829SOL    HW228947   1.071   4.038  15.996  0.7306 -0.2690  0.1516
 5830SOL     OW28948   2.291   0.153   9.105  0.4269  0.2312 -0.1936
 5830SOL    HW128949   2.294   0.206   9.185 -0.8224  0.4040 -0.2587
 5830SOL    HW228950   2.382   0.122   9.111  0.4374  0.6555  1.9885
 5831SOL     OW28951   1.964   2.545   4.187 -0.1196  0.1626 -0.2592
 5831SOL    HW128952   2.040   2.516   4.137  0.5554  0.1539  0.7656
 5831SOL    HW228953   2.006   2.623   4.223 -2.6264  1.1215  0.5697
 5832SOL     OW28954   3.066   3.502   2.038  0.3311 -0.0085 -0.9132
 5832SOL    HW128955   3.017   3.577   2.003 -1.4410 -0.4361  0.5937
 5832SOL    HW228956   3.158   3.521   2.019  0.3018  1.4599  0.4282
 5833SOL     OW28957   4.398   0.026   6.460  0.5712 -0.6074 -0.3985
 5833SOL    HW128958   4.317   0.048   6.414 -0.7218 -1.9854  1.2089
 5833SOL    HW228959   4.458   0.085   6.416  0.1125  0.8508  0.9089
 5834SOL     OW28960   4.367   4.618   6.053 -0.5767 -0.0677  0.0548
 5834SOL    HW128961   4.364   4.582   6.142 -1.2592 -0.8100 -0.2661
 5834SOL    HW228962   4.391   4.710   6.065 -1.6332  0.0114  1.6413
 5835SOL     OW28963   3.771   1.652   3.212 -0.7292  0.3196  0.2236
 5835SOL    HW128964   3.708   1.717   3.242 -0.3116  0.2013  1.3436
 5835SOL    HW228965   3.855   1.683   3.245  0.4066 -1.5664 -0.8561
 5836SOL     OW28966   0.271   2.286   2.061  0.0659 -0.2243 -0.3690
 5836SOL    HW128967   0.253   2.204   2.107 -1.6196 -0.5620 -1.6338
 5836SOL    HW228968   0.322   2.254   1.986  1.1426 -1.0617  0.7229
 5837SOL     OW28969   4.434   1.389   5.088 -0.1884  0.3909 -0.0551
 5837SOL    HW128970   4.440   1.482   5.066 -0.6319  0.6823  1.1005
 5837SOL    HW228971   4.452   1.399   5.181  0.6473  0.1117 -0.1875
 5838SOL     OW28972   4.280   3.255   9.406 -0.3925 -0.1637 -0.8737
 5838SOL    HW128973   4.225   3.196   9.459  0.8686 -1.4684 -1.0160
 5838SOL    HW228974   4.253   3.235   9.317 -0.4545 -0.6126 -0.7535
 5839SOL     OW28975   0.526   3.754   0.382  0.3456  0.1573  0.3399
 5839SOL    HW128976   0.534   3.842   0.346  1.0412 -2.1521 -5.1994
 5839SOL    HW228977   0.602   3.710   0.345  0.6652 -0.6793  2.0081
 5840SOL     OW28978   1.467   1.614   0.132  0.4392  0.1186 -0.2652
 5840SOL    HW128979   1.384   1.644   0.094  0.2283  2.5511  2.1300
 5840SOL    HW228980   1.487   1.555   0.059 -0.7794 -2.0240  1.1249
 5841SOL     OW28981   0.175   4.141   0.595 -0.4153 -0.2386 -0.3744
 5841SOL    HW128982   0.219   4.099   0.669  1.8125  2.0741 -0.3830
 5841SOL    HW228983   0.134   4.063   0.557  2.3267 -2.0277  0.3577
 5842SOL     OW28984   1.662   3.606  12.084  0.0912 -0.1514 -0.4908
 5842SOL    HW128985   1.741   3.650  12.117  1.0786 -1.0454 -1.6640
 5842SOL    HW228986   1.697   3.522  12.053  1.9291  0.6214 -0.4871
 5843SOL     OW28987   0.354   0.902   6.176 -0.2188 -0.0157  0.0759
 5843SOL    HW128988   0.392   0.984   6.145 -1.3085  0.6400  0.4621
 5843SOL    HW228989   0.434   0.862   6.209 -0.1253 -0.0467 -0.1880
 5844SOL     OW28990   1.640   2.648   3.646  0.0554  0.4480 -1.1558
 5844SOL    HW128991   1.597   2.596   3.713 -0.2605  2.2960  0.0644
 5844SOL    HW228992   1.622   2.738   3.675 -0.2109  0.2491 -0.6981
 5845SOL     OW28993   4.236   1.009  15.636  0.2838 -0.4924  0.3691
 5845SOL    HW128994   4.198   0.937  15.686  0.5720 -1.2733 -0.5390
 5845SOL    HW228995   4.296   1.034  15.706 -2.2381  1.1976  1.9539
 5846SOL     OW28996   4.380   2.819   3.229 -0.0924 -0.1884 -0.1354
 5846SOL    HW128997   4.408   2.887   3.290  0.4140 -1.2909  0.8448
 5846SOL    HW228998   4.288   2.843   3.216  0.1283  0.7494  0.0048
 5847SOL     OW28999   1.536   0.582  11.754  0.0259 -0.0359  0.2534
 5847SOL    HW129000   1.506   0.605  11.666 -1.7971 -1.9848  0.3533
 5847SOL    HW229001   1.545   0.667  11.796  0.4602  0.4558 -0.8620
 5848SOL     OW29002   1.951   2.342   3.758  1.0755  0.0590 -0.0319
 5848SOL    HW129003   1.992   2.261   3.786 -0.3322 -1.2694 -1.8051
 5848SOL    HW229004   1.993   2.356   3.673  0.6584  0.8361 -0.1191
 5849SOL     OW29005   1.424   0.653  12.593  0.0928 -0.3600 -0.2096
 5849SOL    HW129006   1.478   0.730  12.614 -0.2214 -0.1891 -0.0223
 5849SOL    HW229007   1.484   0.608  12.534  1.5775  0.0964  0.9465
 5850SOL     OW29008   2.674   0.750   9.516 -0.1464  0.1053  0.1563
 5850SOL    HW129009   2.621   0.799   9.579 -0.9431  1.2588 -1.3979
 5850SOL    HW229010   2.752   0.796   9.547  1.4589 -0.2081 -3.3668
 5851SOL     OW29011   4.469   0.751   1.798 -0.0967 -0.2646 -0.1069
 5851SOL    HW129012   4.427   0.665   1.793  0.0786 -0.4162  0.8607
 5851SOL    HW229013   4.402   0.797   1.849  1.9012  1.1869  1.2021
 5852SOL     OW29014   0.401   1.817   6.604 -0.9320  0.4929  1.3059
 5852SOL    HW129015   0.365   1.749   6.546  0.9726 -0.5820  1.3987
 5852SOL    HW229016   0.434   1.883   6.543 -2.2131 -0.5353 -0.5162
 5853SOL     OW29017   1.871   3.227   6.663  0.6403 -0.1929  0.2226
 5853SOL    HW129018   1.806   3.245   6.731  0.1448 -2.8380  0.4285
 5853SOL    HW229019   1.819   3.244   6.585 -1.1406 -1.7710  1.0689
 5854SOL     OW29020   4.561   0.360  13.129  0.1588 -0.1289 -0.0783
 5854SOL    HW129021   4.491   0.295  13.137 -0.7666  0.9497  0.5407
 5854SOL    HW229022   4.623   0.313  13.073 -0.8190 -0.8781 -0.5461
 5855SOL     OW29023   3.047   3.896  15.466  0.1364 -0.3367  0.5820
 5855SOL    HW129024   3.042   3.991  15.479  0.3015 -0.1237 -0.8731
 5855SOL    HW229025   2.975   3.891  15.404 -0.8502  2.8442  1.4432
 5856SOL     OW29026   2.184   0.035   7.942 -0.1660 -0.2317 -0.2110
 5856SOL    HW129027   2.199   4.705   8.019 -0.9702  0.0677  0.1552
 5856SOL    HW229028   2.093   0.013   7.926 -0.5473  0.8173  0.5153
 5857SOL     OW29029   2.054   0.199  16.049  0.2079  0.1747 -0.1543
 5857SOL    HW129030   2.117   0.187  15.978 -1.1896 -1.2267 -1.1613
 5857SOL    HW229031   2.058   0.294  16.059  1.6088  0.1371 -0.3894
 5858SOL     OW29032   4.165   1.566   8.679  0.0975 -0.3863 -0.0354
 5858SOL    HW129033   4.090   1.536   8.627 -2.0378  0.6195  2.4144
 5858SOL    HW229034   4.138   1.655   8.700 -1.5743 -1.0298  0.5981
 5859SOL     OW29035   4.131   0.306   0.764  0.1492  0.0110 -0.6569
 5859SOL    HW129036   4.096   0.292   0.676 -2.2149 -1.0270  0.4560
 5859SOL    HW229037   4.050   0.291   0.813  2.0492 -1.5528  2.0245
 5860SOL     OW29038   1.074   2.952   3.102 -0.0725  0.1098 -0.3312
 5860SOL    HW129039   1.085   2.875   3.157 -0.9619  2.9129  3.8101
 5860SOL    HW229040   0.990   2.925   3.066 -0.8252  1.8829  0.0882
 5861SOL     OW29041   1.832   1.397  13.681 -0.8476  0.2874 -0.0135
 5861SOL    HW129042   1.770   1.366  13.747 -0.4271  1.7469  1.0600
 5861SOL    HW229043   1.909   1.401  13.737  0.8744  2.0572 -2.5228
 5862SOL     OW29044   0.499   1.674  14.694  0.0420 -0.1252  0.1556
 5862SOL    HW129045   0.450   1.612  14.639  1.9234  0.0117 -1.6598
 5862SOL    HW229046   0.475   1.752  14.644 -1.6725 -1.3927 -1.0115
 5863SOL     OW29047   3.373   2.566   5.026  0.1075 -0.3941  0.2036
 5863SOL    HW129048   3.464   2.578   5.053  0.1447  0.7980 -0.4724
 5863SOL    HW229049   3.327   2.557   5.109 -3.3126  1.0892 -1.5513
 5864SOL     OW29050   0.406   0.248  15.700 -0.6091 -0.1003  0.6179
 5864SOL    HW129051   0.401   0.342  15.683  2.5551 -0.2536 -1.1461
 5864SOL    HW229052   0.484   0.242  15.754 -0.2178 -2.8215 -0.2890
 5865SOL     OW29053   2.527   1.942   2.938 -0.3920 -0.4107 -0.5220
 5865SOL    HW129054   2.453   1.955   2.878  0.9528  0.9045 -1.9018
 5865SOL    HW229055   2.533   1.847   2.945  0.4954 -0.3034  0.0998
 5866SOL     OW29056   4.232   1.518  11.779 -0.0429  0.2507 -0.2714
 5866SOL    HW129057   4.326   1.529  11.789 -0.0484  2.1209 -2.1090
 5866SOL    HW229058   4.206   1.610  11.780  0.5004  0.3861  0.9946
 5867SOL     OW29059   1.901   1.418  14.064  0.2342 -0.3726 -0.1506
 5867SOL    HW129060   1.812   1.416  14.029 -0.8560 -2.0427  2.7807
 5867SOL    HW229061   1.949   1.418  13.981 -0.3655 -0.9748 -0.4968
 5868SOL     OW29062   4.282   4.128   7.865 -0.0837  0.1754  0.2344
 5868SOL    HW129063   4.206   4.132   7.924  0.6290  1.4770  1.0651
 5868SOL    HW229064   4.259   4.062   7.800 -0.2367  0.4544  0.0020
 5869SOL     OW29065   0.139   3.225  11.744 -0.1249 -0.0833 -0.6584
 5869SOL    HW129066   0.051   3.210  11.777 -0.2379  1.7573 -0.1145
 5869SOL    HW229067   0.136   3.320  11.739  0.3245 -0.0580 -0.4535
 5870SOL     OW29068   3.882   0.427   9.095  0.0181 -0.2205 -0.4636
 5870SOL    HW129069   3.847   0.341   9.071  1.4182 -0.4213 -1.8177
 5870SOL    HW229070   3.804   0.482   9.091 -0.9409 -1.7255 -2.3916
 5871SOL     OW29071   3.467   0.740  16.027 -0.5185  0.3322 -0.1673
 5871SOL    HW129072   3.420   0.801  16.083 -0.8494 -1.2102  1.2351
 5871SOL    HW229073   3.467   0.791  15.946  0.0419 -0.2639 -0.5451
 5872SOL     OW29074   0.588   4.370   1.262  0.5247 -0.2337  0.7909
 5872SOL    HW129075   0.611   4.314   1.187  1.4260 -2.8599  3.0308
 5872SOL    HW229076   0.641   4.445   1.236 -1.6444  0.4617 -1.6505
 5873SOL     OW29077   3.911   1.132   8.022 -0.3725  0.2020  0.4130
 5873SOL    HW129078   3.845   1.131   8.092  0.0934  0.4866  0.8546
 5873SOL    HW229079   3.904   1.040   7.995 -0.6015 -0.6247  3.3275
 5874SOL     OW29080   1.621   4.488   9.297  0.2986 -0.3223  0.5013
 5874SOL    HW129081   1.682   4.557   9.323  1.5315 -0.3120 -2.4729
 5874SOL    HW229082   1.566   4.491   9.375 -0.8623  3.7471 -0.4758
 5875SOL     OW29083   2.526   2.791   2.627  0.0784  0.1481 -0.2255
 5875SOL    HW129084   2.438   2.766   2.655  0.8615 -3.2512 -0.8499
 5875SOL    HW229085   2.569   2.708   2.606 -1.2432 -0.3794 -0.8376
 5876SOL     OW29086   0.007   4.421   5.681  0.0478 -0.2297  0.2094
 5876SOL    HW129087   4.679   4.429   5.759  0.4407  0.8870  0.3552
 5876SOL    HW229088   4.663   4.425   5.616  0.0857 -0.5768  0.1447
 5877SOL     OW29089   0.646   3.233   4.260 -0.7547 -0.3081  0.1730
 5877SOL    HW129090   0.699   3.221   4.181  1.1883 -1.1717  1.6046
 5877SOL    HW229091   0.686   3.303   4.312  1.7163 -1.9300  0.4456
 5878SOL     OW29092   0.056   0.873   3.834 -0.0510 -0.0695  0.1845
 5878SOL    HW129093   0.056   0.839   3.924 -0.5904  0.7859  0.5005
 5878SOL    HW229094   0.032   0.795   3.783 -2.0841  1.3718 -1.0302
 5879SOL     OW29095   2.962   2.264  17.338 -0.1077  0.0655 -0.1397
 5879SOL    HW129096   3.053   2.233  17.344  1.0023  4.1053  3.6645
 5879SOL    HW229097   2.970   2.356  17.364  2.8685  0.5002 -2.6064
 5880SOL     OW29098   4.598   0.797   3.069  0.3007  0.1074 -0.0268
 5880SOL    HW129099   4.648   0.845   3.004  0.2623 -0.5547 -0.5409
 5880SOL    HW229100   4.579   0.722   3.012  0.4243  0.1359 -0.1031
 5881SOL     OW29101   3.981   2.716   0.313 -0.0147 -0.0187  0.1133
 5881SOL    HW129102   4.036   2.642   0.337 -0.9726 -0.6061  0.5187
 5881SOL    HW229103   3.915   2.705   0.382 -1.2949 -2.5398 -1.5037
 5882SOL     OW29104   2.255   0.222   8.208  0.1999  0.1050  0.4708
 5882SOL    HW129105   2.322   0.238   8.275  0.2659  2.3028 -0.1081
 5882SOL    HW229106   2.295   0.156   8.151 -2.0546 -0.6486 -0.2215
 5883SOL     OW29107   0.479   1.324   2.395 -0.3011 -0.1469  0.0241
 5883SOL    HW129108   0.558   1.273   2.379  0.4937  1.0761  0.0901
 5883SOL    HW229109   0.488   1.348   2.487 -0.2024  0.3602 -0.1201
 5884SOL     OW29110   4.713   0.767   1.755  0.1353 -0.3115  0.2817
 5884SOL    HW129111   4.618   0.763   1.770  0.3084  1.0507  1.7294
 5884SOL    HW229112   0.015   0.705   1.822  1.9519 -1.9851 -2.0166
 5885SOL     OW29113   0.374   0.087   5.489 -0.4743 -0.0441  0.3866
 5885SOL    HW129114   0.301   0.076   5.550 -0.8198 -2.7260 -0.5228
 5885SOL    HW229115   0.421   0.004   5.494  1.2277  1.0256  2.3827
 5886SOL     OW29116   2.825   2.773   9.810  0.1402 -0.3740  0.2610
 5886SOL    HW129117   2.891   2.755   9.743  0.6311  0.6066  0.4711
 5886SOL    HW229118   2.765   2.699   9.808 -1.5770  1.0339 -0.4684
 5887SOL     OW29119   2.978   3.125  17.524 -0.2385 -0.2760  0.3473
 5887SOL    HW129120   3.026   3.176  17.590 -0.2859  1.4585 -0.9577
 5887SOL    HW229121   3.044   3.057  17.509  1.2205  0.7853  2.0128
 5888SOL     OW29122   3.847   2.455   5.477  0.3829 -0.0587 -0.2733
 5888SOL    HW129123   3.774   2.498   5.521 -1.6043 -2.3380 -1.3784
 5888SOL    HW229124   3.890   2.410   5.549 -0.0723  0.3287  0.2390
 5889SOL     OW29125   4.345   1.097   7.204  0.2875 -0.8418  0.6555
 5889SOL    HW129126   4.437   1.121   7.203  0.1572 -0.3388  0.5698
 5889SOL    HW229127   4.344   1.056   7.290  0.5722 -1.3737  0.4030
 5890SOL     OW29128   0.181   2.434   8.974 -0.1273  0.1519 -0.0162
 5890SOL    HW129129   0.097   2.456   8.934 -0.5182  0.3085  0.8865
 5890SOL    HW229130   0.226   2.395   8.900 -1.6793  0.7657 -1.2769
 5891SOL     OW29131   4.568   2.508  13.080 -0.0459 -0.0538 -0.6870
 5891SOL    HW129132   4.601   2.597  13.087  1.6958 -0.5895 -2.0822
 5891SOL    HW229133   4.484   2.530  13.039  0.6444  2.2694 -0.8260
 5892SOL     OW29134   1.936   0.212  16.332 -0.2088  0.4223 -0.5542
 5892SOL    HW129135   1.928   0.132  16.281  1.6596 -0.0946 -0.0401
 5892SOL    HW229136   1.878   0.267  16.279  0.9167 -1.6398 -3.8798
 5893SOL     OW29137   0.358   1.854   2.016 -0.1838  0.0730  0.3005
 5893SOL    HW129138   0.372   1.902   2.098  0.7458 -0.2843  0.3498
 5893SOL    HW229139   0.374   1.926   1.955  1.5024 -0.5168  0.0423
 5894SOL     OW29140   4.454   2.089   4.513  0.0034  0.5282  0.1210
 5894SOL    HW129141   4.520   2.134   4.461  0.3441 -0.5327 -0.3804
 5894SOL    HW229142   4.388   2.158   4.514  0.8314  1.3549 -1.8596
 5895SOL     OW29143   0.424   3.538  12.236  0.2733  0.2283 -0.6271
 5895SOL    HW129144   0.509   3.581  12.245 -0.5014  1.5067  0.6186
 5895SOL    HW229145   0.430   3.480  12.312 -0.0576  0.7790 -0.1759
 5896SOL     OW29146   1.727   1.829   3.533  0.2326 -0.5337 -0.1620
 5896SOL    HW129147   1.788   1.889   3.576 -1.0824  0.2743  0.5570
 5896SOL    HW229148   1.739   1.838   3.438 -0.7209 -0.1624 -0.2438
 5897SOL     OW29149   1.166   0.313  15.071 -0.3204  0.0515  0.2624
 5897SOL    HW129150   1.095   0.350  15.124 -0.7771  0.2570 -0.4952
 5897SOL    HW229151   1.110   0.305  14.994  2.0600  1.2394 -1.5862
 5898SOL     OW29152   3.521   4.516  16.688  0.2446  0.3113 -0.1580
 5898SOL    HW129153   3.597   4.536  16.742  0.4854 -0.4414 -0.2134
 5898SOL    HW229154   3.556   4.470  16.612 -0.1184 -0.4944  0.1556
 5899SOL     OW29155   2.026   0.817   8.133 -0.3478 -0.1567  0.4696
 5899SOL    HW129156   1.942   0.805   8.178 -0.9663  1.1280 -0.3607
 5899SOL    HW229157   2.033   0.912   8.144  0.2466 -0.1382 -0.1240
 5900SOL     OW29158   3.511   0.956   1.222 -0.3082  0.0474 -0.3847
 5900SOL    HW129159   3.416   0.971   1.216 -0.8495 -3.6137 -0.4655
 5900SOL    HW229160   3.523   1.045   1.257  2.7131  0.2209 -1.9277
 5901SOL     OW29161   0.551   1.644   7.679  0.3353  0.4262 -0.3286
 5901SOL    HW129162   0.583   1.555   7.692  0.1501  0.4408  0.2417
 5901SOL    HW229163   0.521   1.645   7.588  2.3696 -0.4454 -0.9966
 5902SOL     OW29164   4.290   1.465   4.156  0.4917 -0.2744 -0.0105
 5902SOL    HW129165   4.319   1.514   4.078 -0.0295  0.6300  0.3590
 5902SOL    HW229166   4.342   1.492   4.231 -0.0517  0.5392  0.0770
 5903SOL     OW29167   4.445   1.044   9.125 -0.5723 -0.2830 -0.0847
 5903SOL    HW129168   4.517   0.981   9.112  0.1417  1.2495 -3.6320
 5903SOL    HW229169   4.411   1.018   9.210 -2.0178 -1.1142 -0.9129
 5904SOL     OW29170   3.727   0.981   7.530 -0.3555  0.1607  0.3960
 5904SOL    HW129171   3.667   0.907   7.523  0.7305 -0.5734 -0.9825
 5904SOL    HW229172   3.771   0.968   7.446 -0.3543 -0.3904  0.4835
 5905SOL     OW29173   0.540   4.319   5.794  0.3144  0.3833  0.4525
 5905SOL    HW129174   0.597   4.249   5.826  0.4057  0.2905  0.0830
 5905SOL    HW229175   0.490   4.279   5.723 -0.3783 -0.1401  1.2200
 5906SOL     OW29176   3.353   4.199   6.961 -0.3935 -0.1233  0.3258
 5906SOL    HW129177   3.410   4.127   6.935  0.5555  0.1989  1.4938
 5906SOL    HW229178   3.389   4.260   6.896 -0.0438 -1.9988 -1.2363
 5907SOL     OW29179   4.610   1.631  15.440 -0.3408  0.0040  0.3931
 5907SOL    HW129180   4.595   1.703  15.379 -1.2998 -1.8359 -1.5281
 5907SOL    HW229181   4.566   1.558  15.397 -0.5632 -0.9894  2.2677
 5908SOL     OW29182   4.042   2.917   8.470 -0.2345 -0.7421  0.4759
 5908SOL    HW129183   4.105   2.981   8.502  2.2025 -2.5854 -0.6336
 5908SOL    HW229184   4.041   2.947   8.379 -0.7420  1.4211  1.1835
 5909SOL     OW29185   3.894   0.328   4.610  0.1738 -0.0405  0.1225
 5909SOL    HW129186   3.801   0.329   4.586  0.2372 -3.5623 -0.2112
 5909SOL    HW229187   3.937   0.378   4.541  2.1332 -0.7114  0.8513
 5910SOL     OW29188   0.214   2.436   4.712  0.0331 -0.3648 -0.1957
 5910SOL    HW129189   0.243   2.356   4.669  0.5681 -0.1515 -0.2403
 5910SOL    HW229190   0.146   2.405   4.772  0.8605 -2.2914 -0.2511
 5911SOL     OW29191   4.023   2.848  10.932  0.6804 -0.1430  0.1582
 5911SOL    HW129192   3.987   2.932  10.905 -0.9284 -0.7913  0.2137
 5911SOL    HW229193   3.943   2.808  10.969 -1.2964  2.4718 -1.2997
 5912SOL     OW29194   2.965   2.144  13.823  0.3673 -0.2450 -0.4101
 5912SOL    HW129195   2.932   2.125  13.735  0.7330  0.3342 -0.6725
 5912SOL    HW229196   2.899   2.100  13.876  0.9339 -0.3060  0.2416
 5913SOL     OW29197   2.543   4.147   9.853  0.2166  0.4415 -0.4940
 5913SOL    HW129198   2.535   4.052   9.841 -2.8101  0.4477  1.2848
 5913SOL    HW229199   2.629   4.156   9.895 -0.5421 -0.0804  1.1963
 5914SOL     OW29200   3.423   1.772   6.676  0.9702 -0.0805 -0.2932
 5914SOL    HW129201   3.467   1.738   6.754 -0.5024 -0.5804  0.3269
 5914SOL    HW229202   3.357   1.828   6.716  0.1582 -0.9189 -0.4518
 5915SOL     OW29203   2.196   0.777   6.595  0.0385  0.1281 -0.0702
 5915SOL    HW129204   2.285   0.748   6.574 -0.1394 -1.1541  0.9486
 5915SOL    HW229205   2.195   0.824   6.512 -0.5928  1.8671  0.9087
 5916SOL     OW29206   3.085   2.420   2.381 -0.0516  0.8233 -0.1252
 5916SOL    HW129207   3.046   2.377   2.305  0.2158  1.0189 -0.3704
 5916SOL    HW229208   3.003   2.462   2.407  0.2259 -0.3270  2.6954
 5917SOL     OW29209   2.660   4.051   2.962  0.0740  0.5607  0.1274
 5917SOL    HW129210   2.646   4.005   3.044 -2.9212  0.8152 -0.2408
 5917SOL    HW229211   2.754   4.060   2.946 -0.2550 -0.1151 -2.1686
 5918SOL     OW29212   0.182   1.613  15.476  0.5197 -0.2470  0.2897
 5918SOL    HW129213   0.218   1.684  15.423  0.8621 -0.8446 -0.2632
 5918SOL    HW229214   0.109   1.581  15.424  1.0872 -0.7548 -0.1823
 5919SOL     OW29215   3.406   2.860   2.897  0.0852 -0.1719 -0.5151
 5919SOL    HW129216   3.383   2.807   2.974  0.8021  0.8159  0.3830
 5919SOL    HW229217   3.497   2.830   2.895  0.6729  1.5848  0.4808
 5920SOL     OW29218   4.161   3.582   5.136  0.3094 -0.3799 -0.0331
 5920SOL    HW129219   4.207   3.665   5.128  2.0751 -1.4923 -1.4547
 5920SOL    HW229220   4.074   3.601   5.100  1.0626 -0.9438 -2.1582
 5921SOL     OW29221   1.995   0.331   4.795  0.5916 -0.3405  0.6811
 5921SOL    HW129222   1.944   0.278   4.734  1.6776  0.9263 -1.3423
 5921SOL    HW229223   1.930   0.338   4.865  0.1220  0.9112  0.1235
 5922SOL     OW29224   4.282   2.352   1.936  0.5286  0.7927 -0.0966
 5922SOL    HW129225   4.234   2.303   2.002 -0.0336  0.9550 -0.3916
 5922SOL    HW229226   4.245   2.309   1.859  1.7981  1.2692 -0.9880
 5923SOL     OW29227   0.960   0.947   5.341 -0.1153  0.7064 -0.2527
 5923SOL    HW129228   0.878   0.897   5.342  0.1703  0.2717  0.9112
 5923SOL    HW229229   0.952   0.984   5.428 -0.1017 -2.3533  1.0568
 5924SOL     OW29230   0.576   2.903   2.032  0.1968  0.2066 -0.0963
 5924SOL    HW129231   0.503   2.862   2.078  1.6045 -0.7361  1.2806
 5924SOL    HW229232   0.526   2.974   1.992 -1.3341 -1.8803 -1.9418
 5925SOL     OW29233   0.385   1.283  17.631 -0.2466 -0.0169  0.3203
 5925SOL    HW129234   0.377   1.193  17.597  1.8374 -0.1050  0.0263
 5925SOL    HW229235   0.299   1.321  17.616  0.3014  0.7436 -0.9788
 5926SOL     OW29236   3.262   0.164   8.446  0.1943  0.0779  0.0117
 5926SOL    HW129237   3.193   0.182   8.510  0.8444  1.8086  0.2170
 5926SOL    HW229238   3.223   0.095   8.392  0.1520 -0.5304  0.8127
 5927SOL     OW29239   0.029   2.922   6.896 -0.5520 -0.0382  0.6325
 5927SOL    HW129240   4.670   2.962   6.874 -0.3973  0.1572  0.3901
 5927SOL    HW229241   0.045   2.854   6.831 -0.7605 -0.9493  1.5396
 5928SOL     OW29242   3.339   3.973   5.426  0.4154  0.1808 -0.0829
 5928SOL    HW129243   3.329   4.014   5.512 -0.9559 -0.8713  0.2474
 5928SOL    HW229244   3.271   4.013   5.372  0.7169 -1.1273 -1.4274
 5929SOL     OW29245   3.846   4.475  12.099 -0.1950  0.4711 -0.4256
 5929SOL    HW129246   3.934   4.510  12.083 -0.7890  1.3210 -1.7908
 5929SOL    HW229247   3.855   4.379  12.100 -0.1831  0.5095  2.2540
 5930SOL     OW29248   0.077   3.062   2.897  0.8259  0.1721  0.4120
 5930SOL    HW129249   4.716   3.065   2.857  0.8894 -1.2926  0.1517
 5930SOL    HW229250   0.120   3.124   2.837  1.0203 -0.8374 -0.4989
 5931SOL     OW29251   0.744   4.054   4.812  0.2421  0.2214 -0.3424
 5931SOL    HW129252   0.672   4.000   4.846  1.3974 -0.7922  0.5010
 5931SOL    HW229253   0.793   4.091   4.886  0.3894 -0.9869  0.1850
 5932SOL     OW29254   1.434   0.732   5.862 -0.6282  0.0034  0.4357
 5932SOL    HW129255   1.526   0.706   5.852 -0.8773 -0.2786 -1.1426
 5932SOL    HW229256   1.383   0.654   5.886  0.5849 -1.0745 -0.4669
 5933SOL     OW29257   4.154   1.932   1.039  0.3814  0.2203 -0.4858
 5933SOL    HW129258   4.207   2.009   1.017 -0.8263  1.5614  1.2511
 5933SOL    HW229259   4.180   1.929   1.131 -0.1504 -2.0344 -0.4236
 5934SOL     OW29260   3.938   4.625  17.361 -0.3495 -0.1495  0.1327
 5934SOL    HW129261   3.974   4.682  17.429  0.3016 -1.0347  0.5207
 5934SOL    HW229262   3.880   4.562  17.405 -0.4976 -1.3139 -1.7389
 5935SOL     OW29263   3.267   2.094  10.690 -0.2037  0.0781 -0.0331
 5935SOL    HW129264   3.339   2.097  10.627 -1.9761 -0.5148 -2.1198
 5935SOL    HW229265   3.298   2.160  10.751  1.1576 -0.7301  0.1504
 5936SOL     OW29266   2.383   0.234   3.180  0.6705 -0.0106  0.4636
 5936SOL    HW129267   2.290   0.251   3.195  0.0418 -0.9101 -2.4184
 5936SOL    HW229268   2.407   0.318   3.221  0.3281  0.0311  0.5813
 5937SOL     OW29269   4.341   0.917   9.428 -0.1845 -0.0640  0.2816
 5937SOL    HW129270   4.304   0.966   9.501  0.0875  0.1414  0.2845
 5937SOL    HW229271   4.408   0.872   9.480  0.6389 -1.3803 -1.9343
 5938SOL     OW29272   2.745   0.983   4.511  0.1671  0.1198 -0.1083
 5938SOL    HW129273   2.671   0.965   4.568  1.8395 -0.5156  1.8508
 5938SOL    HW229274   2.815   0.932   4.551 -0.2730  0.0719  0.5865
 5939SOL     OW29275   4.294   0.544   5.382  0.1134  0.3982  0.6740
 5939SOL    HW129276   4.338   0.471   5.338 -1.6480  2.2838 -4.2869
 5939SOL    HW229277   4.367   0.603   5.400  1.7472 -1.4659  0.1143
 5940SOL     OW29278   1.180   0.576   2.673 -0.4209 -0.1036  0.1918
 5940SOL    HW129279   1.205   0.644   2.610  2.7053  1.7456  3.5016
 5940SOL    HW229280   1.142   0.629   2.743 -1.1916 -2.4200  1.5174
 5941SOL     OW29281   3.372   2.867   7.004  0.2654  0.4269  0.3834
 5941SOL    HW129282   3.344   2.787   6.960 -1.3462 -0.0911  2.3669
 5941SOL    HW229283   3.328   2.851   7.087 -0.8681 -0.9198 -0.4863
 5942SOL     OW29284   3.493   1.124   5.592 -0.1401  0.0813 -0.4295
 5942SOL    HW129285   3.567   1.122   5.531  2.1504  3.2242  2.2357
 5942SOL    HW229286   3.528   1.091   5.674  1.2988  1.6206 -0.4239
 5943SOL     OW29287   2.448   4.278  16.715 -0.0974  0.3243 -0.0222
 5943SOL    HW129288   2.426   4.287  16.622  0.3479  0.3156 -0.1284
 5943SOL    HW229289   2.543   4.288  16.720 -0.1897  1.0846  0.2246
 5944SOL     OW29290   1.818   4.652  11.235 -0.0067 -0.2592  0.2485
 5944SOL    HW129291   1.891   4.653  11.298  1.1552 -2.5556 -1.0852
 5944SOL    HW229292   1.840   4.574  11.185  0.0174 -0.1880  0.1492
 5945SOL     OW29293   0.055   4.294  15.628  0.0300  0.4077  0.6231
 5945SOL    HW129294   0.013   4.330  15.706 -1.8529 -0.8935  0.2068
 5945SOL    HW229295   0.104   4.373  15.605  0.0301  0.0733 -0.5228
 5946SOL     OW29296   4.554   1.042   6.092 -0.1610  0.1384  0.5832
 5946SOL    HW129297   4.478   1.074   6.044  1.1026  2.2466  0.0016
 5946SOL    HW229298   4.607   1.121   6.090 -1.5153  1.0185 -0.6999
 5947SOL     OW29299   1.689   1.934   6.395  0.2016 -0.6732 -0.2041
 5947SOL    HW129300   1.696   1.884   6.477  1.0501  0.3121  0.3189
 5947SOL    HW229301   1.735   2.016   6.412 -1.2026 -0.4765  2.5450
 5948SOL     OW29302   3.377   2.529   8.816 -0.1158 -0.2581  0.3229
 5948SOL    HW129303   3.381   2.507   8.910  0.6692  2.2043  0.8688
 5948SOL    HW229304   3.368   2.623   8.834 -2.6386 -0.2584 -0.9557
 5949SOL     OW29305   3.516   1.337   8.863  0.0660 -0.0973  0.0753
 5949SOL    HW129306   3.471   1.422   8.865 -2.0329 -1.1857 -0.9951
 5949SOL    HW229307   3.562   1.339   8.779  1.7040  0.3851  0.9792
 5950SOL     OW29308   3.584   4.572   0.901 -0.4721 -0.1036 -0.2965
 5950SOL    HW129309   3.628   4.528   0.828 -0.7962 -2.3723  0.9099
 5950SOL    HW229310   3.500   4.589   0.858  0.7844  1.3321 -2.1903
 5951SOL     OW29311   3.791   3.758   4.664 -0.1980 -0.0663 -0.2061
 5951SOL    HW129312   3.884   3.776   4.653 -0.6887  1.5296 -1.6697
 5951SOL    HW229313   3.771   3.783   4.754  0.9134  1.1920 -0.3162
 5952SOL     OW29314   2.093   3.018   8.251  0.3600 -0.1229  0.3856
 5952SOL    HW129315   2.175   2.970   8.259  0.5877  0.2431  0.2678
 5952SOL    HW229316   2.134   3.103   8.236  1.2888 -0.7069 -0.3960
 5953SOL     OW29317   0.843   1.025   6.116 -0.5325 -0.2500  0.5133
 5953SOL    HW129318   0.848   1.117   6.089 -1.9890  0.5860  3.1016
 5953SOL    HW229319   0.920   0.989   6.071 -1.6217 -0.4987 -1.1526
 5954SOL     OW29320   0.529   0.990  16.272  0.0187 -0.1126 -0.8234
 5954SOL    HW129321   0.610   1.004  16.322 -0.5361  1.1623 -0.2937
 5954SOL    HW229322   0.549   0.897  16.259  1.1339  0.0858 -0.4892
 5955SOL     OW29323   2.011   2.144   7.639  0.1635 -0.1405  0.4728
 5955SOL    HW129324   2.004   2.225   7.588  0.1252 -0.6269 -0.3030
 5955SOL    HW229325   2.103   2.121   7.628  0.3357  0.5512  0.4297
 5956SOL     OW29326   0.163   2.540   5.706  0.0482 -0.4257  0.3859
 5956SOL    HW129327   0.218   2.479   5.755 -0.6638  0.3669  2.1488
 5956SOL    HW229328   0.211   2.558   5.625 -0.7122  0.7602  0.1895
 5957SOL     OW29329   1.911   1.487   4.578 -0.3907 -0.4313  1.0364
 5957SOL    HW129330   1.939   1.464   4.489  1.1657 -0.9194  1.6498
 5957SOL    HW229331   1.970   1.444   4.640 -0.8308  1.2944  2.6528
 5958SOL     OW29332   4.454   1.041   8.833 -0.1905 -0.2364  0.8253
 5958SOL    HW129333   4.515   0.968   8.825 -0.2613 -0.1898 -0.2630
 5958SOL    HW229334   4.433   1.042   8.926 -0.5016 -0.2107  0.7552
 5959SOL     OW29335   4.429   4.647   9.966 -0.5352 -0.1058 -0.7374
 5959SOL    HW129336   4.450   4.567  10.014 -1.6450  0.8110  1.2261
 5959SOL    HW229337   4.508   4.701   9.972 -0.4287 -0.2489 -0.8287
 5960SOL     OW29338   2.883   0.364  14.847  0.2797  0.2318  0.4948
 5960SOL    HW129339   2.898   0.355  14.941 -0.3791 -0.6436  0.5214
 5960SOL    HW229340   2.901   0.457  14.838 -0.6106  0.4565  1.0677
 5961SOL     OW29341   0.615   2.431   9.141 -0.3826 -0.1550 -0.0608
 5961SOL    HW129342   0.621   2.416   9.236 -0.2401 -0.4226 -0.1123
 5961SOL    HW229343   0.668   2.509   9.128  0.3277 -0.8788 -1.4063
 5962SOL     OW29344   3.323   1.610   9.077 -0.7956 -0.2419  0.3975
 5962SOL    HW129345   3.285   1.693   9.048 -1.7931  0.1767  2.9706
 5962SOL    HW229346   3.336   1.627   9.170 -3.2298  0.8534  0.5302
 5963SOL     OW29347   3.518   1.207   9.093  0.4547  0.6809 -0.3381
 5963SOL    HW129348   3.588   1.144   9.080 -1.7153 -1.9123  0.6322
 5963SOL    HW229349   3.515   1.249   9.007 -0.8287 -0.7093 -0.9650
 5964SOL     OW29350   4.052   3.176  17.105  0.4778  0.2979 -0.3712
 5964SOL    HW129351   4.015   3.162  17.018  0.8873 -0.2720 -0.4541
 5964SOL    HW229352   4.000   3.249  17.138 -0.0069 -0.2969  0.1820
 5965SOL     OW29353   2.957   4.603   7.826 -0.3419 -0.2498  0.2859
 5965SOL    HW129354   3.012   4.669   7.867 -0.1945 -2.4520  3.6083
 5965SOL    HW229355   3.010   4.525   7.808  1.0440  1.4170 -2.7647
 5966SOL     OW29356   2.074   2.815   3.171 -0.1179  0.6208 -0.7717
 5966SOL    HW129357   2.076   2.867   3.091 -1.4942  3.1764  0.8649
 5966SOL    HW229358   2.160   2.841   3.206 -0.1035 -1.6440  0.8585
 5967SOL     OW29359   0.076   2.501   2.987  0.6175 -0.0314  0.0674
 5967SOL    HW129360   4.716   2.479   3.022  0.6190 -1.0576 -0.5794
 5967SOL    HW229361   0.106   2.567   3.050  1.8611  0.4379 -0.9941
 5968SOL     OW29362   2.636   1.194   4.810  0.1497 -0.0245  0.3442
 5968SOL    HW129363   2.599   1.195   4.899 -0.6527 -0.4844  0.0133
 5968SOL    HW229364   2.712   1.139   4.826  2.4656  2.7631 -0.9775
 5969SOL     OW29365   0.679   0.116   9.070  0.4010  0.4556 -0.0545
 5969SOL    HW129366   0.592   0.077   9.078 -0.0493  1.6175  0.7294
 5969SOL    HW229367   0.656   0.195   9.118 -1.3414  0.0366 -0.1738
 5970SOL     OW29368   3.332   0.015   5.678  0.1923  0.3486 -0.2301
 5970SOL    HW129369   3.268   4.670   5.670 -0.7411  1.3022 -1.2038
 5970SOL    HW229370   3.363   0.026   5.588  0.0576 -0.5268 -0.3838
 5971SOL     OW29371   0.154   4.674  11.330  0.4009 -0.3643  0.0505
 5971SOL    HW129372   0.245   4.656  11.308 -0.4548 -1.2800 -2.7323
 5971SOL    HW229373   0.106   4.637  11.256  1.0981 -0.2950 -0.4348
 5972SOL     OW29374   1.471   0.810   3.712  0.2485  0.0364 -0.0267
 5972SOL    HW129375   1.475   0.817   3.617  1.8360  1.5188  0.1552
 5972SOL    HW229376   1.544   0.858   3.750  0.2727  0.5888 -0.7854
 5973SOL     OW29377   4.700   2.486  13.709 -0.1231 -0.2582  0.1814
 5973SOL    HW129378   4.647   2.472  13.631 -0.8221  0.6922  0.4913
 5973SOL    HW229379   0.064   2.481  13.677 -0.4893  0.0540 -0.8888
 5974SOL     OW29380   2.796   1.593   3.952 -0.0681  0.0050  0.3259
 5974SOL    HW129381   2.815   1.529   3.883  1.1648  0.1344  0.5409
 5974SOL    HW229382   2.836   1.540   4.021  1.6684  0.5465 -0.2644
 5975SOL     OW29383   0.018   2.899   4.962 -0.3218 -0.4487 -0.0379
 5975SOL    HW129384   0.046   2.825   5.017 -2.3861  0.5920  2.4367
 5975SOL    HW229385   4.677   2.940   5.017  0.6306  0.2468  0.6022
 5976SOL     OW29386   0.639   4.495  16.968  0.7571 -0.4185  0.4591
 5976SOL    HW129387   0.649   4.530  16.880  2.3899 -0.6314  0.5557
 5976SOL    HW229388   0.656   4.402  16.953  0.0007 -0.4142 -0.4061
 5977SOL     OW29389   1.452   0.501  10.276  0.6211  0.0700  0.1046
 5977SOL    HW129390   1.366   0.471  10.306  0.9816 -0.8668  0.1968
 5977SOL    HW229391   1.477   0.442  10.204 -0.3174  1.3564 -1.2598
 5978SOL     OW29392   2.764   3.055   5.283 -0.6817  0.3800 -0.4817
 5978SOL    HW129393   2.693   2.991   5.274 -1.4955  0.8332  2.6254
 5978SOL    HW229394   2.796   3.063   5.193 -0.7273  0.2372 -0.5104
 5979SOL     OW29395   3.805   1.464   5.434  0.1247 -0.3074 -0.0984
 5979SOL    HW129396   3.716   1.465   5.469  0.1628  1.1202 -0.0227
 5979SOL    HW229397   3.851   1.443   5.515  0.3771  1.3844  0.1918
 5980SOL     OW29398   0.178   0.754  16.068  0.1855 -0.4676  0.2860
 5980SOL    HW129399   0.204   0.800  16.148  0.3259 -0.7843  0.4214
 5980SOL    HW229400   0.266   0.752  16.030 -1.2198  1.9208 -3.1345
 5981SOL     OW29401   1.370   3.263   1.749  0.4434  0.2319 -0.0254
 5981SOL    HW129402   1.387   3.219   1.833 -0.9915 -0.4491 -0.0926
 5981SOL    HW229403   1.384   3.202   1.677  2.5590 -0.8102  1.2642
 5982SOL     OW29404   1.578   1.482   2.306  0.0145 -0.0697  0.3907
 5982SOL    HW129405   1.505   1.472   2.367 -0.9371  0.5839 -0.6550
 5982SOL    HW229406   1.563   1.423   2.233  1.7074  0.3420 -0.2921
 5983SOL     OW29407   2.515   4.012   9.294  0.1807 -0.1001  0.5157
 5983SOL    HW129408   2.424   4.041   9.286 -0.3722 -1.9276  0.1175
 5983SOL    HW229409   2.542   4.018   9.202  0.1218  0.3004  0.5233
 5984SOL     OW29410   1.750   1.010  17.580  0.3538 -0.1348  0.4284
 5984SOL    HW129411   1.692   1.071  17.535 -1.0743 -1.1361  0.8933
 5984SOL    HW229412   1.770   0.953  17.505 -1.2859  1.2998 -1.0720
 5985SOL     OW29413   0.354   0.505   8.411  0.2429  0.3987  0.0944
 5985SOL    HW129414   0.373   0.431   8.469  1.4171  1.5095  1.1173
 5985SOL    HW229415   0.428   0.564   8.421  0.0841  0.2645  2.0343
 5986SOL     OW29416   0.175   2.380  15.824 -0.0735  0.1591 -0.7354
 5986SOL    HW129417   0.098   2.331  15.795 -0.2972  0.5414 -0.7825
 5986SOL    HW229418   0.222   2.377  15.741  0.3874  0.3234 -0.4803
 5987SOL     OW29419   4.409   1.393   1.627 -0.1432  0.5616 -0.2809
 5987SOL    HW129420   4.451   1.453   1.566  0.4286 -0.5457 -0.9801
 5987SOL    HW229421   4.326   1.374   1.582 -0.9107  1.1259  0.9143
 5988SOL     OW29422   3.584   3.930  13.877  0.2395 -1.3244  0.0162
 5988SOL    HW129423   3.636   3.929  13.797 -0.9545 -0.3741 -0.7763
 5988SOL    HW229424   3.559   3.838  13.881 -1.4439 -0.9734 -2.8445
 5989SOL     OW29425   0.459   4.110   6.092  0.0093 -0.1881  0.7005
 5989SOL    HW129426   0.369   4.078   6.084  0.6340 -1.9647  0.7263
 5989SOL    HW229427   0.498   4.066   6.167  0.3145 -0.4258  0.4067
 5990SOL     OW29428   0.156   0.361   2.252 -0.3948 -0.1776  0.4763
 5990SOL    HW129429   0.230   0.300   2.256 -1.6270 -1.8024 -1.2804
 5990SOL    HW229430   0.190   0.447   2.229 -0.6462 -0.1840  0.0717
 5991SOL     OW29431   3.468   0.315  10.119 -0.4204 -0.3139 -0.5230
 5991SOL    HW129432   3.528   0.313  10.045  1.8189 -2.0125  1.3744
 5991SOL    HW229433   3.380   0.309  10.081 -0.5437  1.8399 -0.5831
 5992SOL     OW29434   0.417   3.653   0.125  0.2754 -0.3362  0.0823
 5992SOL    HW129435   0.502   3.620   0.154  1.1122  1.7770  0.0946
 5992SOL    HW229436   0.381   3.687   0.207  1.3681  0.5563  0.2069
 5993SOL     OW29437   2.946   2.777   2.539  0.3127 -0.2372 -0.4683
 5993SOL    HW129438   2.908   2.829   2.610 -2.1191 -1.3624 -0.9152
 5993SOL    HW229439   3.025   2.739   2.576  0.7706 -0.6284 -1.8516
 5994SOL     OW29440   4.604   1.500   2.859 -0.6271 -0.2450 -0.2687
 5994SOL    HW129441   4.602   1.433   2.928  0.6801 -0.0314 -0.0071
 5994SOL    HW229442   4.677   1.555   2.888  0.8205 -2.6350  0.6203
 5995SOL     OW29443   2.609   1.943   5.446  0.9641  0.4915  0.7870
 5995SOL    HW129444   2.661   1.984   5.376  0.0864 -0.3657 -0.3785
 5995SOL    HW229445   2.562   2.022   5.474  0.6636  0.2770  0.8810
 5996SOL     OW29446   0.033   0.040  13.212 -0.4010 -0.6331  0.3806
 5996SOL    HW129447   4.684   0.008  13.161 -1.3881 -0.5978  1.8015
 5996SOL    HW229448   0.094   0.058  13.141 -0.4707 -2.5108 -0.1648
 5997SOL     OW29449   4.705   4.382   2.078  0.3700  0.2676  0.0707
 5997SOL    HW129450   4.714   4.293   2.042 -1.6901  1.3975 -3.2725
 5997SOL    HW229451   4.625   4.399   2.028  0.2671  0.5016  0.3214
 5998SOL     OW29452   3.539   0.507   0.389 -0.1089  0.2046 -0.7995
 5998SOL    HW129453   3.629   0.485   0.363  0.4189  1.5795 -0.1220
 5998SOL    HW229454   3.513   0.570   0.322 -1.1861 -0.0537 -0.6125
 5999SOL     OW29455   2.608   0.807  10.401 -0.1639 -0.3133 -0.3427
 5999SOL    HW129456   2.700   0.828  10.382 -0.4549 -0.4550 -1.9104
 5999SOL    HW229457   2.623   0.743  10.470  0.0313 -1.5011 -1.4819
 6000SOL     OW29458   0.159   0.837   4.667  0.1485 -0.2425 -0.0456
 6000SOL    HW129459   0.191   0.755   4.705  2.0087 -0.9223 -3.0337
 6000SOL    HW229460   0.069   0.829   4.698 -0.4324  2.2957 -1.0224
 6001SOL     OW29461   3.656   3.514   1.159 -0.8678  0.3962 -0.1542
 6001SOL    HW129462   3.708   3.592   1.138  0.5219 -0.4052  0.2907
 6001SOL    HW229463   3.707   3.450   1.110  1.2267  1.6996  0.3076
 6002SOL     OW29464   3.101   0.249   6.548  0.0025 -0.1020  0.1624
 6002SOL    HW129465   3.033   0.315   6.563 -1.3462 -0.7280 -3.1753
 6002SOL    HW229466   3.072   0.181   6.609  0.5324  0.1543  0.7028
 6003SOL     OW29467   2.007   0.799   3.245  0.7217  0.3613  0.2840
 6003SOL    HW129468   2.003   0.790   3.340  1.1547 -0.6846  0.2081
 6003SOL    HW229469   1.959   0.881   3.239  1.5182  0.9175  1.5965
 6004SOL     OW29470   0.828   0.836  10.392 -0.0902 -0.3907 -0.6617
 6004SOL    HW129471   0.821   0.812  10.300 -0.3905  2.3889 -1.3622
 6004SOL    HW229472   0.917   0.872  10.398 -0.7495  1.1639 -0.1969
 6005SOL     OW29473   3.627   3.631   9.926 -0.2559 -0.2010  0.6810
 6005SOL    HW129474   3.564   3.703   9.929  0.9822  0.9176 -0.2884
 6005SOL    HW229475   3.641   3.625   9.831 -0.1116 -0.0568  0.6930
 6006SOL     OW29476   2.116   2.104   6.902 -0.6292  0.3541  0.4373
 6006SOL    HW129477   2.055   2.178   6.897 -1.3880 -0.3798 -1.1458
 6006SOL    HW229478   2.150   2.098   6.813  0.6232  0.3594  0.9269
 6007SOL     OW29479   2.268   2.412   3.427  0.2747  0.0070  0.2992
 6007SOL    HW129480   2.317   2.383   3.350 -1.5787 -2.3773  0.0491
 6007SOL    HW229481   2.325   2.485   3.453  1.6956 -0.3523 -1.7561
 6008SOL     OW29482   3.706   4.362  16.240 -0.3072  0.0639  0.7273
 6008SOL    HW129483   3.780   4.390  16.295 -1.3128  0.0276  2.0971
 6008SOL    HW229484   3.677   4.445  16.203  0.3394 -0.8366 -1.7386
 6009SOL     OW29485   0.272   2.128   5.324 -0.5451  0.3336  0.6689
 6009SOL    HW129486   0.252   2.212   5.365  0.8540  1.4591 -0.9544
 6009SOL    HW229487   0.247   2.058   5.384 -1.8395  0.0080 -0.2403
 6010SOL     OW29488   3.656   3.620  12.650  0.3737 -0.0555 -0.5688
 6010SOL    HW129489   3.602   3.693  12.679 -1.4098 -0.8529 -1.8081
 6010SOL    HW229490   3.652   3.566  12.729 -1.3817  2.5754  1.1440
 6011SOL     OW29491   4.447   0.073   5.299 -0.7059  0.1844 -0.1883
 6011SOL    HW129492   4.386   0.117   5.240 -0.7515 -0.1876 -0.4211
 6011SOL    HW229493   4.416   4.709   5.315  0.0578 -0.2519 -1.1491
 6012SOL     OW29494   0.147   2.812   3.565 -0.5593 -0.4129 -0.0903
 6012SOL    HW129495   0.162   2.818   3.659  1.2269  1.1781 -0.4697
 6012SOL    HW229496   0.062   2.769   3.572 -0.4091 -0.6066  0.5878
 6013SOL     OW29497   2.100   3.228   2.419 -0.2678 -0.1208 -0.1803
 6013SOL    HW129498   2.071   3.316   2.394 -0.6698  0.4640  2.3181
 6013SOL    HW229499   2.044   3.206   2.493 -1.7706  1.9885 -0.6898
 6014SOL     OW29500   0.249   2.736   5.983  0.6591  0.2355  0.3952
 6014SOL    HW129501   0.307   2.660   5.993 -3.1978 -3.0157 -2.2547
 6014SOL    HW229502   0.310   2.810   5.976  0.6189  0.5508  3.3140
 6015SOL     OW29503   0.734   2.882   4.489  0.1360 -0.2119  0.2588
 6015SOL    HW129504   0.645   2.851   4.472  0.6020 -0.5927 -1.4827
 6015SOL    HW229505   0.742   2.963   4.439 -1.2791 -2.0024 -2.8159
 6016SOL     OW29506   1.620   0.175   8.195  0.2247 -0.3744 -0.3470
 6016SOL    HW129507   1.568   0.214   8.265  0.3108 -0.0465 -0.4648
 6016SOL    HW229508   1.708   0.166   8.232  1.6027  0.7956 -3.2622
 6017SOL     OW29509   0.696   4.001   2.581 -0.3575 -0.6212 -0.0033
 6017SOL    HW129510   0.651   3.926   2.542  1.5889 -0.4390 -2.5580
 6017SOL    HW229511   0.751   4.030   2.508 -0.0221 -2.7060 -0.5646
 6018SOL     OW29512   0.119   0.203   6.001 -0.6832  0.0134  0.2435
 6018SOL    HW129513   0.076   0.281   6.036 -0.2664  0.4838 -0.2758
 6018SOL    HW229514   0.069   0.193   5.919 -1.9299  1.6292  0.8097
 6019SOL     OW29515   0.873   0.978  16.953  0.1847 -1.0530 -0.7014
 6019SOL    HW129516   0.866   0.912  16.883  0.7959  0.8508 -2.5778
 6019SOL    HW229517   0.928   0.931  17.015 -0.3230  0.4347  0.8729
 6020SOL     OW29518   3.186   0.130   2.126 -0.3050 -0.3493  0.0970
 6020SOL    HW129519   3.123   0.202   2.127 -1.2564 -1.1059 -4.2684
 6020SOL    HW229520   3.153   0.092   2.044 -0.1055  2.8777 -1.5046
 6021SOL     OW29521   0.324   0.826   2.515 -0.1564 -0.0589 -0.2971
 6021SOL    HW129522   0.362   0.771   2.447  1.3771  0.6782 -0.0338
 6021SOL    HW229523   0.361   0.781   2.591 -1.5763 -0.6716  0.0273
 6022SOL     OW29524   3.752   1.900   1.279 -0.2665  0.4185 -0.1062
 6022SOL    HW129525   3.801   1.860   1.350  1.1253  0.8413 -0.8443
 6022SOL    HW229526   3.661   1.888   1.307 -0.0158 -1.9483 -0.2797
 6023SOL     OW29527   1.880   3.470  14.660  0.1164  0.3225 -0.4526
 6023SOL    HW129528   1.792   3.491  14.692  1.0241  3.1124  0.2183
 6023SOL    HW229529   1.899   3.545  14.603 -2.1740  1.1252 -0.1809
 6024SOL     OW29530   3.736   3.605   6.011  0.0490  0.5812 -0.2219
 6024SOL    HW129531   3.732   3.512   5.988 -2.1794  0.3067  1.2661
 6024SOL    HW229532   3.643   3.626   6.019  0.0768  0.5722  0.0951
 6025SOL     OW29533   2.217   2.455   7.356  0.6166  0.4316 -0.1165
 6025SOL    HW129534   2.151   2.461   7.426 -1.9295  0.6510 -2.5208
 6025SOL    HW229535   2.262   2.539   7.356  0.4937  0.4967 -1.6477
 6026SOL     OW29536   2.560   1.515   4.122 -0.9007 -0.1349 -0.4644
 6026SOL    HW129537   2.555   1.593   4.067  0.6422 -1.0375 -1.8484
 6026SOL    HW229538   2.655   1.506   4.132 -1.0607 -1.6952 -0.4011
 6027SOL     OW29539   3.097   3.455   5.781 -0.1175  0.0137  0.8151
 6027SOL    HW129540   3.140   3.511   5.716  0.3539 -0.4246  0.7409
 6027SOL    HW229541   3.042   3.521   5.822  1.8079  0.9197  1.9622
 6028SOL     OW29542   4.472   2.700   4.933 -0.5311 -0.2139 -0.1838
 6028SOL    HW129543   4.421   2.771   4.895  0.4398  1.3053  1.3298
 6028SOL    HW229544   4.451   2.710   5.026 -0.7423 -1.3375 -0.1061
 6029SOL     OW29545   1.673   3.770   6.680 -0.4828 -0.2076 -0.1299
 6029SOL    HW129546   1.760   3.732   6.691 -0.6908  0.4520  3.8565
 6029SOL    HW229547   1.677   3.834   6.752  0.0559 -0.0754 -0.2795
 6030SOL     OW29548   0.148   1.437  14.930 -0.1528  0.2270  0.1176
 6030SOL    HW129549   0.216   1.406  14.870  0.4847  1.1368  0.3738
 6030SOL    HW229550   0.144   1.359  14.985 -2.3124  0.2245 -0.0495
 6031SOL     OW29551   4.358   3.017   9.056 -0.2563  0.4923  0.3136
 6031SOL    HW129552   4.341   2.961   9.131 -0.1723  0.9084  0.6461
 6031SOL    HW229553   4.367   2.958   8.981  0.8746 -0.8495  1.5047
 6032SOL     OW29554   0.539   3.041   2.314  0.0948 -0.0530 -0.2355
 6032SOL    HW129555   0.489   3.121   2.302  0.4172 -0.0906 -1.8988
 6032SOL    HW229556   0.505   2.984   2.244 -0.7748 -0.5922  0.6200
 6033SOL     OW29557   4.283   3.294   7.963 -0.1497 -0.5181 -0.6009
 6033SOL    HW129558   4.238   3.213   7.938 -1.0668 -0.3619  0.5120
 6033SOL    HW229559   4.262   3.294   8.057  2.1017  0.0192 -0.0947
 6034SOL     OW29560   0.420   2.528   6.058 -0.3480 -0.7888 -0.2150
 6034SOL    HW129561   0.465   2.570   6.131 -2.5222 -1.5607  1.5672
 6034SOL    HW229562   0.381   2.449   6.097 -1.7262 -0.4629 -0.9519
 6035SOL     OW29563   3.018   1.063   5.663  0.7500  0.1338  0.2309
 6035SOL    HW129564   2.993   1.073   5.755 -1.2325  1.1579 -0.4101
 6035SOL    HW229565   3.104   1.024   5.682 -0.3778 -2.7125 -0.6132
 6036SOL     OW29566   2.726   3.877   6.485 -0.0505 -0.5886 -0.6956
 6036SOL    HW129567   2.675   3.797   6.500  0.4078 -0.7179  0.1715
 6036SOL    HW229568   2.808   3.868   6.534  1.0794 -1.4946 -2.7397
 6037SOL     OW29569   2.793   1.049   7.469 -0.5687  0.2605  0.4458
 6037SOL    HW129570   2.707   1.025   7.504  0.3793 -0.8536  1.9672
 6037SOL    HW229571   2.809   0.970   7.419  0.2662  1.4275 -1.1521
 6038SOL     OW29572   3.597   0.949   0.301  0.2857 -0.2123 -0.5081
 6038SOL    HW129573   3.640   0.980   0.221  0.1745 -0.9781 -0.8629
 6038SOL    HW229574   3.648   0.978   0.376 -1.1214  0.8157  0.0603
 6039SOL     OW29575   4.026   1.502   3.348  0.3297 -1.0479  0.0889
 6039SOL    HW129576   4.015   1.547   3.432  0.1732 -0.9823  0.0312
 6039SOL    HW229577   3.968   1.426   3.356  0.0256 -0.4367  3.8094
 6040SOL     OW29578   4.289   3.646   4.839 -0.0431 -0.5187 -0.4373
 6040SOL    HW129579   4.262   3.556   4.859  0.4116 -0.7257 -0.7405
 6040SOL    HW229580   4.203   3.687   4.841  1.3915  2.5565 -1.6380
 6041SOL     OW29581   3.457   3.739  16.822  0.8276  0.1428 -0.1761
 6041SOL    HW129582   3.464   3.753  16.728  1.2813 -1.4502 -0.3931
 6041SOL    HW229583   3.397   3.665  16.828  0.0753  0.6336 -1.8371
 6042SOL     OW29584   2.857   1.841   3.972 -0.2530  0.2289 -0.3101
 6042SOL    HW129585   2.938   1.850   4.022 -1.0532  1.2514  0.7967
 6042SOL    HW229586   2.845   1.746   3.973  0.5977  0.1252 -0.1142
 6043SOL     OW29587   0.630   1.103   5.449 -0.3296  0.0074 -0.4602
 6043SOL    HW129588   0.626   1.024   5.504  2.7661  1.2876  1.6285
 6043SOL    HW229589   0.652   1.060   5.367 -2.9402 -0.9057 -0.6960
 6044SOL     OW29590   2.717   4.152   7.845  0.0551 -0.6026  0.0394
 6044SOL    HW129591   2.715   4.133   7.938 -3.8500 -2.4800 -0.4506
 6044SOL    HW229592   2.751   4.068   7.813 -1.6565 -0.8187 -1.2268
 6045SOL     OW29593   0.166   1.892   2.616  0.2519 -0.6220 -0.1930
 6045SOL    HW129594   0.117   1.894   2.698 -1.2105  0.7236 -1.0843
 6045SOL    HW229595   0.095   1.875   2.553  0.0569 -0.2622 -0.0687
 6046SOL     OW29596   3.971   2.471   3.009  0.3618 -0.4552  0.5662
 6046SOL    HW129597   3.879   2.483   2.986  1.1934  1.1387 -1.9530
 6046SOL    HW229598   3.979   2.390   3.060  0.7159 -1.2935 -0.8029
 6047SOL     OW29599   0.750   1.847  16.030  0.5186 -0.4435 -0.3456
 6047SOL    HW129600   0.753   1.882  16.120  0.7126  0.1319 -0.5716
 6047SOL    HW229601   0.838   1.865  15.995 -0.5055  0.8478 -2.2482
 6048SOL     OW29602   1.220   1.562   8.184 -0.1656 -0.3747 -0.0712
 6048SOL    HW129603   1.168   1.483   8.174 -0.5018 -0.5625  3.3484
 6048SOL    HW229604   1.271   1.542   8.263 -0.7883 -0.8122  0.2115
 6049SOL     OW29605   1.511   2.129   8.316 -0.0101 -0.1087 -0.4764
 6049SOL    HW129606   1.477   2.168   8.397 -0.6169 -0.3995 -0.5921
 6049SOL    HW229607   1.602   2.105   8.335 -0.1469 -0.1641  0.1109
 6050SOL     OW29608   0.252   4.213   7.602 -0.3849  0.4351  0.4664
 6050SOL    HW129609   0.157   4.202   7.598 -0.2883 -0.2089 -0.1549
 6050SOL    HW229610   0.266   4.233   7.694 -1.6372  3.6733 -0.0474
 6051SOL     OW29611   0.070   1.000   8.196  0.0203 -0.1428  0.3026
 6051SOL    HW129612   0.002   0.936   8.218 -1.0793  1.1962  0.7873
 6051SOL    HW229613   0.082   1.038   8.283  0.0179  0.7196 -0.0833
 6052SOL     OW29614   3.478   2.319   3.688 -0.5382 -0.3644  0.1123
 6052SOL    HW129615   3.395   2.303   3.733 -0.6472  1.4501  0.5872
 6052SOL    HW229616   3.475   2.415   3.688  0.3434 -0.3420 -2.4866
 6053SOL     OW29617   2.215   2.967   2.465 -0.3264 -0.1832 -0.4290
 6053SOL    HW129618   2.176   3.054   2.472 -0.8313 -0.6573  2.4272
 6053SOL    HW229619   2.224   2.947   2.558  2.0265 -0.4660 -0.7045
 6054SOL     OW29620   2.248   3.349   9.033 -0.3034 -0.6099 -0.3307
 6054SOL    HW129621   2.248   3.356   9.128  0.8437  0.2359 -0.3900
 6054SOL    HW229622   2.331   3.301   9.022 -0.5698 -1.7829  2.8333
 6055SOL     OW29623   0.961   1.477   5.644 -0.0199  0.0062  0.6416
 6055SOL    HW129624   0.902   1.405   5.666 -1.3687  0.6901 -0.6828
 6055SOL    HW229625   1.002   1.430   5.571 -0.3766  1.8477 -0.7336
 6056SOL     OW29626   3.999   0.973   3.640 -0.3770  0.0230 -0.1596
 6056SOL    HW129627   3.955   0.939   3.562 -0.7780 -2.1763  1.0311
 6056SOL    HW229628   4.060   0.905   3.668  0.3868  0.1954 -1.3669
 6057SOL     OW29629   4.506   2.869   8.880  0.5838 -0.2898 -0.1053
 6057SOL    HW129630   4.496   2.838   8.790  0.7630 -2.2338  0.5443
 6057SOL    HW229631   4.530   2.788   8.925  2.1146 -0.1456 -0.6706
 6058SOL     OW29632   3.233   0.845  10.740 -0.0343 -0.4376  0.6892
 6058SOL    HW129633   3.303   0.908  10.725 -0.8661  0.4774  0.6651
 6058SOL    HW229634   3.189   0.882  10.817  0.2833 -2.4756  1.8397
 6059SOL     OW29635   1.447   2.865   6.313 -0.3816  0.4696  0.2158
 6059SOL    HW129636   1.391   2.800   6.271  0.6022  0.3755 -0.9436
 6059SOL    HW229637   1.484   2.914   6.240  0.2008  0.6984  0.6668
 6060SOL     OW29638   1.657   1.392   0.592 -0.1902 -0.0015  0.3368
 6060SOL    HW129639   1.699   1.475   0.612  1.5400 -0.4403 -1.4407
 6060SOL    HW229640   1.731   1.351   0.547  0.8358 -0.2961  2.3112
 6061SOL     OW29641   0.652   1.371   6.424  0.2195  0.2006 -0.7069
 6061SOL    HW129642   0.710   1.309   6.468  0.9863  0.6677 -1.0644
 6061SOL    HW229643   0.599   1.305   6.379  1.5372 -0.6136 -1.0705
 6062SOL     OW29644   1.759   0.324   3.968 -0.1335  0.3923  0.1481
 6062SOL    HW129645   1.849   0.295   3.981  0.1727  0.6226 -1.5150
 6062SOL    HW229646   1.726   0.258   3.908 -2.3962  1.2172  0.5014
 6063SOL     OW29647   2.592   2.768   7.422  0.1798  0.0395  1.0265
 6063SOL    HW129648   2.582   2.793   7.514  1.0428 -0.5267  1.2686
 6063SOL    HW229649   2.540   2.831   7.371  0.7550 -1.1092 -0.9551
 6064SOL     OW29650   2.900   0.538   3.272  0.0026 -0.3246 -0.8040
 6064SOL    HW129651   2.930   0.593   3.345  0.0294 -1.3711 -0.0205
 6064SOL    HW229652   2.966   0.470   3.265 -0.5359 -0.8121 -1.1177
 6065SOL     OW29653   3.656   4.423   5.049  0.2192  0.4323 -0.0624
 6065SOL    HW129654   3.644   4.372   5.129 -0.5516 -2.0239 -1.7413
 6065SOL    HW229655   3.735   4.379   5.019  0.2871  0.5804 -0.1013
 6066SOL     OW29656   3.389   3.594   9.246 -0.1663 -0.1021  0.2100
 6066SOL    HW129657   3.468   3.648   9.246  1.8343 -3.0369 -0.0182
 6066SOL    HW229658   3.389   3.575   9.340 -0.0026  0.8167  0.3980
 6067SOL     OW29659   1.475   2.266   4.319 -0.0372  0.3323 -0.3950
 6067SOL    HW129660   1.543   2.306   4.265  0.9036  1.4494  1.5955
 6067SOL    HW229661   1.468   2.178   4.284 -0.9925 -0.5297  1.9351
 6068SOL     OW29662   4.354   0.586   0.530  0.1851 -0.1893 -0.3190
 6068SOL    HW129663   4.396   0.585   0.444 -1.4264 -0.6043 -1.0957
 6068SOL    HW229664   4.432   0.574   0.584 -1.4315  1.0510  2.2536
 6069SOL     OW29665   2.841   1.846   7.167  0.0674 -0.0403  0.1351
 6069SOL    HW129666   2.911   1.868   7.228 -0.0012 -0.6324  0.4207
 6069SOL    HW229667   2.777   1.908   7.204  1.0132  1.0571 -0.0445
 6070SOL     OW29668   4.083   3.306   6.038  0.2297  0.3831 -0.7556
 6070SOL    HW129669   3.988   3.299   6.036  0.1201  1.5901  0.1905
 6070SOL    HW229670   4.093   3.292   6.132 -0.5734 -0.0822 -0.7375
 6071SOL     OW29671   0.128   1.054   4.205  0.1643 -0.0039  0.1314
 6071SOL    HW129672   0.034   1.038   4.209 -0.0229  1.3639  1.1795
 6071SOL    HW229673   0.167   0.969   4.185 -2.3906 -0.7885 -1.4664
 6072SOL     OW29674   3.478   0.965   9.855  0.3280 -0.5805  0.7195
 6072SOL    HW129675   3.458   1.058   9.846 -0.7120 -0.8504  0.2874
 6072SOL    HW229676   3.504   0.948   9.764  1.1992 -1.5088  1.1339
 6073SOL     OW29677   2.658   3.504   2.038 -0.2295 -0.3015 -0.4005
 6073SOL    HW129678   2.675   3.466   1.952 -2.4391 -1.1478 -0.4552
 6073SOL    HW229679   2.620   3.424   2.074 -1.6856 -0.2653 -1.8888
 6074SOL     OW29680   2.495   3.224  10.068 -0.3545  0.2535  0.4725
 6074SOL    HW129681   2.558   3.240  10.137  2.2508 -1.7397 -1.4557
 6074SOL    HW229682   2.410   3.226  10.114  0.0949  0.9410  1.2583
 6075SOL     OW29683   4.596   2.254  13.040  0.6479  0.0857  0.3309
 6075SOL    HW129684   4.678   2.232  13.085 -0.0512  0.9086  2.0373
 6075SOL    HW229685   4.598   2.350  13.038  0.8984  0.0914  0.6856
 6076SOL     OW29686   1.425   0.207   9.450 -0.0387  0.2923  0.0742
 6076SOL    HW129687   1.470   0.204   9.366  2.6271  2.2183  1.4307
 6076SOL    HW229688   1.368   0.283   9.445  0.9398  1.0303  0.1082
 6077SOL     OW29689   2.869   3.527   5.407  0.5102 -0.1968 -0.0990
 6077SOL    HW129690   2.874   3.622   5.420  1.9811 -0.3552  0.5424
 6077SOL    HW229691   2.838   3.490   5.490 -0.2558  0.5543 -0.0505
 6078SOL     OW29692   0.036   3.979  11.963 -0.0970  0.1909 -0.1465
 6078SOL    HW129693   0.002   3.980  12.052 -0.6068 -1.2689 -0.3201
 6078SOL    HW229694   0.054   3.885  11.951  0.9939  0.2249  1.3090
 6079SOL     OW29695   3.177   0.150   9.428  0.1718  0.1641  0.2877
 6079SOL    HW129696   3.211   0.085   9.489 -1.7312 -0.2129  0.9235
 6079SOL    HW229697   3.244   0.143   9.360 -2.8644 -0.1828 -2.6568
 6080SOL     OW29698   2.416   1.514   4.938 -0.0403  0.2212  0.2924
 6080SOL    HW129699   2.393   1.604   4.915  0.3757  0.7236  1.8105
 6080SOL    HW229700   2.333   1.478   4.969 -0.1152 -0.0727 -0.2535
 6081SOL     OW29701   0.452   1.089  11.756 -0.2864  0.0716  0.2230
 6081SOL    HW129702   0.445   1.023  11.826 -1.6729 -0.6350 -0.6030
 6081SOL    HW229703   0.422   1.037  11.681  1.1184 -0.6638  0.1646
 6082SOL     OW29704   0.066   3.931  10.528  0.5394 -0.0669 -0.1916
 6082SOL    HW129705   0.035   3.847  10.492  0.5201 -1.4160  2.9621
 6082SOL    HW229706   0.116   3.967  10.454 -0.3470  2.0798  0.2795
 6083SOL     OW29707   3.289   0.140   1.334  0.0566 -0.2145 -0.5049
 6083SOL    HW129708   3.362   0.086   1.304 -1.4800 -1.0900 -2.6188
 6083SOL    HW229709   3.345   0.204   1.378  0.7979 -0.8130 -0.5654
 6084SOL     OW29710   2.914   0.396  11.903  0.4260 -0.3126 -0.5054
 6084SOL    HW129711   2.908   0.421  11.810 -0.9407 -1.0583 -0.6049
 6084SOL    HW229712   2.823   0.383  11.926  1.2468 -1.7426  1.9158
 6085SOL     OW29713   4.485   2.268   7.438 -0.0876 -0.1632  0.2571
 6085SOL    HW129714   4.390   2.282   7.447 -0.1251 -0.5816  0.5516
 6085SOL    HW229715   4.519   2.337   7.495  3.8609 -1.9854  0.0840
 6086SOL     OW29716   4.590   3.646   3.140  0.2821  0.0126 -0.1197
 6086SOL    HW129717   4.584   3.567   3.087 -0.0212  0.2937 -0.5071
 6086SOL    HW229718   4.584   3.613   3.230  0.7335 -2.0758 -0.8483
 6087SOL     OW29719   2.007   1.080   6.292  0.8081  0.3698 -0.0773
 6087SOL    HW129720   1.930   1.035   6.256  0.7153  0.8795 -0.5236
 6087SOL    HW229721   1.972   1.162   6.327 -2.4858 -0.4273 -1.4475
 6088SOL     OW29722   1.112   2.231   4.098 -0.2419  0.0781 -0.2461
 6088SOL    HW129723   1.062   2.279   4.033 -1.0206 -0.2593  0.1049
 6088SOL    HW229724   1.200   2.269   4.095 -0.8598  1.4512 -0.9141
 6089SOL     OW29725   0.678   0.729   4.443  0.9338  0.1385  0.5293
 6089SOL    HW129726   0.766   0.698   4.466  1.7524  2.3356  0.3810
 6089SOL    HW229727   0.671   0.726   4.347 -0.7816  0.6410  0.6474
 6090SOL     OW29728   2.363   2.865   4.842 -0.6785 -0.7733  0.3433
 6090SOL    HW129729   2.457   2.880   4.850 -0.2485 -3.4337  0.2020
 6090SOL    HW229730   2.358   2.791   4.781 -2.0363  0.0616 -0.5675
 6091SOL     OW29731   1.102   0.123  13.775 -0.4174 -0.0758 -0.1286
 6091SOL    HW129732   1.074   0.198  13.826 -3.7432 -1.1295 -0.4150
 6091SOL    HW229733   1.179   0.088  13.820  1.2916  2.8661 -0.7930
 6092SOL     OW29734   1.657   4.607  14.715  0.4435  0.5584 -0.4563
 6092SOL    HW129735   1.580   4.662  14.701 -1.2591 -0.8450  3.3924
 6092SOL    HW229736   1.661   4.566  14.801 -0.0485  1.0378 -0.2057
 6093SOL     OW29737   3.230   0.855   6.088 -0.4365  0.0843 -0.1347
 6093SOL    HW129738   3.298   0.896   6.141 -0.1489 -0.0174 -0.4291
 6093SOL    HW229739   3.248   0.761   6.098 -1.6023 -0.0147  1.1434
 6094SOL     OW29740   0.467   2.562   7.175 -0.5114 -0.4463 -0.0234
 6094SOL    HW129741   0.439   2.546   7.085  2.2973 -0.8265 -0.8011
 6094SOL    HW229742   0.403   2.512   7.227  1.5684 -2.1253  0.8946
 6095SOL     OW29743   1.850   0.343   2.416  0.3287 -0.2492 -0.0754
 6095SOL    HW129744   1.800   0.424   2.417 -1.8836 -1.6160  1.1054
 6095SOL    HW229745   1.778   0.280   2.427 -0.5424  0.4410 -1.7693
 6096SOL     OW29746   0.384   2.104  10.933  0.3876  0.5273 -0.2284
 6096SOL    HW129747   0.326   2.169  10.892 -2.5749 -0.4594  2.4222
 6096SOL    HW229748   0.321   2.032  10.935 -0.5964  1.4298  0.7867
 6097SOL     OW29749   1.856   4.393   9.017  0.6631  0.4164 -0.0390
 6097SOL    HW129750   1.947   4.388   8.987  0.8997  0.3654  0.6817
 6097SOL    HW229751   1.845   4.488   9.024 -0.1390  0.1799  2.0241
 6098SOL     OW29752   3.399   2.347   2.729 -0.5413  0.5510  0.2709
 6098SOL    HW129753   3.413   2.427   2.679  0.9461 -1.1867 -2.1265
 6098SOL    HW229754   3.408   2.371   2.821  0.1225 -0.5403  0.4891
 6099SOL     OW29755   4.266   1.562   3.218  0.1999 -0.7308 -0.2729
 6099SOL    HW129756   4.174   1.546   3.240 -0.4557  2.8382 -0.4307
 6099SOL    HW229757   4.286   1.472   3.192  1.3702 -0.8644  1.1100
 6100SOL     OW29758   2.019   1.692   9.079 -0.0120  0.5882  0.0539
 6100SOL    HW129759   1.978   1.746   9.147 -1.6696  1.8624 -1.9378
 6100SOL    HW229760   1.988   1.606   9.107 -0.9744 -0.1011 -3.0948
 6101SOL     OW29761   1.675   4.511   5.996 -0.7757  0.5119 -0.1179
 6101SOL    HW129762   1.631   4.577   6.049 -1.1189  0.3091 -0.1516
 6101SOL    HW229763   1.694   4.443   6.060 -1.0739  1.7465  1.2728
 6102SOL     OW29764   4.364   0.031   1.088  0.3941  0.9107 -0.6393
 6102SOL    HW129765   4.289   0.090   1.083 -0.0449  0.5425  1.6365
 6102SOL    HW229766   4.429   0.081   1.037  0.5713  0.8164 -0.5056
 6103SOL     OW29767   4.311   0.428   8.898 -0.1251  0.0372  0.2967
 6103SOL    HW129768   4.377   0.363   8.923 -1.2503 -0.4355  2.0332
 6103SOL    HW229769   4.263   0.442   8.980  1.3176  1.6091  0.8756
 6104SOL     OW29770   0.009   1.080  15.827  0.1551  0.0509  0.6734
 6104SOL    HW129771   4.655   1.080  15.880  0.1696  0.1328  0.6952
 6104SOL    HW229772   0.018   1.170  15.796 -4.6696  1.0229  2.1227
 6105SOL     OW29773   2.314   4.277   6.821  0.6420 -0.2012 -0.0746
 6105SOL    HW129774   2.403   4.263   6.854  1.3425 -1.9042 -2.6999
 6105SOL    HW229775   2.284   4.311   6.905  0.1240 -0.5778 -0.1093
 6106SOL     OW29776   2.687   0.115  10.477  0.2357 -0.2119  0.6061
 6106SOL    HW129777   2.683   0.095  10.571 -0.4462  0.9554  0.8202
 6106SOL    HW229778   2.771   0.162  10.474  0.6357 -0.8490  1.7637
 6107SOL     OW29779   3.786   1.295   6.975 -0.3594 -0.1575 -0.0919
 6107SOL    HW129780   3.696   1.311   6.947  0.2075 -1.3262 -2.5168
 6107SOL    HW229781   3.827   1.375   6.943 -0.6936  0.0564  0.0168
 6108SOL     OW29782   2.374   1.001   5.292 -0.3357 -0.8391 -0.1719
 6108SOL    HW129783   2.410   0.936   5.351 -0.8245  0.1955  1.2729
 6108SOL    HW229784   2.339   0.941   5.226 -1.4280  0.3349 -0.6826
 6109SOL     OW29785   2.267   1.793   6.317  0.3147  0.2798 -0.1645
 6109SOL    HW129786   2.273   1.806   6.412 -0.9779 -0.3500  0.0062
 6109SOL    HW229787   2.190   1.737   6.312  0.1860  0.4443 -0.0396
 6110SOL     OW29788   0.401   1.772  16.734 -0.3809  0.0952  0.3832
 6110SOL    HW129789   0.441   1.844  16.686  0.5675  1.1958  2.8054
 6110SOL    HW229790   0.484   1.728  16.754 -0.4212  0.1852  0.7495
 6111SOL     OW29791   3.998   0.372   8.798  0.1016  0.5949 -0.7098
 6111SOL    HW129792   3.967   0.456   8.762  1.4300  1.3036 -0.1761
 6111SOL    HW229793   4.088   0.373   8.765  0.2166  2.2281 -0.3623
 6112SOL     OW29794   1.213   0.491  13.557 -0.7957  0.2465 -0.1290
 6112SOL    HW129795   1.172   0.532  13.481 -3.4615 -0.2686  1.0414
 6112SOL    HW229796   1.218   0.399  13.530  0.3954  0.4029 -0.4273
 6113SOL     OW29797   0.389   1.795   3.309 -0.5857 -0.2638 -0.2040
 6113SOL    HW129798   0.323   1.829   3.369  1.0281 -1.3613  2.1638
 6113SOL    HW229799   0.468   1.801   3.362 -1.3867  2.7436  0.6757
 6114SOL     OW29800   3.401   1.218  13.737  0.0415  0.0248 -0.0500
 6114SOL    HW129801   3.471   1.207  13.672  0.8945  2.7509  0.3801
 6114SOL    HW229802   3.456   1.223  13.815  1.5423  0.1416 -1.1076
 6115SOL     OW29803   1.267   3.927  15.291 -0.4153 -0.4975  0.5339
 6115SOL    HW129804   1.196   3.917  15.228 -2.5669  1.0763  2.7145
 6115SOL    HW229805   1.336   3.949  15.228  0.9963 -0.8690  1.9450
 6116SOL     OW29806   1.550   3.576   4.830  0.2498  0.5991  0.0157
 6116SOL    HW129807   1.607   3.650   4.813  0.6072 -0.0915 -1.8362
 6116SOL    HW229808   1.474   3.613   4.785  0.0600  0.1052 -0.0757
 6117SOL     OW29809   2.748   1.622   6.428 -0.1529  0.2363 -0.4089
 6117SOL    HW129810   2.729   1.652   6.339  2.0556 -1.8446 -1.5762
 6117SOL    HW229811   2.663   1.636   6.469 -0.4510 -1.4097 -0.4368
 6118SOL     OW29812   0.766   0.813   2.940  0.2249 -0.3801  0.1687
 6118SOL    HW129813   0.844   0.811   2.885 -0.4701 -2.8964 -0.7081
 6118SOL    HW229814   0.731   0.731   2.906 -2.3156  0.8093 -0.1143
 6119SOL     OW29815   0.297   2.535   9.202  0.2669  0.0331 -0.3387
 6119SOL    HW129816   0.254   2.509   9.120 -0.1935 -0.1550 -0.0349
 6119SOL    HW229817   0.389   2.519   9.182 -0.0620 -1.6156 -0.5553
 6120SOL     OW29818   0.003   3.546   7.588 -0.6872 -0.0086  0.1188
 6120SOL    HW129819   0.031   3.459   7.615 -1.8456 -0.0481  1.1929
 6120SOL    HW229820   0.039   3.554   7.499  0.0485 -0.2566  0.3884
 6121SOL     OW29821   4.527   1.777  12.123 -0.1313 -0.3574  0.6797
 6121SOL    HW129822   4.434   1.799  12.127 -0.0159 -0.0763  2.0168
 6121SOL    HW229823   4.550   1.866  12.095 -0.0920 -0.1181  1.4714
 6122SOL     OW29824   3.041   3.406  13.445  0.2791 -0.1910  0.1871
 6122SOL    HW129825   2.947   3.393  13.432 -0.0452 -0.3013  2.6181
 6122SOL    HW229826   3.054   3.498  13.424 -0.3211  0.2835  1.8824
 6123SOL     OW29827   1.334   3.669   1.137  0.0033 -0.3272 -0.0620
 6123SOL    HW129828   1.289   3.704   1.214 -2.3676 -0.5246 -1.3569
 6123SOL    HW229829   1.294   3.729   1.073 -0.5818 -0.3379  0.2922
 6124SOL     OW29830   3.895   3.289   7.731 -0.1753 -0.3755 -0.4221
 6124SOL    HW129831   3.803   3.303   7.709 -0.2949 -0.5936 -0.0598
 6124SOL    HW229832   3.885   3.317   7.822  0.9361 -0.5691 -0.2473
 6125SOL     OW29833   0.562   3.676   4.099  0.2051  0.0681 -0.1160
 6125SOL    HW129834   0.493   3.725   4.054  0.6463 -0.4000 -1.3123
 6125SOL    HW229835   0.509   3.599   4.121 -0.6475  0.9061  0.7678
 6126SOL     OW29836   1.923   0.118   9.990  0.5931  0.5543  0.1042
 6126SOL    HW129837   1.844   0.148  10.034  0.7970  1.1202  0.0732
 6126SOL    HW229838   1.977   0.076  10.057 -0.7846 -0.3744  0.6335
 6127SOL     OW29839   3.718   1.114   7.209 -0.1489  0.2560  0.4016
 6127SOL    HW129840   3.748   1.170   7.137 -1.4110  0.3939 -0.0140
 6127SOL    HW229841   3.798   1.107   7.260  0.0976 -1.0488 -0.1839
 6128SOL     OW29842   1.667   4.182  11.071 -0.3010  0.0923  0.7473
 6128SOL    HW129843   1.702   4.244  11.008  3.1151 -2.7786 -0.1777
 6128SOL    HW229844   1.679   4.230  11.153  1.6052 -0.1970  0.6309
 6129SOL     OW29845   1.601   1.805  12.707 -0.1942 -0.1467  0.0280
 6129SOL    HW129846   1.646   1.846  12.781  1.0792 -2.1975  0.4076
 6129SOL    HW229847   1.529   1.762  12.753 -1.7777  0.7198 -1.6486
 6130SOL     OW29848   1.043   3.220  10.225  0.0695  0.5379 -0.2168
 6130SOL    HW129849   1.021   3.209  10.317  0.8526  0.6753 -0.0119
 6130SOL    HW229850   0.981   3.160  10.183  3.0529 -0.9013 -2.5409
 6131SOL     OW29851   2.788   2.738  11.227  0.0417 -0.8172  0.2663
 6131SOL    HW129852   2.878   2.738  11.192 -1.4230 -0.9341 -3.4881
 6131SOL    HW229853   2.803   2.765  11.318 -0.4061  1.5430 -0.3417
 6132SOL     OW29854   0.267   4.517   2.525  0.2596 -0.6721 -0.7659
 6132SOL    HW129855   0.355   4.529   2.561  0.1418  1.8447 -1.2586
 6132SOL    HW229856   0.241   4.608   2.509 -1.5841 -1.0768 -0.0114
 6133SOL     OW29857   4.406   2.530   4.203 -0.2232  0.3284  0.3400
 6133SOL    HW129858   4.468   2.593   4.239 -1.3995  0.4869  2.1105
 6133SOL    HW229859   4.435   2.507   4.115  2.7033  1.4780  1.0254
 6134SOL     OW29860   1.337   3.678   8.129 -0.1231  0.2406 -0.0576
 6134SOL    HW129861   1.315   3.770   8.118 -0.4478  0.1069 -0.5539
 6134SOL    HW229862   1.426   3.687   8.162  0.9076 -1.1002 -2.5109
 6135SOL     OW29863   3.409   1.896   1.173 -0.4169  0.2992 -0.0066
 6135SOL    HW129864   3.478   1.945   1.128 -0.4373  0.5674  0.2540
 6135SOL    HW229865   3.393   1.833   1.103  0.3235  1.9023 -1.6354
 6136SOL     OW29866   1.703   1.299   3.176 -0.3350 -0.4090 -0.5987
 6136SOL    HW129867   1.703   1.356   3.252  0.9507 -3.2651  1.5488
 6136SOL    HW229868   1.644   1.346   3.117 -0.2100 -2.1313 -2.0941
 6137SOL     OW29869   1.059   1.882  11.187  0.1865 -0.4379  0.5462
 6137SOL    HW129870   0.973   1.860  11.151 -0.2159  0.8662  0.6895
 6137SOL    HW229871   1.030   1.923  11.268  0.1798 -0.3605  0.5057
 6138SOL     OW29872   4.260   3.601   2.009  0.1333 -0.2752 -0.8044
 6138SOL    HW129873   4.339   3.558   2.043  0.8407  2.6186  1.2452
 6138SOL    HW229874   4.301   3.668   1.954  2.5747 -0.2171  1.0785
 6139SOL     OW29875   2.440   4.126  11.008 -0.1562 -0.0541  0.2714
 6139SOL    HW129876   2.383   4.151  10.935  1.0203  0.1851 -0.5533
 6139SOL    HW229877   2.483   4.043  10.990 -1.2171 -0.5198 -0.1703
 6140SOL     OW29878   0.123   4.540  13.585  0.1280  0.1913 -0.7189
 6140SOL    HW129879   0.196   4.514  13.528  1.5020  0.8222  0.7756
 6140SOL    HW229880   0.088   4.618  13.542 -2.3068  0.2506  1.3941
 6141SOL     OW29881   4.223   4.355   9.288  0.5173  0.0212 -0.2151
 6141SOL    HW129882   4.138   4.312   9.300  0.6725 -0.1162  0.4152
 6141SOL    HW229883   4.192   4.446   9.284  1.9611  0.4830 -0.8385
 6142SOL     OW29884   2.519   0.993   4.666 -0.2917 -0.8900  0.5445
 6142SOL    HW129885   2.518   1.045   4.585 -1.5031 -1.6647  0.0710
 6142SOL    HW229886   2.545   1.061   4.729  1.2424  0.4045 -1.4766
 6143SOL     OW29887   1.274   3.113   9.444  0.3526 -0.5063  0.2139
 6143SOL    HW129888   1.181   3.112   9.469 -0.8035  0.3383 -4.0267
 6143SOL    HW229889   1.263   3.197   9.400  0.2962 -0.7944 -0.3157
 6144SOL     OW29890   3.230   4.032   2.813  0.0888  0.0344  0.3274
 6144SOL    HW129891   3.252   3.971   2.743  0.7222 -1.5525  1.9241
 6144SOL    HW229892   3.232   4.116   2.766  0.5087 -1.3929 -2.2166
 6145SOL     OW29893   3.433   3.830   8.199  0.7446 -0.3016  0.2666
 6145SOL    HW129894   3.519   3.849   8.237  1.2796 -1.0348 -0.5903
 6145SOL    HW229895   3.432   3.890   8.125  0.7997  0.4407  0.8629
 6146SOL     OW29896   0.505   4.032   0.586 -0.5963 -0.2128  0.4952
 6146SOL    HW129897   0.426   4.012   0.636 -1.1064  0.5768  0.0142
 6146SOL    HW229898   0.555   4.089   0.645 -0.0958 -0.0907 -0.0463
 6147SOL     OW29899   0.476   3.888  11.336  0.2713  0.3632  0.3725
 6147SOL    HW129900   0.445   3.948  11.268 -0.6094 -3.2360 -2.4177
 6147SOL    HW229901   0.570   3.902  11.327 -0.0951  2.9300  0.6560
 6148SOL     OW29902   0.194   1.413   6.882  0.1936 -0.6344  0.3758
 6148SOL    HW129903   0.219   1.478   6.816  1.9358 -0.7820  0.8755
 6148SOL    HW229904   0.240   1.433   6.964 -0.8394  0.7290  0.6193
 6149SOL     OW29905   1.338   2.202   3.730  0.4624 -0.4264  0.0205
 6149SOL    HW129906   1.277   2.267   3.694  0.7164  0.6304  1.5089
 6149SOL    HW229907   1.427   2.224   3.702  0.1174 -0.1514 -0.8623
 6150SOL     OW29908   4.359   2.028   5.305 -0.1221 -0.1052  0.3024
 6150SOL    HW129909   4.285   1.975   5.336  2.1810 -2.8230  1.2394
 6150SOL    HW229910   4.424   1.957   5.312 -1.4113 -1.2240  0.9464
 6151SOL     OW29911   0.987   0.527  11.939 -0.0433 -0.7596  0.6677
 6151SOL    HW129912   0.898   0.545  11.970 -0.8826  0.5217 -2.4065
 6151SOL    HW229913   1.017   0.470  12.009  0.6631 -1.2096  0.0032
 6152SOL     OW29914   2.698   4.200   9.080  0.3562  0.1466 -0.0071
 6152SOL    HW129915   2.635   4.156   9.024 -1.1537  0.2480  1.6089
 6152SOL    HW229916   2.737   4.117   9.108 -1.4867 -0.5644  0.4506
 6153SOL     OW29917   2.894   3.851  12.343  0.0601  0.5114 -0.2792
 6153SOL    HW129918   2.946   3.889  12.272  3.0865 -0.8854  1.1904
 6153SOL    HW229919   2.948   3.894  12.410 -0.5964 -1.0540  1.2558
 6154SOL     OW29920   2.889   1.550   2.911 -0.3358  0.1352 -0.0468
 6154SOL    HW129921   2.975   1.563   2.952 -0.0127  0.0514 -0.6953
 6154SOL    HW229922   2.838   1.508   2.979 -0.4658 -2.3129 -1.6526
 6155SOL     OW29923   0.374   0.292   2.519  0.1332 -0.0961  0.0643
 6155SOL    HW129924   0.369   0.274   2.426  1.5207 -1.1100  0.1850
 6155SOL    HW229925   0.457   0.246   2.536  1.4275  2.1079 -0.2883
 6156SOL     OW29926   3.252   0.515   6.473 -0.2765  0.1899  0.3019
 6156SOL    HW129927   3.183   0.569   6.512 -1.1778  0.1372 -1.1988
 6156SOL    HW229928   3.233   0.436   6.523 -0.0035  0.2615  0.5198
 6157SOL     OW29929   3.772   0.302   1.313  0.1854 -0.3041  0.2281
 6157SOL    HW129930   3.823   0.378   1.343 -0.3796 -0.5843  1.8987
 6157SOL    HW229931   3.844   0.242   1.295  1.7519  1.7738 -0.4456
 6158SOL     OW29932   2.892   3.706   4.875 -0.4724 -0.1640  0.1030
 6158SOL    HW129933   2.853   3.653   4.944  0.4556 -1.0526 -0.0442
 6158SOL    HW229934   2.956   3.648   4.834 -0.0848 -1.0282  1.9261
 6159SOL     OW29935   2.225   1.548  16.969 -0.3510  0.2358  0.5430
 6159SOL    HW129936   2.133   1.536  16.992 -0.6344  0.6576 -0.3436
 6159SOL    HW229937   2.233   1.636  16.932 -1.4760 -0.0302 -0.3230
 6160SOL     OW29938   1.721   2.360   0.413 -0.7026  0.0079 -0.2469
 6160SOL    HW129939   1.668   2.397   0.343 -2.6571  1.1082  1.7957
 6160SOL    HW229940   1.768   2.293   0.364  1.2359  0.8985  0.3889
 6161SOL     OW29941   2.215   2.675  17.337 -0.6148  0.1715 -0.7441
 6161SOL    HW129942   2.131   2.711  17.365 -1.4764 -0.2514 -2.8145
 6161SOL    HW229943   2.175   2.628  17.264  3.8074 -5.1062  0.2671
 6162SOL     OW29944   3.286   4.220   6.154 -0.2424  0.3474 -0.2441
 6162SOL    HW129945   3.274   4.308   6.118  2.4818  1.9550  2.7902
 6162SOL    HW229946   3.298   4.168   6.074  0.1464  0.4363 -0.2430
 6163SOL     OW29947   3.364   3.392   1.696  0.0510 -0.1644  0.2820
 6163SOL    HW129948   3.355   3.316   1.639 -1.5154 -0.0621  0.4029
 6163SOL    HW229949   3.449   3.379   1.737  0.8017 -1.4719 -1.7156
 6164SOL     OW29950   0.099   2.688  12.576  0.9240 -0.4943 -0.5725
 6164SOL    HW129951   0.082   2.596  12.553  0.9591 -0.4893 -0.6194
 6164SOL    HW229952   0.009   2.718  12.562  0.2380 -1.8039  1.0955
 6165SOL     OW29953   4.260   3.145   4.121 -0.2147  0.2043  0.7374
 6165SOL    HW129954   4.179   3.165   4.073  0.7289  1.8522 -0.1909
 6165SOL    HW229955   4.253   3.192   4.204 -0.4189  1.1038  0.2075
 6166SOL     OW29956   0.760   3.511   2.242  0.3617 -0.1020 -0.6169
 6166SOL    HW129957   0.827   3.446   2.262 -1.4301 -1.5239  0.7271
 6166SOL    HW229958   0.739   3.483   2.153 -0.7307  0.3721 -0.5065
 6167SOL     OW29959   3.615   3.764  12.931  0.1905  0.1149 -0.1063
 6167SOL    HW129960   3.546   3.767  12.864  0.3689  0.6119 -0.2677
 6167SOL    HW229961   3.600   3.854  12.960  0.4801  0.6283 -1.5601
 6168SOL     OW29962   1.228   1.961   4.908 -0.1798 -0.5793 -0.0853
 6168SOL    HW129963   1.195   2.038   4.861 -1.3193 -0.8814  0.2342
 6168SOL    HW229964   1.274   1.997   4.984  0.7681 -1.3549 -0.2887
 6169SOL     OW29965   1.151   0.590   5.065  0.1886 -0.1328  0.0963
 6169SOL    HW129966   1.158   0.547   4.980  0.9318  0.0633  0.0567
 6169SOL    HW229967   1.203   0.668   5.044 -0.4238  0.1767 -0.2783
 6170SOL     OW29968   2.936   1.008   7.756 -0.2696 -0.1842  0.0665
 6170SOL    HW129969   2.976   0.962   7.682 -1.4106  0.9740 -1.2982
 6170SOL    HW229970   2.852   0.964   7.766 -0.8486  0.4988 -1.7963
 6171SOL     OW29971   1.110   4.370   4.757  0.2361  0.3232  0.1936
 6171SOL    HW129972   1.174   4.441   4.762 -1.2534  1.6956 -0.0977
 6171SOL    HW229973   1.087   4.374   4.664 -0.1568  0.9365  0.3151
 6172SOL     OW29974   2.763   4.136  10.043 -0.4980  0.0472  0.5871
 6172SOL    HW129975   2.707   4.081  10.098 -4.3798  1.0905 -2.3591
 6172SOL    HW229976   2.755   4.214  10.098  1.9552  0.5708  0.2008
 6173SOL     OW29977   3.350   0.808   2.464  0.5470  0.0145  0.2560
 6173SOL    HW129978   3.399   0.816   2.382  1.7936 -0.0993  0.9894
 6173SOL    HW229979   3.277   0.865   2.440  0.0539 -0.3178  0.9572
 6174SOL     OW29980   1.227   4.134   5.728 -0.0267 -0.1745 -0.3076
 6174SOL    HW129981   1.243   4.039   5.730  1.3433  0.0626  0.3655
 6174SOL    HW229982   1.136   4.137   5.702 -0.3579  1.1460  1.0374
 6175SOL     OW29983   1.633   3.835   4.988  0.1164 -0.0420 -0.8590
 6175SOL    HW129984   1.651   3.924   5.019  2.7127 -0.6696 -0.5149
 6175SOL    HW229985   1.675   3.773   5.048 -3.0282 -0.5013  0.8581
 6176SOL     OW29986   2.002   2.583   3.321  0.1774 -0.1248 -0.8543
 6176SOL    HW129987   1.912   2.561   3.297  0.0628 -0.1093 -0.4269
 6176SOL    HW229988   2.021   2.658   3.265  0.8765  0.3216 -0.0061
 6177SOL     OW29989   2.192   2.722   6.462 -0.4276 -0.5245  0.4709
 6177SOL    HW129990   2.193   2.763   6.375  0.4892  1.1575  1.2802
 6177SOL    HW229991   2.238   2.640   6.442  0.5387  0.3671 -1.0450
 6178SOL     OW29992   2.556   3.250   6.330 -0.7110 -0.3327  0.4869
 6178SOL    HW129993   2.610   3.249   6.409  0.0466  0.1500 -0.0195
 6178SOL    HW229994   2.489   3.314   6.352 -1.4525 -0.5269 -1.2233
 6179SOL     OW29995   4.657   1.123   3.761 -0.0040  0.1200 -0.6997
 6179SOL    HW129996   4.704   1.039   3.766 -0.1069 -0.0210 -2.2365
 6179SOL    HW229997   4.583   1.102   3.818  0.8515  1.7175  1.0081
 6180SOL     OW29998   2.490   2.086   8.686 -0.3501 -0.3505  0.2075
 6180SOL    HW129999   2.425   2.094   8.616 -1.5156  2.6426  1.6445
 6180SOL    HW230000   2.566   2.101   8.629 -0.4366  0.0152  0.1865
 6181SOL     OW30001   2.928   3.962   4.873 -0.7271 -0.5168 -0.2083
 6181SOL    HW130002   2.924   3.867   4.869  2.2931 -0.6909  0.6722
 6181SOL    HW230003   2.907   3.982   4.964 -1.2140  1.8524 -0.8295
 6182SOL     OW30004   1.771   0.480   8.432 -0.4945 -0.3940 -0.1947
 6182SOL    HW130005   1.734   0.558   8.391  2.2613  0.5700 -0.8353
 6182SOL    HW230006   1.734   0.485   8.521  0.8791  1.8947  0.2380
 6183SOL     OW30007   4.233   3.053   2.318  0.4863  0.0508 -0.0827
 6183SOL    HW130008   4.216   3.012   2.234 -1.0311  1.0052 -0.2532
 6183SOL    HW230009   4.151   3.029   2.362  1.1798  0.1980  1.3073
 6184SOL     OW30010   0.957   4.680   1.424  0.2527 -0.2710  0.0093
 6184SOL    HW130011   0.877   4.668   1.474  0.0920 -0.9581 -0.4240
 6184SOL    HW230012   1.017   4.618   1.466 -0.4319 -2.2115 -1.9342
 6185SOL     OW30013   3.211   1.114   9.705  0.0041 -0.6508 -0.4049
 6185SOL    HW130014   3.219   1.020   9.715 -2.0626 -0.7410  0.3946
 6185SOL    HW230015   3.195   1.136   9.612  1.2481  0.4525 -0.3568
 6186SOL     OW30016   3.197   1.890   3.190  0.0519  0.1988  0.1652
 6186SOL    HW130017   3.171   1.908   3.280 -0.4148 -2.2262  0.4863
 6186SOL    HW230018   3.285   1.855   3.208  0.2750 -0.0519 -1.3558
 6187SOL     OW30019   2.697   1.631   7.091  0.0478 -0.0510 -0.0575
 6187SOL    HW130020   2.642   1.615   7.168  1.2820 -1.6554  0.4827
 6187SOL    HW230021   2.752   1.706   7.114 -0.7715  1.4934 -3.0200
 6188SOL     OW30022   4.258   0.008   5.056 -0.5654 -0.5897  0.2896
 6188SOL    HW130023   4.238   0.093   5.095  1.7739 -1.1085  2.6424
 6188SOL    HW230024   4.333   0.041   5.006 -0.5135  0.3536  0.9860
 6189SOL     OW30025   1.101   3.094   1.992 -0.4225 -0.0053 -0.3527
 6189SOL    HW130026   1.081   3.076   1.900  0.4476 -2.5290 -0.0571
 6189SOL    HW230027   1.190   3.129   1.982 -0.5871  1.3276  2.8520
 6190SOL     OW30028   0.307   3.351   6.244  0.4777  0.1737 -0.3391
 6190SOL    HW130029   0.401   3.343   6.230  0.4502 -1.5954  0.5215
 6190SOL    HW230030   0.299   3.350   6.339  1.3961 -1.2219 -0.2759
 6191SOL     OW30031   1.137   0.776  12.874 -0.4496  0.0504 -0.2244
 6191SOL    HW130032   1.107   0.762  12.784  0.3060  0.5679 -0.5478
 6191SOL    HW230033   1.176   0.862  12.861  2.0258 -0.8280  1.4973
 6192SOL     OW30034   3.149   3.938  12.278  0.1351  0.8549 -0.0627
 6192SOL    HW130035   3.147   3.983  12.193 -0.3942  1.9159  0.5081
 6192SOL    HW230036   3.240   3.909  12.283  0.2752  1.3723  0.3136
 6193SOL     OW30037   2.380   4.490  16.224  0.3531 -0.0349  0.4184
 6193SOL    HW130038   2.460   4.521  16.266  1.8208 -0.6961 -1.9153
 6193SOL    HW230039   2.421   4.460  16.143 -1.6966  1.5873 -1.2313
 6194SOL     OW30040   1.606   3.047  13.724 -0.5414  0.6552  0.9752
 6194SOL    HW130041   1.600   3.134  13.683  0.4217 -0.4171 -1.4127
 6194SOL    HW230042   1.515   3.046  13.755 -1.2631  3.8607 -1.0004
 6195SOL     OW30043   0.982   0.741   7.614  0.3787 -0.1260  0.0937
 6195SOL    HW130044   0.966   0.659   7.567  0.1800  0.9308 -1.6818
 6195SOL    HW230045   0.987   0.703   7.702 -1.4752 -0.4769  0.0343
 6196SOL     OW30046   3.949   0.770   0.147  0.4504 -0.5021  0.3563
 6196SOL    HW130047   3.887   0.702   0.119 -1.2324  1.4213 -0.5461
 6196SOL    HW230048   4.001   0.792   0.070 -0.4772  2.3678  0.5594
 6197SOL     OW30049   3.874   2.834  15.149  0.0717  0.0532 -0.0970
 6197SOL    HW130050   3.940   2.822  15.080 -1.6828 -0.3472 -1.6837
 6197SOL    HW230051   3.925   2.881  15.216 -0.3109 -0.0412  0.2599
 6198SOL     OW30052   1.321   3.588  15.851  0.9184  0.4235 -0.2841
 6198SOL    HW130053   1.389   3.599  15.918  0.9947  1.5938 -0.5550
 6198SOL    HW230054   1.348   3.514  15.796 -0.9754 -0.0964 -0.4857
 6199SOL     OW30055   2.103   4.144   6.745 -0.6446 -0.1787  0.1140
 6199SOL    HW130056   2.181   4.196   6.761 -0.6727 -0.1518  0.1663
 6199SOL    HW230057   2.125   4.087   6.672  2.1790  0.1087  0.7626
 6200SOL     OW30058   3.436   2.930   9.906 -0.4732 -0.0601  0.4036
 6200SOL    HW130059   3.439   2.968   9.993  0.8494  0.4176  0.1425
 6200SOL    HW230060   3.362   2.978   9.869  0.2656  1.5582  1.0453
 6201SOL     OW30061   1.459   2.560   7.769 -0.0930 -0.4500  0.2470
 6201SOL    HW130062   1.430   2.481   7.724 -0.5072  0.1228 -0.4873
 6201SOL    HW230063   1.391   2.624   7.747 -0.1060 -0.4523  0.2813
 6202SOL     OW30064   0.406   3.447   2.602 -0.2831  0.2178 -0.1770
 6202SOL    HW130065   0.465   3.464   2.528 -1.8143 -0.1809 -1.4708
 6202SOL    HW230066   0.471   3.441   2.673 -1.7239 -0.9719  1.0469
 6203SOL     OW30067   1.838   3.306   6.327  0.4088 -0.0898 -0.0619
 6203SOL    HW130068   1.872   3.377   6.272  0.2253 -0.9833 -1.3443
 6203SOL    HW230069   1.867   3.227   6.282 -0.4739 -0.6505  0.3689
 6204SOL     OW30070   1.143   4.453   3.575  0.5572  1.0970  0.2228
 6204SOL    HW130071   1.234   4.455   3.548  0.6680 -0.4446  0.4870
 6204SOL    HW230072   1.151   4.427   3.667 -1.3802 -0.9024 -0.1755
 6205SOL     OW30073   2.442   3.170   3.321  0.5623  0.0931  0.1874
 6205SOL    HW130074   2.510   3.214   3.270 -0.3946 -0.9787 -2.0239
 6205SOL    HW230075   2.413   3.247   3.370  0.9688  1.5289 -1.8002
 6206SOL     OW30076   2.212   1.776   1.499 -0.2125  0.5678 -0.2021
 6206SOL    HW130077   2.126   1.807   1.526  0.1621 -1.6222  3.5401
 6206SOL    HW230078   2.187   1.731   1.418 -1.6661  0.6662  0.1971
 6207SOL     OW30079   4.241   4.621  10.269 -0.0294 -0.2007 -0.0890
 6207SOL    HW130080   4.241   4.675  10.190 -2.6948 -1.7079 -1.1344
 6207SOL    HW230081   4.168   4.563  10.245 -1.3409  1.6196 -0.5137
 6208SOL     OW30082   1.348   1.683   8.811  0.0476  0.1052 -0.1163
 6208SOL    HW130083   1.346   1.776   8.831 -0.5325  0.1335 -0.2929
 6208SOL    HW230084   1.435   1.675   8.772 -1.3413  1.5186 -3.4718
 6209SOL     OW30085   0.583   3.431   8.770 -0.0129  0.0884 -0.0581
 6209SOL    HW130086   0.623   3.439   8.684  0.7562 -0.0575  0.2812
 6209SOL    HW230087   0.553   3.341   8.759  1.7150 -0.5035  0.0789
 6210SOL     OW30088   4.093   2.964   0.305 -0.1531 -0.1614  0.3901
 6210SOL    HW130089   4.039   2.886   0.295  1.2466 -0.7879 -2.2542
 6210SOL    HW230090   4.100   2.985   0.212 -2.5504 -0.1529  0.2046
 6211SOL     OW30091   1.480   4.349  16.488 -0.3852  0.0971 -0.5781
 6211SOL    HW130092   1.420   4.394  16.430 -0.2354  0.5827 -0.3531
 6211SOL    HW230093   1.433   4.351  16.571  0.8843 -2.4176  0.2102
 6212SOL     OW30094   4.154   4.535   1.441 -0.0419  0.0137 -0.2059
 6212SOL    HW130095   4.065   4.528   1.407  0.6023  2.8011 -2.4961
 6212SOL    HW230096   4.193   4.451   1.417  2.0548  0.8426  0.3106
 6213SOL     OW30097   1.713   0.739   6.847  0.0364 -0.1016  0.5895
 6213SOL    HW130098   1.716   0.662   6.790 -0.8574  0.5082 -0.2859
 6213SOL    HW230099   1.795   0.718   6.892  0.7593  2.2740  0.3956
 6214SOL     OW30100   4.709   1.446   4.802  0.1665 -0.0044  0.1765
 6214SOL    HW130101   0.069   1.458   4.760  1.4813 -3.8581  1.7574
 6214SOL    HW230102   0.012   1.443   4.894  1.1554 -6.1799 -0.3307
 6215SOL     OW30103   3.587   2.075   9.349 -0.4419  0.4199  0.1472
 6215SOL    HW130104   3.516   2.119   9.396  0.6797  0.5452  1.7077
 6215SOL    HW230105   3.658   2.101   9.407 -0.4126 -0.9867  0.7234
 6216SOL     OW30106   2.807   0.257   8.024  0.0003 -0.1299 -0.2107
 6216SOL    HW130107   2.717   0.223   8.020  0.6280 -1.6398 -1.1799
 6216SOL    HW230108   2.799   0.345   7.986 -0.2069 -0.9088 -1.9483
 6217SOL     OW30109   4.628   0.798   6.013 -0.8883  0.1245  0.3386
 6217SOL    HW130110   4.594   0.797   5.923  0.6981 -1.3461 -0.2395
 6217SOL    HW230111   4.602   0.890   6.025  2.2138  0.8687  1.2438
 6218SOL     OW30112   3.940   1.317   0.123 -0.4905 -0.6200  0.3195
 6218SOL    HW130113   4.012   1.267   0.163 -0.1601 -1.5607 -1.4570
 6218SOL    HW230114   3.982   1.381   0.066 -0.3501 -0.2426  0.8395
 6219SOL     OW30115   3.478   0.132  10.366 -0.6185  0.0756 -0.8328
 6219SOL    HW130116   3.455   0.220  10.337 -2.7529  0.1323  1.0796
 6219SOL    HW230117   3.522   0.108  10.284  0.7055 -0.4279  0.0265
 6220SOL     OW30118   1.399   3.851   0.282 -0.1118  0.0657 -0.2246
 6220SOL    HW130119   1.457   3.927   0.270 -0.1864 -0.1286 -1.7829
 6220SOL    HW230120   1.322   3.877   0.233 -0.3967  0.1458  0.2649
 6221SOL     OW30121   0.976   2.785   2.386 -0.4138  0.2527 -0.1110
 6221SOL    HW130122   0.909   2.795   2.319 -0.5175  1.4246  0.1652
 6221SOL    HW230123   0.918   2.757   2.456 -2.1239  0.1745 -1.5818
 6222SOL     OW30124   1.351   0.745  15.448 -0.0745 -0.1603  0.1276
 6222SOL    HW130125   1.300   0.818  15.413  1.1304  0.8149  0.3846
 6222SOL    HW230126   1.313   0.674  15.397 -0.9606 -0.4332  1.1894
 6223SOL     OW30127   1.705   0.198   6.057 -0.2504 -0.3771  0.0757
 6223SOL    HW130128   1.674   0.256   6.126 -1.6031 -0.5943 -0.3546
 6223SOL    HW230129   1.652   0.121   6.078  0.9001 -1.1009  0.3174
 6224SOL     OW30130   2.503   4.312   2.616 -0.0371  0.7378  0.1347
 6224SOL    HW130131   2.500   4.405   2.592  1.9058  0.4954 -1.0763
 6224SOL    HW230132   2.469   4.311   2.705 -1.0708  0.2967 -0.2626
 6225SOL     OW30133   2.741   0.936   9.182  0.4175 -0.5757  0.4785
 6225SOL    HW130134   2.683   0.967   9.252  0.2959  0.2638  0.0084
 6225SOL    HW230135   2.693   0.959   9.102 -0.5385  1.0497  1.5086
 6226SOL     OW30136   2.589   3.752   9.033 -0.2188 -0.0941 -0.1238
 6226SOL    HW130137   2.620   3.700   8.960  0.1851 -0.8396  0.5765
 6226SOL    HW230138   2.573   3.691   9.106 -0.8382 -1.2544 -1.2253
 6227SOL     OW30139   2.199   3.525  12.783 -0.1190 -0.1608  0.0806
 6227SOL    HW130140   2.294   3.511  12.784 -0.4499 -1.9623  3.6305
 6227SOL    HW230141   2.166   3.438  12.763  1.5225 -0.9370  0.7455
 6228SOL     OW30142   0.330   1.187   3.196  0.1809  0.0392 -0.7510
 6228SOL    HW130143   0.407   1.238   3.224  0.2471 -1.8282  2.5051
 6228SOL    HW230144   0.329   1.197   3.101 -3.3671 -0.8578 -0.8144
 6229SOL     OW30145   0.534   4.161  10.778 -0.0925  0.4018 -0.1511
 6229SOL    HW130146   0.468   4.229  10.790  0.1124  0.5199  0.3050
 6229SOL    HW230147   0.493   4.092  10.829  1.5910 -0.8122 -0.4312
 6230SOL     OW30148   2.978   0.957   8.257 -0.1654  0.2890  0.1545
 6230SOL    HW130149   3.066   0.958   8.220  1.1209 -0.9984  3.2252
 6230SOL    HW230150   2.977   1.034   8.314  0.9735 -1.0118  1.9052
 6231SOL     OW30151   3.225   4.347   2.871 -0.4973  0.4735  0.3870
 6231SOL    HW130152   3.269   4.431   2.859  0.6560 -0.1210  0.4149
 6231SOL    HW230153   3.150   4.365   2.815  1.0600  0.2315 -1.8012
 6232SOL     OW30154   3.351   3.530   1.987 -0.7786 -0.8290  0.3422
 6232SOL    HW130155   3.361   3.582   1.907  3.0495 -0.7395  0.8730
 6232SOL    HW230156   3.426   3.471   1.977 -1.0137 -0.7176 -2.0453
 6233SOL     OW30157   1.661   3.546   1.736  0.7758  0.9965  0.6305
 6233SOL    HW130158   1.659   3.640   1.754  0.0330  1.0765  0.1434
 6233SOL    HW230159   1.589   3.537   1.673  1.2693  2.4649 -0.1464
 6234SOL     OW30160   1.415   0.491   1.743  0.0581  0.3301 -0.2249
 6234SOL    HW130161   1.405   0.423   1.675 -1.8141  0.4622 -0.0633
 6234SOL    HW230162   1.355   0.558   1.710 -0.2845  0.4259  0.6076
 6235SOL     OW30163   4.036   4.129   5.710  0.1268 -0.6984 -0.3835
 6235SOL    HW130164   3.995   4.179   5.781 -0.0704 -0.4249 -0.6877
 6235SOL    HW230165   3.972   4.152   5.643 -3.0908 -0.0460  2.9163
 6236SOL     OW30166   2.750   1.339   5.225 -0.3273 -0.1835 -0.2162
 6236SOL    HW130167   2.781   1.360   5.313 -1.6402 -1.0798  0.4712
 6236SOL    HW230168   2.710   1.418   5.187  2.2095  1.0562 -0.2919
 6237SOL     OW30169   2.045   4.494   9.302  0.2233  0.6177 -0.2367
 6237SOL    HW130170   2.059   4.581   9.265  1.2721  1.1103  1.3131
 6237SOL    HW230171   1.971   4.514   9.359  0.9161 -0.3483  0.9934
 6238SOL     OW30172   3.595   2.149   9.079  0.5590  0.0563 -0.5122
 6238SOL    HW130173   3.583   2.119   9.169 -1.3998  0.1854 -0.7281
 6238SOL    HW230174   3.613   2.067   9.033  0.0957 -0.2765 -0.1015
 6239SOL     OW30175   4.278   1.908   6.392 -0.0917  0.0480  0.4593
 6239SOL    HW130176   4.327   1.962   6.330 -0.5020 -0.7405 -0.5357
 6239SOL    HW230177   4.267   1.968   6.466 -4.8383 -0.7133  0.3603
 6240SOL     OW30178   0.267   4.198   9.175 -0.6006  0.6045  0.0124
 6240SOL    HW130179   0.323   4.155   9.240  0.8875  0.2329 -1.5103
 6240SOL    HW230180   0.331   4.237   9.116  0.1578  0.7324  0.9307
 6241SOL     OW30181   4.174   4.640   8.891  0.1214  0.3356  0.5563
 6241SOL    HW130182   4.123   4.592   8.826  0.9062  1.5647 -0.9905
 6241SOL    HW230183   4.111   4.698   8.933  1.3668  0.5206  2.1522
 6242SOL     OW30184   1.471   1.997   8.106 -0.2115 -0.0801 -0.4093
 6242SOL    HW130185   1.431   1.940   8.172 -0.7518  0.6549 -0.1088
 6242SOL    HW230186   1.507   2.061   8.166 -0.5697 -1.5341  1.3522
 6243SOL     OW30187   1.152   3.241   7.574 -0.3520  0.1883 -0.4578
 6243SOL    HW130188   1.196   3.280   7.649  1.1889 -2.2134 -0.0987
 6243SOL    HW230189   1.061   3.265   7.590 -0.4754  1.6240 -3.2364
 6244SOL     OW30190   3.107   1.532   0.045  0.3047  0.1753 -0.0238
 6244SOL    HW130191   3.077   1.449   0.083  2.1083  0.1604  1.3365
 6244SOL    HW230192   3.193   1.546   0.084 -0.4994  0.3754  1.6714
 6245SOL     OW30193   1.986   3.549   4.706  0.4066 -0.3591  0.9614
 6245SOL    HW130194   1.978   3.461   4.743 -1.4730 -0.6465 -0.1087
 6245SOL    HW230195   2.060   3.584   4.754  0.7761  1.9372 -1.2798
 6246SOL     OW30196   2.148   3.664   1.171 -0.1008  0.1818 -0.0431
 6246SOL    HW130197   2.079   3.682   1.235  0.6141 -0.5368  0.9333
 6246SOL    HW230198   2.215   3.647   1.237 -0.7458  0.6814  0.7359
 6247SOL     OW30199   1.740   1.380  15.206 -0.6640  0.2916  0.1110
 6247SOL    HW130200   1.737   1.287  15.228  0.7099 -0.1095 -1.4250
 6247SOL    HW230201   1.725   1.378  15.112 -1.1047 -2.3220  0.2434
 6248SOL     OW30202   1.441   0.705  11.494 -0.1406 -0.3228 -0.0098
 6248SOL    HW130203   1.405   0.679  11.410 -2.4175  1.9967  0.2748
 6248SOL    HW230204   1.512   0.760  11.461 -1.3022 -0.6597 -2.9861
 6249SOL     OW30205   1.825   1.594   2.928 -0.5072 -0.2545 -0.1525
 6249SOL    HW130206   1.744   1.631   2.893 -0.2772  0.1086 -0.2998
 6249SOL    HW230207   1.836   1.521   2.866 -3.4994 -0.2913 -0.5982
 6250SOL     OW30208   1.445   3.262  12.358  0.6525 -0.0404 -0.0717
 6250SOL    HW130209   1.381   3.287  12.425 -0.0572 -1.4037 -0.2444
 6250SOL    HW230210   1.479   3.180  12.394  0.3692  0.9734  2.5767
 6251SOL     OW30211   1.329   3.200   3.914  0.2436 -0.0638 -0.2280
 6251SOL    HW130212   1.293   3.251   3.987 -1.2498 -0.1465 -0.8983
 6251SOL    HW230213   1.365   3.122   3.957 -1.7510 -0.2452  1.1338
 6252SOL     OW30214   0.957   0.253   5.105 -0.2719  0.6342  0.4067
 6252SOL    HW130215   0.942   0.284   5.016  0.9400 -0.7517 -0.2914
 6252SOL    HW230216   0.885   0.301   5.145 -1.5741 -1.7714  0.8970
 6253SOL     OW30217   0.501   4.622   4.563  0.0491 -0.3313  0.4772
 6253SOL    HW130218   0.539   4.568   4.494  0.4255  0.0165  0.4117
 6253SOL    HW230219   0.485   4.562   4.636  1.9079 -0.2873  0.9167
 6254SOL     OW30220   2.767   1.111   8.552  0.1938  0.0414  0.5961
 6254SOL    HW130221   2.858   1.100   8.581  0.3300  1.0074  0.5259
 6254SOL    HW230222   2.764   1.200   8.519  0.0174 -0.2713 -0.2320
 6255SOL     OW30223   1.451   2.237   8.645  0.1679 -0.0506 -0.5994
 6255SOL    HW130224   1.537   2.207   8.614  0.0278  0.2511 -1.2753
 6255SOL    HW230225   1.479   2.300   8.712  0.2903  0.6790 -1.3340
 6256SOL     OW30226   0.911   3.090   6.777 -0.4980  0.1715 -0.3228
 6256SOL    HW130227   0.929   3.062   6.867 -0.1869  3.3739  0.6312
 6256SOL    HW230228   0.835   3.148   6.784 -2.6813 -2.7204  0.0539
 6257SOL     OW30229   1.616   2.349  13.730 -0.4296  0.5958  0.1445
 6257SOL    HW130230   1.571   2.374  13.811  0.9165 -0.4758  1.2317
 6257SOL    HW230231   1.703   2.382  13.755  0.4989 -1.1599 -0.7601
 6258SOL     OW30232   1.607   3.882   3.445  0.3114 -0.1409  0.5838
 6258SOL    HW130233   1.688   3.831   3.444 -0.7585 -1.7719 -1.0817
 6258SOL    HW230234   1.608   3.918   3.534  0.1792  1.3109  0.0061
 6259SOL     OW30235   1.280   0.401   5.332  0.0449 -0.3440 -0.0004
 6259SOL    HW130236   1.262   0.340   5.261 -1.1413  2.0457 -1.7819
 6259SOL    HW230237   1.375   0.404   5.325 -0.0169  0.0144 -0.6958
 6260SOL     OW30238   2.569   3.924   2.725  0.1891  0.1254 -0.1152
 6260SOL    HW130239   2.579   3.966   2.811  1.8312 -0.0296 -0.2235
 6260SOL    HW230240   2.618   3.990   2.677 -0.6275 -0.0734 -1.2086
 6261SOL     OW30241   1.231   4.527  11.053  0.7194 -0.9612 -0.4255
 6261SOL    HW130242   1.291   4.573  10.995  1.8744 -1.6776  0.2054
 6261SOL    HW230243   1.153   4.580  11.037  2.5136  1.8421  0.0946
 6262SOL     OW30244   1.822   2.616   8.771 -0.1508 -0.9460  0.4660
 6262SOL    HW130245   1.797   2.541   8.824 -0.6940 -0.5904  0.7128
 6262SOL    HW230246   1.901   2.575   8.736  0.1105 -0.1723  0.1485
 6263SOL     OW30247   3.810   2.665   9.244 -0.1738  0.2743  0.5700
 6263SOL    HW130248   3.737   2.715   9.279 -0.6871 -0.8552  1.1186
 6263SOL    HW230249   3.766   2.585   9.214  1.7795  0.0198 -1.6802
 6264SOL     OW30250   4.560   4.322  12.942  0.0475 -0.9269 -0.2155
 6264SOL    HW130251   4.502   4.330  12.867  0.0601 -0.3482 -0.1571
 6264SOL    HW230252   4.507   4.321  13.022 -2.0759  1.2528 -1.6106
 6265SOL     OW30253   2.292   3.194  16.977 -0.8772 -0.4128  0.6668
 6265SOL    HW130254   2.244   3.150  16.908  0.2980 -0.8118  0.1035
 6265SOL    HW230255   2.220   3.200  17.040 -1.4497 -2.6290  0.1954
 6266SOL     OW30256   3.931   4.373   5.028  0.2069 -0.1532 -0.0087
 6266SOL    HW130257   3.957   4.456   4.988 -1.6552  0.6856  0.5036
 6266SOL    HW230258   3.985   4.309   4.981  0.7713 -1.2116  2.0774
 6267SOL     OW30259   3.773   3.754   2.070 -0.1825 -0.6967 -0.4384
 6267SOL    HW130260   3.745   3.674   2.115  0.3064 -1.3971 -1.3926
 6267SOL    HW230261   3.864   3.729   2.054  0.4000  0.9408  0.2549
 6268SOL     OW30262   1.617   0.031  14.012 -0.0152 -0.5394  0.0631
 6268SOL    HW130263   1.547   0.091  13.984  1.8482  1.1833 -0.8339
 6268SOL    HW230264   1.692   0.066  13.965  0.7158 -1.1255  0.8046
 6269SOL     OW30265   4.433   1.913   4.248 -0.0045  0.3804 -0.2172
 6269SOL    HW130266   4.497   1.979   4.274 -0.3535  1.2334 -1.5176
 6269SOL    HW230267   4.377   1.900   4.324  0.3909 -1.3961 -0.2256
 6270SOL     OW30268   4.644   3.811   5.348 -0.5870  0.2406 -0.1188
 6270SOL    HW130269   4.565   3.862   5.330  0.5280  0.6973 -3.6364
 6270SOL    HW230270   4.683   3.859   5.421  0.1111 -2.0238  1.0252
 6271SOL     OW30271   3.046   2.784  15.744 -0.5774 -0.4134  0.4561
 6271SOL    HW130272   3.087   2.865  15.715 -2.8590  1.0206  1.2561
 6271SOL    HW230273   3.123   2.746  15.787 -0.0784 -1.0049 -0.9567
 6272SOL     OW30274   4.088   0.184   8.153 -0.1892 -0.4941  0.2844
 6272SOL    HW130275   4.091   0.270   8.195  1.4595 -0.0985 -0.6273
 6272SOL    HW230276   4.153   0.193   8.083  2.5362 -3.0811  2.4223
 6273SOL     OW30277   3.643   1.372   9.559  0.6376  0.7459 -0.3661
 6273SOL    HW130278   3.592   1.314   9.503 -0.1713 -1.2624  2.4677
 6273SOL    HW230279   3.713   1.378   9.493  2.0562  0.2762  1.0991
 6274SOL     OW30280   0.721   1.692   5.815  0.3204  0.2163  0.1218
 6274SOL    HW130281   0.748   1.757   5.750 -1.8948 -0.3194 -1.3345
 6274SOL    HW230282   0.650   1.746   5.853 -0.9185 -1.7235  0.5550
 6275SOL     OW30283   2.988   1.336   8.629 -0.0729  0.3507  0.0331
 6275SOL    HW130284   3.015   1.417   8.674  1.3929  0.2540 -0.7010
 6275SOL    HW230285   2.907   1.377   8.596  0.6066  0.0053 -2.0173
 6276SOL     OW30286   2.630   4.718   4.975 -0.0828  0.0364  0.1670
 6276SOL    HW130287   2.671   4.633   4.989  1.7897  1.1037  1.1653
 6276SOL    HW230288   2.687   0.051   5.026 -1.1255  1.7341 -0.6173
 6277SOL     OW30289   1.115   0.833  12.231 -0.8262  0.0158 -1.1085
 6277SOL    HW130290   1.109   0.855  12.324 -0.1929 -0.3800 -0.9765
 6277SOL    HW230291   1.191   0.776  12.231  1.2135  2.7664  1.8049
 6278SOL     OW30292   0.320   4.227   1.153 -0.3629  0.2250  0.2963
 6278SOL    HW130293   0.278   4.155   1.199 -0.2874  0.0864  0.1510
 6278SOL    HW230294   0.276   4.304   1.187 -1.0101  0.1687 -0.4301
 6279SOL     OW30295   2.857   1.265   6.336  0.0879  0.4032 -0.5934
 6279SOL    HW130296   2.828   1.356   6.334  1.4346  0.8861  1.5027
 6279SOL    HW230297   2.829   1.237   6.423 -1.1469 -0.0837 -1.1493
 6280SOL     OW30298   3.259   2.431  10.489 -0.4717  0.0355 -0.0047
 6280SOL    HW130299   3.279   2.338  10.485  0.9015  0.2414  2.3003
 6280SOL    HW230300   3.213   2.446  10.407 -0.7592  0.0626  0.1608
 6281SOL     OW30301   3.989   1.374   2.532 -0.0931  0.3686  0.0938
 6281SOL    HW130302   3.996   1.379   2.436  0.6226 -1.3385  0.0497
 6281SOL    HW230303   4.080   1.393   2.557  0.5250 -2.4861  0.1207
 6282SOL     OW30304   3.520   0.945   7.255 -0.1518 -0.5489  0.8328
 6282SOL    HW130305   3.574   1.012   7.213 -0.7737 -0.1624  0.6574
 6282SOL    HW230306   3.445   0.994   7.287 -0.0912  1.0900 -1.5380
 6283SOL     OW30307   4.580   3.066   5.835 -0.6222  0.0039  0.0232
 6283SOL    HW130308   4.577   3.024   5.922 -3.7868  1.8812  0.8393
 6283SOL    HW230309   4.563   2.991   5.779 -0.2006 -0.8621  1.0478
 6284SOL     OW30310   2.624   0.260   8.724  0.3726 -0.6870 -0.3210
 6284SOL    HW130311   2.643   0.204   8.799 -1.6157  1.5767  1.8600
 6284SOL    HW230312   2.638   0.348   8.759 -1.4322 -1.0146  1.2027
 6285SOL     OW30313   4.048   3.354   3.311 -0.3911  1.0148 -0.1472
 6285SOL    HW130314   4.042   3.449   3.304 -0.1530  1.1518  1.3536
 6285SOL    HW230315   3.963   3.336   3.270 -0.3708 -0.4109  0.4293
 6286SOL     OW30316   2.488   0.470   5.684 -0.5767 -0.7971 -1.2169
 6286SOL    HW130317   2.429   0.531   5.728  1.2825  0.0276  0.1117
 6286SOL    HW230318   2.448   0.384   5.675 -2.1774 -0.0332 -1.4776
 6287SOL     OW30319   4.243   4.381   4.342 -0.2611 -0.3350 -0.2032
 6287SOL    HW130320   4.303   4.447   4.376 -2.1891  1.4716 -0.2858
 6287SOL    HW230321   4.252   4.390   4.247  4.2945  0.6891  0.3353
 6288SOL     OW30322   4.322   4.460   9.016 -0.3460  0.0481  0.1672
 6288SOL    HW130323   4.263   4.532   8.995  0.3245  0.2040 -1.1501
 6288SOL    HW230324   4.365   4.492   9.095  0.8748  1.1984 -0.9642
 6289SOL     OW30325   3.530   1.631  11.529  0.0340  0.1972  0.4495
 6289SOL    HW130326   3.601   1.591  11.479 -0.2080  0.3177  0.0099
 6289SOL    HW230327   3.462   1.636  11.463  0.0247  2.0761  0.6039
 6290SOL     OW30328   2.012   3.050   7.848 -0.4996 -0.1142  0.1333
 6290SOL    HW130329   1.978   3.035   7.936  2.0595 -1.0158  0.9757
 6290SOL    HW230330   2.093   2.998   7.843 -1.7026 -1.9737 -0.0866
 6291SOL     OW30331   0.050   1.794  11.776 -0.2958  0.6466 -0.3379
 6291SOL    HW130332   0.076   1.710  11.737  2.8346  1.2386  0.4873
 6291SOL    HW230333   4.720   1.829  11.706  0.6756  1.1982 -0.8279
 6292SOL     OW30334   0.963   1.473  10.994 -0.2648  0.0695 -0.0197
 6292SOL    HW130335   0.966   1.399  11.055 -1.2848 -1.3117 -1.6395
 6292SOL    HW230336   1.012   1.541  11.040 -0.2180 -0.9719  1.4641
 6293SOL     OW30337   2.608   2.246   5.514  0.1718 -0.5385  0.1147
 6293SOL    HW130338   2.584   2.208   5.598 -0.7854  1.6790  0.8518
 6293SOL    HW230339   2.703   2.237   5.521  0.1501  0.0287  1.0887
 6294SOL     OW30340   0.863   0.660  15.173 -0.1996  0.0990 -0.0183
 6294SOL    HW130341   0.918   0.690  15.100  0.9993 -1.6296  0.1664
 6294SOL    HW230342   0.779   0.689  15.139  0.7217  1.0348 -1.5263
 6295SOL     OW30343   4.436   0.157   6.105 -0.1126 -0.0576 -0.0459
 6295SOL    HW130344   4.434   0.216   6.030 -0.0960 -0.6562 -0.5130
 6295SOL    HW230345   4.356   0.184   6.149  1.9351  0.7987  3.1362
 6296SOL     OW30346   2.368   1.424   2.350 -0.8007 -0.6125  0.6611
 6296SOL    HW130347   2.450   1.470   2.333  0.9118 -4.3937 -1.2591
 6296SOL    HW230348   2.306   1.489   2.316  0.6660 -0.5825 -1.9464
 6297SOL     OW30349   0.999   2.525   7.802 -0.0106 -0.3845  0.7658
 6297SOL    HW130350   0.940   2.462   7.842  1.1543 -1.9074  0.0916
 6297SOL    HW230351   0.937   2.598   7.804  0.7499  0.3093 -0.4565
 6298SOL     OW30352   3.063   1.792   6.433  0.4151 -0.0866  0.4156
 6298SOL    HW130353   3.035   1.720   6.491  0.6575  0.4988  1.2571
 6298SOL    HW230354   3.077   1.857   6.502 -3.0524  0.1362  0.9380
 6299SOL     OW30355   1.632   2.665  10.880 -0.0378  0.0254 -0.1070
 6299SOL    HW130356   1.602   2.601  10.944 -0.7470  0.8131  0.3345
 6299SOL    HW230357   1.692   2.719  10.932  0.7931 -0.0145 -1.0042
 6300SOL     OW30358   3.176   2.781   4.628 -0.5921  0.0334  0.4067
 6300SOL    HW130359   3.175   2.736   4.712 -0.9498  1.8241  1.3468
 6300SOL    HW230360   3.095   2.831   4.629  0.0338  1.0499 -0.0556
 6301SOL     OW30361   1.423   3.661   2.564 -0.3122  0.2583  0.4070
 6301SOL    HW130362   1.466   3.611   2.634  0.4549  2.8638  1.7810
 6301SOL    HW230363   1.451   3.752   2.561  0.5290 -0.0574 -1.1181
 6302SOL     OW30364   3.019   1.592   9.097  0.5097  0.0650  0.1473
 6302SOL    HW130365   2.981   1.504   9.091  0.2806  0.0973  1.3082
 6302SOL    HW230366   2.991   1.621   9.183 -3.5114  1.3624 -1.6075
 6303SOL     OW30367   3.741   0.577   2.311  0.0643  0.2670 -0.2822
 6303SOL    HW130368   3.822   0.626   2.297  0.8443 -1.4286 -1.6274
 6303SOL    HW230369   3.727   0.607   2.401 -0.5205 -0.0229 -0.2784
 6304SOL     OW30370   4.153   3.011  12.534 -0.1416  0.0885  0.3416
 6304SOL    HW130371   4.097   3.019  12.457  3.0177  2.4069 -1.6921
 6304SOL    HW230372   4.241   3.012  12.497  0.2996 -1.3600  1.3421
 6305SOL     OW30373   1.259   4.380  10.017 -0.1910  0.0659  0.2889
 6305SOL    HW130374   1.186   4.422  10.063  0.8279  0.9499  1.0794
 6305SOL    HW230375   1.211   4.300   9.997 -0.9309  0.9394 -1.4545
 6306SOL     OW30376   3.215   4.423  13.330  0.1819 -0.3304 -0.4068
 6306SOL    HW130377   3.198   4.505  13.378 -0.9170 -1.3335  0.8980
 6306SOL    HW230378   3.201   4.364  13.404  2.8656 -1.1648 -0.5574
 6307SOL     OW30379   3.145   4.066   9.494  0.0222  0.0857  0.0359
 6307SOL    HW130380   3.091   4.112   9.559 -0.4908 -0.0631 -0.2846
 6307SOL    HW230381   3.125   3.975   9.518 -2.4827  0.5401 -0.3219
 6308SOL     OW30382   4.311   2.941   5.550 -0.1093  0.2253 -0.0006
 6308SOL    HW130383   4.266   2.965   5.631  0.9512  1.5640  0.1890
 6308SOL    HW230384   4.397   2.924   5.589 -0.3007  2.5568  1.4737
 6309SOL     OW30385   4.075   3.493   4.145 -0.4658  0.3253  0.1713
 6309SOL    HW130386   4.097   3.505   4.053  1.7559  0.9152  0.7620
 6309SOL    HW230387   4.100   3.579   4.180  1.6616 -0.1202 -0.2551
 6310SOL     OW30388   1.064   2.678   2.798  0.0207 -0.4927  0.3072
 6310SOL    HW130389   0.974   2.652   2.817 -0.4864  1.6393  0.7784
 6310SOL    HW230390   1.063   2.771   2.776 -1.3712 -0.5235  0.2756
 6311SOL     OW30391   3.363   3.365   5.602 -0.1693 -0.6312 -0.3062
 6311SOL    HW130392   3.323   3.278   5.612  0.4801 -0.8017  0.7618
 6311SOL    HW230393   3.458   3.349   5.600  0.2877  2.0404  0.1312
 6312SOL     OW30394   2.147   2.196   2.533  0.2901  0.4850  0.5110
 6312SOL    HW130395   2.111   2.145   2.606  0.1598  1.3821  1.0706
 6312SOL    HW230396   2.096   2.277   2.531  1.4549  1.1938 -0.9533
 6313SOL     OW30397   0.072   3.209  13.746  0.1473 -0.0296 -0.0259
 6313SOL    HW130398   0.144   3.198  13.808 -1.4692 -1.1533  1.6634
 6313SOL    HW230399   0.126   3.214  13.667 -0.3260  1.5354 -0.2393
 6314SOL     OW30400   3.646   0.329   2.512 -0.2095  0.5647  0.1223
 6314SOL    HW130401   3.655   0.244   2.469  2.4312  0.7893  0.2151
 6314SOL    HW230402   3.560   0.320   2.554 -0.9749 -0.0164 -1.5825
 6315SOL     OW30403   1.635   3.262  15.731  0.4445  0.3326  0.3338
 6315SOL    HW130404   1.543   3.285  15.720  0.0978 -0.5061  1.5388
 6315SOL    HW230405   1.650   3.238  15.639  0.2115  2.8030 -0.3675
 6316SOL     OW30406   3.568   2.655   3.938 -0.1405  0.4943  0.2939
 6316SOL    HW130407   3.502   2.651   4.007 -0.6924  2.9740 -0.0964
 6316SOL    HW230408   3.567   2.749   3.918  0.4286 -0.0298 -2.1142
 6317SOL     OW30409   1.623   0.853  12.582 -0.0142  0.2004  0.0455
 6317SOL    HW130410   1.558   0.908  12.539  0.4628  1.1799  0.5822
 6317SOL    HW230411   1.698   0.860  12.524  0.6851 -1.3128  0.7668
 6318SOL     OW30412   1.054   3.838  13.306  0.1546 -0.3774  0.0931
 6318SOL    HW130413   1.064   3.882  13.391  0.9614  2.2006 -1.3260
 6318SOL    HW230414   1.147   3.829  13.287  0.2435 -1.4235  0.9984
 6319SOL     OW30415   3.851   3.279   2.809  0.4431  0.2615  0.0532
 6319SOL    HW130416   3.941   3.298   2.835  0.3049  2.9845 -1.4393
 6319SOL    HW230417   3.861   3.279   2.714 -1.2452  0.9899 -0.1318
 6320SOL     OW30418   1.456   0.688   4.387 -0.4397  0.1453  0.0936
 6320SOL    HW130419   1.363   0.667   4.397 -0.2338 -0.4821  0.6753
 6320SOL    HW230420   1.470   0.664   4.295 -0.6503 -0.9035  0.3351
 6321SOL     OW30421   1.731   1.540   6.519 -0.0841  0.2144 -0.0577
 6321SOL    HW130422   1.702   1.616   6.569 -0.6771  0.1910 -0.3644
 6321SOL    HW230423   1.730   1.463   6.576 -1.4205  0.2847  0.0119
 6322SOL     OW30424   3.979   2.972   2.419 -0.3410  0.3016  0.2130
 6322SOL    HW130425   3.977   2.888   2.466  2.5046 -1.4058 -2.7394
 6322SOL    HW230426   3.900   2.958   2.368 -0.1000 -1.0811  0.2233
 6323SOL     OW30427   0.595   2.869   3.014  0.6079  0.0564  0.2848
 6323SOL    HW130428   0.537   2.889   2.939  0.0798 -0.0727  0.6576
 6323SOL    HW230429   0.524   2.827   3.063  1.7029 -1.5566  0.4507
 6324SOL     OW30430   1.554   0.229   4.843 -0.2705  0.1507  0.7499
 6324SOL    HW130431   1.640   0.248   4.879  0.1640 -0.7090  0.1877
 6324SOL    HW230432   1.495   0.278   4.900 -0.1672  0.6703  0.4061
 6325SOL     OW30433   1.147   0.258   6.256  0.3418 -0.2742  0.0764
 6325SOL    HW130434   1.149   0.197   6.330  0.5705 -1.9088 -1.2941
 6325SOL    HW230435   1.080   0.205   6.212 -0.8002  1.2627 -0.0264
 6326SOL     OW30436   0.213   2.280   5.852  0.1462 -0.2006  0.2290
 6326SOL    HW130437   0.272   2.212   5.884  2.2768  1.1251 -0.9029
 6326SOL    HW230438   0.183   2.321   5.934 -0.5927  0.2813 -0.2788
 6327SOL     OW30439   1.219   3.449   8.231 -0.2189 -0.8906 -0.2236
 6327SOL    HW130440   1.266   3.531   8.211  0.2289 -1.2798 -0.7603
 6327SOL    HW230441   1.205   3.446   8.325  1.2906  2.2460  0.1019
 6328SOL     OW30442   1.240   4.397   5.831  0.4879 -0.4826 -0.0022
 6328SOL    HW130443   1.145   4.398   5.843  0.4301 -0.0055 -0.5107
 6328SOL    HW230444   1.247   4.318   5.777 -2.1853 -0.1587 -0.8307
 6329SOL     OW30445   3.003   3.385   1.533 -0.1832  0.2924 -0.0092
 6329SOL    HW130446   2.931   3.346   1.482 -0.5329  2.3591 -1.0868
 6329SOL    HW230447   3.079   3.338   1.499 -1.4938 -2.1113  0.3666
 6330SOL     OW30448   1.230   2.248   4.781 -0.2087 -0.1514 -0.2948
 6330SOL    HW130449   1.287   2.285   4.714 -1.1816 -0.6259 -1.3753
 6330SOL    HW230450   1.158   2.209   4.732  1.2334 -1.3059 -1.4777
 6331SOL     OW30451   3.051   2.488   8.214 -0.0800 -0.3431  0.5976
 6331SOL    HW130452   2.994   2.442   8.276  1.0140 -2.2252  0.2222
 6331SOL    HW230453   3.135   2.472   8.256  0.3040 -4.5665 -1.7577
 6332SOL     OW30454   1.240   1.625   3.259 -0.1150 -0.2111 -0.1107
 6332SOL    HW130455   1.167   1.679   3.229 -0.3679 -0.5303 -0.0682
 6332SOL    HW230456   1.202   1.539   3.242 -2.5090  0.9153 -0.5775
 6333SOL     OW30457   2.733   2.538   9.031 -0.5472 -0.1407 -0.0772
 6333SOL    HW130458   2.771   2.507   9.114 -0.1620  0.3473 -0.0731
 6333SOL    HW230459   2.679   2.612   9.056  0.2596  0.6790 -0.7779
 6334SOL     OW30460   1.058   2.958   2.718 -0.0236 -0.3783 -0.0984
 6334SOL    HW130461   0.989   3.014   2.681 -1.1316 -1.4352  0.3731
 6334SOL    HW230462   1.127   3.023   2.732  0.5248 -1.2861  1.3643
 6335SOL     OW30463   0.635   1.034   3.903 -0.5761  0.0504  0.0311
 6335SOL    HW130464   0.588   1.065   3.826  0.0164 -0.0481 -0.3761
 6335SOL    HW230465   0.648   1.112   3.957 -0.2733 -0.7229  1.0920
 6336SOL     OW30466   4.149   1.260   4.658 -0.0807 -0.0128  0.6933
 6336SOL    HW130467   4.242   1.281   4.667 -0.2118  0.5476  0.7793
 6336SOL    HW230468   4.113   1.307   4.733  0.1588  3.3694 -1.2879
 6337SOL     OW30469   2.048   0.593   4.209  0.4695 -0.7164  0.0914
 6337SOL    HW130470   2.035   0.531   4.281 -0.7365 -1.3409 -0.6643
 6337SOL    HW230471   2.095   0.668   4.247  1.9231 -0.2937 -2.5342
 6338SOL     OW30472   1.973   1.005   3.827 -0.1680  0.0626  0.3361
 6338SOL    HW130473   1.982   0.914   3.856  1.9777  0.1593 -0.0625
 6338SOL    HW230474   1.977   1.050   3.911 -1.4554  0.8555 -0.0242
 6339SOL     OW30475   1.914   4.696   2.840  0.9625 -0.8060  0.1079
 6339SOL    HW130476   1.927   4.702   2.935  0.4464 -0.2072  0.1372
 6339SOL    HW230477   1.989   0.012   2.800  1.0983 -0.9331  0.2276
 6340SOL     OW30478   4.648   2.555   6.211  0.9722  0.1996 -0.2770
 6340SOL    HW130479   4.667   2.637   6.165  0.4256  0.2242 -0.4566
 6340SOL    HW230480   4.584   2.594   6.272  0.8443  0.1960 -0.4086
 6341SOL     OW30481   2.898   4.298  16.336  0.0097 -0.4550  0.1187
 6341SOL    HW130482   2.969   4.350  16.373 -0.8922  0.1232  1.0540
 6341SOL    HW230483   2.955   4.245  16.280 -0.7550 -0.6133 -0.5173
 6342SOL     OW30484   0.078   0.245   4.457 -0.1407  0.3163  0.2584
 6342SOL    HW130485   0.051   0.336   4.473  0.9770  0.6018  0.5240
 6342SOL    HW230486   0.169   0.275   4.466 -0.4989  1.5769 -0.3895
 6343SOL     OW30487   0.079   1.177   6.736 -0.2781 -0.5218  0.6782
 6343SOL    HW130488   0.075   1.252   6.677 -1.1604 -0.1106  1.2529
 6343SOL    HW230489   0.123   1.223   6.808  0.2984 -0.7039  0.4408
 6344SOL     OW30490   1.351   2.488   7.191 -0.0671  0.1896  0.4560
 6344SOL    HW130491   1.402   2.545   7.248  1.0020  1.3766 -1.6625
 6344SOL    HW230492   1.391   2.496   7.104 -2.2897  0.6862 -0.5219
 6345SOL     OW30493   4.290   0.824  17.501 -0.0043  0.3276  0.5589
 6345SOL    HW130494   4.212   0.770  17.489  0.8286 -0.8779  0.5423
 6345SOL    HW230495   4.321   0.792  17.586 -1.5894  2.8058  2.0537
 6346SOL     OW30496   2.732   3.186   6.623 -0.5534 -0.5767  0.1419
 6346SOL    HW130497   2.658   3.162   6.680  0.4564 -1.3829  1.1075
 6346SOL    HW230498   2.789   3.110   6.623 -0.5778 -0.5940 -1.7432
 6347SOL     OW30499   0.674   3.465   5.557 -0.3381  0.3988 -0.7982
 6347SOL    HW130500   0.714   3.483   5.472 -0.9367  2.3882 -0.6608
 6347SOL    HW230501   0.718   3.382   5.579 -2.1373 -0.1303  0.8692
 6348SOL     OW30502   3.011   0.235   6.094  0.1517 -0.2104  0.2528
 6348SOL    HW130503   3.065   0.193   6.027 -1.7789 -2.7907  0.3488
 6348SOL    HW230504   3.064   0.202   6.166  1.2546  1.6885  0.3322
 6349SOL     OW30505   4.049   0.931   6.655  0.1314  0.4364 -0.3209
 6349SOL    HW130506   4.047   0.835   6.647  0.0860  0.3548  0.7216
 6349SOL    HW230507   4.090   0.948   6.739 -0.6261  1.2667 -0.1139
 6350SOL     OW30508   4.121   0.968  14.728  0.0594 -0.1878 -0.3509
 6350SOL    HW130509   4.032   0.938  14.709 -0.2036  0.0867  0.4551
 6350SOL    HW230510   4.172   0.938  14.653  0.5048  0.6400 -0.3791
 6351SOL     OW30511   0.076   4.461   5.992  0.3205  0.0632  0.1001
 6351SOL    HW130512   0.114   4.438   5.907 -1.3339  1.8202 -1.1064
 6351SOL    HW230513   0.013   4.525   5.960 -0.8676 -1.3105 -0.3302
 6352SOL     OW30514   0.156   2.352   4.284  0.0358  0.1842 -0.6420
 6352SOL    HW130515   0.114   2.399   4.356 -1.4992 -1.1848 -0.6588
 6352SOL    HW230516   0.156   2.420   4.217 -0.9986  1.7109  0.8980
 6353SOL     OW30517   3.517   1.912   8.341 -0.0180  0.0162  0.7191
 6353SOL    HW130518   3.455   1.974   8.380  1.9817  1.5043  1.5358
 6353SOL    HW230519   3.466   1.888   8.264 -0.9675  2.4852  0.5689
 6354SOL     OW30520   4.493   3.297   3.384 -0.4135 -0.2257  0.0438
 6354SOL    HW130521   4.425   3.323   3.446 -0.7763 -1.6361  0.2406
 6354SOL    HW230522   4.575   3.326   3.423 -1.1534  0.6717  0.9301
 6355SOL     OW30523   1.261   4.607  11.756  0.0904  0.5628  0.7986
 6355SOL    HW130524   1.293   4.693  11.781  2.4060  0.8836 -3.4068
 6355SOL    HW230525   1.288   4.544  11.823  0.7644 -0.4916 -0.4751
 6356SOL     OW30526   1.914   2.157  13.352 -0.2541  0.3573 -0.0034
 6356SOL    HW130527   1.912   2.189  13.443  0.8247  0.2422  0.0550
 6356SOL    HW230528   1.820   2.141  13.352 -0.1072 -0.4891  1.0311
 6357SOL     OW30529   3.174   2.170  14.222 -0.3649 -0.2293 -0.2406
 6357SOL    HW130530   3.202   2.091  14.176  1.1318  0.2730 -0.2202
 6357SOL    HW230531   3.165   2.241  14.159  3.3091  0.2648 -0.2552
 6358SOL     OW30532   2.713   4.558   2.502  0.2563  0.5644  0.2609
 6358SOL    HW130533   2.659   4.596   2.433  0.8025  0.2855 -0.3165
 6358SOL    HW230534   2.744   4.635   2.550 -1.1866  0.7186  0.9576
 6359SOL     OW30535   3.577   1.597   1.014  0.3390  0.2838 -0.2868
 6359SOL    HW130536   3.493   1.643   1.023  0.6146  1.1484 -2.0292
 6359SOL    HW230537   3.636   1.667   0.988 -1.3933  1.1297 -1.9697
 6360SOL     OW30538   3.053   3.818   8.995  0.3466 -0.0727  0.1581
 6360SOL    HW130539   3.068   3.744   9.053 -1.5459 -2.9295 -3.0268
 6360SOL    HW230540   3.090   3.884   9.054 -2.1414  0.8024  0.7503
 6361SOL     OW30541   2.039   4.296   7.080  0.2992  0.4227  0.4006
 6361SOL    HW130542   2.093   4.363   7.036 -1.2906  0.5708 -1.2850
 6361SOL    HW230543   1.953   4.323   7.048 -0.2683 -3.8448 -1.5676
 6362SOL     OW30544   1.837   1.674  15.130 -0.7631 -0.2332 -0.1721
 6362SOL    HW130545   1.771   1.706  15.069  0.8710  0.7290 -1.4557
 6362SOL    HW230546   1.914   1.682  15.074 -1.5958  0.1258 -1.2721
 6363SOL     OW30547   2.898   0.208   4.819  0.3893 -0.6275 -0.4289
 6363SOL    HW130548   2.986   0.236   4.843  0.0309 -0.0494  0.2078
 6363SOL    HW230549   2.834   0.270   4.854 -0.3380 -1.8281  0.3498
 6364SOL     OW30550   0.457   0.269   8.513  0.0762  0.4429  0.2989
 6364SOL    HW130551   0.541   0.224   8.522 -0.2396 -0.4032 -1.0241
 6364SOL    HW230552   0.401   0.195   8.491  0.4196 -0.0125  0.9668
 6365SOL     OW30553   1.681   4.194   3.217 -0.0326  0.2676 -0.0329
 6365SOL    HW130554   1.624   4.144   3.158  0.0528 -2.6877  2.4011
 6365SOL    HW230555   1.633   4.275   3.204 -0.8439 -0.3550 -0.9584
 6366SOL     OW30556   0.398   0.600   1.507 -0.2895 -0.1272  0.1691
 6366SOL    HW130557   0.451   0.650   1.445  0.2180 -0.0412  0.6672
 6366SOL    HW230558   0.473   0.563   1.555 -0.0948  1.2037  0.8784
 6367SOL     OW30559   4.232   4.220   5.195  0.0043 -0.4825  0.1521
 6367SOL    HW130560   4.232   4.290   5.260 -1.0686  1.3344 -1.8049
 6367SOL    HW230561   4.195   4.146   5.243  1.0849  0.6249  2.6929
 6368SOL     OW30562   0.606   2.170  11.054  0.0184  0.5336  0.4721
 6368SOL    HW130563   0.532   2.148  10.998  0.5309 -1.5371  0.6338
 6368SOL    HW230564   0.561   2.251  11.080 -2.2513 -0.0985 -1.4360
 6369SOL     OW30565   3.673   3.167   8.657  0.2029 -0.3503  0.1851
 6369SOL    HW130566   3.618   3.184   8.734 -0.9708  2.4804 -1.2862
 6369SOL    HW230567   3.745   3.112   8.687  1.1557 -1.8709 -4.9063
 6370SOL     OW30568   0.480   4.457   4.131 -0.2988  0.1753 -0.0396
 6370SOL    HW130569   0.509   4.548   4.119  1.4141 -0.1204  1.8243
 6370SOL    HW230570   0.448   4.423   4.048  1.2858  0.5521 -0.8105
 6371SOL     OW30571   4.499   0.594  10.397 -0.2957 -0.2641 -0.1214
 6371SOL    HW130572   4.582   0.546  10.400  0.4568  0.9937 -0.6091
 6371SOL    HW230573   4.450   0.548  10.465 -0.7787 -0.9504 -0.9338
 6372SOL     OW30574   0.151   2.119   5.641 -0.2492 -0.1102  0.0147
 6372SOL    HW130575   0.069   2.159   5.611  0.2875  1.4645  0.6360
 6372SOL    HW230576   0.189   2.190   5.693 -0.9161  0.0561  0.2760
 6373SOL     OW30577   0.106   3.619   8.263 -0.4229 -0.2328  0.2358
 6373SOL    HW130578   0.089   3.690   8.201 -1.6977 -1.0556 -0.3542
 6373SOL    HW230579   0.171   3.562   8.223 -3.0496 -0.5567 -3.5969
 6374SOL     OW30580   2.483   3.913   2.382 -0.0542  0.7345 -0.0478
 6374SOL    HW130581   2.492   3.818   2.376  1.8221  0.9924 -1.2711
 6374SOL    HW230582   2.420   3.944   2.316 -0.5434 -0.4076 -0.1192
 6375SOL     OW30583   3.093   1.976   5.813 -0.0771  0.1371  0.1248
 6375SOL    HW130584   3.065   1.929   5.735 -2.3917  0.3695  0.8307
 6375SOL    HW230585   3.034   2.051   5.823  1.0572  1.1209 -0.3938
 6376SOL     OW30586   4.045   1.104   2.491  0.2577  0.3077  0.1143
 6376SOL    HW130587   4.031   1.199   2.498 -0.3467  0.3822 -2.1645
 6376SOL    HW230588   4.076   1.081   2.579  1.5908  0.5358 -0.2890
 6377SOL     OW30589   4.460   0.038   7.566 -0.1320  0.0346  0.0179
 6377SOL    HW130590   4.368   0.024   7.589 -0.5599  1.4304 -0.8421
 6377SOL    HW230591   4.502   4.710   7.634 -0.0663  0.0921  0.0227
 6378SOL     OW30592   3.542   4.546   8.438 -0.2472  0.5269  0.3289
 6378SOL    HW130593   3.503   4.574   8.355  2.9941  0.3840 -1.2707
 6378SOL    HW230594   3.634   4.559   8.412 -0.7647  0.5875 -1.4470
 6379SOL     OW30595   1.263   2.054   2.037 -0.0222 -0.0836 -0.3755
 6379SOL    HW130596   1.309   1.970   2.036  0.9884  0.4717 -0.4447
 6379SOL    HW230597   1.180   2.049   2.085 -1.2229 -1.6381 -2.5972
 6380SOL     OW30598   4.043   0.098   4.289  0.3839 -0.4403  0.0778
 6380SOL    HW130599   4.045   0.011   4.327 -2.5010 -0.9757 -0.9997
 6380SOL    HW230600   3.965   0.102   4.234  1.1539  0.8604 -0.9684
 6381SOL     OW30601   4.360   3.077   7.237 -0.2823 -0.0379 -0.7432
 6381SOL    HW130602   4.412   3.002   7.208 -0.4774 -0.5771  0.2741
 6381SOL    HW230603   4.293   3.033   7.290 -1.1683  1.7993 -0.3619
 6382SOL     OW30604   4.234   1.074   5.604 -0.0242  0.1577  0.3680
 6382SOL    HW130605   4.251   1.168   5.603 -0.5737  0.1839 -3.4333
 6382SOL    HW230606   4.308   1.040   5.554  0.3425  0.4559  0.7132
 6383SOL     OW30607   1.406   3.472   2.830 -0.7400 -0.0009 -0.2205
 6383SOL    HW130608   1.336   3.423   2.873  0.0321 -1.4297 -0.6178
 6383SOL    HW230609   1.472   3.404   2.833 -2.8299 -2.0608 -0.6995
 6384SOL     OW30610   2.351   3.527   8.773  0.3375 -0.1233 -0.3343
 6384SOL    HW130611   2.410   3.601   8.753  0.7513 -0.0106  1.3320
 6384SOL    HW230612   2.422   3.465   8.791  0.3140  0.1792  0.7842
 6385SOL     OW30613   1.418   1.127   4.453  0.2972  0.4717 -0.5074
 6385SOL    HW130614   1.440   1.051   4.508 -1.7685 -0.3647 -0.8159
 6385SOL    HW230615   1.450   1.195   4.512 -2.6408  0.8946  0.5998
 6386SOL     OW30616   4.569   4.718   8.999 -0.4696  0.1224 -0.5147
 6386SOL    HW130617   4.487   0.041   9.007  0.4455  1.4280  0.9672
 6386SOL    HW230618   4.562   4.665   9.078  2.2235 -1.5601 -1.4046
 6387SOL     OW30619   2.077   4.413   3.776 -0.1526 -0.9868  0.4124
 6387SOL    HW130620   2.131   4.396   3.853 -1.3217 -1.4002  1.1431
 6387SOL    HW230621   2.088   4.508   3.766  2.5091 -1.1606  1.8495
 6388SOL     OW30622   0.547   3.504   2.822 -0.0776 -0.2526 -0.2093
 6388SOL    HW130623   0.589   3.465   2.898 -1.0969 -0.9029  0.0172
 6388SOL    HW230624   0.456   3.487   2.843 -0.6844  0.8848 -1.9039
 6389SOL     OW30625   0.833   3.890   2.087  0.4489  0.3714 -0.5462
 6389SOL    HW130626   0.835   3.890   2.183  0.9771  0.8860 -0.5659
 6389SOL    HW230627   0.740   3.914   2.080  0.2258 -0.0552  0.9094
 6390SOL     OW30628   4.160   4.453  17.440 -0.6255  0.0490  0.2579
 6390SOL    HW130629   4.085   4.513  17.430 -1.1589 -1.0142 -2.0248
 6390SOL    HW230630   4.228   4.495  17.387 -0.9203 -2.5894 -2.2059
 6391SOL     OW30631   3.490   0.598   6.564 -0.6652  0.3611  0.4306
 6391SOL    HW130632   3.413   0.581   6.509  0.1810 -1.1718 -0.2839
 6391SOL    HW230633   3.483   0.692   6.577  0.6385  0.8120 -1.9909
 6392SOL     OW30634   1.453   0.533   7.339 -0.1374  0.8108  0.3497
 6392SOL    HW130635   1.471   0.626   7.353 -2.9723  1.6605 -1.6327
 6392SOL    HW230636   1.366   0.527   7.379 -0.0576 -1.1504  0.2570
 6393SOL     OW30637   0.260   0.861   0.656 -1.1030 -0.0456 -0.2462
 6393SOL    HW130638   0.223   0.780   0.620  2.1556 -0.9416 -1.5770
 6393SOL    HW230639   0.195   0.883   0.723  0.2618 -0.1236  1.1127
 6394SOL     OW30640   2.753   2.008   9.988 -0.1452  0.5645  0.4151
 6394SOL    HW130641   2.823   1.967   9.937  0.5786  0.0703  1.7916
 6394SOL    HW230642   2.717   1.930  10.030 -1.0976  1.3186  0.9909
 6395SOL     OW30643   1.951   4.126   5.040  0.4426 -0.0064 -0.2679
 6395SOL    HW130644   1.937   4.033   5.056 -1.9604  0.1794 -1.3449
 6395SOL    HW230645   1.942   4.167   5.126  1.0370  1.3155 -0.8338
 6396SOL     OW30646   0.773   0.082  15.326 -0.1967 -0.2381 -0.1331
 6396SOL    HW130647   0.754   0.167  15.364  3.1071  0.7200 -0.6294
 6396SOL    HW230648   0.749   0.084  15.234 -1.6396 -0.7794  0.2358
 6397SOL     OW30649   1.783   0.319  17.654  0.3950 -0.1657 -0.3686
 6397SOL    HW130650   1.732   0.319   0.030  3.1605  1.5826  1.4194
 6397SOL    HW230651   1.729   0.382  17.608 -1.9757 -0.7186  1.6810
 6398SOL     OW30652   0.900   4.020   2.352  0.1661 -0.9112  0.2934
 6398SOL    HW130653   0.932   3.948   2.406  2.2793  0.9252  1.4831
 6398SOL    HW230654   0.961   4.029   2.279 -0.8069  0.5987 -0.3371
 6399SOL     OW30655   1.292   1.747   4.369  0.6134 -0.2225 -0.2923
 6399SOL    HW130656   1.215   1.732   4.315  0.6305 -0.9540 -0.1027
 6399SOL    HW230657   1.264   1.822   4.422  1.1203  0.8273 -1.5156
 6400SOL     OW30658   1.924   3.844   6.513  0.0565 -0.3735  0.6013
 6400SOL    HW130659   1.882   3.811   6.434  1.2457  0.7122 -0.4576
 6400SOL    HW230660   1.929   3.766   6.569 -1.7095 -0.4358  0.6932
 6401SOL     OW30661   4.284   0.367  13.722 -0.0110 -0.2067 -0.0189
 6401SOL    HW130662   4.216   0.395  13.784 -0.6009 -0.1817 -0.6749
 6401SOL    HW230663   4.242   0.321  13.650 -0.2483 -1.2107  0.7564
 6402SOL     OW30664   1.298   0.002   6.072  0.0085  0.0325 -0.4166
 6402SOL    HW130665   1.272   0.092   6.095 -0.8797 -0.3893  0.2728
 6402SOL    HW230666   1.249   4.679   6.139 -0.0135 -0.9509 -1.1688
 6403SOL     OW30667   0.317   1.033  14.194 -0.5948  1.2324  0.4513
 6403SOL    HW130668   0.365   1.019  14.275 -0.6039  1.0690  0.4286
 6403SOL    HW230669   0.351   0.963  14.138 -0.3332  1.4179  0.3825
 6404SOL     OW30670   4.416   2.842   3.645  0.0826  0.2886 -0.2184
 6404SOL    HW130671   4.360   2.769   3.616  0.2902 -0.0504  0.2419
 6404SOL    HW230672   4.409   2.899   3.568 -1.3450  1.2263  0.6104
 6405SOL     OW30673   1.914   3.577   7.133  0.0545 -0.6217  0.5804
 6405SOL    HW130674   1.819   3.565   7.122 -0.0258  0.2183  0.3807
 6405SOL    HW230675   1.934   3.649   7.074 -0.9321 -0.4499  0.4578
 6406SOL     OW30676   2.803   4.339   7.292  0.3234 -0.1203  0.2004
 6406SOL    HW130677   2.805   4.253   7.335 -3.2307 -0.4363 -0.2120
 6406SOL    HW230678   2.711   4.362   7.303 -0.0143 -1.0755 -0.5847
 6407SOL     OW30679   1.602   1.313   4.780  0.3020 -0.4716  0.5525
 6407SOL    HW130680   1.611   1.402   4.815  0.8106  0.7985 -2.8341
 6407SOL    HW230681   1.518   1.309   4.734  1.1803  0.6177 -1.1090
 6408SOL     OW30682   3.624   3.055  11.845 -0.1562 -0.2553  0.0071
 6408SOL    HW130683   3.605   3.120  11.913  1.2199 -1.3854  1.4824
 6408SOL    HW230684   3.578   3.100  11.774  1.6270 -0.6669 -1.4063
 6409SOL     OW30685   0.300   3.510   7.931 -0.2283 -0.7711  0.2563
 6409SOL    HW130686   0.259   3.463   8.003 -0.3536  0.3070  0.8812
 6409SOL    HW230687   0.329   3.434   7.881  1.8484  1.0429 -1.3143
 6410SOL     OW30688   3.052   3.196   9.456 -0.3775 -0.0483 -0.3472
 6410SOL    HW130689   3.123   3.215   9.395 -0.0064  1.3588  0.5305
 6410SOL    HW230690   2.970   3.196   9.405  0.5593 -0.3585 -1.8494
 6411SOL     OW30691   2.416   0.778   2.508 -0.3257  0.0044 -0.2483
 6411SOL    HW130692   2.464   0.756   2.428  0.9075  0.7802  0.2857
 6411SOL    HW230693   2.327   0.781   2.471 -0.3253 -0.4068 -0.2920
 6412SOL     OW30694   4.235   4.633  13.391 -0.1128 -0.4740 -0.5153
 6412SOL    HW130695   4.210   4.703  13.330 -2.9349 -0.5342  0.6029
 6412SOL    HW230696   4.157   4.646  13.445  0.3569  1.0581 -0.1997
 6413SOL     OW30697   0.704   0.040  10.560 -0.2097  0.1165  0.4328
 6413SOL    HW130698   0.733   4.722  10.480  0.0681 -1.6974  1.5454
 6413SOL    HW230699   0.615   0.064  10.534  1.3646  2.2863 -2.9720
 6414SOL     OW30700   1.883   2.666   3.010 -0.0218 -0.1729  0.0219
 6414SOL    HW130701   1.951   2.706   3.064 -0.6270 -0.7066  1.1690
 6414SOL    HW230702   1.845   2.601   3.069  1.9692 -0.3767  1.0826
 6415SOL     OW30703   3.134   2.623   2.921 -0.1575 -0.2149  0.3225
 6415SOL    HW130704   3.128   2.532   2.949  1.3849  0.6779  3.6303
 6415SOL    HW230705   3.047   2.660   2.932 -1.7132 -3.8339  0.2214
 6416SOL     OW30706   4.242   2.083   0.217  0.5239  0.3030 -0.0023
 6416SOL    HW130707   4.158   2.126   0.200  2.1679  2.7244 -2.0159
 6416SOL    HW230708   4.268   2.131   0.296  0.7558  0.3529 -0.1107
 6417SOL     OW30709   1.009   0.247   3.223 -0.6666 -0.0913  0.0356
 6417SOL    HW130710   1.073   0.316   3.201  0.8110 -1.8362 -1.1818
 6417SOL    HW230711   0.932   0.294   3.192 -0.8225 -0.0704  0.4673
 6418SOL     OW30712   2.712   3.474   2.402 -0.0235  0.6091  0.1580
 6418SOL    HW130713   2.775   3.411   2.438  1.3864  0.9186 -1.7172
 6418SOL    HW230714   2.701   3.429   2.318 -1.0746  1.1747  0.0022
 6419SOL     OW30715   4.311   1.765   4.775 -0.3114  0.4283 -0.2682
 6419SOL    HW130716   4.388   1.767   4.718  0.5400 -1.8295  0.8136
 6419SOL    HW230717   4.282   1.674   4.765 -0.8996  0.6520 -0.6482
 6420SOL     OW30718   4.226   0.021   1.600  0.7425  0.0401  0.1997
 6420SOL    HW130719   4.198   4.662   1.566 -1.0940  0.7845 -0.1346
 6420SOL    HW230720   4.276   0.052   1.525 -0.8083  0.6281 -0.5872
 6421SOL     OW30721   0.912   1.366   1.681 -0.4639 -0.0258  0.3149
 6421SOL    HW130722   0.822   1.352   1.710 -0.7066  0.2916 -0.2689
 6421SOL    HW230723   0.893   1.326   1.596 -0.5578 -0.2733  0.4524
 6422SOL     OW30724   2.595   3.946  13.107 -0.0404 -0.1020 -0.4330
 6422SOL    HW130725   2.530   4.010  13.078  0.5666  1.1744  0.9937
 6422SOL    HW230726   2.660   4.008  13.139  0.4341 -1.0543  0.4282
 6423SOL     OW30727   0.610   1.008   3.241  0.1861  0.2560 -0.2939
 6423SOL    HW130728   0.525   0.970   3.265 -1.1548  1.5810 -2.9540
 6423SOL    HW230729   0.597   1.028   3.148 -1.8581 -0.9677 -0.2701
 6424SOL     OW30730   2.383   0.195   6.356  0.5323  0.5498 -0.1180
 6424SOL    HW130731   2.379   0.199   6.260 -0.0633 -1.0588 -0.1620
 6424SOL    HW230732   2.416   0.283   6.375 -0.6405  1.4917 -2.4069
 6425SOL     OW30733   2.564   1.536   9.069  0.5914  0.2888 -0.8572
 6425SOL    HW130734   2.578   1.512   8.978  5.1061 -1.0280  0.2220
 6425SOL    HW230735   2.501   1.475   9.109  0.0868  0.1118 -1.9175
 6426SOL     OW30736   1.882   3.813   4.700 -0.6007 -0.1536 -0.2319
 6426SOL    HW130737   1.941   3.738   4.710 -1.9216 -1.3356 -1.2126
 6426SOL    HW230738   1.905   3.874   4.770 -0.5973 -0.6919  0.2411
 6427SOL     OW30739   3.353   3.030   5.980  0.1295  0.4026  0.2465
 6427SOL    HW130740   3.334   3.032   6.074 -3.5810 -0.4256 -0.5137
 6427SOL    HW230741   3.290   3.094   5.946 -2.2657 -1.1509  1.7419
 6428SOL     OW30742   3.667   4.529   8.063  0.0270 -0.3702  0.4801
 6428SOL    HW130743   3.584   4.565   8.093  0.6542 -0.5115  2.3813
 6428SOL    HW230744   3.718   4.517   8.143  0.6661  1.8655  0.4179
 6429SOL     OW30745   1.655   4.128   5.865  0.4346  0.1390 -0.8155
 6429SOL    HW130746   1.739   4.148   5.908  0.8539 -0.5687 -1.2946
 6429SOL    HW230747   1.625   4.218   5.863 -2.0653 -0.6606  1.6621
 6430SOL     OW30748   0.992   0.800   1.619  0.2898 -0.4907  0.0743
 6430SOL    HW130749   1.009   0.850   1.539 -1.4878  2.3764  1.4845
 6430SOL    HW230750   0.897   0.808   1.616  0.3634  0.5570  0.5098
 6431SOL     OW30751   3.172   3.695   2.772  0.2511  0.3018  0.2757
 6431SOL    HW130752   3.244   3.696   2.708  2.1347 -0.4871  2.4014
 6431SOL    HW230753   3.225   3.697   2.851  1.8715  1.4232 -0.8463
 6432SOL     OW30754   4.075   4.330  14.042  0.3525 -0.2612 -0.8779
 6432SOL    HW130755   4.158   4.285  14.030  0.7182  0.2850 -0.4048
 6432SOL    HW230756   4.056   4.362  13.954  1.4834 -1.4970 -1.5519
 6433SOL     OW30757   3.752   3.976  14.945 -0.4228  0.0931  0.2174
 6433SOL    HW130758   3.786   4.049  14.894 -3.3390 -0.2058 -2.1708
 6433SOL    HW230759   3.788   3.974  15.034  0.5459  1.6832 -0.1477
 6434SOL     OW30760   3.953   1.607  16.577 -0.1325  0.3819  0.1852
 6434SOL    HW130761   3.972   1.698  16.599  1.8457 -0.6134  2.6298
 6434SOL    HW230762   3.921   1.609  16.487  1.4155 -1.1533 -0.4223
 6435SOL     OW30763   3.780   4.490   8.320  0.2036  0.3870 -0.4573
 6435SOL    HW130764   3.854   4.459   8.372 -0.3670  0.5461  0.4608
 6435SOL    HW230765   3.812   4.579   8.334  0.1047 -0.1767  3.3920
 6436SOL     OW30766   3.356   3.839   0.050 -0.5175  0.2120  0.2748
 6436SOL    HW130767   3.334   3.779  17.683 -1.3166  0.8410 -0.0082
 6436SOL    HW230768   3.443   3.863   0.020  0.1446 -2.7888 -0.1890
 6437SOL     OW30769   1.797   4.376   9.988  0.1455  0.3778  0.2137
 6437SOL    HW130770   1.709   4.413   9.982 -0.2048 -0.6053 -0.7121
 6437SOL    HW230771   1.836   4.380   9.900 -0.4854 -1.0064 -0.1335
 6438SOL     OW30772   2.527   2.411   2.160 -0.4231 -0.2876  0.2596
 6438SOL    HW130773   2.584   2.483   2.132 -2.6070  0.3885 -2.4427
 6438SOL    HW230774   2.551   2.340   2.101 -0.7562 -1.3321  1.3973
 6439SOL     OW30775   0.770   4.580   3.512  0.1102 -0.2047  0.5234
 6439SOL    HW130776   0.838   4.647   3.498  0.9510 -1.5816 -1.8861
 6439SOL    HW230777   0.819   4.507   3.550  1.7228 -0.0301 -1.2273
 6440SOL     OW30778   2.363   1.778  11.055  0.2762  0.2682 -0.2471
 6440SOL    HW130779   2.278   1.756  11.016 -1.0172  2.6271  1.2249
 6440SOL    HW230780   2.421   1.794  10.980 -2.0719  2.6389 -1.5769
 6441SOL     OW30781   0.554   2.559   8.397  0.0543 -0.2210  0.6281
 6441SOL    HW130782   0.582   2.482   8.347 -1.7099 -1.9952  2.3815
 6441SOL    HW230783   0.637   2.589   8.433  0.6779 -4.0364  2.3267
 6442SOL     OW30784   3.624   0.238  10.581 -0.2552 -0.1330 -0.1716
 6442SOL    HW130785   3.579   0.256  10.663  0.4429  1.8680 -0.2169
 6442SOL    HW230786   3.560   0.204  10.518  0.1418 -0.7669 -0.2256
 6443SOL     OW30787   1.186   3.803   6.148 -0.4850 -0.8283  0.0166
 6443SOL    HW130788   1.207   3.869   6.214 -1.8320 -1.0325  0.6595
 6443SOL    HW230789   1.238   3.730   6.181  0.0635 -1.5393 -2.3986
 6444SOL     OW30790   1.477   0.190   9.838  0.2095 -0.0838  0.3156
 6444SOL    HW130791   1.449   0.259   9.778  0.9674  0.2689  0.3699
 6444SOL    HW230792   1.461   0.231   9.923 -0.3951  0.9967 -0.3287
 6445SOL     OW30793   4.051   0.427   4.385  0.4812  0.7677  0.6980
 6445SOL    HW130794   4.096   0.343   4.397  0.6901  0.7459 -0.2391
 6445SOL    HW230795   4.038   0.445   4.292 -3.5053 -2.3067  0.6433
 6446SOL     OW30796   4.312   2.120   0.920 -0.0348  0.0511 -0.7600
 6446SOL    HW130797   4.404   2.147   0.924  0.1923 -0.7184 -0.9624
 6446SOL    HW230798   4.307   2.087   0.830  1.1698  1.2068 -1.2473
 6447SOL     OW30799   1.466   1.842   2.206  0.6886  0.1045 -0.3999
 6447SOL    HW130800   1.525   1.908   2.168 -0.0231  1.3112  0.6267
 6447SOL    HW230801   1.456   1.779   2.134  1.2851  1.3178 -1.5516
 6448SOL     OW30802   2.981   2.084   2.370 -0.1641  0.2374  0.2104
 6448SOL    HW130803   2.984   2.016   2.302 -2.2946  0.1089  0.2286
 6448SOL    HW230804   2.947   2.154   2.314 -1.5737 -0.1335  0.5841
 6449SOL     OW30805   3.525   1.301   8.022 -0.0309 -0.4644 -0.2234
 6449SOL    HW130806   3.563   1.322   7.936 -0.0484 -0.2624 -0.1804
 6449SOL    HW230807   3.514   1.387   8.062 -0.1544  0.1378 -1.5554
 6450SOL     OW30808   0.270   0.716   6.790 -0.2110  0.1961 -0.2182
 6450SOL    HW130809   0.306   0.766   6.717 -2.1042 -0.7394 -1.8024
 6450SOL    HW230810   0.289   0.625   6.769 -1.7888 -0.3709  0.8130
 6451SOL     OW30811   2.235   2.379   6.707  0.9472  0.5269  0.0715
 6451SOL    HW130812   2.177   2.389   6.782 -0.6347 -2.0232 -0.8072
 6451SOL    HW230813   2.314   2.351   6.753  1.6512  0.5063 -1.1559
 6452SOL     OW30814   0.941   0.844   2.740 -0.0558 -0.3073 -0.4016
 6452SOL    HW130815   0.962   0.806   2.654  0.3682  0.6052 -0.6984
 6452SOL    HW230816   1.022   0.834   2.790 -0.0760 -0.7376 -0.4568
 6453SOL     OW30817   3.944   2.613   1.971 -0.4039 -0.0775 -0.3295
 6453SOL    HW130818   3.936   2.702   2.005 -2.3346 -0.9838  1.5983
 6453SOL    HW230819   4.040   2.613   1.961 -0.3111 -1.0143  0.5332
 6454SOL     OW30820   3.203   3.824   3.789 -0.2437  0.5610 -0.0728
 6454SOL    HW130821   3.290   3.832   3.751 -0.5195 -1.2605 -1.1224
 6454SOL    HW230822   3.155   3.778   3.720 -1.5878  2.1664 -0.2141
 6455SOL     OW30823   4.553   2.878   7.150  0.1021 -0.1667  0.0165
 6455SOL    HW130824   4.640   2.905   7.181 -0.2203  2.2095 -1.1569
 6455SOL    HW230825   4.575   2.789   7.121  0.4499  0.2694 -1.0836
 6456SOL     OW30826   3.581   0.594   8.342 -0.3849  0.0418  0.0052
 6456SOL    HW130827   3.559   0.515   8.293 -0.3343 -0.6382  1.0655
 6456SOL    HW230828   3.533   0.655   8.286 -1.4560 -0.3902  0.4504
 6457SOL     OW30829   4.703   1.567  13.936  0.1310  0.2272 -0.3194
 6457SOL    HW130830   4.684   1.588  14.027 -1.1974  0.6604 -0.6922
 6457SOL    HW230831   4.720   1.474  13.952  1.5474  0.4640 -0.4172
 6458SOL     OW30832   0.235   3.886   3.721  0.5468  0.2540  0.3541
 6458SOL    HW130833   0.322   3.926   3.732  1.3645 -1.8245  1.4122
 6458SOL    HW230834   0.190   3.955   3.771 -0.4937  0.3052 -0.6706
 6459SOL     OW30835   3.777   0.776   3.712  0.5120  0.1996  0.7183
 6459SOL    HW130836   3.793   0.722   3.634 -1.0970  2.1572 -0.9384
 6459SOL    HW230837   3.694   0.813   3.683  0.9371 -0.0535 -0.8022
 6460SOL     OW30838   0.872   2.704   3.601 -0.3331 -0.2437 -0.1207
 6460SOL    HW130839   0.884   2.734   3.511 -2.4291 -3.8996 -1.6081
 6460SOL    HW230840   0.808   2.768   3.631  0.7780  0.4368  0.7902
 6461SOL     OW30841   3.310   0.312  10.716 -0.1483 -0.1075 -0.3377
 6461SOL    HW130842   3.378   0.331  10.782  1.1673  0.2039 -1.7816
 6461SOL    HW230843   3.276   0.398  10.693  0.2508  0.7332  2.1562
 6462SOL     OW30844   1.701   0.663  11.216 -0.3019 -0.0242 -0.1097
 6462SOL    HW130845   1.765   0.673  11.287  0.1323  3.0438 -0.8986
 6462SOL    HW230846   1.661   0.591  11.264  1.0417  1.2741  2.9846
 6463SOL     OW30847   3.510   2.974   5.533  0.8096 -0.0033 -0.1189
 6463SOL    HW130848   3.441   3.027   5.492 -1.1460 -1.6952  0.9988
 6463SOL    HW230849   3.508   2.891   5.486 -0.7610  0.5063 -0.9794
 6464SOL     OW30850   4.334   4.383   2.187  0.1115 -0.5166  0.7227
 6464SOL    HW130851   4.384   4.464   2.178 -2.1615  0.9195  0.8719
 6464SOL    HW230852   4.385   4.319   2.139  0.2498 -0.6336  1.0266
 6465SOL     OW30853   1.710   2.175   8.592  0.1501 -0.4713 -0.2429
 6465SOL    HW130854   1.779   2.158   8.656  1.0442  1.1228 -0.8103
 6465SOL    HW230855   1.708   2.098   8.535 -1.4457 -2.1950  2.1630
 6466SOL     OW30856   4.279   0.968  12.010 -0.4696  0.1348 -0.4260
 6466SOL    HW130857   4.227   0.902  11.964  0.4526  0.7499 -2.3564
 6466SOL    HW230858   4.206   1.009  12.056 -0.9565 -1.1175 -0.0861
 6467SOL     OW30859   3.552   0.768   4.766 -0.4178 -0.0465 -0.6511
 6467SOL    HW130860   3.569   0.835   4.699 -0.9341  0.6254 -0.1138
 6467SOL    HW230861   3.460   0.790   4.774 -0.0110  0.5785  2.0840
 6468SOL     OW30862   3.949   0.967   7.742 -0.6644  0.3767 -0.2629
 6468SOL    HW130863   3.962   0.949   7.649 -1.0312 -0.6120 -0.1170
 6468SOL    HW230864   4.018   0.917   7.786 -0.3001  1.9377  0.9518
 6469SOL     OW30865   1.744   3.771   2.333  0.3267  0.1989 -0.5159
 6469SOL    HW130866   1.800   3.698   2.357  1.2835  0.8866 -0.6358
 6469SOL    HW230867   1.669   3.732   2.290 -1.9351  0.8658  2.8144
 6470SOL     OW30868   3.334   4.677   7.675  0.2919  0.0022  0.1934
 6470SOL    HW130869   3.356   4.640   7.589  0.5370  0.3706  0.0971
 6470SOL    HW230870   3.376   4.619   7.738  1.3331 -0.5743 -1.0322
 6471SOL     OW30871   4.233   4.028  10.235  0.3592  0.0504 -0.4611
 6471SOL    HW130872   4.254   4.093  10.303 -0.7642 -1.7172  1.5465
 6471SOL    HW230873   4.161   3.977  10.271  0.4455 -0.0615 -0.4501
 6472SOL     OW30874   1.417   2.832   8.709 -0.2942  0.6995  0.4676
 6472SOL    HW130875   1.455   2.910   8.748 -2.5103  2.9309 -1.8965
 6472SOL    HW230876   1.484   2.807   8.645 -0.3565  0.2249  0.5846
 6473SOL     OW30877   0.016   1.510   5.345 -0.2546  0.0328 -0.2520
 6473SOL    HW130878   0.041   1.602   5.339  1.0519 -0.2391  0.8637
 6473SOL    HW230879   0.070   1.485   5.420 -0.7622  0.0984  0.1348
 6474SOL     OW30880   3.294   0.527  13.799  0.1813 -0.2536  0.1629
 6474SOL    HW130881   3.199   0.535  13.804  0.4431  1.5893  2.2861
 6474SOL    HW230882   3.296   0.432  13.788 -0.7124 -0.7142  3.9906
 6475SOL     OW30883   4.235   4.700  10.618  0.5823  0.3802  0.2093
 6475SOL    HW130884   4.316   4.665  10.581 -0.6792 -2.9424  0.5608
 6475SOL    HW230885   4.266   0.050  10.667 -1.2792  0.6799  0.9151
 6476SOL     OW30886   4.549   2.917   5.145 -0.2563  0.2666  0.5819
 6476SOL    HW130887   4.460   2.941   5.171 -0.5806 -0.2223 -0.0739
 6476SOL    HW230888   4.609   2.990   5.162  1.9507 -0.3494 -4.7183
 6477SOL     OW30889   0.390   4.172  13.724 -0.7845  0.3684  0.3765
 6477SOL    HW130890   0.485   4.177  13.708 -1.2246  2.7491 -1.5579
 6477SOL    HW230891   0.363   4.235  13.657  0.9614  0.9888  0.2551
 6478SOL     OW30892   3.635   1.501   1.656  0.5528 -0.9154 -0.3280
 6478SOL    HW130893   3.711   1.555   1.678 -1.4749  0.7833  2.5747
 6478SOL    HW230894   3.590   1.549   1.586  1.9059  1.4799  0.4714
 6479SOL     OW30895   3.298   3.912  17.271  0.1199 -0.0816  0.5743
 6479SOL    HW130896   3.226   3.955  17.225 -0.7468 -0.5281  1.5188
 6479SOL    HW230897   3.330   3.990  17.315  1.7418  0.2980 -1.2539
 6480SOL     OW30898   4.720   2.500   4.467  0.7496 -0.6012  0.2019
 6480SOL    HW130899   4.660   2.487   4.540  1.9334 -1.2210  1.0678
 6480SOL    HW230900   0.003   2.595   4.457 -0.2475 -0.4797  0.5190
 6481SOL     OW30901   2.221   3.754   6.263 -0.5774 -0.3058  0.0031
 6481SOL    HW130902   2.236   3.692   6.191 -1.1988  3.3218 -3.2176
 6481SOL    HW230903   2.200   3.830   6.208 -0.3569 -1.0324 -1.0978
 6482SOL     OW30904   1.837   0.804   0.488  0.0177  0.4818 -0.2091
 6482SOL    HW130905   1.821   0.753   0.408 -0.9296  0.6766 -0.1395
 6482SOL    HW230906   1.930   0.824   0.480 -0.0560  0.6898 -0.5789
 6483SOL     OW30907   2.655   0.213   7.296  0.1010 -0.2753  0.3311
 6483SOL    HW130908   2.639   0.219   7.390  1.3739  0.8816  0.4759
 6483SOL    HW230909   2.750   0.224   7.302  0.3558 -1.8260 -0.8525
 6484SOL     OW30910   3.485   3.124   3.174 -0.4634 -0.1896 -0.0507
 6484SOL    HW130911   3.437   3.174   3.107  1.8701  3.0952  0.7303
 6484SOL    HW230912   3.479   3.037   3.134  0.5928 -0.0141 -0.6042
 6485SOL     OW30913   0.779   3.104   2.999  0.0914 -0.4422 -0.5149
 6485SOL    HW130914   0.716   3.034   3.015  0.3456  0.0520  2.4882
 6485SOL    HW230915   0.725   3.169   2.955 -0.7926  0.0639  1.3229
 6486SOL     OW30916   2.356   4.365   7.736 -0.3135  0.3671 -0.1542
 6486SOL    HW130917   2.444   4.382   7.701 -0.9350  0.6364 -1.5554
 6486SOL    HW230918   2.311   4.449   7.728  0.5820  0.7703 -1.0078
 6487SOL     OW30919   3.563   3.916  11.968 -0.7322  0.5560 -0.0785
 6487SOL    HW130920   3.608   3.995  11.939  1.7634 -0.3045  1.4639
 6487SOL    HW230921   3.543   3.865  11.889  1.4884 -0.0812 -0.2166
 6488SOL     OW30922   2.320   2.611  16.749 -0.5495  0.0712  0.0711
 6488SOL    HW130923   2.258   2.630  16.820 -0.3171 -0.7121  0.4845
 6488SOL    HW230924   2.381   2.683  16.764  0.5386 -0.4976 -1.6381
 6489SOL     OW30925   3.347   4.223   8.219  0.2919 -0.8124  0.0994
 6489SOL    HW130926   3.408   4.209   8.147  1.4425 -0.6359  1.0374
 6489SOL    HW230927   3.394   4.182   8.292 -0.0199  0.0067  0.7634
 6490SOL     OW30928   1.876   1.967   5.485 -0.6173  0.2229 -0.1203
 6490SOL    HW130929   1.954   2.023   5.478 -0.6394  0.4680  1.6105
 6490SOL    HW230930   1.904   1.901   5.549 -1.6409  2.2110  2.3715
 6491SOL     OW30931   4.563   0.552   2.933 -0.3140 -0.0533  0.3285
 6491SOL    HW130932   4.588   0.469   2.892  1.0880  0.2856  0.4658
 6491SOL    HW230933   4.533   0.595   2.853 -0.2919 -1.5410 -0.4779
 6492SOL     OW30934   4.698   3.702   6.597 -0.2930  0.4045  0.6245
 6492SOL    HW130935   0.012   3.773   6.547  1.6934 -1.8865 -1.0182
 6492SOL    HW230936   4.619   3.682   6.546  0.6458 -0.4775 -0.4743
 6493SOL     OW30937   3.758   3.978   7.726  0.2988  0.3352 -0.5423
 6493SOL    HW130938   3.708   3.973   7.645 -2.3989 -1.6496  1.2570
 6493SOL    HW230939   3.777   4.071   7.716  0.9128  0.5245  2.2586
 6494SOL     OW30940   2.586   2.390   2.842 -0.4065  0.0662  0.0529
 6494SOL    HW130941   2.500   2.378   2.803 -0.9877  1.6120  0.8575
 6494SOL    HW230942   2.613   2.466   2.790 -1.3311  0.5777  0.3349
 6495SOL     OW30943   2.873   4.589   7.405 -0.5120  0.2264  0.7981
 6495SOL    HW130944   2.962   4.604   7.374 -1.2916  1.9921 -0.5402
 6495SOL    HW230945   2.857   4.508   7.357  2.8634  0.7157 -1.0954
 6496SOL     OW30946   2.637   1.304  14.472  0.2173 -0.0159 -0.3174
 6496SOL    HW130947   2.695   1.309  14.548  0.7632  0.8120 -0.7901
 6496SOL    HW230948   2.608   1.393  14.455 -4.3601 -1.1864  1.4438
 6497SOL     OW30949   0.119   4.203   2.811 -0.0100 -0.3380 -0.0695
 6497SOL    HW130950   0.082   4.276   2.761 -0.3155  0.3792  1.2193
 6497SOL    HW230951   0.043   4.197   2.869  0.6371 -0.9675  0.6976
 6498SOL     OW30952   3.241   3.960   3.435  0.4657 -0.4351  0.6337
 6498SOL    HW130953   3.217   4.046   3.469 -1.8334 -0.1310 -1.7694
 6498SOL    HW230954   3.318   3.984   3.384  0.6884 -0.7238  0.8283
 6499SOL     OW30955   3.115   3.995   9.204 -0.3751  0.2621  0.0414
 6499SOL    HW130956   3.025   4.017   9.182 -0.5938 -3.2659 -2.6326
 6499SOL    HW230957   3.129   4.059   9.273  1.0230  2.2520 -2.0750
 6500SOL     OW30958   3.040   1.935   4.853 -0.5621  0.5171 -0.1009
 6500SOL    HW130959   2.988   1.973   4.783 -1.5100  2.9793  1.9604
 6500SOL    HW230960   2.982   1.910   4.924  0.6555  0.5104  0.9036
 6501SOL     OW30961   3.387   0.380   5.153  0.2381  0.2078 -0.2779
 6501SOL    HW130962   3.429   0.352   5.234 -1.5679 -1.7456 -0.0313
 6501SOL    HW230963   3.419   0.303   5.105 -0.2173 -0.7927  1.0125
 6502SOL     OW30964   1.132   4.303  17.632 -0.8064  0.1350  0.1910
 6502SOL    HW130965   1.121   4.335  17.543 -1.4597 -2.5371 -0.6793
 6502SOL    HW230966   1.090   4.367  17.690 -1.1457  0.8776 -0.8854
 6503SOL     OW30967   2.570   4.462  12.355 -0.2887 -0.1145  0.2823
 6503SOL    HW130968   2.482   4.433  12.332 -0.3615  0.4081 -0.0887
 6503SOL    HW230969   2.547   4.552  12.379  0.6449 -0.2160  1.5717
 6504SOL     OW30970   3.038   0.488   0.991  0.6299 -0.2410 -0.1987
 6504SOL    HW130971   3.102   0.449   1.051  0.0639 -2.1699 -0.8427
 6504SOL    HW230972   3.091   0.521   0.918 -0.0646 -1.2475 -1.1503
 6505SOL     OW30973   0.044   4.138  15.250 -0.2547  0.1023 -0.1295
 6505SOL    HW130974   0.042   4.113  15.342  0.7083 -1.1318 -0.4528
 6505SOL    HW230975   4.680   4.112  15.225  0.5545  0.4013 -3.3324
 6506SOL     OW30976   1.666   3.735   4.575  0.1556 -0.3982  0.3181
 6506SOL    HW130977   1.656   3.830   4.573  2.2281 -0.2063 -0.9257
 6506SOL    HW230978   1.747   3.732   4.625  0.5012 -3.0211 -0.3845
 6507SOL     OW30979   2.789   1.722  14.546 -0.5090 -0.2781  0.1164
 6507SOL    HW130980   2.712   1.669  14.527 -0.0330  0.3672 -3.4985
 6507SOL    HW230981   2.754   1.806  14.576 -0.0793 -0.5703  1.4502
 6508SOL     OW30982   2.929   0.355   9.032 -0.1158 -0.2525  0.6092
 6508SOL    HW130983   2.855   0.380   8.978  0.3733 -2.4115 -1.0725
 6508SOL    HW230984   2.944   0.262   9.017  2.4411  0.0632  1.0296
 6509SOL     OW30985   3.446   4.394   0.600 -0.2639 -0.3536  0.1980
 6509SOL    HW130986   3.520   4.417   0.655 -0.1888  3.5413 -1.5746
 6509SOL    HW230987   3.477   4.308   0.570  0.8339  0.5940 -1.3292
 6510SOL     OW30988   3.362   3.584   2.323 -0.0411 -0.2896  0.2268
 6510SOL    HW130989   3.393   3.578   2.233 -0.2403 -0.4479  0.1678
 6510SOL    HW230990   3.424   3.527   2.369  0.6239  0.3895  0.1667
 6511SOL     OW30991   3.134   3.984   6.310  0.1506 -0.2036  0.1986
 6511SOL    HW130992   3.131   3.914   6.375 -0.2133  1.3885  1.8701
 6511SOL    HW230993   3.225   4.009   6.292  0.1515 -0.9951 -0.8888
 6512SOL     OW30994   0.913   2.141   3.192 -0.0426  0.0135  0.1601
 6512SOL    HW130995   0.912   2.200   3.117 -1.1648 -1.7342 -1.2100
 6512SOL    HW230996   0.840   2.082   3.175 -0.9623  1.5307 -1.1458
 6513SOL     OW30997   4.711   4.215   7.501 -0.0482  0.0325 -0.3483
 6513SOL    HW130998   4.707   4.310   7.492 -0.5728 -0.0855 -1.2918
 6513SOL    HW230999   4.636   4.201   7.559 -0.0691  1.2692 -0.0672
 6514SOL     OW31000   1.243   3.419   4.059 -0.2176 -0.4812  0.5893
 6514SOL    HW131001   1.186   3.493   4.036 -0.0309 -0.7405 -0.7259
 6514SOL    HW231002   1.314   3.458   4.109  0.0196 -1.6612  1.1623
 6515SOL     OW31003   0.063   3.463   5.131 -0.0354 -0.2841  0.1751
 6515SOL    HW131004   0.152   3.438   5.105  0.8665  3.1938 -0.1782
 6515SOL    HW231005   0.032   3.380   5.166  2.2080 -0.7364  1.0853
 6516SOL     OW31006   2.345   1.258   1.507  0.4037  0.4431  0.6585
 6516SOL    HW131007   2.320   1.247   1.599 -2.3861 -0.0731 -0.1723
 6516SOL    HW231008   2.349   1.175   1.459  0.0563  0.4029  0.7031
 6517SOL     OW31009   3.110   3.486   8.504 -0.8063 -0.0039 -0.2238
 6517SOL    HW131010   3.030   3.522   8.465 -1.5931 -0.6760  0.7657
 6517SOL    HW231011   3.081   3.449   8.588  0.3185 -0.5969 -0.0947
 6518SOL     OW31012   0.956   3.977  10.072 -0.1649  0.1974  0.3615
 6518SOL    HW131013   0.957   3.909  10.005 -1.2040 -0.3618  0.9153
 6518SOL    HW231014   0.930   3.920  10.144 -0.3865 -0.8616 -0.5655
 6519SOL     OW31015   2.627   0.922   7.164 -0.0442 -0.1154  0.1576
 6519SOL    HW131016   2.638   0.872   7.083 -1.3812 -0.8231  0.4060
 6519SOL    HW231017   2.544   0.889   7.200  1.5654 -2.8870  1.3672
 6520SOL     OW31018   3.057   4.392   5.015  0.5332  0.1510 -0.3024
 6520SOL    HW131019   2.968   4.402   5.050  0.3393  1.0050 -1.0186
 6520SOL    HW231020   3.088   4.481   5.033  1.4174 -0.2337  0.0212
 6521SOL     OW31021   0.610   3.143   6.510  0.2323 -0.0397  0.2140
 6521SOL    HW131022   0.633   3.232   6.484 -0.4204 -0.7458 -2.7621
 6521SOL    HW231023   0.646   3.097   6.434  1.3056  0.3824  0.4692
 6522SOL     OW31024   3.064   4.340   3.825  0.5025 -0.0962 -0.2687
 6522SOL    HW131025   3.147   4.294   3.835  0.1489 -0.9220 -1.1148
 6522SOL    HW231026   3.067   4.334   3.730  2.1067 -1.1220 -0.1552
 6523SOL     OW31027   2.841   0.581  16.066 -0.3423  0.4148 -0.3074
 6523SOL    HW131028   2.857   0.628  15.984 -3.1703 -0.4738 -1.3703
 6523SOL    HW231029   2.750   0.554  16.053 -0.3891 -0.0212  0.9814
 6524SOL     OW31030   0.008   3.917   9.303 -0.4337  0.2432  0.4934
 6524SOL    HW131031   0.004   3.949   9.393 -0.0190  0.1095  0.5599
 6524SOL    HW231032   4.646   3.880   9.299  0.0114 -1.0725  2.9367
 6525SOL     OW31033   1.910   2.113  13.888  0.2010  0.1997  0.0218
 6525SOL    HW131034   1.841   2.111  13.821  0.1265 -2.0484  0.1693
 6525SOL    HW231035   1.970   2.167  13.836 -0.8323 -0.6820 -2.1032
 6526SOL     OW31036   3.986   3.952   3.701  0.3966  0.0643 -0.6147
 6526SOL    HW131037   3.891   3.956   3.690  0.0687  0.9856  2.5852
 6526SOL    HW231038   4.007   3.879   3.642  1.6705 -1.7570  2.0999
 6527SOL     OW31039   0.439   0.091   2.787  0.1404  0.6290  0.0360
 6527SOL    HW131040   0.507   0.115   2.849  0.0439  1.4394 -0.1696
 6527SOL    HW231041   0.473   0.008   2.754 -0.2752  0.4732 -0.0062
 6528SOL     OW31042   2.446   0.942  17.185  0.1345 -0.4335  0.7231
 6528SOL    HW131043   2.383   0.947  17.257 -0.4001  0.4769  0.1921
 6528SOL    HW231044   2.430   1.023  17.137 -2.2288 -2.2139 -1.5446
 6529SOL     OW31045   3.630   0.666   6.982  0.7121  0.0797  0.2461
 6529SOL    HW131046   3.599   0.723   6.912  2.8254 -0.9141 -1.4813
 6529SOL    HW231047   3.554   0.609   6.998 -0.1686  1.1190 -0.2418
 6530SOL     OW31048   4.204   1.958   8.151 -0.0106 -0.3205  0.3023
 6530SOL    HW131049   4.244   1.881   8.191 -0.4276 -0.1253  1.1053
 6530SOL    HW231050   4.235   1.934   8.064 -1.3734  0.2933 -0.3543
 6531SOL     OW31051   4.633   4.278   8.810 -0.2743  0.0053 -0.1227
 6531SOL    HW131052   4.680   4.340   8.866  0.0946  1.5232 -2.1398
 6531SOL    HW231053   4.633   4.317   8.723 -0.3412 -0.0999 -0.1690
 6532SOL     OW31054   2.775   0.740   6.567 -0.2499 -0.1420  0.1687
 6532SOL    HW131055   2.801   0.652   6.540 -0.2255  0.1780 -0.8358
 6532SOL    HW231056   2.826   0.786   6.501  0.3574  0.4962  1.0876
 6533SOL     OW31057   3.815   2.965   4.835  0.4403  0.3990 -0.1246
 6533SOL    HW131058   3.843   2.873   4.828  2.9197  1.0329  1.5686
 6533SOL    HW231059   3.887   2.994   4.891 -0.2905 -0.3646  1.2345
 6534SOL     OW31060   4.552   1.721   7.128  0.6234 -0.2064  0.2993
 6534SOL    HW131061   4.596   1.651   7.177  0.5468 -0.1457  0.4582
 6534SOL    HW231062   4.468   1.680   7.106 -0.0749  0.0634  2.3846
 6535SOL     OW31063   4.684   1.675   6.514  0.0722  0.7900  1.0090
 6535SOL    HW131064   0.053   1.670   6.507 -0.0260  0.8757 -0.4632
 6535SOL    HW231065   4.670   1.770   6.521  2.7522  1.1183  2.0225
 6536SOL     OW31066   3.572   0.672   5.827  0.0788 -0.4405 -0.4131
 6536SOL    HW131067   3.485   0.694   5.794  0.3370 -0.7954 -1.3393
 6536SOL    HW231068   3.553   0.634   5.913  0.6527  0.0674 -0.0584
 6537SOL     OW31069   1.298   2.038   2.838 -0.7935 -0.3321  0.2329
 6537SOL    HW131070   1.228   2.050   2.775 -1.0877  2.3878  1.0723
 6537SOL    HW231071   1.273   1.957   2.883 -1.9134 -0.0396  0.1335
 6538SOL     OW31072   1.036   4.692   3.545  0.5190  0.1677 -0.3918
 6538SOL    HW131073   1.025   4.714   3.637  0.4065  0.5889 -0.5063
 6538SOL    HW231074   1.087   4.611   3.549 -0.1829 -0.3300 -1.4797
 6539SOL     OW31075   0.028   4.405   9.057  0.1223 -0.2293  0.2504
 6539SOL    HW131076   0.082   4.401   9.136 -1.1762  0.1458  1.1522
 6539SOL    HW231077   4.708   4.321   9.059 -1.3227  0.5355 -0.5384
 6540SOL     OW31078   4.161   2.951   1.463 -0.4737  0.0137 -0.0927
 6540SOL    HW131079   4.135   3.009   1.534  0.5264 -0.5410  0.7264
 6540SOL    HW231080   4.078   2.970   1.419 -0.8568  4.0326  2.3909
 6541SOL     OW31081   3.227   3.277   1.928 -0.0210 -0.3218 -0.1848
 6541SOL    HW131082   3.190   3.304   1.844 -1.5254 -0.5100  0.4238
 6541SOL    HW231083   3.268   3.355   1.965 -0.6128 -0.9929  1.8892
 6542SOL     OW31084   3.924   0.042  13.484  0.3003 -0.2380 -0.4189
 6542SOL    HW131085   3.990   0.069  13.548 -1.3116  0.7823  0.8064
 6542SOL    HW231086   3.862   4.720  13.539  0.0831  1.2360  0.6056
 6543SOL     OW31087   0.818   1.316   3.582 -0.3290  0.0079 -0.0715
 6543SOL    HW131088   0.788   1.238   3.535  1.9733 -0.3831 -0.9216
 6543SOL    HW231089   0.857   1.270   3.657 -1.2484  0.9489  0.9675
 6544SOL     OW31090   3.850   1.296   4.580 -0.2335 -0.3291 -0.1174
 6544SOL    HW131091   3.914   1.224   4.585  0.5702  0.4229  0.3874
 6544SOL    HW231092   3.899   1.339   4.510 -1.0771 -0.3091 -0.6853
 6545SOL     OW31093   2.364   0.256   6.088  0.2262  0.0129 -0.1108
 6545SOL    HW131094   2.294   0.310   6.053 -0.2107 -0.7298 -0.3720
 6545SOL    HW231095   2.433   0.321   6.073  2.5001 -2.5038 -0.5976
 6546SOL     OW31096   4.657   0.788   8.324  0.3222  0.1440 -0.6028
 6546SOL    HW131097   4.578   0.735   8.316 -0.2395  1.4634 -3.7548
 6546SOL    HW231098   4.691   0.763   8.410 -0.3080  0.6652 -0.2031
 6547SOL     OW31099   1.076   4.516   8.193 -0.4545 -0.0493  0.1058
 6547SOL    HW131100   1.123   4.498   8.275 -0.3228 -0.1728  0.0039
 6547SOL    HW231101   0.986   4.515   8.226 -0.1312 -0.7127  0.9894
 6548SOL     OW31102   3.636   2.514   5.635 -0.2319  0.4181 -0.0026
 6548SOL    HW131103   3.622   2.454   5.707 -0.7414 -0.3047 -0.7062
 6548SOL    HW231104   3.545   2.540   5.617 -0.2258  1.1223  0.9533
 6549SOL     OW31105   2.953   4.398   8.389 -0.2743 -0.3743 -0.9730
 6549SOL    HW131106   2.901   4.401   8.308 -0.6435  4.7019 -0.5574
 6549SOL    HW231107   2.931   4.488   8.412  0.2294 -0.3804 -0.4736
 6550SOL     OW31108   2.653   0.060  16.517  0.0277  0.0080  0.7498
 6550SOL    HW131109   2.574   0.044  16.568 -0.6741 -0.4968 -0.4893
 6550SOL    HW231110   2.708   0.015  16.581  0.2550  0.3912  0.8292
 6551SOL     OW31111   2.574   1.974   8.393 -0.7996 -0.2623  0.7710
 6551SOL    HW131112   2.540   1.884   8.395  1.8613 -1.3612 -2.2031
 6551SOL    HW231113   2.495   2.015   8.357 -1.0657 -3.0373 -1.8566
 6552SOL     OW31114   1.215   0.665   7.468  0.1032  0.3428 -0.2149
 6552SOL    HW131115   1.204   0.689   7.376  0.8676  0.9593 -0.1475
 6552SOL    HW231116   1.179   0.736   7.520  0.5189  0.1910  0.2843
 6553SOL     OW31117   3.473   4.439   5.721 -0.1992  0.5685  0.6664
 6553SOL    HW131118   3.379   4.448   5.708 -0.1703 -1.7748 -1.2148
 6553SOL    HW231119   3.491   4.388   5.642 -0.0934  1.1211  0.3308
 6554SOL     OW31120   2.212   0.317   4.418  0.3408 -0.1613 -0.1253
 6554SOL    HW131121   2.266   0.358   4.486 -0.8866  0.4947  0.4490
 6554SOL    HW231122   2.140   0.379   4.415  1.5064  1.2000 -0.2644
 6555SOL     OW31123   0.682   1.598   2.551  0.0175  0.1586 -0.1481
 6555SOL    HW131124   0.755   1.552   2.509  0.4857  0.2398  0.5795
 6555SOL    HW231125   0.657   1.664   2.486  2.3827 -0.2002 -1.4056
 6556SOL     OW31126   2.121   1.149   0.977 -0.2247  0.1211  0.5482
 6556SOL    HW131127   2.093   1.083   1.040 -1.4677 -0.6394 -0.8057
 6556SOL    HW231128   2.079   1.114   0.898 -0.4920 -0.5449  0.9883
 6557SOL     OW31129   0.401   2.117  15.618  0.3449 -0.4166 -0.0359
 6557SOL    HW131130   0.312   2.082  15.626  0.1012 -0.0127 -0.9970
 6557SOL    HW231131   0.402   2.212  15.610  0.0227 -0.4407 -0.3266
 6558SOL     OW31132   3.549   4.652  10.548  0.7165  0.3517 -1.0323
 6558SOL    HW131133   3.513   4.571  10.512  0.3938  0.6934 -1.4635
 6558SOL    HW231134   3.513   4.714  10.485  1.0487  1.3824 -0.2182
 6559SOL     OW31135   0.627   3.001   4.033  0.0323  0.3485 -0.3029
 6559SOL    HW131136   0.702   2.987   4.090 -1.4686  0.5955  1.7320
 6559SOL    HW231137   0.608   2.908   4.022  0.0959  0.5372 -2.0065
 6560SOL     OW31138   4.596   4.107   6.366  0.8519 -0.1786 -0.1299
 6560SOL    HW131139   4.668   4.144   6.417 -0.7306  1.8150  0.7122
 6560SOL    HW231140   4.600   4.158   6.285 -0.6476  0.2719  0.0637
 6561SOL     OW31141   2.710   3.888   9.920  0.2554  0.3720  0.0134
 6561SOL    HW131142   2.796   3.903   9.958 -0.9521  1.3353  2.4233
 6561SOL    HW231143   2.671   3.827   9.982  1.4358 -1.1958 -0.7908
 6562SOL     OW31144   1.195   0.638  10.533  0.1140  0.4724 -0.1726
 6562SOL    HW131145   1.167   0.713  10.585 -0.5539 -2.5350  3.8219
 6562SOL    HW231146   1.216   0.673  10.446 -1.0261  1.4383 -0.0581
 6563SOL     OW31147   3.678   0.374   2.110  0.1675  0.3616 -0.2243
 6563SOL    HW131148   3.695   0.414   2.196  0.4218 -0.6105  0.1812
 6563SOL    HW231149   3.599   0.321   2.125  0.2274  0.2411 -0.3410
 6564SOL     OW31150   1.073   3.435  14.637  0.0114  0.1546 -0.4010
 6564SOL    HW131151   1.023   3.431  14.555  0.4213 -0.9407 -0.5944
 6564SOL    HW231152   0.996   3.442  14.693 -0.1035 -1.1307 -0.4018
 6565SOL     OW31153   4.683   1.889   1.346 -0.1096 -0.0253 -0.2095
 6565SOL    HW131154   0.037   1.887   1.294  2.0610 -1.4280  3.2076
 6565SOL    HW231155   4.628   1.832   1.292 -0.4558 -0.4570  0.5955
 6566SOL     OW31156   3.183   0.974   8.091 -0.0355 -0.4566 -0.2881
 6566SOL    HW131157   3.152   1.059   8.059  0.0911 -0.5365 -0.6258
 6566SOL    HW231158   3.268   0.966   8.047 -1.0719 -0.7465 -2.2552
 6567SOL     OW31159   0.607   1.196   7.825 -0.3358  0.2284 -0.0306
 6567SOL    HW131160   0.531   1.163   7.874 -1.8292 -0.7214 -2.9398
 6567SOL    HW231161   0.688   1.172   7.869 -1.3735 -1.1066  1.1686
 6568SOL     OW31162   2.378   0.014   1.318  0.2702  0.5449 -0.4991
 6568SOL    HW131163   2.408   4.652   1.296 -3.0472 -0.4784 -0.9319
 6568SOL    HW231164   2.391   0.065   1.238  2.0874  0.2474 -0.3821
 6569SOL     OW31165   0.454   1.554   2.003 -0.0788  0.1954 -0.0294
 6569SOL    HW131166   0.507   1.554   1.923  2.4582  0.7327  1.6585
 6569SOL    HW231167   0.418   1.642   2.009  0.7502  0.4634  0.9571
 6570SOL     OW31168   1.356   1.834   8.550 -0.0752 -0.2550  1.1483
 6570SOL    HW131169   1.290   1.901   8.570  0.7528  0.3960  1.6884
 6570SOL    HW231170   1.430   1.861   8.604  1.2562 -0.3137 -0.6788
 6571SOL     OW31171   4.645   0.620   3.998 -0.7142  0.0664 -0.3051
 6571SOL    HW131172   0.011   0.598   3.979 -1.4502 -1.7236 -1.8109
 6571SOL    HW231173   4.610   0.608   3.910  0.3406 -0.8329 -0.6071
 6572SOL     OW31174   3.800   2.568   3.822  0.0997  0.8134  0.1620
 6572SOL    HW131175   3.872   2.545   3.881  0.8486 -1.1210 -1.4703
 6572SOL    HW231176   3.732   2.605   3.878  0.4598 -3.0267  3.1342
 6573SOL     OW31177   2.342   1.139  10.334  0.2071  0.3645 -0.4442
 6573SOL    HW131178   2.350   1.048  10.306  1.7067  0.2249  0.4317
 6573SOL    HW231179   2.272   1.169  10.276  0.2678  2.8983  0.7970
 6574SOL     OW31180   0.171   3.672   8.818  0.3204  0.6355 -0.1762
 6574SOL    HW131181   0.110   3.605   8.788 -0.6754  0.4900  2.2413
 6574SOL    HW231182   0.212   3.635   8.896 -3.9389  0.4462  1.9539
 6575SOL     OW31183   3.246   4.553   7.019  0.0036 -0.1279  0.4899
 6575SOL    HW131184   3.330   4.555   7.066  0.0876  2.4715  0.2546
 6575SOL    HW231185   3.280   4.513   6.939  3.0277 -0.6826  2.0500
 6576SOL     OW31186   2.075   2.573   3.596  0.1844  0.1694  0.0755
 6576SOL    HW131187   2.005   2.614   3.544  0.8023  0.8932 -0.1906
 6576SOL    HW231188   2.112   2.521   3.525  2.0652 -0.3486  1.4495
 6577SOL     OW31189   3.626   2.200  17.312  0.2598 -0.0782  0.1734
 6577SOL    HW131190   3.571   2.270  17.277  1.8918  0.1213 -1.9342
 6577SOL    HW231191   3.564   2.128  17.303 -0.8128  1.2415 -3.0106
 6578SOL     OW31192   2.804   0.900   5.875  0.1921 -0.1384 -0.3828
 6578SOL    HW131193   2.804   0.886   5.969 -0.0532  0.3086 -0.3178
 6578SOL    HW231194   2.800   0.994   5.857  0.2339 -0.1494 -0.4506
 6579SOL     OW31195   4.108   4.326   0.262 -0.1166  0.3666 -0.8305
 6579SOL    HW131196   4.185   4.280   0.231 -2.5555 -3.3483 -1.3458
 6579SOL    HW231197   4.117   4.403   0.205 -1.8959  1.8381  0.8444
 6580SOL     OW31198   1.496   1.295   4.054  0.7453 -0.0393  0.3770
 6580SOL    HW131199   1.571   1.353   4.040 -0.2215  1.3385  0.7808
 6580SOL    HW231200   1.502   1.253   3.968  1.3683  0.6974  0.0561
 6581SOL     OW31201   2.836   2.034   3.182  0.4474 -0.2243  0.2870
 6581SOL    HW131202   2.775   1.962   3.198 -1.3056  1.5338  1.5090
 6581SOL    HW231203   2.882   1.996   3.107  2.0284  1.7847  0.2489
 6582SOL     OW31204   1.134   0.194   4.482 -0.2477 -0.7906 -0.1273
 6582SOL    HW131205   1.167   0.281   4.458 -0.1569 -0.9389 -0.5342
 6582SOL    HW231206   1.181   0.174   4.562 -0.5976  3.2735  1.1182
 6583SOL     OW31207   3.679   0.774   9.945  0.5794 -0.1051 -0.1540
 6583SOL    HW131208   3.651   0.686   9.919  0.3351  0.2503 -1.0951
 6583SOL    HW231209   3.624   0.818   9.880 -0.8071  1.6640  2.2567
 6584SOL     OW31210   4.083   2.145   4.875  0.8380  0.0963 -0.8353
 6584SOL    HW131211   4.093   2.115   4.785  0.9095  1.1640 -1.1811
 6584SOL    HW231212   4.103   2.065   4.925  0.0954 -0.5741 -1.6081
 6585SOL     OW31213   3.423   2.739   3.148 -0.5025 -0.1167 -0.5405
 6585SOL    HW131214   3.438   2.787   3.229  0.4589  0.1483 -0.8763
 6585SOL    HW231215   3.363   2.674   3.186  1.5715 -1.9372 -0.4089
 6586SOL     OW31216   2.408   2.872   9.671  0.1730  0.4666  0.0364
 6586SOL    HW131217   2.313   2.875   9.661  0.3687 -1.2237 -2.2229
 6586SOL    HW231218   2.429   2.956   9.711 -0.1187  0.7980 -0.5128
 6587SOL     OW31219   4.231   0.766  14.529  0.3550 -0.0773 -0.0995
 6587SOL    HW131220   4.281   0.816  14.465 -1.7347  0.7340 -1.0918
 6587SOL    HW231221   4.158   0.731  14.477  3.7534 -2.9008 -2.9968
 6588SOL     OW31222   1.123   4.169   9.918  0.1232 -0.4434  0.7680
 6588SOL    HW131223   1.047   4.113   9.932 -0.1441 -0.6641 -1.6593
 6588SOL    HW231224   1.117   4.182   9.824  2.7310  0.7601  0.7771
 6589SOL     OW31225   1.566   4.695  14.424 -0.0832  1.0728 -0.0487
 6589SOL    HW131226   1.540   0.001  14.511  0.5713  0.6873  0.2859
 6589SOL    HW231227   1.621   4.619  14.441  0.1158  0.5969 -2.8993
 6590SOL     OW31228   0.145   1.465   8.453  0.3776  0.1062 -0.0510
 6590SOL    HW131229   0.218   1.522   8.430  1.4201 -0.5700  1.6018
 6590SOL    HW231230   0.083   1.532   8.482 -0.1005 -0.7685  0.9725
 6591SOL     OW31231   4.652   1.638   8.506 -0.0313 -0.2985  0.3014
 6591SOL    HW131232   4.599   1.608   8.579 -1.2070  1.3633  0.1230
 6591SOL    HW231233   4.637   1.732   8.501 -0.8281 -0.3137  2.3288
 6592SOL     OW31234   2.018   0.010   7.436  0.1419 -0.0295  0.0697
 6592SOL    HW131235   2.093   0.069   7.444 -0.7571  1.1263 -0.0300
 6592SOL    HW231236   1.943   0.054   7.474 -0.4702 -2.0357  1.2037
 6593SOL     OW31237   4.558   1.997  11.964  0.3308  0.4403  0.7729
 6593SOL    HW131238   4.525   1.935  11.899  2.6492  0.9922 -0.9275
 6593SOL    HW231239   4.475   2.033  11.996 -1.6349 -0.6054 -3.1419
 6594SOL     OW31240   2.784   1.924   2.499 -0.3836 -0.0834 -0.4289
 6594SOL    HW131241   2.864   1.975   2.483 -1.1694  0.8666 -1.3133
 6594SOL    HW231242   2.737   1.951   2.421  1.8325  1.5030 -1.2221
 6595SOL     OW31243   1.319   3.211   8.822  0.4208 -0.0859 -0.2076
 6595SOL    HW131244   1.238   3.193   8.774  1.6977  0.4440 -2.5193
 6595SOL    HW231245   1.334   3.301   8.793 -0.7814 -0.4199 -1.8676
 6596SOL     OW31246   0.398   0.976  17.580  1.0048 -0.1055  0.5936
 6596SOL    HW131247   0.493   0.978  17.589  0.9734  0.9286  0.6813
 6596SOL    HW231248   0.364   0.979  17.669  0.8087  0.5640  0.4922
 6597SOL     OW31249   4.036   1.819   6.270  0.4910  0.0713  0.0109
 6597SOL    HW131250   4.124   1.843   6.298  0.7615 -2.1298  1.0711
 6597SOL    HW231251   4.033   1.871   6.191  2.3387  0.5545  0.2741
 6598SOL     OW31252   2.797   3.513   9.055  0.5731 -0.0555 -0.5069
 6598SOL    HW131253   2.844   3.573   9.113  1.9970 -0.8930 -0.8111
 6598SOL    HW231254   2.781   3.436   9.110  0.2077  0.1242 -0.3600
 6599SOL     OW31255   3.453   1.349   2.627 -0.5025  0.4230 -0.3859
 6599SOL    HW131256   3.466   1.333   2.534 -4.1683 -1.9381 -0.4771
 6599SOL    HW231257   3.544   1.351   2.658  0.1727  2.1373 -2.4937
 6600SOL     OW31258   3.008   2.655   0.811  0.2324 -0.3220  0.3851
 6600SOL    HW131259   2.975   2.711   0.882  1.0815 -1.1032  1.3774
 6600SOL    HW231260   3.040   2.727   0.755  0.7058 -0.5546  0.3630
 6601SOL     OW31261   3.139   2.534   7.283 -0.7376 -0.6036 -0.0741
 6601SOL    HW131262   3.186   2.451   7.272 -0.7705 -0.5295 -0.7249
 6601SOL    HW231263   3.068   2.513   7.344 -0.9990  0.6326  0.0417
 6602SOL     OW31264   2.459   2.058   2.661  0.1914 -0.0265 -0.0650
 6602SOL    HW131265   2.383   1.999   2.665  1.7684 -1.9813  1.2288
 6602SOL    HW231266   2.524   1.988   2.648 -1.4078 -1.7946  1.3040
 6603SOL     OW31267   2.725   2.392   9.304 -0.3634  0.3537 -0.3799
 6603SOL    HW131268   2.800   2.395   9.246 -0.7774  0.1393 -0.9258
 6603SOL    HW231269   2.748   2.347   9.386 -0.4945  0.4767 -0.2743
 6604SOL     OW31270   0.994   3.222   8.099 -0.0898  0.2770  0.4261
 6604SOL    HW131271   0.958   3.243   8.185  0.9223 -0.8892  1.1403
 6604SOL    HW231272   1.084   3.203   8.127  0.2989  0.5686 -0.6532
 6605SOL     OW31273   1.243   1.800   2.941  0.4043 -0.3823 -0.5557
 6605SOL    HW131274   1.220   1.732   2.879  0.2129 -1.5683  0.8053
 6605SOL    HW231275   1.154   1.826   2.965  0.7459  1.0270 -0.7905
 6606SOL     OW31276   3.239   3.199   1.535  0.6048 -0.3856 -0.0608
 6606SOL    HW131277   3.231   3.176   1.442 -1.2119 -0.5098  0.1318
 6606SOL    HW231278   3.207   3.125   1.586 -0.8556  2.1684  2.7559
 6607SOL     OW31279   4.394   4.201  10.048 -0.1601  0.1091 -0.3196
 6607SOL    HW131280   4.302   4.224  10.047 -0.8026 -2.5664 -2.7545
 6607SOL    HW231281   4.434   4.285  10.069 -1.6340  0.5204  0.7830
 6608SOL     OW31282   1.044   0.340   2.087  0.0948  0.1078  0.7574
 6608SOL    HW131283   1.099   0.264   2.070 -0.6607 -0.2410 -0.1149
 6608SOL    HW231284   1.031   0.371   1.998  0.8534 -0.4323  0.4604
 6609SOL     OW31285   1.908   3.000   5.887  0.0262  0.3119 -0.8464
 6609SOL    HW131286   1.953   3.084   5.889 -1.3051  0.9785  0.3447
 6609SOL    HW231287   1.981   2.949   5.922  0.1324  0.7622 -0.4220
 6610SOL     OW31288   0.804   0.255  11.907  0.5505 -0.3988  0.0519
 6610SOL    HW131289   0.806   0.270  12.002 -1.1693 -2.6183  0.4421
 6610SOL    HW231290   0.881   0.198  11.903  1.3188  0.6500 -0.0385
 6611SOL     OW31291   1.439   0.442   5.037 -0.0087 -0.4787 -0.1182
 6611SOL    HW131292   1.420   0.369   5.096 -1.0486 -0.6604 -0.6644
 6611SOL    HW231293   1.430   0.521   5.091  0.5940 -1.2230  1.0610
 6612SOL     OW31294   2.551   4.478   8.149 -0.3827  0.2177  0.0429
 6612SOL    HW131295   2.504   4.496   8.231 -1.1856  0.3171 -0.4410
 6612SOL    HW231296   2.480   4.464   8.086 -1.8141 -0.9642  1.9253
 6613SOL     OW31297   3.102   3.752   3.490  0.5218 -0.6769 -0.1556
 6613SOL    HW131298   3.024   3.773   3.438  0.5542  1.3372  0.6072
 6613SOL    HW231299   3.160   3.827   3.483 -1.3192  0.6110 -1.6021
 6614SOL     OW31300   3.317   1.577   5.009 -0.4677  0.1570 -0.3221
 6614SOL    HW131301   3.294   1.519   5.081 -0.0305  0.0330 -0.2778
 6614SOL    HW231302   3.380   1.533   4.952  0.3079  2.4316 -1.2431
 6615SOL     OW31303   0.031   3.539   1.231 -0.2412  0.2714 -0.6673
 6615SOL    HW131304   0.048   3.504   1.319 -1.0089  2.1685  0.2510
 6615SOL    HW231305   0.052   3.630   1.253 -1.6246  0.3929  0.1853
 6616SOL     OW31306   1.085   3.143   6.012 -0.0183 -0.7141  0.1922
 6616SOL    HW131307   1.130   3.227   6.001 -0.0448 -0.8472 -0.9345
 6616SOL    HW231308   1.147   3.099   6.071  0.4042 -0.9365 -0.4147
 6617SOL     OW31309   4.701   2.764  13.069  0.1711  0.0467  0.1178
 6617SOL    HW131310   0.025   2.772  12.987  1.3850  1.6388  1.0125
 6617SOL    HW231311   0.006   2.837  13.122  1.4438 -2.0738  2.2739
 6618SOL     OW31312   2.539   4.598   6.193  0.7967  0.0665 -0.5257
 6618SOL    HW131313   2.588   4.519   6.169  1.4989  0.6567 -1.0471
 6618SOL    HW231314   2.561   4.608   6.286 -0.2801 -0.9542 -0.1724
 6619SOL     OW31315   0.741   2.042   3.002  0.0668  0.5713 -0.5616
 6619SOL    HW131316   0.754   2.079   2.914 -0.5673  1.5989 -0.2207
 6619SOL    HW231317   0.674   1.976   2.983 -0.1961  0.6542  0.1016
 6620SOL     OW31318   1.473   3.494   5.106 -0.2473  0.6987  1.4302
 6620SOL    HW131319   1.393   3.545   5.121 -0.2286  0.7578  1.3305
 6620SOL    HW231320   1.489   3.526   5.017  2.0696 -2.5663  0.6724
 6621SOL     OW31321   0.998   3.265   4.097  0.4289 -0.7454  0.0008
 6621SOL    HW131322   0.950   3.299   4.021 -0.6173  0.9145  1.4275
 6621SOL    HW231323   1.076   3.319   4.103 -1.7373  2.3583  0.6161
 6622SOL     OW31324   4.022   0.076  10.366 -0.3526  0.2888 -0.0382
 6622SOL    HW131325   4.005   0.107  10.277 -2.4155 -0.8823 -0.0436
 6622SOL    HW231326   4.106   0.031  10.362  0.9358  2.8066 -1.7049
 6623SOL     OW31327   0.721   3.473   6.016 -1.0259 -0.1454 -0.2295
 6623SOL    HW131328   0.711   3.530   5.940 -2.1049 -0.5492 -0.3869
 6623SOL    HW231329   0.641   3.499   6.062 -0.3462  0.7511  0.4443
 6624SOL     OW31330   1.401   1.399   4.605  0.0246  0.3638 -0.1784
 6624SOL    HW131331   1.324   1.347   4.630  1.3517 -1.3086  0.4333
 6624SOL    HW231332   1.367   1.485   4.581 -1.0835  0.2926  1.1165
 6625SOL     OW31333   3.866   0.027   8.307 -0.5561  0.3943 -0.1293
 6625SOL    HW131334   3.904   0.106   8.344  1.4402 -0.2432 -0.8368
 6625SOL    HW231335   3.851   0.061   8.219  1.1773  2.2350  0.2908
 6626SOL     OW31336   3.038   1.883   0.751  0.3344  0.1519 -0.1574
 6626SOL    HW131337   3.027   1.877   0.656  0.2240 -0.0687 -0.1321
 6626SOL    HW231338   3.119   1.832   0.749  0.1885  0.0092 -3.0406
 6627SOL     OW31339   1.569   2.366   9.584  0.2534 -0.1433  0.4748
 6627SOL    HW131340   1.533   2.437   9.636  1.1600  2.1064 -1.9703
 6627SOL    HW231341   1.659   2.396   9.567 -0.1834 -0.2608 -2.0755
 6628SOL     OW31342   1.144   3.943   3.840  0.1842  0.0653 -0.8319
 6628SOL    HW131343   1.150   3.980   3.752  0.1177  0.1007 -0.8212
 6628SOL    HW231344   1.186   3.857   3.827 -1.0354 -0.6048 -0.2997
 6629SOL     OW31345   2.517   0.471   7.740  0.1605 -0.8743 -0.4275
 6629SOL    HW131346   2.609   0.499   7.732  0.1353 -0.8297 -0.5575
 6629SOL    HW231347   2.501   0.470   7.834 -0.8477  0.6575 -0.5924
 6630SOL     OW31348   2.173   1.755   8.873 -0.0131  0.3505 -0.1620
 6630SOL    HW131349   2.187   1.676   8.821 -2.2533  0.1703 -0.5134
 6630SOL    HW231350   2.118   1.715   8.941 -1.4013  0.7338 -1.0580
 6631SOL     OW31351   3.395   4.637  10.065 -0.2080 -0.2553 -0.0262
 6631SOL    HW131352   3.463   4.693  10.104 -0.8698  0.0379  0.7235
 6631SOL    HW231353   3.409   4.665   9.975  1.2861  1.9606  0.8837
 6632SOL     OW31354   2.918   4.440   4.280 -0.5628 -0.3761 -0.6840
 6632SOL    HW131355   2.874   4.498   4.342 -1.8341  1.3998 -3.2504
 6632SOL    HW231356   2.951   4.371   4.337 -1.1363  0.7001  0.9647
 6633SOL     OW31357   2.108   1.980   8.668 -0.3448  0.5084  0.3109
 6633SOL    HW131358   2.113   1.896   8.714  1.1878  0.7562  0.6005
 6633SOL    HW231359   2.161   1.966   8.590  2.5674  0.8186  2.2290
 6634SOL     OW31360   1.604   1.631  16.028 -0.5733 -0.2661  0.1330
 6634SOL    HW131361   1.550   1.657  16.103 -0.2104  0.4686  0.1371
 6634SOL    HW231362   1.540   1.638  15.957  0.4154  0.2555 -0.7026
 6635SOL     OW31363   4.467   0.304   0.353 -0.0191 -0.8373  0.0621
 6635SOL    HW131364   4.499   0.387   0.387 -1.5510  0.6768 -2.1982
 6635SOL    HW231365   4.427   0.333   0.271 -0.0398  0.1991  0.4329
 6636SOL     OW31366   1.852   3.125   7.052 -0.7174 -0.5512  0.7981
 6636SOL    HW131367   1.943   3.152   7.040 -0.4070 -1.5021  0.9444
 6636SOL    HW231368   1.802   3.198   7.016 -0.6785  1.1008  4.0726
 6637SOL     OW31369   2.501   0.815   8.078  0.3937  0.9329 -0.1464
 6637SOL    HW131370   2.550   0.737   8.052 -0.4894  0.1017  0.6792
 6637SOL    HW231371   2.457   0.826   7.994 -1.0624 -1.3516  0.3288
 6638SOL     OW31372   4.654   3.660   3.809 -0.2441  0.0776 -0.2758
 6638SOL    HW131373   4.706   3.682   3.731  0.5962 -1.3465 -0.1206
 6638SOL    HW231374   4.716   3.601   3.853 -0.9373 -1.6903 -1.6687
 6639SOL     OW31375   1.515   4.361   9.696  0.2315  0.1914 -0.1008
 6639SOL    HW131376   1.502   4.369   9.791  1.0603 -1.0856  0.1189
 6639SOL    HW231377   1.603   4.397   9.690 -0.1665  0.8315 -1.9303
 6640SOL     OW31378   3.685   4.222   5.784 -0.4168  0.3938 -0.7888
 6640SOL    HW131379   3.619   4.205   5.717 -0.8792  3.0729 -1.0103
 6640SOL    HW231380   3.719   4.134   5.800 -0.7458  0.8922  2.6654
 6641SOL     OW31381   1.384   3.937   2.585  0.1786  0.0732 -0.2874
 6641SOL    HW131382   1.382   4.030   2.560  0.5054  0.3267  0.6047
 6641SOL    HW231383   1.293   3.919   2.606  0.5996  0.0356  1.4880
 6642SOL     OW31384   1.373   4.218   3.913  0.1357 -0.0267 -0.8016
 6642SOL    HW131385   1.361   4.124   3.902 -2.9116  0.2164  0.4265
 6642SOL    HW231386   1.445   4.236   3.852  1.2262  0.0965  0.5145
 6643SOL     OW31387   3.785   3.467   8.738  0.2351 -0.4307 -0.0455
 6643SOL    HW131388   3.781   3.553   8.779 -1.6939 -0.1888 -0.7819
 6643SOL    HW231389   3.758   3.479   8.647 -0.6233  0.8013  0.3837
 6644SOL     OW31390   3.158   2.407  14.944  0.1828  0.0945 -0.6093
 6644SOL    HW131391   3.152   2.362  14.860  1.6596 -2.4760  0.6413
 6644SOL    HW231392   3.100   2.354  14.999  2.9544 -2.7861 -0.4529
 6645SOL     OW31393   4.593   1.300   3.540  0.1898  0.5033  0.2992
 6645SOL    HW131394   4.557   1.372   3.591 -0.0148 -0.0949  0.9923
 6645SOL    HW231395   4.628   1.239   3.604 -1.1332 -0.1984  0.3483
 6646SOL     OW31396   3.865   4.108   9.646 -0.4580  0.1160 -0.1136
 6646SOL    HW131397   3.951   4.137   9.617 -0.1183 -1.3646 -0.5601
 6646SOL    HW231398   3.888   4.060   9.725 -2.9101 -1.1176 -0.1686
 6647SOL     OW31399   3.018   3.115   3.907 -0.0335 -0.1780  0.1253
 6647SOL    HW131400   2.970   3.196   3.925  0.7847  0.8018 -2.2205
 6647SOL    HW231401   2.954   3.067   3.855 -0.1279  1.1824 -1.0012
 6648SOL     OW31402   4.020   0.685   4.814 -0.3140  0.1997  0.7201
 6648SOL    HW131403   3.948   0.626   4.796  0.2415 -0.6975  1.4585
 6648SOL    HW231404   4.064   0.633   4.881  0.2438 -2.1684 -1.4952
 6649SOL     OW31405   1.035   0.066   5.737  0.6743  0.0434 -0.5608
 6649SOL    HW131406   1.056   0.160   5.740 -1.9307  0.5790  1.1871
 6649SOL    HW231407   1.109   0.011   5.763  0.1866 -0.1622  0.4064
 6650SOL     OW31408   1.572   1.584   4.907 -0.0856  0.6577 -0.6224
 6650SOL    HW131409   1.617   1.659   4.946  0.6653  0.6440 -1.4385
 6650SOL    HW231410   1.490   1.631   4.893 -0.2989  0.0949 -1.2842
 6651SOL     OW31411   2.902   2.879   4.646 -0.6223  0.1679  0.4455
 6651SOL    HW131412   2.904   2.974   4.635  0.2402 -0.1113 -1.9195
 6651SOL    HW231413   2.818   2.859   4.604 -0.9929  2.3406  0.1229
 6652SOL     OW31414   3.554   1.657   8.960  0.0256  0.2998  0.4599
 6652SOL    HW131415   3.475   1.648   9.013  0.9876  1.5187  2.1369
 6652SOL    HW231416   3.517   1.693   8.880 -0.5290 -0.1414  0.5185
 6653SOL     OW31417   2.544   3.942  10.843 -0.1746 -0.1992  0.6338
 6653SOL    HW131418   2.486   3.866  10.843 -0.0243 -0.3002 -1.0511
 6653SOL    HW231419   2.620   3.905  10.799 -2.0335  0.4247 -3.0500
 6654SOL     OW31420   1.456   2.643   7.390  0.2252  0.9524 -0.0608
 6654SOL    HW131421   1.372   2.680   7.417 -0.1538 -1.2730  1.7859
 6654SOL    HW231422   1.509   2.693   7.452 -0.5286  1.0081  0.5347
 6655SOL     OW31423   3.456   0.606  13.149  0.6713  0.0321 -0.0392
 6655SOL    HW131424   3.413   0.528  13.113 -1.6615  1.4318 -0.2252
 6655SOL    HW231425   3.510   0.578  13.224  1.6647  0.5823 -0.5491
 6656SOL     OW31426   1.214   2.333   7.959 -0.8260  0.0257 -0.1487
 6656SOL    HW131427   1.188   2.407   7.904 -1.6091  0.5123  0.8856
 6656SOL    HW231428   1.167   2.265   7.911 -1.7919  0.7062 -0.1665
 6657SOL     OW31429   1.732   2.145  13.611 -0.0603  0.5155 -0.0332
 6657SOL    HW131430   1.710   2.210  13.677  1.2874  1.2806 -0.3394
 6657SOL    HW231431   1.678   2.073  13.643 -0.7833  0.3444 -1.6422
 6658SOL     OW31432   4.709   3.910   2.632  0.0588  0.5040  0.1455
 6658SOL    HW131433   4.651   3.846   2.673  0.4253  0.4682  0.6023
 6658SOL    HW231434   0.065   3.886   2.676 -0.5093 -1.3589  0.1749
 6659SOL     OW31435   0.996   0.612  17.463 -0.0837 -0.7690  0.3966
 6659SOL    HW131436   1.003   0.522  17.431  1.3800  0.6947 -3.5063
 6659SOL    HW231437   1.029   0.659  17.386 -0.9124 -0.7578  0.0526
 6660SOL     OW31438   0.476   0.179   4.268  0.3385  0.1970 -0.3441
 6660SOL    HW131439   0.421   0.131   4.329  1.8065 -0.4460  0.4855
 6660SOL    HW231440   0.425   0.260   4.267 -0.8464 -0.5512 -0.4759
 6661SOL     OW31441   4.138   1.837   6.736  0.9364 -0.0098  0.2773
 6661SOL    HW131442   4.149   1.907   6.672  0.4164  0.8305  1.1109
 6661SOL    HW231443   4.043   1.834   6.745  0.8023  0.8188 -0.9193
 6662SOL     OW31444   3.389   2.500   1.424 -0.3500 -0.3720 -0.5674
 6662SOL    HW131445   3.415   2.514   1.333 -0.6248  1.6906 -0.3241
 6662SOL    HW231446   3.307   2.456   1.403  0.4088 -1.8079 -0.5842
 6663SOL     OW31447   1.586   1.309   8.286  0.1518  0.4695 -0.4600
 6663SOL    HW131448   1.677   1.337   8.282 -0.2177  1.7313 -0.0186
 6663SOL    HW231449   1.588   1.224   8.243  0.5133  0.1569  0.1917
 6664SOL     OW31450   0.268   2.190   9.631 -0.4248 -0.5963 -0.6143
 6664SOL    HW131451   0.266   2.169   9.538  0.7352 -0.2584 -0.7131
 6664SOL    HW231452   0.289   2.103   9.664 -0.6532 -0.9489 -1.4180
 6665SOL     OW31453   1.130   0.095   6.522  0.0367  0.1476 -0.7064
 6665SOL    HW131454   1.076   0.032   6.569 -1.1806  1.9600  0.3200
 6665SOL    HW231455   1.085   0.175   6.548  0.9772  0.8515 -1.2012
 6666SOL     OW31456   2.840   3.139   5.029  0.0903  0.2707 -0.4317
 6666SOL    HW131457   2.773   3.200   4.998 -0.8510 -0.8680 -0.6448
 6666SOL    HW231458   2.917   3.195   5.033  0.8444 -0.6182 -2.2440
 6667SOL     OW31459   3.149   1.506   1.987  0.3264  0.3764 -0.8319
 6667SOL    HW131460   3.192   1.574   1.935  2.3606  0.5944  1.1126
 6667SOL    HW231461   3.194   1.427   1.957 -0.9064  0.4148 -2.7331
 6668SOL     OW31462   4.562   1.031   0.620 -0.5848  0.2513  0.2842
 6668SOL    HW131463   4.484   1.023   0.565  1.1500  0.1876 -2.1705
 6668SOL    HW231464   4.522   1.078   0.693  0.6140 -1.3736  1.9496
 6669SOL     OW31465   2.271   4.654   6.803 -0.2249  0.3485  0.0940
 6669SOL    HW131466   2.198   4.698   6.847 -0.7668 -0.1293 -0.3260
 6669SOL    HW231467   2.269   4.688   6.713 -1.6080  1.7016  0.6486
 6670SOL     OW31468   2.228   3.304   3.073 -0.1760 -0.3793 -0.6143
 6670SOL    HW131469   2.195   3.254   3.148  1.4238  4.7731  3.5771
 6670SOL    HW231470   2.151   3.328   3.022 -0.2853  0.0133 -0.2737
 6671SOL     OW31471   2.328   4.642   5.046  0.3600 -0.3373  0.1355
 6671SOL    HW131472   2.365   4.723   5.009 -1.3987  0.5636  0.3269
 6671SOL    HW231473   2.326   4.586   4.969  0.0573 -0.6397  0.3656
 6672SOL     OW31474   3.405   0.769   9.255 -0.5101  0.1316  0.5731
 6672SOL    HW131475   3.325   0.789   9.304 -0.8687  0.1091 -0.0026
 6672SOL    HW231476   3.369   0.683   9.233  1.2136 -0.0117 -1.6020
 6673SOL     OW31477   3.644   1.279   1.480  0.6617  0.0807 -0.0920
 6673SOL    HW131478   3.647   1.351   1.542 -1.9130 -0.6863  0.9567
 6673SOL    HW231479   3.619   1.205   1.535 -0.5783  0.9521  0.5136
 6674SOL     OW31480   2.754   0.831   6.850 -0.5213  0.1990 -0.6034
 6674SOL    HW131481   2.660   0.823   6.867 -0.6177  0.1962 -1.1433
 6674SOL    HW231482   2.763   0.782   6.769  1.1831  1.3776 -1.1221
 6675SOL     OW31483   2.245   1.824   2.139 -0.4862 -0.1131 -0.2992
 6675SOL    HW131484   2.293   1.843   2.059  0.1560 -1.4993 -0.2341
 6675SOL    HW231485   2.314   1.835   2.204 -0.7041 -0.0042 -0.0824
 6676SOL     OW31486   0.898   0.590  10.544 -0.1235 -0.2989 -0.1373
 6676SOL    HW131487   0.841   0.661  10.515 -0.5528 -0.4145  0.4092
 6676SOL    HW231488   0.831   0.522  10.552  0.2876 -0.5858  0.8777
 6677SOL     OW31489   1.645   2.856   3.258  0.1367 -0.1411  0.1888
 6677SOL    HW131490   1.593   2.898   3.327 -0.5034  0.4005 -0.6126
 6677SOL    HW231491   1.628   2.768   3.292  0.3447 -0.8083 -1.4326
 6678SOL     OW31492   0.251   0.150   1.887  0.1125 -0.4167  0.2318
 6678SOL    HW131493   0.346   0.159   1.885  0.0436 -0.0010 -0.9366
 6678SOL    HW231494   0.242   0.094   1.964  4.2235 -1.1667  0.1725
 6679SOL     OW31495   1.008   1.900   4.658 -0.4255  0.4214 -0.0873
 6679SOL    HW131496   0.949   1.915   4.584  1.3634 -1.2087 -1.8532
 6679SOL    HW231497   1.025   1.808   4.639 -0.6208 -0.0427  1.9490
 6680SOL     OW31498   1.615   3.722   8.186 -0.3248 -0.4238 -0.0894
 6680SOL    HW131499   1.591   3.793   8.245  1.6776  0.4500 -0.3209
 6680SOL    HW231500   1.696   3.756   8.148 -0.9941  1.3421  0.0619
 6681SOL     OW31501   0.598   3.932  13.992 -0.5222  0.4597 -0.3739
 6681SOL    HW131502   0.564   3.866  14.052  0.3778 -1.4306 -1.9465
 6681SOL    HW231503   0.515   3.974  13.969 -0.2984  0.4819 -1.1235
 6682SOL     OW31504   3.278   3.615   8.212 -0.2165  0.0163 -0.0088
 6682SOL    HW131505   3.292   3.588   8.303  0.3232 -1.7628 -0.6353
 6682SOL    HW231506   3.319   3.701   8.201 -0.7783  0.3537  0.5030
 6683SOL     OW31507   3.118   1.621   7.450 -0.2321  0.4934  0.3112
 6683SOL    HW131508   3.196   1.594   7.401 -0.8656  0.9956 -0.9657
 6683SOL    HW231509   3.135   1.559   7.521  0.7602  1.2415  0.7249
 6684SOL     OW31510   1.366   4.539   9.190 -0.2335  0.2840 -0.3232
 6684SOL    HW131511   1.454   4.531   9.225 -0.3041  2.0633  0.2578
 6684SOL    HW231512   1.331   4.619   9.227  0.7570  0.5795 -0.0297
 6685SOL     OW31513   2.414   1.371  16.891 -0.0426  0.1138 -0.0879
 6685SOL    HW131514   2.355   1.418  16.949 -1.1730  1.2968 -2.2233
 6685SOL    HW231515   2.389   1.412  16.809  0.4618 -0.8065 -0.7023
 6686SOL     OW31516   0.095   1.362  12.150 -0.4113  0.1885 -0.2770
 6686SOL    HW131517   0.075   1.377  12.242 -0.0296  1.8553 -0.4646
 6686SOL    HW231518   0.077   1.441  12.099 -0.1957 -0.7341 -1.7630
 6687SOL     OW31519   2.869   0.472   4.386  0.5309  0.0974 -0.4748
 6687SOL    HW131520   2.800   0.408   4.366 -0.5211  0.7855  0.9073
 6687SOL    HW231521   2.868   0.470   4.481 -1.2797 -0.7924 -0.5032
 6688SOL     OW31522   3.680   2.387   1.288 -0.2880  0.6194 -0.0190
 6688SOL    HW131523   3.612   2.320   1.301  2.0545 -2.0482 -1.5292
 6688SOL    HW231524   3.724   2.361   1.207 -1.9449  0.6553 -0.9461
 6689SOL     OW31525   1.689   2.275  14.628  0.2599 -0.4490 -0.2661
 6689SOL    HW131526   1.750   2.248  14.697  0.3212 -0.1802 -0.2128
 6689SOL    HW231527   1.734   2.357  14.606 -1.9769  0.9919  0.5751
 6690SOL     OW31528   2.755   2.112  17.494  0.3390 -0.2530  0.2559
 6690SOL    HW131529   2.793   2.180  17.438  1.8857 -0.6265  0.8438
 6690SOL    HW231530   2.824   2.046  17.488  2.8096  2.2958  0.4418
 6691SOL     OW31531   0.479   2.868  12.888  0.1276 -0.7704 -0.5508
 6691SOL    HW131532   0.497   2.941  12.828 -0.7758  2.0874  2.6373
 6691SOL    HW231533   0.520   2.790  12.851  0.8270 -0.8055  0.3091
 6692SOL     OW31534   0.372   2.839   5.306  0.1339  0.5867 -0.4174
 6692SOL    HW131535   0.376   2.759   5.254  3.1516  1.1873 -1.1092
 6692SOL    HW231536   0.318   2.813   5.380  3.1208  0.3378  1.6576
 6693SOL     OW31537   3.304   3.364  16.865 -0.4685  0.5382 -0.0962
 6693SOL    HW131538   3.273   3.428  16.929 -0.0607 -0.7275  1.3868
 6693SOL    HW231539   3.223   3.372  16.816 -1.1487  0.1606  0.9772
 6694SOL     OW31540   3.238   3.124   5.637  0.4007  0.0710 -0.1105
 6694SOL    HW131541   3.235   3.046   5.693 -0.6884 -0.3658 -0.7816
 6694SOL    HW231542   3.152   3.125   5.596  1.2968  4.4743 -1.8629
 6695SOL     OW31543   3.322   1.523   5.389 -0.1362 -1.0591 -0.1167
 6695SOL    HW131544   3.230   1.542   5.409  0.5551  0.3078  1.7057
 6695SOL    HW231545   3.325   1.451   5.326 -1.6654  0.5247 -2.0502
 6696SOL     OW31546   0.487   4.207  16.288  0.2463 -0.4159  0.8463
 6696SOL    HW131547   0.519   4.184  16.201 -3.0044 -1.7016 -0.0036
 6696SOL    HW231548   0.476   4.122  16.330 -0.4996 -1.4677 -1.4747
 6697SOL     OW31549   3.858   2.768   3.156 -0.3168  0.1761 -0.2129
 6697SOL    HW131550   3.912   2.695   3.186 -0.0145  1.1260  1.5892
 6697SOL    HW231551   3.820   2.795   3.240  0.6461 -0.7795  0.5314
 6698SOL     OW31552   2.927   2.966  10.017 -0.2486  0.0641 -0.1048
 6698SOL    HW131553   2.927   2.903   9.945 -1.1829  0.2866 -0.3000
 6698SOL    HW231554   2.834   2.988  10.019 -0.3402 -0.5714  2.6138
 6699SOL     OW31555   0.453   3.506  11.966 -0.0069  0.0192 -0.2955
 6699SOL    HW131556   0.440   3.476  12.056 -3.4524  2.0123 -0.1191
 6699SOL    HW231557   0.421   3.596  11.970 -2.5099 -1.0161  2.8779
 6700SOL     OW31558   3.852   4.704   3.972 -0.0558  0.1073 -0.3747
 6700SOL    HW131559   3.947   4.706   3.961 -0.1021  1.2566 -0.5735
 6700SOL    HW231560   3.827   4.613   3.957  0.7054  0.0112 -1.0505
 6701SOL     OW31561   0.257   2.661   8.713  0.0748 -0.4591  0.3129
 6701SOL    HW131562   0.281   2.603   8.641  0.8510  1.0001 -0.6114
 6701SOL    HW231563   0.198   2.727   8.677  1.2420  0.1830 -0.4403
 6702SOL     OW31564   1.796   1.520   5.291  0.3982 -0.2632 -0.6023
 6702SOL    HW131565   1.836   1.587   5.237 -0.1567 -0.6627 -1.5081
 6702SOL    HW231566   1.867   1.487   5.345 -0.9299  0.5465  1.6387
 6703SOL     OW31567   3.959   2.717   1.520 -0.3120  0.0225  0.3884
 6703SOL    HW131568   3.895   2.650   1.495  1.5345 -1.3607 -0.6351
 6703SOL    HW231569   4.034   2.686   1.469 -0.0102  0.3593  0.6338
 6704SOL     OW31570   2.410   0.798  14.865  0.7282 -0.4873 -0.4351
 6704SOL    HW131571   2.478   0.731  14.873 -0.3555 -1.5842 -0.4459
 6704SOL    HW231572   2.337   0.740  14.890  1.8071 -1.3343  0.7782
 6705SOL     OW31573   4.158   1.432   6.833 -0.4630 -0.2129 -0.1398
 6705SOL    HW131574   4.116   1.371   6.772 -0.5518 -0.3525  0.0629
 6705SOL    HW231575   4.229   1.462   6.776  1.6605 -1.0527  2.1112
 6706SOL     OW31576   2.654   2.595   9.752 -0.3134  0.0191  0.4125
 6706SOL    HW131577   2.577   2.558   9.795 -1.0507 -0.7900 -1.5963
 6706SOL    HW231578   2.624   2.593   9.661  2.9819  0.3511 -0.6939
 6707SOL     OW31579   3.070   3.222   9.102 -0.3966 -0.0376 -0.4022
 6707SOL    HW131580   3.138   3.213   9.169  1.2129 -0.8341 -2.1475
 6707SOL    HW231581   3.054   3.314   9.078 -1.3312 -0.1926 -0.3439
 6708SOL     OW31582   1.844   3.003   6.170 -0.5662  0.0377 -0.3741
 6708SOL    HW131583   1.784   2.967   6.105  2.5814 -1.6521 -2.3850
 6708SOL    HW231584   1.884   3.062   6.106  2.2946 -1.0064  0.4587
 6709SOL     OW31585   0.569   0.057   7.860  0.1004 -0.4923 -0.1056
 6709SOL    HW131586   0.597   4.703   7.904  0.5590  0.5778  1.5489
 6709SOL    HW231587   0.483   0.037   7.823 -0.7573 -0.4773  1.9118
 6710SOL     OW31588   1.833   3.477   6.047  0.1564 -0.5917 -0.2319
 6710SOL    HW131589   1.838   3.572   6.057  0.3211 -0.5174 -1.0330
 6710SOL    HW231590   1.782   3.458   5.968  0.2067 -1.3988 -0.0658
 6711SOL     OW31591   2.208   0.310   9.307 -0.3610  0.3666  0.1474
 6711SOL    HW131592   2.167   0.285   9.390  1.3914  0.0397  0.9115
 6711SOL    HW231593   2.229   0.402   9.322 -0.8674  0.5609 -0.3604
 6712SOL     OW31594   3.708   0.536  12.560  0.5589  0.0955 -0.3905
 6712SOL    HW131595   3.754   0.620  12.567  2.4932 -0.7107 -3.3558
 6712SOL    HW231596   3.763   0.484  12.618  2.8520  1.3259 -1.4629
 6713SOL     OW31597   4.712   2.981   9.129  0.1914 -0.0384  0.3257
 6713SOL    HW131598   0.033   2.907   9.091  0.9701 -0.1768  1.5588
 6713SOL    HW231599   4.635   2.998   9.074 -0.8261  1.0110  2.0549
 6714SOL     OW31600   2.562   3.011   6.729  0.1496  0.4491  0.0069
 6714SOL    HW131601   2.625   2.951   6.768  1.8346  3.1330  1.3471
 6714SOL    HW231602   2.537   2.957   6.654  2.2495 -1.3763  0.6448
 6715SOL     OW31603   4.497   2.830   7.496 -0.2145  0.0423 -0.2191
 6715SOL    HW131604   4.523   2.893   7.429  2.9316 -0.9375  0.0874
 6715SOL    HW231605   4.546   2.866   7.570 -1.6175  1.4580  0.0314
 6716SOL     OW31606   2.971   2.798  13.123 -0.8680 -0.6556 -0.7271
 6716SOL    HW131607   2.960   2.731  13.055 -2.1820 -1.4890  0.3067
 6716SOL    HW231608   3.021   2.864  13.075 -0.1170 -1.8156 -1.5453
 6717SOL     OW31609   0.078   2.874   2.235 -0.1357 -0.8655 -0.2513
 6717SOL    HW131610   0.022   2.934   2.186  1.0214  0.0725 -0.4260
 6717SOL    HW231611   0.022   2.848   2.308  0.3949 -0.3279  0.3436
 6718SOL     OW31612   3.867   4.148   7.051 -0.1365 -0.3731 -0.0551
 6718SOL    HW131613   3.836   4.081   6.989  1.3861 -0.3688 -0.8150
 6718SOL    HW231614   3.947   4.177   7.008  0.4849 -1.0946  0.6353
 6719SOL     OW31615   2.175   2.218   2.925  0.1105 -0.7172 -0.2012
 6719SOL    HW131616   2.225   2.264   2.858 -0.9338  2.2074  0.9713
 6719SOL    HW231617   2.087   2.256   2.915  0.4516 -0.5171 -2.2966
 6720SOL     OW31618   0.112   4.360  11.864 -0.3172 -0.2811  0.3137
 6720SOL    HW131619   0.144   4.441  11.905 -1.8697 -0.3089  1.5611
 6720SOL    HW231620   0.142   4.385  11.776 -0.4439 -1.3621 -0.0278
 6721SOL     OW31621   3.577   2.626   3.416 -0.1816 -0.2178 -0.2395
 6721SOL    HW131622   3.523   2.616   3.494  1.1811 -0.9903  0.6019
 6721SOL    HW231623   3.551   2.716   3.395 -1.5140 -0.8608 -1.2896
 6722SOL     OW31624   3.146   1.084   6.465 -0.8454  0.2971  0.1712
 6722SOL    HW131625   3.240   1.104   6.474 -0.4359 -0.6200 -2.1793
 6722SOL    HW231626   3.138   1.134   6.384  0.5814  2.0202  1.0699
 6723SOL     OW31627   1.535   0.170  11.801 -0.0813  0.0547 -0.2227
 6723SOL    HW131628   1.534   0.159  11.706 -1.0835 -1.9178  0.0331
 6723SOL    HW231629   1.488   0.099  11.844 -1.6092  1.8261  1.0841
 6724SOL     OW31630   1.320   0.457   5.595  0.1926 -0.6864 -0.2130
 6724SOL    HW131631   1.384   0.529   5.594  1.9399 -2.2424  0.2768
 6724SOL    HW231632   1.329   0.435   5.502 -1.5197 -1.4795 -0.1851
 6725SOL     OW31633   2.575   3.724  13.793 -0.0630  0.2641 -0.4224
 6725SOL    HW131634   2.661   3.685  13.774  0.1031  0.3687  0.1197
 6725SOL    HW231635   2.600   3.808  13.830  0.3332 -0.0318 -0.0091
 6726SOL     OW31636   1.008   3.485   4.607 -0.2535 -0.0312 -0.2433
 6726SOL    HW131637   0.928   3.531   4.581 -1.1262 -0.7565  1.1345
 6726SOL    HW231638   0.989   3.478   4.701 -0.8903  1.3425 -0.2635
 6727SOL     OW31639   0.272   2.794  11.545  0.0321  0.0072 -0.2256
 6727SOL    HW131640   0.220   2.739  11.487 -0.3634  1.1968 -0.9883
 6727SOL    HW231641   0.206   2.858  11.569 -0.3394 -0.5453  0.2403
 6728SOL     OW31642   3.825   1.829   4.414 -0.6211 -0.0037 -0.4916
 6728SOL    HW131643   3.905   1.872   4.383  0.9702 -2.1400  0.6788
 6728SOL    HW231644   3.862   1.741   4.426 -0.4837  0.4737  2.4204
 6729SOL     OW31645   1.511   2.516   4.483 -0.0864 -0.5191 -0.3365
 6729SOL    HW131646   1.504   2.472   4.398 -0.2747 -0.5383 -0.3111
 6729SOL    HW231647   1.422   2.511   4.517 -0.5177 -2.1980 -1.7229
 6730SOL     OW31648   2.749   4.193   5.329 -0.7136 -0.0396  0.3850
 6730SOL    HW131649   2.799   4.217   5.407 -0.7403 -1.2785  0.7932
 6730SOL    HW231650   2.668   4.185   5.379 -0.6611  2.2672  0.8339
 6731SOL     OW31651   4.127   0.412   7.873  0.1512 -0.5289 -0.1188
 6731SOL    HW131652   4.170   0.399   7.789  1.0214  1.8768 -0.0273
 6731SOL    HW231653   4.192   0.385   7.938 -0.4274 -0.4996  0.4659
 6732SOL     OW31654   2.848   2.958   3.352 -0.5246 -0.2302 -0.4321
 6732SOL    HW131655   2.818   3.036   3.305  0.1272 -0.4725 -1.2490
 6732SOL    HW231656   2.924   2.929   3.301  0.6452 -1.2866  1.9030
 6733SOL     OW31657   3.375   2.865   9.564  0.1558  0.1889  0.3316
 6733SOL    HW131658   3.363   2.920   9.641 -0.1327  1.5477 -0.6912
 6733SOL    HW231659   3.435   2.799   9.599  3.2604  1.3608 -2.8066
 6734SOL     OW31660   3.038   2.517   3.945  0.4914 -0.9223 -0.2101
 6734SOL    HW131661   3.031   2.584   3.877  1.1008  0.8022  1.4634
 6734SOL    HW231662   3.015   2.572   4.020  3.4823 -1.0061  0.7538
 6735SOL     OW31663   0.145   0.513  15.826  0.0636 -0.3244 -0.3239
 6735SOL    HW131664   0.144   0.599  15.783  1.7941  0.9854  2.2941
 6735SOL    HW231665   0.236   0.487  15.814  0.1725 -0.2889  0.4512
 6736SOL     OW31666   4.377   3.249  17.045 -0.5167 -0.0904 -0.0457
 6736SOL    HW131667   4.329   3.303  16.982 -0.3579  0.2644  0.1356
 6736SOL    HW231668   4.347   3.167  17.007 -3.6291  1.2777 -0.5784
 6737SOL     OW31669   3.551   0.998   4.094 -0.1339 -0.3932  0.5108
 6737SOL    HW131670   3.618   1.041   4.147  0.4867 -0.9944  0.2178
 6737SOL    HW231671   3.473   1.034   4.136  0.8418 -0.7906  2.6777
 6738SOL     OW31672   3.785   4.701   8.584 -0.2612 -0.0321 -0.6536
 6738SOL    HW131673   3.788   0.059   8.630 -0.6086 -0.1417 -0.4383
 6738SOL    HW231674   3.821   4.721   8.497 -0.9882 -1.2476 -1.2288
 6739SOL     OW31675   3.586   0.464  14.365  0.4631 -0.5503 -0.3723
 6739SOL    HW131676   3.664   0.519  14.360  0.1578 -0.0134  0.9431
 6739SOL    HW231677   3.557   0.452  14.274 -1.1666  1.1839 -0.0804
 6740SOL     OW31678   2.341   3.406   2.403 -0.2258  0.1933 -0.5567
 6740SOL    HW131679   2.251   3.415   2.369  0.7276  2.0260 -2.5979
 6740SOL    HW231680   2.340   3.449   2.488  0.6389  1.7610 -1.3474
 6741SOL     OW31681   2.567   0.881   6.272  0.7260  0.9730 -0.2074
 6741SOL    HW131682   2.599   0.798   6.308 -1.2722 -0.9490 -2.9994
 6741SOL    HW231683   2.642   0.942   6.277  1.4771 -0.0963  1.7486
 6742SOL     OW31684   3.536   0.716   4.077 -0.1457 -0.0760  0.0362
 6742SOL    HW131685   3.521   0.714   4.171 -2.0069  0.5889 -0.2629
 6742SOL    HW231686   3.550   0.810   4.068 -0.3590  0.0719  1.2967
 6743SOL     OW31687   4.044   1.334   4.923  0.7788  0.0534  0.2932
 6743SOL    HW131688   3.979   1.400   4.948 -0.3091 -1.5259  1.6283
 6743SOL    HW231689   3.995   1.252   4.909  1.6755 -0.7515  1.8816
 6744SOL     OW31690   2.401   4.712  14.553 -0.1094  0.1773  0.2237
 6744SOL    HW131691   2.466   0.056  14.546  0.1382 -0.1498 -0.6661
 6744SOL    HW231692   2.344   0.001  14.478 -1.8400 -0.3782  1.4160
 6745SOL     OW31693   3.385   3.840  12.158 -0.5581 -0.0549  0.2709
 6745SOL    HW131694   3.333   3.777  12.107 -0.8964  0.2896  0.1918
 6745SOL    HW231695   3.459   3.863  12.101 -0.6529  2.2108  1.0691
 6746SOL     OW31696   3.187   2.164  10.215  0.0365  0.3977  0.1671
 6746SOL    HW131697   3.123   2.224  10.177 -0.5520 -0.1721  0.2487
 6746SOL    HW231698   3.269   2.205  10.186  0.0359  0.9083  0.8901
 6747SOL     OW31699   2.063   2.237   4.170 -0.5704  0.3922 -0.1100
 6747SOL    HW131700   2.111   2.309   4.128 -0.5002 -1.3404 -2.9640
 6747SOL    HW231701   1.983   2.246   4.119  0.3339  2.9618 -1.1214
 6748SOL     OW31702   0.958   3.061   2.234  0.0134  0.9611  0.2003
 6748SOL    HW131703   0.902   2.986   2.220  0.7319  0.7870 -1.7431
 6748SOL    HW231704   0.995   3.061   2.146  2.9748  1.5987  1.4062
 6749SOL     OW31705   3.278   4.564   9.434 -0.0697 -0.5046  0.2629
 6749SOL    HW131706   3.282   4.640   9.492 -1.2409 -0.2831  0.0435
 6749SOL    HW231707   3.310   4.494   9.490  2.2163  0.6499  0.3929
 6750SOL     OW31708   4.269   0.726   5.037  0.4144 -0.8730 -0.2411
 6750SOL    HW131709   4.328   0.802   5.044  0.9675 -1.2718 -0.5402
 6750SOL    HW231710   4.186   0.771   5.021  1.4833  1.7635  1.6483
 6751SOL     OW31711   4.690   1.794   5.824 -0.2098  0.8208 -0.0366
 6751SOL    HW131712   0.040   1.743   5.854 -0.0418  0.0341 -1.7910
 6751SOL    HW231713   4.715   1.880   5.859  0.0412  0.4049  0.8029
 6752SOL     OW31714   3.044   3.045   2.003  0.0492 -0.0262  0.0555
 6752SOL    HW131715   3.117   2.984   1.991 -0.5511 -0.4942 -1.2439
 6752SOL    HW231716   2.969   2.997   1.968  1.1498 -0.9698 -1.0118
 6753SOL     OW31717   4.512   3.829   8.794  0.0235 -0.4963  0.0679
 6753SOL    HW131718   4.481   3.910   8.754 -3.6427 -1.2241  1.4469
 6753SOL    HW231719   4.429   3.811   8.838  0.2630  1.1405  1.1988
 6754SOL     OW31720   0.179   4.369  15.298  0.3983 -0.0673  0.2152
 6754SOL    HW131721   0.123   4.292  15.302  0.5167 -0.0846  1.5288
 6754SOL    HW231722   0.173   4.406  15.210  0.0861  1.1721  0.7564
 6755SOL     OW31723   3.744   2.326   9.522  0.2927 -0.1360  0.8537
 6755SOL    HW131724   3.719   2.391   9.588  0.0686  0.4376  0.2187
 6755SOL    HW231725   3.752   2.251   9.580  2.0908  0.0497  0.8535
 6756SOL     OW31726   1.085   4.443   4.494  0.5101  0.0023 -0.6083
 6756SOL    HW131727   1.010   4.463   4.438  0.9121  0.4953 -0.9627
 6756SOL    HW231728   1.120   4.363   4.453  1.1577 -0.5852  1.1265
 6757SOL     OW31729   1.847   2.537   4.773 -0.2237 -0.0585  0.0840
 6757SOL    HW131730   1.877   2.589   4.847  0.9407 -0.0251 -0.4141
 6757SOL    HW231731   1.938   2.513   4.753  0.1670  0.0125  1.7486
 6758SOL     OW31732   1.688   0.124   5.340 -1.2329 -0.1810 -0.1433
 6758SOL    HW131733   1.759   0.060   5.336 -0.2561  1.0021 -1.6660
 6758SOL    HW231734   1.658   0.110   5.430 -0.2389 -0.6337  0.1103
 6759SOL     OW31735   1.855   4.339   3.375 -0.1935 -0.7011  0.0858
 6759SOL    HW131736   1.784   4.285   3.340 -0.9333 -0.6566  1.5204
 6759SOL    HW231737   1.880   4.382   3.293  1.2435 -1.2603  0.2349
 6760SOL     OW31738   0.360   0.727   7.414 -0.1838  0.1407  0.3456
 6760SOL    HW131739   0.308   0.807   7.415 -0.8359 -0.3003  1.9189
 6760SOL    HW231740   0.403   0.735   7.499 -0.3816 -0.8227  0.5461
 6761SOL     OW31741   2.817   0.206  14.195 -0.0618  0.2180 -0.1559
 6761SOL    HW131742   2.786   0.282  14.245 -2.0652 -0.3138 -0.5842
 6761SOL    HW231743   2.736   0.157  14.179 -0.8518  0.6299  2.6696
 6762SOL     OW31744   2.518   0.552   3.078  0.0429  0.0752  0.1025
 6762SOL    HW131745   2.440   0.573   3.027  0.4901  1.0203 -0.1789
 6762SOL    HW231746   2.557   0.491   3.015  0.3862  0.2053  0.1898
 6763SOL     OW31747   0.496   0.518  15.156  0.2759  0.0294 -0.9828
 6763SOL    HW131748   0.571   0.529  15.215 -2.2328 -1.8614  2.6293
 6763SOL    HW231749   0.526   0.577  15.087  1.9562  1.6592  1.0961
 6764SOL     OW31750   4.022   0.903   7.465  0.6601  0.0405  0.7431
 6764SOL    HW131751   4.117   0.892   7.475  0.5639 -2.4610 -0.9693
 6764SOL    HW231752   3.995   0.818   7.429 -0.2425  0.2566  0.9195
 6765SOL     OW31753   3.370   1.247   0.881  0.2246 -0.0414  0.3257
 6765SOL    HW131754   3.306   1.226   0.814  1.4219 -1.9496 -0.2420
 6765SOL    HW231755   3.436   1.177   0.876 -0.1720 -0.2946 -1.3928
 6766SOL     OW31756   2.084   4.117   8.831  0.2513 -0.2814 -0.0891
 6766SOL    HW131757   2.072   4.212   8.836 -1.5231 -0.6203  1.7430
 6766SOL    HW231758   2.095   4.100   8.924  0.6335  0.3627 -0.0159
 6767SOL     OW31759   1.879   3.555   2.095 -0.4896  0.0723 -0.2414
 6767SOL    HW131760   1.891   3.464   2.122  2.1650  0.6322  0.3897
 6767SOL    HW231761   1.947   3.570   2.029 -3.1429  1.0811 -2.7631
 6768SOL     OW31762   3.059   3.069   2.476  0.2684 -0.2621 -0.4994
 6768SOL    HW131763   3.126   3.041   2.414 -1.2940 -2.4549 -1.2244
 6768SOL    HW231764   2.989   3.033   2.421 -2.0497 -0.7392  2.7542
 6769SOL     OW31765   3.917   4.296   2.836 -0.3320  0.2027 -0.0815
 6769SOL    HW131766   3.969   4.234   2.887 -1.7521 -2.3471 -1.7730
 6769SOL    HW231767   3.991   4.304   2.775  0.5144  0.7428  1.0074
 6770SOL     OW31768   4.274   3.410  17.582 -0.2688 -0.5176  0.2028
 6770SOL    HW131769   4.297   3.369  17.665  1.2685 -1.8748 -0.9105
 6770SOL    HW231770   4.252   3.497  17.617  0.4768 -1.6363  3.4748
 6771SOL     OW31771   2.817   3.299   9.938  0.2229  0.7229 -0.7567
 6771SOL    HW131772   2.727   3.269   9.925  0.7138 -1.1292  0.1714
 6771SOL    HW231773   2.858   3.221   9.977  2.3959  0.9898 -2.4888
 6772SOL     OW31774   4.040   2.218   0.908  0.5748  0.2071 -0.1749
 6772SOL    HW131775   4.135   2.213   0.915  0.6479  2.1775  0.1736
 6772SOL    HW231776   4.018   2.285   0.972  1.3318  1.5014 -1.2875
 6773SOL     OW31777   4.131   0.178   3.414 -0.3200 -0.0517 -0.3810
 6773SOL    HW131778   4.196   0.115   3.383 -0.5948 -0.6081  0.1821
 6773SOL    HW231779   4.060   0.172   3.351 -0.8952  2.6357  0.0180
 6774SOL     OW31780   2.216   1.323   8.532 -0.3858 -0.2147  0.1765
 6774SOL    HW131781   2.225   1.228   8.530  0.1674 -0.1455 -0.5029
 6774SOL    HW231782   2.124   1.333   8.507 -0.2354 -0.4335 -0.4460
 6775SOL     OW31783   3.136   1.188   4.484 -0.1462 -0.5172  0.1180
 6775SOL    HW131784   3.045   1.215   4.477 -1.0709 -3.6259  0.2466
 6775SOL    HW231785   3.123   1.094   4.475 -0.6653 -0.3380 -0.9301
 6776SOL     OW31786   1.698   2.576   7.196  0.3917 -0.7536 -0.0724
 6776SOL    HW131787   1.636   2.581   7.268  0.4017 -1.3296 -0.0255
 6776SOL    HW231788   1.646   2.526   7.133 -2.1570  1.0317  0.6153
 6777SOL     OW31789   2.776   3.495   7.447  0.1158 -0.3005  0.3153
 6777SOL    HW131790   2.802   3.455   7.364 -0.2429 -2.6966  1.3621
 6777SOL    HW231791   2.863   3.515   7.479  0.7364 -0.3757 -1.3076
 6778SOL     OW31792   4.324   3.627   9.160 -0.1614 -0.4996  0.3212
 6778SOL    HW131793   4.253   3.622   9.096  0.0260 -0.4099  0.1072
 6778SOL    HW231794   4.288   3.600   9.245  0.1691  0.7648  0.8536
 6779SOL     OW31795   1.417   4.046   5.985 -0.7046  0.6519 -0.2686
 6779SOL    HW131796   1.342   4.040   5.925 -0.6299 -2.3429 -0.0787
 6779SOL    HW231797   1.483   4.074   5.921  0.4506 -1.3936  0.0140
 6780SOL     OW31798   0.763   4.130   2.996  0.3408 -0.3645  0.5502
 6780SOL    HW131799   0.800   4.180   2.923  2.1960 -0.6422  1.2976
 6780SOL    HW231800   0.747   4.197   3.062  0.7065 -0.1499  0.4222
 6781SOL     OW31801   0.017   1.394   9.026  0.3191 -0.4922 -0.1146
 6781SOL    HW131802   4.659   1.353   9.007  0.5275 -0.6931 -0.6106
 6781SOL    HW231803   0.007   1.400   9.121  1.0744  1.3284 -0.1502
 6782SOL     OW31804   2.483   2.496  11.201  0.2723  0.5191 -0.2136
 6782SOL    HW131805   2.489   2.580  11.247 -0.2804 -0.6316  1.9059
 6782SOL    HW231806   2.545   2.517  11.131  0.3574 -3.3119 -1.2528
 6783SOL     OW31807   4.010   0.483   1.755  0.9463 -0.0180 -0.0788
 6783SOL    HW131808   3.976   0.565   1.718  0.6655  0.0690  0.3694
 6783SOL    HW231809   4.103   0.502   1.769  0.8962  0.1965 -0.0280
 6784SOL     OW31810   2.196   2.320   8.711 -0.0765  0.2315 -0.0292
 6784SOL    HW131811   2.224   2.269   8.635 -1.0181  0.9801 -0.8666
 6784SOL    HW231812   2.139   2.253   8.746  0.2730 -0.9793 -1.7672
 6785SOL     OW31813   4.568   1.425   6.912  0.0721 -0.0838 -0.3964
 6785SOL    HW131814   4.589   1.477   6.990  0.5617  0.0607 -0.6249
 6785SOL    HW231815   4.648   1.446   6.863 -1.9264  0.9678 -3.1564
 6786SOL     OW31816   3.182   4.672   1.071  0.1722  0.3957 -0.3365
 6786SOL    HW131817   3.185   0.036   1.038 -0.2167 -0.3252 -2.2886
 6786SOL    HW231818   3.230   4.634   0.998  0.5387  3.3056 -1.5959
 6787SOL     OW31819   2.178   0.401   3.968 -0.3473  0.1749  0.1572
 6787SOL    HW131820   2.128   0.454   4.030  1.8272  1.0199  1.1918
 6787SOL    HW231821   2.233   0.362   4.036 -1.5280 -0.2527  0.8649
 6788SOL     OW31822   2.123   0.890   0.441  0.2766  0.1913 -0.3167
 6788SOL    HW131823   2.197   0.942   0.473  1.6182 -0.4058 -2.4337
 6788SOL    HW231824   2.163   0.860   0.359  2.3332 -1.4808  1.2865
 6789SOL     OW31825   4.432   3.277   2.596  0.3268 -0.2635  0.2535
 6789SOL    HW131826   4.459   3.235   2.514  0.8655 -1.5364  1.0688
 6789SOL    HW231827   4.496   3.346   2.611 -0.7262  0.1429  2.9011
 6790SOL     OW31828   1.752   2.662  11.986  0.5448 -0.1429 -0.2199
 6790SOL    HW131829   1.698   2.614  11.923 -0.8568 -0.7334  1.4426
 6790SOL    HW231830   1.786   2.738  11.938 -0.3278  0.2910 -0.1444
 6791SOL     OW31831   2.736   4.078  12.850 -0.0247  0.1605 -0.1276
 6791SOL    HW131832   2.760   4.040  12.766  1.3689 -0.9191  0.7662
 6791SOL    HW231833   2.769   4.007  12.905 -0.4408 -0.8884 -1.2206
 6792SOL     OW31834   2.838   2.448  10.758 -0.4782 -0.5060  0.2038
 6792SOL    HW131835   2.910   2.406  10.805 -1.1848 -0.3671  1.4267
 6792SOL    HW231836   2.856   2.540  10.778 -2.5663  0.1140 -0.8393
 6793SOL     OW31837   1.606   4.375  14.561 -0.3804 -0.2534  0.0057
 6793SOL    HW131838   1.523   4.353  14.603  1.2447 -1.0575  2.8658
 6793SOL    HW231839   1.630   4.446  14.622 -1.0294 -0.5421  0.6035
 6794SOL     OW31840   2.878   1.610   2.632 -0.4977 -0.3461 -0.0861
 6794SOL    HW131841   2.844   1.573   2.714 -0.4809 -0.3022 -0.0590
 6794SOL    HW231842   2.960   1.648   2.662 -0.8246  0.8461 -0.6892
 6795SOL     OW31843   0.734   3.033  12.071 -0.7735 -0.6012  0.3263
 6795SOL    HW131844   0.694   3.110  12.111  0.1782 -0.5758  1.2266
 6795SOL    HW231845   0.748   2.985  12.152  0.6903 -0.9141 -0.1006
 6796SOL     OW31846   1.976   0.398   8.785  0.3500 -0.1926  0.4460
 6796SOL    HW131847   1.936   0.484   8.773  0.5872 -0.0223  0.8717
 6796SOL    HW231848   1.987   0.397   8.880 -1.3341  1.0256  0.6598
 6797SOL     OW31849   2.009   3.835   8.555  0.4678 -0.1713  0.5641
 6797SOL    HW131850   1.974   3.788   8.479 -3.2553  2.3605  0.7342
 6797SOL    HW231851   2.012   3.919   8.509  0.6824  0.1528  1.1802
 6798SOL     OW31852   4.531   2.672   6.416  0.5395  0.1389  0.4374
 6798SOL    HW131853   4.443   2.679   6.454 -0.8772 -1.3693 -2.5182
 6798SOL    HW231854   4.588   2.646   6.488  0.8784  1.3457  0.6069
 6799SOL     OW31855   1.476   4.331   8.479 -0.0546  0.0429 -0.2144
 6799SOL    HW131856   1.512   4.392   8.415 -1.1404  0.4785 -0.4127
 6799SOL    HW231857   1.458   4.397   8.547 -0.5085 -0.7787  0.4613
 6800SOL     OW31858   0.705   4.286  15.651 -0.3332  0.1781  0.8095
 6800SOL    HW131859   0.780   4.230  15.674 -0.5805 -0.0229  1.1279
 6800SOL    HW231860   0.640   4.241  15.704 -0.3900  0.0610  0.6392
 6801SOL     OW31861   2.276   4.151   4.039 -0.5687 -0.2942  0.2834
 6801SOL    HW131862   2.332   4.135   4.115  1.3047  2.5966 -0.4952
 6801SOL    HW231863   2.188   4.143   4.075 -0.7350  0.1414 -0.0334
 6802SOL     OW31864   0.892   3.668  13.438 -0.5322 -0.2145 -0.4664
 6802SOL    HW131865   0.821   3.619  13.396 -1.0273 -0.4326  0.6323
 6802SOL    HW231866   0.937   3.710  13.365  1.2855 -0.4639  0.4932
 6803SOL     OW31867   3.691   2.914  12.617  0.0354  0.8661 -0.1769
 6803SOL    HW131868   3.773   2.879  12.652 -0.2903  0.7234  0.4396
 6803SOL    HW231869   3.724   3.004  12.623  0.6483  0.4781  2.0130
 6804SOL     OW31870   2.086   1.327   4.729  0.1376  0.0305  0.5729
 6804SOL    HW131871   2.175   1.296   4.715  0.5522  2.0848 -1.3376
 6804SOL    HW231872   2.040   1.244   4.720  0.3137  0.1099 -1.1454
 6805SOL     OW31873   2.071   1.617   8.231 -0.5985  0.2036  0.2414
 6805SOL    HW131874   2.062   1.698   8.181  0.0493  0.2004  0.1162
 6805SOL    HW231875   2.063   1.555   8.159 -0.3370 -0.7649  1.0552
 6806SOL     OW31876   4.187   3.754   9.943 -0.4134 -0.8580  0.0644
 6806SOL    HW131877   4.155   3.782  10.029 -1.8955 -0.6875 -0.5377
 6806SOL    HW231878   4.232   3.836   9.921  0.1031 -0.9950  0.5910
 6807SOL     OW31879   1.407   2.165   9.254  0.5677  0.8042  0.3777
 6807SOL    HW131880   1.457   2.124   9.324 -0.3141  1.6701  1.5254
 6807SOL    HW231881   1.462   2.240   9.234  1.5716 -0.3392 -1.1761
 6808SOL     OW31882   2.329   1.227   4.698  0.1818 -0.0666  0.1919
 6808SOL    HW131883   2.343   1.184   4.782  0.0629 -1.0322 -0.2864
 6808SOL    HW231884   2.417   1.218   4.660 -1.0838  0.6075 -2.9332
 6809SOL     OW31885   1.766   1.616  12.594 -0.2362  0.1402  0.6855
 6809SOL    HW131886   1.732   1.553  12.530  1.0216 -0.1894  0.3421
 6809SOL    HW231887   1.694   1.671  12.625 -0.1580  0.7813 -0.2599
 6810SOL     OW31888   1.214   0.739   2.410  0.0857 -0.0747 -0.1490
 6810SOL    HW131889   1.161   0.668   2.375  1.3519 -1.4345  0.7023
 6810SOL    HW231890   1.155   0.813   2.424  0.9342  0.2597  1.6949
 6811SOL     OW31891   0.907   4.390   6.165  0.1027 -0.1622  0.1428
 6811SOL    HW131892   0.874   4.462   6.112  0.6613  0.2675  0.3722
 6811SOL    HW231893   0.820   4.376   6.201  0.4040  1.3697  1.4380
 6812SOL     OW31894   0.708   0.591   3.649  0.0625 -0.5277 -0.2667
 6812SOL    HW131895   0.705   0.495   3.653  1.4274 -0.4603  2.2975
 6812SOL    HW231896   0.800   0.604   3.627  0.4150 -1.3381  0.7318
 6813SOL     OW31897   4.509   4.085   2.632 -0.6031  0.1030 -0.3429
 6813SOL    HW131898   4.581   4.021   2.628 -0.1847  0.4277  1.8688
 6813SOL    HW231899   4.538   4.146   2.565  0.2085 -0.2561 -0.3178
 6814SOL     OW31900   1.808   2.062  17.181  0.4643  0.6688  0.0438
 6814SOL    HW131901   1.786   2.001  17.111  1.3019 -0.1733  0.5210
 6814SOL    HW231902   1.832   2.001  17.250 -0.6216 -0.3679 -0.4958
 6815SOL     OW31903   0.477   1.107   6.048  0.1060  0.3278 -0.0256
 6815SOL    HW131904   0.564   1.146   6.045  0.2469 -0.1544 -1.7630
 6815SOL    HW231905   0.441   1.110   5.960 -0.2892  1.3839  0.1648
 6816SOL     OW31906   2.485   4.317  11.418  0.5631 -0.1521  0.2467
 6816SOL    HW131907   2.543   4.252  11.458 -0.1857  0.8168  2.8648
 6816SOL    HW231908   2.543   4.377  11.370 -0.0978  0.4595  0.2242
 6817SOL     OW31909   2.599   2.073   2.158  0.4992  0.3620  0.2187
 6817SOL    HW131910   2.584   2.146   2.097  2.0652  0.4364 -0.0595
 6817SOL    HW231911   2.574   2.115   2.241 -1.6479 -3.2451  1.4158
 6818SOL     OW31912   3.827   1.716   9.587  0.3772 -0.1091 -0.5261
 6818SOL    HW131913   3.892   1.762   9.640 -2.1997  4.0479 -0.9576
 6818SOL    HW231914   3.891   1.673   9.530 -1.4206  0.7059 -3.1644
 6819SOL     OW31915   3.565   2.341   5.847  0.2821 -0.1558 -0.0434
 6819SOL    HW131916   3.579   2.261   5.796  0.0011  0.1674 -0.6292
 6819SOL    HW231917   3.472   2.337   5.869  0.1420  0.8826 -0.4678
 6820SOL     OW31918   1.711   4.585  11.982 -0.1158 -0.5922  0.4999
 6820SOL    HW131919   1.705   4.496  11.948  1.9349 -0.1562 -1.0586
 6820SOL    HW231920   1.702   4.574  12.077  0.3802  0.7170  0.6996
 6821SOL     OW31921   1.950   1.957   3.643  0.6298  0.0596  0.2054
 6821SOL    HW131922   2.023   1.939   3.583  0.5237  0.1423  0.0508
 6821SOL    HW231923   1.989   2.023   3.700  1.4116 -1.5869  1.5731
 6822SOL     OW31924   3.815   0.676   0.717  0.3504  0.0954  0.0753
 6822SOL    HW131925   3.884   0.687   0.782  1.4876 -1.6460 -0.8552
 6822SOL    HW231926   3.755   0.750   0.730 -0.3880 -0.4178 -0.4332
 6823SOL     OW31927   3.820   3.281   8.953 -0.6427 -0.2649  0.2408
 6823SOL    HW131928   3.892   3.241   8.904 -0.2956 -1.0207  1.3625
 6823SOL    HW231929   3.807   3.351   8.890 -1.6318  0.8639  1.6974
 6824SOL     OW31930   1.664   0.666   0.675 -0.0324 -0.1559 -0.2141
 6824SOL    HW131931   1.720   0.622   0.739 -0.5727  0.8056  0.9235
 6824SOL    HW231932   1.725   0.719   0.624  0.6392 -0.5749  0.1586
 6825SOL     OW31933   1.158   4.360   7.453  0.2482 -0.2448  0.2894
 6825SOL    HW131934   1.151   4.356   7.548 -2.2703  0.6659  0.1335
 6825SOL    HW231935   1.069   4.338   7.426 -0.2241  1.8600  0.1749
 6826SOL     OW31936   2.470   0.908   3.251 -0.0925  0.2173  0.4016
 6826SOL    HW131937   2.470   0.935   3.343  2.2618  2.6233 -0.2920
 6826SOL    HW231938   2.552   0.859   3.245 -0.4174  0.0630 -2.7430
 6827SOL     OW31939   1.126   2.342   8.931 -0.0213 -0.1250 -0.6215
 6827SOL    HW131940   1.172   2.401   8.990 -0.7388 -0.3905  0.2002
 6827SOL    HW231941   1.151   2.254   8.960  2.4121  0.8690  0.2928
 6828SOL     OW31942   4.324   3.404   3.156  0.4808  0.9380 -0.0886
 6828SOL    HW131943   4.360   3.360   3.233 -0.1288  0.0604 -0.3060
 6828SOL    HW231944   4.354   3.352   3.082 -1.1779  1.5216 -1.1854
 6829SOL     OW31945   3.650   4.725   3.495  0.3732 -0.0941 -0.5395
 6829SOL    HW131946   3.624   4.698   3.583  1.4714  0.2115 -0.1291
 6829SOL    HW231947   3.620   4.650   3.443  0.7432 -0.9708  0.5322
 6830SOL     OW31948   4.530   0.648   7.625  0.1860  0.4677 -0.3954
 6830SOL    HW131949   4.620   0.627   7.652 -1.0173 -1.5889  2.1010
 6830SOL    HW231950   4.547   0.710   7.555 -2.6239 -1.6163 -2.8931
 6831SOL     OW31951   1.551   0.370   5.293 -0.3883  0.2558 -0.7401
 6831SOL    HW131952   1.610   0.428   5.245 -1.1741  2.3624  0.8375
 6831SOL    HW231953   1.610   0.301   5.322  0.2010  1.1251  0.1624
 6832SOL     OW31954   3.126   2.288   1.355  0.0120  0.1335  0.0522
 6832SOL    HW131955   3.033   2.308   1.351  0.1074  0.7476  0.8744
 6832SOL    HW231956   3.122   2.196   1.382  0.0536 -0.1490 -0.9161
 6833SOL     OW31957   3.700   0.866   1.696  0.2585  0.1641  0.6126
 6833SOL    HW131958   3.694   0.960   1.680  0.6595  0.4688  2.2246
 6833SOL    HW231959   3.606   0.848   1.689  0.3011 -0.3395  1.3192
 6834SOL     OW31960   1.429   4.530   8.664 -0.1494 -0.1173  0.0571
 6834SOL    HW131961   1.414   4.464   8.732  0.5188 -0.1519  0.1700
 6834SOL    HW231962   1.426   4.618   8.701  0.9764 -0.5576  1.1672
 6835SOL     OW31963   0.174   0.554  11.995  0.3401 -0.0295  0.1980
 6835SOL    HW131964   0.227   0.505  11.932  2.1691  0.5106  1.3160
 6835SOL    HW231965   0.104   0.493  12.017  1.9822 -1.2412  2.1101
 6836SOL     OW31966   4.548   1.851   5.372 -0.3935  0.1402  1.2023
 6836SOL    HW131967   4.601   1.872   5.449 -0.5280 -2.3022  1.9689
 6836SOL    HW231968   4.620   1.814   5.321 -1.3257  0.1177 -0.0811
 6837SOL     OW31969   0.294   0.488   3.629 -0.5669 -0.2894  0.2317
 6837SOL    HW131970   0.348   0.518   3.702  0.0460  0.4024 -0.5041
 6837SOL    HW231971   0.222   0.552   3.625  0.3686  0.7439 -0.2249
 6838SOL     OW31972   1.687   1.896  16.998  0.3893  0.4246 -0.5997
 6838SOL    HW131973   1.609   1.875  17.049 -1.0835  0.9797 -2.6333
 6838SOL    HW231974   1.677   1.840  16.921 -1.5808  0.8697 -0.6695
 6839SOL     OW31975   2.625   0.718   4.631 -0.0695  0.2392  0.2393
 6839SOL    HW131976   2.560   0.788   4.643  1.6294  1.7866  0.4401
 6839SOL    HW231977   2.672   0.729   4.713  0.8035  0.3065 -0.2673
 6840SOL     OW31978   1.118   2.801   9.521 -0.5959 -0.2875  0.2176
 6840SOL    HW131979   1.105   2.804   9.426  0.6789  1.3942  0.0880
 6840SOL    HW231980   1.190   2.738   9.530 -0.2241  0.0755 -0.2120
 6841SOL     OW31981   2.435   0.208  16.094 -0.3474  0.0818 -0.2901
 6841SOL    HW131982   2.346   0.191  16.062 -0.6242  2.0096 -0.5738
 6841SOL    HW231983   2.419   0.273  16.163 -1.1609  1.2237 -1.5502
 6842SOL     OW31984   1.120   4.666   7.763  0.0715  0.1940  0.1172
 6842SOL    HW131985   1.123   4.627   7.676 -0.6696  0.5101 -0.0497
 6842SOL    HW231986   1.116   0.033   7.741 -2.4743 -0.0815 -0.5416
 6843SOL     OW31987   4.136   1.450   2.304 -0.2368 -0.0201 -0.3577
 6843SOL    HW131988   4.197   1.467   2.376 -1.4987  1.7964  0.2719
 6843SOL    HW231989   4.177   1.369   2.273  0.9771  0.5406 -0.2159
 6844SOL     OW31990   4.448   4.390   8.579  0.8130  0.1524 -0.8353
 6844SOL    HW131991   4.448   4.457   8.647 -1.2237  0.6515 -1.3289
 6844SOL    HW231992   4.382   4.429   8.522 -0.2247  0.0809  0.3273
 6845SOL     OW31993   0.859   1.169   9.067 -0.4736 -0.0715  0.0220
 6845SOL    HW131994   0.941   1.169   9.117  1.1206 -0.6399 -2.5958
 6845SOL    HW231995   0.829   1.087   9.107  3.4153 -2.1569 -1.2917
 6846SOL     OW31996   0.819   1.765   7.226 -0.5915 -0.1231 -0.2998
 6846SOL    HW131997   0.788   1.704   7.159 -1.9077 -0.1799  0.3637
 6846SOL    HW231998   0.847   1.841   7.175  3.7953 -0.4666  1.6161
 6847SOL     OW31999   2.972   0.171  15.797 -0.4446  0.0392  0.2929
 6847SOL    HW132000   2.988   0.164  15.891 -0.1836  1.2072  0.3368
 6847SOL    HW232001   2.953   0.265  15.792 -2.8566 -0.4449  0.3112
 6848SOL     OW32002   2.931   1.380   6.868  0.4060 -0.1883  0.2393
 6848SOL    HW132003   2.939   1.299   6.818  0.3029  0.0826 -0.2135
 6848SOL    HW232004   2.842   1.409   6.846  0.7037  1.8609  1.6707
 6849SOL     OW32005   3.235   2.330   4.043 -0.4468  0.2610 -0.2999
 6849SOL    HW132006   3.171   2.398   4.022 -1.2262  0.0206  1.3660
 6849SOL    HW232007   3.254   2.301   3.953  0.8066  1.0400 -0.2860
 6850SOL     OW32008   4.614   4.386   7.068 -0.3137 -0.3535  0.6853
 6850SOL    HW132009   4.631   4.459   7.128  0.4043 -1.0993  1.3876
 6850SOL    HW232010   4.681   4.327   7.103 -1.6816 -2.7261 -0.6909
 6851SOL     OW32011   3.837   0.414   2.901 -0.5256 -0.1746  0.4871
 6851SOL    HW132012   3.884   0.495   2.919 -0.7388 -0.2148  1.2400
 6851SOL    HW232013   3.903   0.346   2.897  0.1626  0.3511  3.1529
 6852SOL     OW32014   1.766   2.024   4.300  0.2011  0.2174  0.3157
 6852SOL    HW132015   1.752   1.933   4.328  2.4490 -0.3564 -0.3959
 6852SOL    HW232016   1.681   2.047   4.262 -0.6610 -1.7173  1.0474
 6853SOL     OW32017   0.504   2.286   7.935 -0.2354 -0.1130  0.5706
 6853SOL    HW132018   0.536   2.196   7.940 -1.6015 -0.6723 -0.9458
 6853SOL    HW232019   0.421   2.271   7.979 -1.6699 -0.2418 -2.1527
 6854SOL     OW32020   4.539   3.365   4.667  0.3781  0.4328 -0.0038
 6854SOL    HW132021   4.594   3.423   4.616  0.4554 -0.1721 -0.6115
 6854SOL    HW232022   4.607   3.327   4.723  1.0461  1.3323 -0.2187
 6855SOL     OW32023   1.555   0.562  12.356  0.1120  0.1633  0.3336
 6855SOL    HW132024   1.606   0.546  12.277  1.8517  2.5886  0.9844
 6855SOL    HW232025   1.540   0.471  12.382  0.1183  0.6103  1.8950
 6856SOL     OW32026   4.056   1.772   5.833 -0.1712 -0.2995  0.1684
 6856SOL    HW132027   4.022   1.693   5.873 -0.8345 -1.0312 -1.8385
 6856SOL    HW232028   4.075   1.833   5.905 -2.3834 -0.0751  0.5588
 6857SOL     OW32029   1.579   1.386   7.753  0.6776 -0.1577 -0.1079
 6857SOL    HW132030   1.542   1.397   7.665  0.5553  0.5988  0.0438
 6857SOL    HW232031   1.506   1.412   7.810  0.8576  1.7746 -0.7491
 6858SOL     OW32032   2.198   1.030   0.094 -0.0913  0.4665  0.7482
 6858SOL    HW132033   2.249   0.951   0.110  0.8969  1.0487  0.4235
 6858SOL    HW232034   2.106   1.005   0.086 -0.2255  1.5005 -0.8187
 6859SOL     OW32035   4.431   0.617   7.080  0.3037  0.3369  0.5513
 6859SOL    HW132036   4.353   0.623   7.024  1.1083  1.3642 -0.4514
 6859SOL    HW232037   4.494   0.613   7.008 -1.0758  3.0730 -0.8121
 6860SOL     OW32038   3.168   0.748   6.571 -0.6427  0.0598  0.3092
 6860SOL    HW132039   3.179   0.761   6.665 -0.1923  1.6248  0.0525
 6860SOL    HW232040   3.203   0.832   6.539 -0.4882 -1.7614 -4.3314
 6861SOL     OW32041   2.829   0.674  15.755  0.1767  0.5494  0.0546
 6861SOL    HW132042   2.894   0.732  15.716  1.6344 -1.7673 -0.9464
 6861SOL    HW232043   2.746   0.693  15.712  0.0769 -1.3284 -0.5978
 6862SOL     OW32044   0.127   0.070   6.246  0.4331  0.0589  0.2283
 6862SOL    HW132045   0.156   0.138   6.308 -0.2967  0.4425  0.1418
 6862SOL    HW232046   0.144   0.114   6.162  0.0288 -0.9193 -0.3587
 6863SOL     OW32047   3.805   4.432  17.562 -0.6453 -0.3399 -0.1651
 6863SOL    HW132048   3.796   4.348  17.606  0.0938 -0.2419  0.1699
 6863SOL    HW232049   3.861   4.486  17.618 -0.2885 -0.5736 -0.2976
 6864SOL     OW32050   0.956   1.718   3.218 -0.1869  0.1222 -0.0783
 6864SOL    HW132051   0.941   1.773   3.295 -0.5867 -1.7749  1.2155
 6864SOL    HW232052   0.940   1.632   3.257  1.9802  0.3953  1.3944
 6865SOL     OW32053   2.372   4.005  12.483  0.5350  0.5364 -0.2889
 6865SOL    HW132054   2.462   4.015  12.514 -0.1184  1.7308  1.2386
 6865SOL    HW232055   2.379   3.924  12.432 -0.0610  1.0527 -1.1981
 6866SOL     OW32056   0.007   3.899   7.251 -0.1591  0.2023 -0.3680
 6866SOL    HW132057   0.024   3.957   7.176 -2.2697  0.4589 -0.6384
 6866SOL    HW232058   4.644   3.870   7.233 -0.3996 -0.0407  1.2761
 6867SOL     OW32059   1.355   0.061   3.546  0.4335 -0.2807 -0.5664
 6867SOL    HW132060   1.373   4.693   3.552  0.5605 -0.0782  2.1760
 6867SOL    HW232061   1.266   0.053   3.510 -0.1938 -1.7901  1.2343
 6868SOL     OW32062   3.663   2.049   5.027 -0.1058  0.0391 -0.3527
 6868SOL    HW132063   3.740   2.002   4.995  1.1574  0.9681  1.3397
 6868SOL    HW232064   3.605   2.003   4.966 -0.7825  1.0417 -0.4754
 6869SOL     OW32065   4.226   0.451  12.348 -0.5207 -0.2879  0.2230
 6869SOL    HW132066   4.257   0.464  12.437 -0.8212  1.9962 -0.0204
 6869SOL    HW232067   4.132   0.453  12.364 -0.0340  3.6337  2.3641
 6870SOL     OW32068   2.619   2.254   7.897 -0.2897  0.3894 -0.6564
 6870SOL    HW132069   2.599   2.271   7.805 -0.6449 -0.4099 -0.7268
 6870SOL    HW232070   2.566   2.174   7.906  0.5463 -0.2026 -0.9550
 6871SOL     OW32071   2.524   3.637   5.658  0.1059  0.5390  0.6515
 6871SOL    HW132072   2.606   3.593   5.640 -0.6380 -0.2843 -0.7266
 6871SOL    HW232073   2.512   3.611   5.750 -1.4275 -0.4091  0.1937
 6872SOL     OW32074   2.507   1.969   7.489 -0.0651 -0.2235 -0.0197
 6872SOL    HW132075   2.447   1.896   7.499  0.7825 -0.5278  2.6706
 6872SOL    HW232076   2.566   1.941   7.559  0.4068  2.7514  0.7660
 6873SOL     OW32077   0.850   4.426   7.058 -0.2981 -0.0818 -0.1050
 6873SOL    HW132078   0.831   4.465   7.143  3.6237 -0.8686  1.1273
 6873SOL    HW232079   0.922   4.366   7.079 -2.1332 -2.3658 -0.3119
 6874SOL     OW32080   4.344   4.134   6.081  0.0400  0.0773 -0.0123
 6874SOL    HW132081   4.309   4.106   6.165 -0.1347 -0.1864 -0.1711
 6874SOL    HW232082   4.266   4.134   6.026 -0.3307 -0.4447  0.5154
 6875SOL     OW32083   4.289   0.606  11.910  0.2752 -0.7420  0.3233
 6875SOL    HW132084   4.196   0.624  11.926  1.1828  1.4169  3.1637
 6875SOL    HW232085   4.334   0.691  11.906 -1.2456  0.0486 -0.4448
 6876SOL     OW32086   0.906   1.252   4.481  0.1536  0.1343  0.3411
 6876SOL    HW132087   0.986   1.200   4.473  0.6449  1.3142 -2.2516
 6876SOL    HW232088   0.885   1.261   4.388 -0.7731 -1.5835  0.3886
 6877SOL     OW32089   3.668   3.026   2.696 -0.0536 -0.4095  0.0391
 6877SOL    HW132090   3.720   3.104   2.712  1.9721 -1.9361  0.8577
 6877SOL    HW232091   3.698   2.975   2.771 -0.7051 -0.6596  0.1294
 6878SOL     OW32092   0.920   4.337   3.207  0.4586  0.5478 -0.2590
 6878SOL    HW132093   0.827   4.329   3.223  0.8807 -1.7633  1.0506
 6878SOL    HW232094   0.927   4.338   3.111  1.0796 -2.0649 -0.2347
 6879SOL     OW32095   4.554   4.209  11.969 -0.4613  0.3510  0.3517
 6879SOL    HW132096   4.614   4.136  11.955 -1.1517  0.1751 -1.7129
 6879SOL    HW232097   4.617   4.277  11.988 -3.2439  2.8503  0.6707
 6880SOL     OW32098   4.220   2.117   2.689  0.4730  0.3411  0.3807
 6880SOL    HW132099   4.307   2.090   2.720  0.4424  0.5761  0.6767
 6880SOL    HW232100   4.176   2.117   2.775  0.4323 -4.0358  0.3807
 6881SOL     OW32101   3.944   3.056  12.324 -0.6234 -0.0878  0.2754
 6881SOL    HW132102   3.944   3.073  12.230  2.2199 -1.1836  0.0633
 6881SOL    HW232103   3.887   2.979  12.324 -0.4491 -0.2110 -0.7956
 6882SOL     OW32104   2.486   1.315   7.745  0.2917  0.0333  0.1810
 6882SOL    HW132105   2.438   1.323   7.663  1.8275 -1.2623 -0.8237
 6882SOL    HW232106   2.575   1.343   7.727  0.8782  1.0000  4.4032
 6883SOL     OW32107   3.160   1.074  15.327 -0.1238  0.3001 -0.0614
 6883SOL    HW132108   3.203   1.001  15.372 -4.5644 -2.0576  0.4429
 6883SOL    HW232109   3.228   1.140  15.327  1.4839 -1.3650 -0.5313
 6884SOL     OW32110   0.945   1.280   4.173 -0.0030 -0.2592  0.0430
 6884SOL    HW132111   1.014   1.318   4.119 -1.9437  2.1994 -0.6871
 6884SOL    HW232112   0.933   1.194   4.131  1.6408  0.5703 -2.0998
 6885SOL     OW32113   0.805   2.789   5.057  0.1456  0.2422 -0.9182
 6885SOL    HW132114   0.791   2.872   5.011 -1.8682  0.4171  0.0221
 6885SOL    HW232115   0.725   2.740   5.039 -0.7602  0.0583  3.6710
 6886SOL     OW32116   0.759   1.823   7.700 -0.4996  0.0792 -0.6812
 6886SOL    HW132117   0.689   1.763   7.677 -0.3577 -0.6056  0.6709
 6886SOL    HW232118   0.728   1.903   7.658  0.6464  0.2076 -1.2930
 6887SOL     OW32119   2.434   3.482   4.770  0.0095  0.6106 -0.4275
 6887SOL    HW132120   2.389   3.462   4.688 -1.0719 -2.3837  0.9022
 6887SOL    HW232121   2.526   3.495   4.747  0.6839 -0.9655  1.4195
 6888SOL     OW32122   4.688   0.766  14.742 -0.6292  0.0548  0.0554
 6888SOL    HW132123   4.664   0.676  14.762  0.7485 -0.0438  1.1965
 6888SOL    HW232124   0.048   0.779  14.782 -0.3718  2.1592 -1.1405
 6889SOL     OW32125   0.137   1.101   4.824  0.1692  0.5265 -0.4336
 6889SOL    HW132126   0.172   1.041   4.758  2.1160 -0.8959  1.8748
 6889SOL    HW232127   0.074   1.143   4.766 -2.8455 -1.8475  1.0913
 6890SOL     OW32128   4.491   3.008   3.419  0.4277  0.2689 -0.2583
 6890SOL    HW132129   4.585   2.997   3.404  0.4756  0.2488  0.0708
 6890SOL    HW232130   4.486   3.103   3.408  2.3358  0.3187 -0.7680
 6891SOL     OW32131   3.749   1.133   6.482 -0.2620 -0.0045  0.6056
 6891SOL    HW132132   3.818   1.184   6.440 -0.1257  0.9084  1.9456
 6891SOL    HW232133   3.720   1.200   6.544  4.6054  3.3256 -0.7906
 6892SOL     OW32134   1.218   1.919   2.569  0.6469  0.1916 -0.1793
 6892SOL    HW132135   1.288   1.945   2.510  0.5149 -1.0388 -0.8846
 6892SOL    HW232136   1.146   1.979   2.549  0.4078 -0.0500 -0.0418
 6893SOL     OW32137   4.409   0.682   4.652  0.3559 -0.4878 -0.1507
 6893SOL    HW132138   4.470   0.699   4.580  0.2581 -1.1072 -0.3837
 6893SOL    HW232139   4.329   0.690   4.601  0.9814 -1.5952 -1.3072
 6894SOL     OW32140   1.218   1.311   7.144 -0.5953 -0.0427  0.3642
 6894SOL    HW132141   1.133   1.346   7.116 -0.3081  0.5356  0.2154
 6894SOL    HW232142   1.218   1.317   7.239 -0.2207 -1.0544  0.4293
 6895SOL     OW32143   4.121   4.602   9.281 -0.0974 -0.7247 -0.8101
 6895SOL    HW132144   4.197   4.611   9.224 -0.3481 -0.7677 -1.1487
 6895SOL    HW232145   4.115   4.690   9.318  1.6137 -1.0449  0.2393
 6896SOL     OW32146   3.332   3.266   7.326  0.2513 -0.4017 -0.2628
 6896SOL    HW132147   3.372   3.192   7.280  0.2494 -1.3656  1.2781
 6896SOL    HW232148   3.243   3.233   7.317  0.0563  0.2098 -0.5787
 6897SOL     OW32149   1.539   4.376   5.788  0.1565 -0.0562 -1.0587
 6897SOL    HW132150   1.452   4.397   5.821 -0.3682 -0.7727 -2.0102
 6897SOL    HW232151   1.588   4.429   5.852  0.4243  0.4803 -1.7116
 6898SOL     OW32152   2.333   2.985   1.269  0.1222  0.0408 -0.3169
 6898SOL    HW132153   2.283   3.011   1.192 -1.5020 -1.9185  0.1095
 6898SOL    HW232154   2.347   3.074   1.301 -0.9368 -0.1554  0.6839
 6899SOL     OW32155   3.766   0.346   5.939  0.8006  0.0330 -0.1514
 6899SOL    HW132156   3.681   0.326   5.900  1.3361 -1.3921 -0.5844
 6899SOL    HW232157   3.819   0.355   5.860  0.0570  3.4099 -0.2439
 6900SOL     OW32158   2.387   4.032  12.096 -0.3452 -0.0420  0.1753
 6900SOL    HW132159   2.348   3.970  12.034 -0.2483 -1.6674  1.7498
 6900SOL    HW232160   2.431   4.095  12.038 -0.8422  0.8308  0.7538
 6901SOL     OW32161   2.891   3.065   5.911 -0.0673 -0.1833  0.0618
 6901SOL    HW132162   2.809   3.073   5.959  0.8025 -2.1521  1.8447
 6901SOL    HW232163   2.879   3.126   5.838 -4.1922  1.3056  2.0249
 6902SOL     OW32164   1.881   0.662   8.758 -0.5580  0.4033  0.3053
 6902SOL    HW132165   1.926   0.650   8.675 -1.5226 -1.3360  0.0432
 6902SOL    HW232166   1.902   0.751   8.786 -1.9838  0.2499  1.8783
 6903SOL     OW32167   2.947   2.254   1.037  0.3634 -0.1972  0.2502
 6903SOL    HW132168   3.037   2.224   1.044  0.5697  0.3501 -0.0153
 6903SOL    HW232169   2.919   2.253   1.129  0.9266  1.1240  0.4367
 6904SOL     OW32170   0.155   2.527  12.292  0.0140 -0.2569  0.7090
 6904SOL    HW132171   0.157   2.431  12.294 -1.2677 -0.2747  1.1191
 6904SOL    HW232172   0.062   2.543  12.307 -0.0577 -0.2490  0.2539
 6905SOL     OW32173   3.238   2.508   4.793  0.3978  0.2839  0.0090
 6905SOL    HW132174   3.294   2.518   4.870  0.5681  0.7339 -0.1715
 6905SOL    HW232175   3.288   2.439   4.749  1.3309 -0.3997  2.1501
 6906SOL     OW32176   1.067   2.893   4.991  0.6343 -0.0944  0.2857
 6906SOL    HW132177   0.982   2.866   5.025 -0.0582 -1.1234 -2.2832
 6906SOL    HW232178   1.103   2.938   5.067  2.2413 -1.0685  0.1053
 6907SOL     OW32179   3.827   2.355   6.529  0.3191 -0.8460 -0.3055
 6907SOL    HW132180   3.765   2.405   6.582  0.5847 -0.7399 -0.0916
 6907SOL    HW232181   3.842   2.423   6.464  0.4662 -2.5278 -2.0250
 6908SOL     OW32182   3.461   2.392   7.033  0.1027 -0.1038  0.2289
 6908SOL    HW132183   3.533   2.334   7.059  0.0912 -0.1085  0.2504
 6908SOL    HW232184   3.504   2.475   7.012  1.1291 -1.0926 -1.6489
 6909SOL     OW32185   0.388   4.260   1.490 -0.5736  0.8136  0.2729
 6909SOL    HW132186   0.455   4.318   1.454  1.1474 -0.1801  1.8854
 6909SOL    HW232187   0.321   4.270   1.422  0.1696  1.8035 -0.3081
 6910SOL     OW32188   2.733   2.564   3.993  0.5358 -0.0473  0.6917
 6910SOL    HW132189   2.695   2.622   3.927 -1.3189  0.2822  2.0330
 6910SOL    HW232190   2.782   2.498   3.945 -0.5094  0.1708 -0.6703
 6911SOL     OW32191   4.072   3.733   2.664 -0.8793  0.8201 -0.3578
 6911SOL    HW132192   4.047   3.813   2.619 -1.0572 -0.2801 -2.2181
 6911SOL    HW232193   4.093   3.679   2.588  0.6869  0.0853  0.5947
 6912SOL     OW32194   3.066   0.833   4.727 -0.2827  0.1636 -0.1546
 6912SOL    HW132195   2.997   0.831   4.661  0.7381 -0.0326 -1.2139
 6912SOL    HW232196   3.018   0.781   4.792 -1.7306 -0.3519 -1.6290
 6913SOL     OW32197   2.142   0.096   1.781  0.1000 -0.0574 -0.6697
 6913SOL    HW132198   2.141   0.018   1.725  2.6590  0.0184 -0.8214
 6913SOL    HW232199   2.149   0.053   1.866 -1.7048  1.5063  0.2966
 6914SOL     OW32200   0.728   2.682   8.565 -0.6829  0.2361 -0.1815
 6914SOL    HW132201   0.722   2.664   8.659  0.4689  1.7598  0.1883
 6914SOL    HW232202   0.808   2.734   8.568  0.0035 -0.9388  1.6882
 6915SOL     OW32203   0.879   2.972   8.814  0.3229 -0.1452  0.4049
 6915SOL    HW132204   0.881   2.891   8.764 -0.6011  0.9769 -1.4465
 6915SOL    HW232205   0.817   2.946   8.883  1.6372 -2.2403  0.7955
 6916SOL     OW32206   1.064   3.598   6.029  0.0059  0.4871  0.1668
 6916SOL    HW132207   0.991   3.585   6.090 -1.1245 -0.3107 -1.3454
 6916SOL    HW232208   1.097   3.679   6.067 -0.1850 -0.7049  2.9594
 6917SOL     OW32209   2.808   2.279   4.634 -0.0214  0.0869  0.2764
 6917SOL    HW132210   2.725   2.297   4.590 -0.0132 -0.4624  0.0282
 6917SOL    HW232211   2.804   2.299   4.727  2.0463 -0.6113  0.5159
 6918SOL     OW32212   3.364   3.649   8.540  0.1118  0.3490  0.1571
 6918SOL    HW132213   3.350   3.725   8.597 -1.1743  0.9660 -0.9837
 6918SOL    HW232214   3.285   3.598   8.555  0.1709  0.3213  0.3827
 6919SOL     OW32215   3.103   1.139   4.878  0.6708 -0.0732  0.6928
 6919SOL    HW132216   3.197   1.152   4.884  0.6769 -0.0683  0.5810
 6919SOL    HW232217   3.063   1.227   4.882  0.5649 -0.0323 -1.8091
 6920SOL     OW32218   2.967   3.305  15.897  0.3230  0.1369 -0.0792
 6920SOL    HW132219   2.925   3.227  15.861 -0.9759  1.1497 -0.7356
 6920SOL    HW232220   2.928   3.371  15.840  0.5099  1.2662  1.1077
 6921SOL     OW32221   0.097   2.963  11.642 -0.3758  0.3873  0.6343
 6921SOL    HW132222   0.004   2.950  11.622 -0.3931 -1.8812  2.2585
 6921SOL    HW232223   0.097   3.053  11.674  2.3986  1.0606 -1.2100
 6922SOL     OW32224   0.353   0.001   4.896  0.1311  0.2166  0.4953
 6922SOL    HW132225   0.406   4.695   4.970  0.7290 -2.9963 -1.3012
 6922SOL    HW232226   0.423   0.016   4.833  0.4385 -0.2596  0.7198
 6923SOL     OW32227   1.523   3.936  15.198  0.8553 -0.9571  0.3093
 6923SOL    HW132228   1.612   3.941  15.163  0.9173  3.3279  1.0229
 6923SOL    HW232229   1.537   3.983  15.280 -0.7014 -0.0211  0.0399
 6924SOL     OW32230   3.333   0.431   3.366 -0.0018 -0.1928  0.0976
 6924SOL    HW132231   3.379   0.470   3.440  0.6710  0.0774 -0.4626
 6924SOL    HW232232   3.390   0.359   3.340  2.0416  1.4879  0.0306
 6925SOL     OW32233   1.949   2.202   4.883 -0.7552 -0.4938 -0.1468
 6925SOL    HW132234   1.892   2.163   4.817  1.0683 -1.0988 -1.3428
 6925SOL    HW232235   1.923   2.167   4.968  0.3440 -0.9450  0.0030
 6926SOL     OW32236   4.191   1.215   8.005  0.1571  0.2079 -0.2431
 6926SOL    HW132237   4.101   1.198   8.032  0.4721 -1.3832 -0.1628
 6926SOL    HW232238   4.211   1.269   8.082  0.2570 -0.8084  0.4525
 6927SOL     OW32239   3.363   0.449   8.747  0.1884  0.0179 -0.8039
 6927SOL    HW132240   3.340   0.418   8.659 -3.3210 -0.1498  0.1750
 6927SOL    HW232241   3.303   0.522   8.759 -0.9674 -0.7438 -1.9824
 6928SOL     OW32242   1.098   2.867   4.571  0.4773 -0.2277  0.2773
 6928SOL    HW132243   1.140   2.915   4.500 -0.2196 -0.1520 -0.0874
 6928SOL    HW232244   1.079   2.940   4.629  0.8578 -0.3001  0.4876
 6929SOL     OW32245   3.436   1.468   1.855  0.5658 -0.6388  0.2092
 6929SOL    HW132246   3.521   1.468   1.812 -1.0292 -0.9716 -2.9387
 6929SOL    HW232247   3.428   1.558   1.886  0.7858 -1.3154  2.2128
 6930SOL     OW32248   1.701   1.915   3.009  0.0611  0.3584  0.1262
 6930SOL    HW132249   1.722   1.924   2.916  1.4487 -0.4266  0.3636
 6930SOL    HW232250   1.622   1.860   3.009  0.9180 -0.8480  1.5806
 6931SOL     OW32251   1.203   2.761   3.494 -0.0674 -0.1248 -0.2515
 6931SOL    HW132252   1.175   2.850   3.515  1.5720  0.7132 -1.6953
 6931SOL    HW232253   1.200   2.717   3.579  1.4634  1.7275  0.7503
 6932SOL     OW32254   4.636   1.996  15.502 -0.4739  0.0399 -0.0819
 6932SOL    HW132255   4.545   2.019  15.520 -0.1471 -0.7264  2.5781
 6932SOL    HW232256   4.627   1.934  15.430 -0.3927 -0.6687  0.5090
 6933SOL     OW32257   2.865   1.995   8.067  0.1214 -0.5350  0.1056
 6933SOL    HW132258   2.894   1.981   8.157 -1.3266 -0.7031  0.5466
 6933SOL    HW232259   2.889   2.087   8.058  2.4880 -0.9232  2.6370
 6934SOL     OW32260   3.981   2.429   8.097 -0.4706 -0.6647  0.2555
 6934SOL    HW132261   3.941   2.360   8.044 -2.5476 -1.3026  2.6352
 6934SOL    HW232262   3.990   2.381   8.180  2.2190  1.5459  1.2605
 6935SOL     OW32263   3.129   4.619   7.339  0.2380 -0.2240 -0.6025
 6935SOL    HW132264   3.153   4.707   7.312  0.2413 -1.5618 -4.8959
 6935SOL    HW232265   3.200   4.583   7.392 -1.0005 -0.3467  0.9935
 6936SOL     OW32266   0.447   4.395   6.054 -0.0051 -0.6623  0.5147
 6936SOL    HW132267   0.469   4.380   5.962 -0.8424 -0.1937  0.2415
 6936SOL    HW232268   0.448   4.307   6.094  2.2896  0.2184  2.3949
 6937SOL     OW32269   1.798   2.879   8.854  0.3007  0.0518  0.2034
 6937SOL    HW132270   1.818   2.790   8.826  0.2330  0.4524 -1.1002
 6937SOL    HW232271   1.804   2.868   8.949 -0.8508 -1.3635  0.1068
 6938SOL     OW32272   1.145   4.018   9.500  0.9417 -0.3375  0.1458
 6938SOL    HW132273   1.108   4.104   9.521 -1.2459 -1.2162 -0.1234
 6938SOL    HW232274   1.078   3.991   9.437  1.3154 -1.1974  0.1147
 6939SOL     OW32275   4.049   1.732   5.081 -0.2342 -0.0926 -0.1989
 6939SOL    HW132276   4.120   1.795   5.076 -1.0434  0.7229 -1.4363
 6939SOL    HW232277   4.024   1.730   5.173  2.1667 -0.5977  0.4446
 6940SOL     OW32278   2.198   2.209   7.282  0.2443 -0.1603  0.1535
 6940SOL    HW132279   2.105   2.206   7.258  0.7356 -0.8557 -1.7122
 6940SOL    HW232280   2.210   2.303   7.291  1.0188 -0.3136  0.6728
 6941SOL     OW32281   0.897   1.131   7.880  0.3437  0.0751 -0.4294
 6941SOL    HW132282   0.880   1.058   7.939  0.8395 -1.3252 -2.0332
 6941SOL    HW232283   0.930   1.086   7.803  0.0522 -0.8864  0.0106
 6942SOL     OW32284   3.053   2.707   4.298 -0.1428  0.6796  0.1941
 6942SOL    HW132285   3.062   2.774   4.365 -1.2428 -0.3853  1.4121
 6942SOL    HW232286   3.025   2.761   4.224  2.4586  0.3880 -1.0363
 6943SOL     OW32287   2.519   4.601   8.876 -0.0204 -1.0738  0.2410
 6943SOL    HW132288   2.554   4.686   8.904  1.8585 -1.8857  0.3318
 6943SOL    HW232289   2.594   4.564   8.830  0.3912  0.4268 -0.3117
 6944SOL     OW32290   4.165   2.971   8.235  0.2246 -0.2674 -0.1132
 6944SOL    HW132291   4.256   2.945   8.227  0.8061  1.8444 -0.2288
 6944SOL    HW232292   4.165   3.028   8.157  2.6182  1.3514  1.0676
 6945SOL     OW32293   2.850   4.135   8.453 -0.6583  0.4412  0.2402
 6945SOL    HW132294   2.883   4.101   8.370 -0.3217 -0.2684  0.6615
 6945SOL    HW232295   2.866   4.227   8.433  0.0707  0.3375  0.3243
 6946SOL     OW32296   4.047   4.285   4.525  0.5442 -0.4123  0.3535
 6946SOL    HW132297   4.105   4.326   4.461  0.7598  1.6172  1.8229
 6946SOL    HW232298   3.993   4.233   4.466  1.0443  0.8762 -1.2499
 6947SOL     OW32299   1.877   0.413  13.527  0.1723 -0.3148 -0.4542
 6947SOL    HW132300   1.912   0.494  13.564  0.9468 -0.3119 -1.1922
 6947SOL    HW232301   1.853   0.442  13.439  1.4487 -0.7972 -0.9688
 6948SOL     OW32302   1.496   2.126   6.063  0.1227 -0.0154  0.0045
 6948SOL    HW132303   1.450   2.172   6.133  1.8187  1.0971  0.4037
 6948SOL    HW232304   1.450   2.042   6.062 -1.9835  1.1515 -1.3494
 6949SOL     OW32305   0.804   0.422   8.404  0.6802  0.0366  0.2666
 6949SOL    HW132306   0.797   0.326   8.411 -0.1732 -0.0230 -1.3960
 6949SOL    HW232307   0.764   0.441   8.319  0.5990 -0.9436  0.0753
 6950SOL     OW32308   0.929   2.449   3.607  0.3921 -0.2695 -0.0695
 6950SOL    HW132309   0.938   2.417   3.517 -0.3406 -0.5257 -0.0545
 6950SOL    HW232310   0.922   2.544   3.598 -0.0024 -0.3790 -0.9570
 6951SOL     OW32311   2.437   3.741   8.280 -0.0584 -0.2856 -0.5155
 6951SOL    HW132312   2.378   3.688   8.334  0.6798 -2.0698 -1.4681
 6951SOL    HW232313   2.385   3.821   8.285  0.2579 -0.1156  0.0322
 6952SOL     OW32314   3.779   1.037   4.242 -0.3417  0.0981 -0.1226
 6952SOL    HW132315   3.852   1.075   4.291 -1.5626  0.6656  1.2779
 6952SOL    HW232316   3.771   0.949   4.280  0.1506  0.8934  1.8272
 6953SOL     OW32317   0.977   0.154  13.489  0.1012 -0.0089 -0.3916
 6953SOL    HW132318   0.988   0.244  13.460  0.5608  0.6717  1.8703
 6953SOL    HW232319   1.066   0.139  13.521 -0.0254  1.1432  0.5205
 6954SOL     OW32320   1.639   1.551   4.490 -0.2877  0.0085  0.3166
 6954SOL    HW132321   1.565   1.497   4.518  1.0829 -1.0307  2.0294
 6954SOL    HW232322   1.714   1.492   4.500 -2.3677 -2.3828  1.9442
 6955SOL     OW32323   4.677   4.140   2.224  0.4103  0.4820  0.2472
 6955SOL    HW132324   4.606   4.136   2.159 -1.5463  0.2428  2.3835
 6955SOL    HW232325   4.631   4.199   2.285 -0.0124  0.4741 -0.0621
 6956SOL     OW32326   3.062   0.059  10.940  0.5917 -0.0243 -0.2988
 6956SOL    HW132327   3.014   0.095  10.866 -0.6166 -0.0501  0.4710
 6956SOL    HW232328   3.112   4.715  10.896  0.5926  0.0735 -0.4523
 6957SOL     OW32329   3.546   2.999   6.328 -0.0113  0.0074 -0.0535
 6957SOL    HW132330   3.581   2.987   6.240  1.0937  0.0814  0.3791
 6957SOL    HW232331   3.490   3.075   6.317 -0.0217 -0.0428 -0.3472
 6958SOL     OW32332   1.710   3.779   7.416 -0.3740 -0.2346 -0.9177
 6958SOL    HW132333   1.642   3.811   7.474 -0.0303 -0.5728 -0.3221
 6958SOL    HW232334   1.664   3.702   7.383  0.3636 -1.2429  0.3720
 6959SOL     OW32335   4.115   3.819   8.593 -0.3114  0.1147 -0.3289
 6959SOL    HW132336   4.188   3.876   8.570 -0.1885  1.1614  2.5987
 6959SOL    HW232337   4.149   3.735   8.563  0.2277 -0.0763  0.8131
 6960SOL     OW32338   0.092   4.085   5.126 -0.2159  0.5857 -0.0106
 6960SOL    HW132339   0.016   4.142   5.110  1.4804  2.2701 -1.9365
 6960SOL    HW232340   0.070   3.992   5.135 -0.8190  0.7372  0.1272
 6961SOL     OW32341   3.012   3.204   6.813  0.5314  0.3865 -0.2042
 6961SOL    HW132342   2.961   3.126   6.792 -0.5800  0.3214  2.6896
 6961SOL    HW232343   2.959   3.275   6.776 -0.0128 -0.8315 -1.7646
 6962SOL     OW32344   3.540   0.030  17.472  0.2153  0.3084 -0.3747
 6962SOL    HW132345   3.478   4.713  17.413 -1.6559  0.2138  1.6588
 6962SOL    HW232346   3.518   4.709  17.553  1.0588  0.1303 -0.2472
 6963SOL     OW32347   1.022   0.338   9.311  0.2909  0.3560  0.1029
 6963SOL    HW132348   0.955   0.395   9.272 -0.8634 -1.2280 -0.1936
 6963SOL    HW232349   1.036   0.293   9.228 -0.2665 -0.5283  0.4944
 6964SOL     OW32350   4.377   4.534  13.211  0.0808 -0.5395 -0.2967
 6964SOL    HW132351   4.326   4.581  13.277 -0.4818 -2.2362  0.4683
 6964SOL    HW232352   4.420   4.604  13.162 -0.8983  1.4271  1.7054
 6965SOL     OW32353   4.029   3.356   6.544 -0.1975 -0.3737 -0.4420
 6965SOL    HW132354   4.062   3.381   6.630  0.0913  0.3953 -0.7720
 6965SOL    HW232355   3.982   3.438   6.530  1.0351  0.2667 -0.8996
 6966SOL     OW32356   3.998   0.874   5.513  0.0207  0.3897 -0.2948
 6966SOL    HW132357   4.073   0.895   5.570 -0.4868  0.7599  0.2367
 6966SOL    HW232358   4.044   0.891   5.431  0.7085  3.4253  0.7414
 6967SOL     OW32359   1.873   3.102   4.111 -0.3641  0.3001  0.0915
 6967SOL    HW132360   1.865   3.023   4.058  2.2521  0.1958 -0.1281
 6967SOL    HW232361   1.861   3.067   4.200  0.6791  3.5175  1.4913
 6968SOL     OW32362   4.513   4.546  16.213  0.1583  0.7401 -0.1957
 6968SOL    HW132363   4.608   4.548  16.200  0.5286  1.2938  2.5275
 6968SOL    HW232364   4.502   4.639  16.198  0.0898  0.6290 -0.8160
 6969SOL     OW32365   1.842   2.965  17.035 -0.5005 -0.5003 -0.0583
 6969SOL    HW132366   1.813   2.910  16.962  1.9933 -1.7352 -0.1067
 6969SOL    HW232367   1.889   2.902  17.090 -2.1549 -1.0361  0.7327
 6970SOL     OW32368   1.863   2.817   2.615 -0.0080  0.4694 -0.2692
 6970SOL    HW132369   1.835   2.733   2.651  3.4088 -0.3677  0.4610
 6970SOL    HW232370   1.855   2.875   2.690  0.2677  0.8628 -0.5379
 6971SOL     OW32371   4.229   3.398   8.235  0.4891 -0.2361  0.0122
 6971SOL    HW132372   4.318   3.383   8.267  1.6849 -0.6305 -3.5635
 6971SOL    HW232373   4.180   3.397   8.318 -0.5501 -1.0271 -0.6045
 6972SOL     OW32374   4.584   3.814   1.173 -0.2381 -0.2982  0.5601
 6972SOL    HW132375   4.558   3.831   1.263 -2.3690  0.7451 -0.2567
 6972SOL    HW232376   4.674   3.798   1.200 -0.7925 -1.4608  1.7236
 6973SOL     OW32377   2.983   2.880  16.026 -0.2815  0.0588  0.2739
 6973SOL    HW132378   2.902   2.848  16.065 -0.7642 -0.3865 -1.0646
 6973SOL    HW232379   2.974   2.840  15.939 -1.8267  2.1078 -0.5031
 6974SOL     OW32380   2.246   4.697   3.099 -0.2711 -0.1899  0.0769
 6974SOL    HW132381   2.305   4.671   3.028  1.9855  1.1054  1.4845
 6974SOL    HW232382   2.307   0.011   3.161 -1.0206  2.0543 -0.6265
 6975SOL     OW32383   4.248   4.062   9.163 -0.5659  0.2205 -0.0645
 6975SOL    HW132384   4.320   4.080   9.101 -0.4756 -1.0446 -0.3330
 6975SOL    HW232385   4.264   4.129   9.229 -0.4096 -0.1163  0.2368
 6976SOL     OW32386   0.352   2.849   2.178 -0.9868 -0.1969 -0.5639
 6976SOL    HW132387   0.330   2.818   2.090  4.0646 -0.0959 -1.8927
 6976SOL    HW232388   0.264   2.837   2.213  0.0426 -1.4822  1.5865
 6977SOL     OW32389   2.729   2.260  12.639  0.6522 -0.3239  0.4363
 6977SOL    HW132390   2.646   2.254  12.590  1.2747 -0.7426 -0.5609
 6977SOL    HW232391   2.706   2.208  12.716 -0.8886  1.1724  0.9872
 6978SOL     OW32392   0.667   3.711   9.281 -0.1592 -0.4046  0.0941
 6978SOL    HW132393   0.681   3.777   9.213 -1.1926  2.0736  2.2930
 6978SOL    HW232394   0.605   3.655   9.235  0.5786 -1.0988 -0.0579
 6979SOL     OW32395   3.817   1.861   8.716  0.1342  0.6265  0.0077
 6979SOL    HW132396   3.778   1.790   8.665  1.2603 -0.5096  0.7307
 6979SOL    HW232397   3.910   1.842   8.702  0.2623  1.1814  0.1019
 6980SOL     OW32398   4.491   0.404   7.237  0.0856  0.1674 -0.3156
 6980SOL    HW132399   4.417   0.418   7.296  1.5343  2.5698  0.9413
 6980SOL    HW232400   4.480   0.482   7.182 -0.8427 -0.7124 -1.3970
 6981SOL     OW32401   3.435   1.734   6.170  0.7545 -0.2949 -0.4193
 6981SOL    HW132402   3.441   1.712   6.263  0.8142 -0.2922 -0.4222
 6981SOL    HW232403   3.364   1.797   6.180  0.7273 -0.4626  0.4584
 6982SOL     OW32404   0.794   3.575  14.054  0.2643  0.0376 -0.0131
 6982SOL    HW132405   0.750   3.651  14.016  1.2032  0.7547  0.3356
 6982SOL    HW232406   0.730   3.548  14.120  0.0833  0.8127  0.1270
 6983SOL     OW32407   2.277   4.645   1.566 -0.1664  0.5776 -0.2629
 6983SOL    HW132408   2.320   4.648   1.652 -2.0884 -0.5450  0.7500
 6983SOL    HW232409   2.350   4.664   1.508  0.1713 -1.9942 -0.6739
 6984SOL     OW32410   1.663   0.044  10.113  0.4608  0.4675 -0.5169
 6984SOL    HW132411   1.594   0.074  10.171 -0.1989 -2.2834  0.1275
 6984SOL    HW232412   1.735   0.027  10.174 -1.3573 -0.7333  1.2870
 6985SOL     OW32413   0.454   1.728   8.733  0.1727  0.3184 -0.3629
 6985SOL    HW132414   0.517   1.731   8.661 -0.2616  2.3533 -0.6535
 6985SOL    HW232415   0.488   1.666   8.797 -0.6632  0.1012 -0.1206
 6986SOL     OW32416   2.243   3.870   9.238  0.8288  0.1487  0.1960
 6986SOL    HW132417   2.257   3.841   9.148 -1.2684 -0.4709  0.0735
 6986SOL    HW232418   2.184   3.943   9.218  1.2260  0.8127  1.4415
 6987SOL     OW32419   1.356   2.546   0.314 -0.2478 -0.1395 -0.5077
 6987SOL    HW132420   1.271   2.557   0.357  0.6752  2.3962  0.6436
 6987SOL    HW232421   1.370   2.632   0.274 -0.5929 -0.5965 -1.5952
 6988SOL     OW32422   1.495   3.962   3.695 -0.5092 -0.4972 -0.1394
 6988SOL    HW132423   1.512   3.873   3.727  3.1982  0.0369 -0.5789
 6988SOL    HW232424   1.551   4.016   3.750  0.4770  1.3422 -2.9445
 6989SOL     OW32425   0.284   1.331  17.329 -0.2059 -0.2061 -0.1203
 6989SOL    HW132426   0.207   1.277  17.345  1.1298 -2.3819 -1.0660
 6989SOL    HW232427   0.342   1.271  17.283  1.6566 -0.2672  2.3049
 6990SOL     OW32428   1.232   0.912   6.323 -0.8958  0.0415 -0.0495
 6990SOL    HW132429   1.256   0.974   6.255 -1.1759  1.6246  1.2797
 6990SOL    HW232430   1.307   0.902   6.382 -0.5718 -0.0452 -0.4809
 6991SOL     OW32431   3.334   0.743   5.767  0.3070  0.0222  0.2229
 6991SOL    HW132432   3.331   0.837   5.747  2.0378 -0.1437 -0.7565
 6991SOL    HW232433   3.240   0.741   5.789  0.2647  2.1328  0.2520
 6992SOL     OW32434   0.691   3.026  10.953 -0.1976 -0.6150 -0.3115
 6992SOL    HW132435   0.708   3.099  11.013  1.6236 -1.3971  0.1230
 6992SOL    HW232436   0.698   2.951  11.012  2.4426  0.1082  0.3189
 6993SOL     OW32437   1.758   2.195   6.164 -0.4564 -0.5023  0.1936
 6993SOL    HW132438   1.672   2.162   6.137  0.5666 -2.8892 -0.1268
 6993SOL    HW232439   1.803   2.181   6.081 -0.6162  0.7471 -0.1116
 6994SOL     OW32440   3.185   4.237   3.344 -0.1547  0.0112  0.0826
 6994SOL    HW132441   3.259   4.232   3.283 -0.4776  2.9931 -0.5664
 6994SOL    HW232442   3.129   4.181   3.290  0.0605 -0.6921  0.5824
 6995SOL     OW32443   2.622   3.537  17.199  0.2252  0.1190  0.3809
 6995SOL    HW132444   2.663   3.498  17.276  1.0175 -2.6347 -1.4159
 6995SOL    HW232445   2.569   3.461  17.175  1.2780 -0.6045  0.3022
 6996SOL     OW32446   3.909   1.873   2.100 -0.2928 -0.1654 -0.3659
 6996SOL    HW132447   3.973   1.804   2.116  0.7503  0.7152 -0.6674
 6996SOL    HW232448   3.830   1.824   2.122  0.2095 -0.6784  0.2955
 6997SOL     OW32449   3.042   1.387  11.264 -0.2418  0.7793  0.5143
 6997SOL    HW132450   3.100   1.364  11.337  0.7275  0.6571 -0.2939
 6997SOL    HW232451   2.959   1.371  11.309 -1.7850  2.6575 -1.6664
 6998SOL     OW32452   2.184   1.604   5.155  0.2541 -0.3621  0.8083
 6998SOL    HW132453   2.162   1.569   5.069 -0.4375 -0.1562  0.9083
 6998SOL    HW232454   2.242   1.538   5.194  0.8283 -1.1858 -1.4092
 6999SOL     OW32455   3.988   0.514   1.159 -0.1790 -0.6102  0.1588
 6999SOL    HW132456   3.956   0.517   1.249 -1.7104 -0.8336 -0.3690
 6999SOL    HW232457   4.082   0.506   1.174 -0.3444  0.2804  1.5504
 7000SOL     OW32458   0.183   1.071   6.518  0.4794  0.1177 -0.0896
 7000SOL    HW132459   0.228   1.153   6.497  1.7986 -0.3243  0.9598
 7000SOL    HW232460   0.132   1.099   6.594 -1.7194  0.2695 -1.6227
 7001SOL     OW32461   3.120   4.156  12.110  0.0612 -0.1846  0.0949
 7001SOL    HW132462   3.092   4.195  12.192  0.5894  1.0509 -0.3210
 7001SOL    HW232463   3.215   4.164  12.109  0.1044 -0.7376 -0.6072
 7002SOL     OW32464   1.512   0.759   4.827  0.2641  0.0258 -0.3239
 7002SOL    HW132465   1.566   0.684   4.801 -0.0958 -0.9292  1.6853
 7002SOL    HW232466   1.514   0.746   4.922  0.6948 -0.3157 -0.3781
 7003SOL     OW32467   2.870   3.803   3.329 -0.5424 -0.0563 -0.4032
 7003SOL    HW132468   2.874   3.815   3.234  0.0168  3.3314  0.0572
 7003SOL    HW232469   2.781   3.833   3.345 -0.1474  0.2423  1.2219
 7004SOL     OW32470   1.046   0.893  10.098 -0.0200  0.2175  0.7727
 7004SOL    HW132471   1.057   0.904  10.192  1.5346  1.2183  0.4685
 7004SOL    HW232472   1.033   0.798  10.095  1.2459  0.1150 -1.7520
 7005SOL     OW32473   3.600   2.154   6.981  0.1981  0.4656 -0.0261
 7005SOL    HW132474   3.649   2.108   6.913 -0.9174  1.9690 -1.8522
 7005SOL    HW232475   3.517   2.105   6.976  0.3184 -0.0737  3.5006
 7006SOL     OW32476   3.701   3.624  14.511  0.3549  0.0774  0.1209
 7006SOL    HW132477   3.723   3.695  14.571  0.6515 -0.3771  0.5631
 7006SOL    HW232478   3.677   3.553  14.571  0.1678 -0.2405 -0.3315
 7007SOL     OW32479   0.646   3.731   5.300 -0.2666 -0.0671  0.3825
 7007SOL    HW132480   0.575   3.667   5.299  0.3887 -0.7898  0.1052
 7007SOL    HW232481   0.600   3.812   5.278  0.7658  0.2862 -0.5038
 7008SOL     OW32482   3.463   0.277  13.261  0.1900 -0.0502  0.0790
 7008SOL    HW132483   3.369   0.271  13.243  0.2194  1.2896 -0.5063
 7008SOL    HW232484   3.491   0.194  13.222 -1.4394  0.6067 -2.5034
 7009SOL     OW32485   4.247   4.585   6.698  0.1388  0.0607 -0.2986
 7009SOL    HW132486   4.156   4.587   6.726 -0.3379 -1.1086 -1.7370
 7009SOL    HW232487   4.289   4.553   6.778 -0.1537 -2.9332 -1.3095
 7010SOL     OW32488   4.206   2.075   6.602  0.2444  0.5193  0.0296
 7010SOL    HW132489   4.119   2.103   6.631  0.3265  0.9012 -0.0901
 7010SOL    HW232490   4.256   2.080   6.684  0.1297  0.5190  0.0996
 7011SOL     OW32491   0.053   1.090   2.416  0.1911 -0.1301  0.1097
 7011SOL    HW132492   0.003   1.019   2.374 -0.8064  1.3446 -1.2290
 7011SOL    HW232493   0.036   1.160   2.352 -0.6764 -0.1559  0.3025
 7012SOL     OW32494   3.770   1.110   0.073 -0.2491  0.4729  0.1408
 7012SOL    HW132495   3.836   1.169   0.111 -1.5139  0.2889  2.5893
 7012SOL    HW232496   3.758   1.155  17.693 -3.0127  1.9152  1.3235
 7013SOL     OW32497   4.518   4.194   7.965  0.5547 -0.2959 -0.9209
 7013SOL    HW132498   4.432   4.172   7.928 -0.5900  1.8804  0.4302
 7013SOL    HW232499   4.547   4.121   8.019 -1.1880 -0.0947  0.3101
 7014SOL     OW32500   3.576   0.013   0.327 -0.3637  0.6168 -0.6579
 7014SOL    HW132501   3.492   4.718   0.369  1.3726 -0.2741  2.4260
 7014SOL    HW232502   3.546   0.049   0.244 -0.2174  1.1808 -0.4605
 7015SOL     OW32503   1.760   0.720   4.390  0.2486 -0.5388 -0.3184
 7015SOL    HW132504   1.666   0.712   4.377  0.4292 -0.1755 -1.8525
 7015SOL    HW232505   1.772   0.797   4.334 -0.4140 -0.4927 -0.3922
 7016SOL     OW32506   4.669   1.677  13.445  0.3318 -0.4684 -0.2411
 7016SOL    HW132507   4.638   1.686  13.535 -1.9792 -0.5471 -1.0429
 7016SOL    HW232508   4.672   1.771  13.427  2.0308 -0.1982  1.4522
 7017SOL     OW32509   1.632   2.195  10.794 -0.0678  0.6717  0.3844
 7017SOL    HW132510   1.566   2.144  10.746 -0.6119  0.3397  1.4958
 7017SOL    HW232511   1.601   2.179  10.883  0.3372 -0.4954  0.3129
 7018SOL     OW32512   4.305   0.770   8.486 -0.1420 -0.1730  0.0207
 7018SOL    HW132513   4.278   0.683   8.515 -2.1289  0.5228  0.3088
 7018SOL    HW232514   4.385   0.791   8.534 -0.7891 -0.9129  1.4085
 7019SOL     OW32515   0.680   0.061  10.825 -0.8351  0.8413  0.3980
 7019SOL    HW132516   0.703   0.149  10.856  0.0422  0.2617  1.3845
 7019SOL    HW232517   0.697   0.064  10.731  1.0390 -0.7263  0.6875
 7020SOL     OW32518   1.574   0.307  12.189  0.3569 -0.1040 -0.0188
 7020SOL    HW132519   1.555   0.297  12.282  0.3023 -0.6211 -0.0863
 7020SOL    HW232520   1.560   0.215  12.170  0.3058  0.0676 -0.8269
 7021SOL     OW32521   2.838   4.724   3.082 -0.0304  0.8775  0.9627
 7021SOL    HW132522   2.789   0.080   3.076  0.5579  1.2018  0.5006
 7021SOL    HW232523   2.899   0.019   3.011  0.8186  1.4387  1.8518
 7022SOL     OW32524   0.327   2.525   5.201  0.4003 -0.2487  0.1641
 7022SOL    HW132525   0.289   2.469   5.268 -1.7249  1.4068  0.3747
 7022SOL    HW232526   0.419   2.500   5.207  0.6629  0.3584 -1.2887
 7023SOL     OW32527   1.728   0.571   2.426  0.1511  0.2772 -0.0466
 7023SOL    HW132528   1.703   0.596   2.516  2.1618 -2.3996  1.2583
 7023SOL    HW232529   1.647   0.579   2.375  0.7650 -2.9520 -1.5324
 7024SOL     OW32530   0.300   4.395  12.802 -0.6662 -0.4069 -0.3415
 7024SOL    HW132531   0.273   4.316  12.849  1.3002 -1.4258 -0.9311
 7024SOL    HW232532   0.325   4.352  12.720  1.1383 -2.1216  1.1019
 7025SOL     OW32533   1.560   3.201  11.845 -0.2913 -0.0651 -0.6299
 7025SOL    HW132534   1.623   3.272  11.850  0.8255 -1.0591 -0.5736
 7025SOL    HW232535   1.586   3.139  11.913  1.3918 -1.6937 -2.7183
 7026SOL     OW32536   1.093   2.948   8.989 -0.2655  0.0522 -0.3039
 7026SOL    HW132537   1.139   2.893   8.927  1.9363  1.5544  0.0050
 7026SOL    HW232538   1.024   2.983   8.933  1.6999  1.1762 -2.0061
 7027SOL     OW32539   3.596   0.861   0.738  0.1586 -0.3512 -0.1735
 7027SOL    HW132540   3.610   0.924   0.808  0.4610 -0.3533 -0.2332
 7027SOL    HW232541   3.559   0.916   0.669  0.8525 -0.1870 -0.4129
 7028SOL     OW32542   1.538   0.682   4.068 -0.0955  0.3723 -0.2390
 7028SOL    HW132543   1.513   0.592   4.089  0.5516 -0.1973 -1.9268
 7028SOL    HW232544   1.610   0.663   4.009 -1.7783 -1.9925 -1.5085
 7029SOL     OW32545   0.440   4.299   5.048  0.0159  0.2852  0.5271
 7029SOL    HW132546   0.401   4.233   4.990  3.0944 -0.4168 -0.7803
 7029SOL    HW232547   0.411   4.265   5.133 -0.4531  1.5284  0.8619
 7030SOL     OW32548   4.141   1.642   0.059  0.0554 -0.3860 -0.3539
 7030SOL    HW132549   4.214   1.703   0.046 -1.0474  1.1431  0.7015
 7030SOL    HW232550   4.159   1.576  17.696  2.1841 -1.1382  0.9282
 7031SOL     OW32551   1.298   1.841   8.270  0.0765 -0.5195  0.3553
 7031SOL    HW132552   1.287   1.747   8.257 -0.1206 -0.3417 -0.7581
 7031SOL    HW232553   1.351   1.841   8.350 -2.1246  0.8649  1.8288
 7032SOL     OW32554   3.422   0.806   2.725  0.3986 -0.5147 -0.0219
 7032SOL    HW132555   3.417   0.801   2.630  0.4061 -0.4414 -0.0267
 7032SOL    HW232556   3.366   0.736   2.758  0.8082  0.2420  2.2904
 7033SOL     OW32557   2.712   1.065   8.930 -0.4031 -0.4294 -0.0193
 7033SOL    HW132558   2.671   1.139   8.885 -0.3360  1.2481  2.6177
 7033SOL    HW232559   2.804   1.081   8.911 -0.8004  1.5339 -0.3097
 7034SOL     OW32560   3.302   4.373  11.448 -0.0991 -0.1369  0.7484
 7034SOL    HW132561   3.366   4.327  11.395  0.3099  2.4120 -0.9970
 7034SOL    HW232562   3.228   4.387  11.389  1.1244 -0.5972 -0.8821
 7035SOL     OW32563   0.431   2.442   2.247  0.2831  0.4384 -0.1484
 7035SOL    HW132564   0.414   2.382   2.320 -0.7921 -0.8167 -1.4430
 7035SOL    HW232565   0.362   2.425   2.183  2.5874 -1.5836 -2.0794
 7036SOL     OW32566   1.862   2.948   3.755  0.3749  0.1817  0.0324
 7036SOL    HW132567   1.948   2.960   3.794  0.3324 -0.6949  0.4012
 7036SOL    HW232568   1.828   3.037   3.756 -0.4703 -0.1208 -0.8743
 7037SOL     OW32569   3.956   0.678  11.277  0.1485  0.9769  0.4712
 7037SOL    HW132570   4.000   0.709  11.356 -0.2447 -0.9269  1.4159
 7037SOL    HW232571   3.902   0.606  11.310  0.8684  1.0509  1.8096
 7038SOL     OW32572   2.531   4.414   3.357 -0.2316  0.3673 -0.2834
 7038SOL    HW132573   2.503   4.417   3.266  0.9809 -2.7596 -0.7659
 7038SOL    HW232574   2.598   4.482   3.365 -1.6875  1.8588 -0.7494
 7039SOL     OW32575   2.338   3.826   6.508 -0.1039  0.0179  0.4166
 7039SOL    HW132576   2.416   3.772   6.494  1.0373  1.4033  1.4288
 7039SOL    HW232577   2.283   3.801   6.434 -0.3384  2.6909 -0.3153
 7040SOL     OW32578   1.646   0.281   0.209 -0.5238 -0.2682  0.6666
 7040SOL    HW132579   1.728   0.285   0.258  0.0855  0.4324 -0.4120
 7040SOL    HW232580   1.588   0.336   0.261 -0.9243  0.8542 -0.9703
 7041SOL     OW32581   3.523   2.512  10.564 -0.1390  0.9701  0.4513
 7041SOL    HW132582   3.445   2.497  10.510  0.9162 -3.4959  0.1629
 7041SOL    HW232583   3.505   2.436  10.619  1.8518  1.1561  1.3481
 7042SOL     OW32584   4.252   3.669   0.825  0.0615 -0.5381 -0.3251
 7042SOL    HW132585   4.288   3.738   0.770  1.0835 -0.4892  0.4062
 7042SOL    HW232586   4.288   3.689   0.911 -0.5212 -1.1762  0.0783
 7043SOL     OW32587   0.464   4.529   1.466  0.1251 -0.2248  0.7751
 7043SOL    HW132588   0.416   4.605   1.435  3.0671  1.4335  0.3294
 7043SOL    HW232589   0.497   4.497   1.382 -0.7448 -2.0365  1.1063
 7044SOL     OW32590   2.506   3.457   5.858  0.5311 -0.0485  0.5910
 7044SOL    HW132591   2.548   3.379   5.894  1.1907  0.1419  0.2341
 7044SOL    HW232592   2.460   3.417   5.784  1.0586  0.4082  0.0165
 7045SOL     OW32593   3.347   2.627   9.242 -0.0754  0.6355  0.3127
 7045SOL    HW132594   3.393   2.572   9.178 -1.8464 -0.9353  0.4088
 7045SOL    HW232595   3.370   2.574   9.319 -0.0187  0.4874  0.1934
 7046SOL     OW32596   3.512   0.213   3.378 -0.1584  0.3627  0.0419
 7046SOL    HW132597   3.586   0.260   3.339  0.5998 -0.9898 -0.1312
 7046SOL    HW232598   3.563   0.154   3.433  0.7931 -0.4476 -1.7379
 7047SOL     OW32599   0.286   1.694   1.621 -0.2347 -0.2761  0.3258
 7047SOL    HW132600   0.310   1.761   1.557  0.5172  0.2189  1.1150
 7047SOL    HW232601   0.346   1.620   1.607 -1.0881 -0.6516 -1.2980
 7048SOL     OW32602   1.388   2.860   9.213 -0.5290  0.2809  0.4032
 7048SOL    HW132603   1.461   2.798   9.203 -0.6546  0.1984 -0.0133
 7048SOL    HW232604   1.388   2.884   9.305  0.7258  1.3059  0.1347
 7049SOL     OW32605   0.313   0.008   6.843 -0.2186 -0.3752  0.7381
 7049SOL    HW132606   0.382   0.043   6.786 -1.6334 -0.0409 -0.7756
 7049SOL    HW232607   0.351   0.040   6.925  0.2936  0.0131  0.3488
 7050SOL     OW32608   1.664   3.561   5.725 -0.0107 -0.0492  0.4780
 7050SOL    HW132609   1.753   3.591   5.705  0.0782 -1.4329 -1.2223
 7050SOL    HW232610   1.685   3.469   5.741  0.8553 -0.2161 -1.5974
 7051SOL     OW32611   0.000   4.294  10.123  0.6583  0.1138 -0.0812
 7051SOL    HW132612   4.712   4.386  10.148 -0.5567 -0.1895  0.3619
 7051SOL    HW232613   0.031   4.250  10.202 -0.8240  2.7314  1.9655
 7052SOL     OW32614   3.780   1.401   7.374  0.2390 -0.4552 -0.1008
 7052SOL    HW132615   3.785   1.340   7.300  1.2624  0.5827 -0.8806
 7052SOL    HW232616   3.868   1.411   7.411 -0.4457 -1.8066  1.8777
 7053SOL     OW32617   2.298   4.230   4.842 -0.2400  0.5334  0.1333
 7053SOL    HW132618   2.378   4.282   4.828 -0.5808  1.2426  0.8233
 7053SOL    HW232619   2.295   4.192   4.755 -0.0207  0.6342  0.0801
 7054SOL     OW32620   0.180   4.347   7.821 -0.3528 -0.1437 -0.2349
 7054SOL    HW132621   0.094   4.384   7.839 -0.6562 -0.2011 -1.5983
 7054SOL    HW232622   0.239   4.354   7.896  0.8381  0.8658 -1.2734
 7055SOL     OW32623   0.484   4.306   9.035 -0.0258 -0.7809 -0.2649
 7055SOL    HW132624   0.476   4.377   8.970  0.1535 -0.3457  0.1912
 7055SOL    HW232625   0.516   4.351   9.113 -1.6680 -0.3856  0.1905
 7056SOL     OW32626   2.510   2.417  10.877 -0.1486  0.0646  0.0232
 7056SOL    HW132627   2.561   2.336  10.865  0.1036  0.4137 -1.2631
 7056SOL    HW232628   2.579   2.467  10.920 -1.2126  1.2631  0.3360
 7057SOL     OW32629   0.711   2.684   7.110  0.0397  0.0793 -0.3255
 7057SOL    HW132630   0.712   2.763   7.164  0.1153 -0.8557  1.0469
 7057SOL    HW232631   0.626   2.648   7.133 -0.7247  0.5384 -2.3790
 7058SOL     OW32632   0.664   0.699   8.989 -0.3167  0.4461 -0.0339
 7058SOL    HW132633   0.656   0.706   9.084  1.2639 -1.7643  0.2669
 7058SOL    HW232634   0.586   0.647   8.968  0.4422  0.6176 -3.3070
 7059SOL     OW32635   0.543   2.749  16.862 -0.1954  0.3062 -0.3981
 7059SOL    HW132636   0.554   2.710  16.949 -0.3630  2.0422  0.4015
 7059SOL    HW232637   0.448   2.742  16.850 -0.0308 -3.0168  0.4435
 7060SOL     OW32638   0.437   0.787  12.361 -0.1081 -0.3897  0.0717
 7060SOL    HW132639   0.513   0.794  12.303  0.1402 -1.8100  0.2312
 7060SOL    HW232640   0.396   0.702  12.349 -1.2461  0.1397  0.2097
 7061SOL     OW32641   2.720   1.223   6.575 -0.1038  0.2071  0.1163
 7061SOL    HW132642   2.679   1.160   6.634  3.5326 -1.7023  0.5719
 7061SOL    HW232643   2.669   1.301   6.597  1.0442  1.3837 -1.4280
 7062SOL     OW32644   3.593   2.824   7.200  0.3995 -0.4339  0.2416
 7062SOL    HW132645   3.523   2.796   7.259 -0.6924 -0.2264 -0.9440
 7062SOL    HW232646   3.545   2.851   7.121  1.0042  0.0124  0.0273
 7063SOL     OW32647   2.585   2.830   5.781  0.4966  0.6703 -0.2972
 7063SOL    HW132648   2.576   2.886   5.704  0.6767 -0.1866 -0.9452
 7063SOL    HW232649   2.509   2.773   5.764 -0.4638  1.6730  0.5931
 7064SOL     OW32650   0.775   1.226  12.675 -0.7272 -0.1395 -0.1643
 7064SOL    HW132651   0.839   1.225  12.746  0.0826 -2.9304 -0.9357
 7064SOL    HW232652   0.708   1.167  12.711 -0.4291 -1.1289 -1.2318
 7065SOL     OW32653   0.351   1.286   4.271  0.2527 -0.0194 -0.9059
 7065SOL    HW132654   0.270   1.275   4.221  0.3219  1.8790 -1.4404
 7065SOL    HW232655   0.403   1.207   4.257  1.6696  0.4993  1.4157
 7066SOL     OW32656   2.384   4.379   8.962  0.5821  0.3733  0.5279
 7066SOL    HW132657   2.430   4.307   8.920  0.9174  1.5064 -1.0392
 7066SOL    HW232658   2.447   4.450   8.949  0.2464  0.3439 -1.2144
 7067SOL     OW32659   2.333   3.595   7.933 -0.3039 -0.5255 -0.0558
 7067SOL    HW132660   2.348   3.688   7.951  0.3100 -0.6188 -0.0883
 7067SOL    HW232661   2.260   3.584   7.994 -1.3306  0.7433 -1.0660
 7068SOL     OW32662   3.479   1.619  12.304 -0.1055 -0.1109  0.1679
 7068SOL    HW132663   3.536   1.626  12.227 -2.3075 -1.2099 -1.5765
 7068SOL    HW232664   3.394   1.646  12.269  0.6102  2.4404  0.4046
 7069SOL     OW32665   4.157   1.401   3.852  0.1177 -0.0866 -0.7473
 7069SOL    HW132666   4.250   1.424   3.861  0.5877 -2.1548 -0.2996
 7069SOL    HW232667   4.166   1.315   3.811  1.4383  0.9672 -2.6913
 7070SOL     OW32668   1.769   2.668   1.250 -0.7396  0.6464 -0.2225
 7070SOL    HW132669   1.734   2.607   1.185 -1.0829 -0.2119  0.7707
 7070SOL    HW232670   1.695   2.718   1.285 -2.1769 -1.8161  0.2830
 7071SOL     OW32671   1.545   1.492   8.052 -0.3189  0.3381 -0.3277
 7071SOL    HW132672   1.626   1.482   8.101 -2.1514  0.1892  2.6400
 7071SOL    HW232673   1.484   1.432   8.095  0.0493  0.2868  0.1250
 7072SOL     OW32674   3.987   1.558   1.427  0.2980 -0.2850  0.1987
 7072SOL    HW132675   4.033   1.615   1.366  0.5332 -0.8195 -0.1251
 7072SOL    HW232676   3.921   1.512   1.376  0.5907  0.1439 -0.5604
 7073SOL     OW32677   3.902   4.596  15.080 -1.1421 -0.3314  0.0681
 7073SOL    HW132678   3.931   4.516  15.037 -1.9741 -0.5390 -0.1125
 7073SOL    HW232679   3.887   4.654  15.004  1.2764 -1.9009 -1.6173
 7074SOL     OW32680   1.398   3.136   1.169  0.5816  0.0888 -0.6946
 7074SOL    HW132681   1.487   3.102   1.180  0.7790 -0.0916 -2.8768
 7074SOL    HW232682   1.353   3.052   1.181  1.4212 -0.5042 -1.6908
 7075SOL     OW32683   0.414   3.595   5.230 -0.4436  0.2852 -0.0898
 7075SOL    HW132684   0.369   3.573   5.311  0.4963 -1.1770  0.0341
 7075SOL    HW232685   0.335   3.605   5.177  1.3564 -1.7387 -3.1873
 7076SOL     OW32686   3.620   1.224   7.547  0.0663 -0.0969  0.0724
 7076SOL    HW132687   3.662   1.141   7.569 -0.4802 -0.8117 -1.6047
 7076SOL    HW232688   3.694   1.271   7.508  0.1982 -0.3113  0.0608
 7077SOL     OW32689   3.896   4.362   2.374  0.0186 -0.2896 -0.4968
 7077SOL    HW132690   3.876   4.331   2.286  1.9218  1.3580 -1.5158
 7077SOL    HW232691   3.987   4.337   2.381 -0.6324 -2.4873 -0.0889
 7078SOL     OW32692   0.357   0.232   7.364 -0.2963 -0.6062 -0.3380
 7078SOL    HW132693   0.343   0.326   7.352 -0.2831 -0.6221 -0.4789
 7078SOL    HW232694   0.421   0.236   7.435 -1.3979 -1.1758  0.6940
 7079SOL     OW32695   2.258   4.478   9.531 -0.5516 -0.5937 -0.7397
 7079SOL    HW132696   2.166   4.483   9.506 -0.3119  1.3900 -1.2797
 7079SOL    HW232697   2.264   4.550   9.595 -0.7348 -1.6305  0.4576
 7080SOL     OW32698   2.275   0.480   2.917  0.2454  0.4734 -0.0961
 7080SOL    HW132699   2.323   0.457   2.837 -0.4064 -2.4769  0.3356
 7080SOL    HW232700   2.209   0.540   2.881 -1.5095  0.4071  3.0112
 7081SOL     OW32701   2.087   3.743   0.850  0.0349 -0.1422  0.1714
 7081SOL    HW132702   2.097   3.825   0.900 -1.3140 -0.0385  0.2861
 7081SOL    HW232703   2.110   3.770   0.761 -1.5989 -0.0742 -0.2361
 7082SOL     OW32704   1.251   1.166   5.752  1.0108  0.0753  0.4034
 7082SOL    HW132705   1.251   1.070   5.751  0.4580  0.1010 -2.6523
 7082SOL    HW232706   1.251   1.190   5.659 -0.5781  1.0645  0.6652
 7083SOL     OW32707   2.160   2.612   8.102 -0.1214  0.2902  0.0281
 7083SOL    HW132708   2.165   2.672   8.176  0.0978 -0.2033  0.4167
 7083SOL    HW232709   2.082   2.645   8.058  0.5655  2.3145  0.3243
 7084SOL     OW32710   4.017   4.045   4.709 -0.2601  0.1373 -0.2415
 7084SOL    HW132711   4.021   4.083   4.797  0.6603  2.6195 -1.3804
 7084SOL    HW232712   4.034   4.111   4.643  0.1968  0.2626  0.0047
 7085SOL     OW32713   2.996   3.758   3.951  0.0820 -0.0748 -0.3120
 7085SOL    HW132714   2.921   3.778   3.895  0.4100  0.2793 -0.6220
 7085SOL    HW232715   3.065   3.793   3.895  1.7386 -2.4201  0.2711
 7086SOL     OW32716   0.851   2.932   9.405  0.7299 -0.2118 -0.3224
 7086SOL    HW132717   0.914   2.990   9.448  1.0341 -1.5417  1.0171
 7086SOL    HW232718   0.768   2.954   9.447  1.3424  1.2926  0.1003
 7087SOL     OW32719   0.127   1.899  14.498  0.2118 -0.5390  0.2911
 7087SOL    HW132720   0.077   1.953  14.560  2.8220  1.8815  0.3277
 7087SOL    HW232721   0.107   1.808  14.519  0.3202 -0.0185  2.6182
 7088SOL     OW32722   3.447   4.258   2.301  0.4222 -0.0251  0.0488
 7088SOL    HW132723   3.369   4.205   2.285  1.7697 -0.6574 -4.3937
 7088SOL    HW232724   3.522   4.207   2.269  0.0921 -1.7082  1.9453
 7089SOL     OW32725   2.586   0.315   9.425 -0.2795 -0.2622 -0.3297
 7089SOL    HW132726   2.561   0.295   9.515  2.0360 -0.8864  0.1665
 7089SOL    HW232727   2.551   0.403   9.408 -0.4870  0.0847  1.8622
 7090SOL     OW32728   0.751   0.011  15.060  0.3977 -0.0945 -0.9655
 7090SOL    HW132729   0.689   4.664  15.061  0.5329 -0.2653 -3.4687
 7090SOL    HW232730   0.705   0.068  14.998  0.4558  1.0033  0.0045
 7091SOL     OW32731   1.505   2.346   5.677  0.5518 -0.4336 -0.2859
 7091SOL    HW132732   1.497   2.441   5.666  0.6064 -0.5309 -1.2260
 7091SOL    HW232733   1.527   2.340   5.770  1.7375  1.1641 -0.4549
 7092SOL     OW32734   4.226   4.615   3.596  0.0969  0.4589 -0.4574
 7092SOL    HW132735   4.234   4.706   3.625  0.3774  1.1674 -2.8050
 7092SOL    HW232736   4.299   4.568   3.636 -0.7829 -0.5242 -0.0198
 7093SOL     OW32737   0.473   2.405  11.251  0.4052  0.1765 -0.9869
 7093SOL    HW132738   0.442   2.328  11.299 -1.0671  0.5441 -1.3518
 7093SOL    HW232739   0.454   2.471  11.317 -0.8804 -1.7713  0.6327
 7094SOL     OW32740   4.547   3.540   5.354  0.8980  0.5471  0.2003
 7094SOL    HW132741   4.567   3.633   5.340  0.0023  0.9924  1.9510
 7094SOL    HW232742   4.595   3.510   5.276 -0.2708  1.6447 -0.9516
 7095SOL     OW32743   3.250   0.293  13.998  0.6266 -1.0745  0.3177
 7095SOL    HW132744   3.217   0.225  14.058 -1.3811  0.5228  1.0176
 7095SOL    HW232745   3.170   0.314  13.950  2.2656  0.9264 -1.5121
 7096SOL     OW32746   3.170   3.070  14.625 -0.0296 -0.2534  0.1249
 7096SOL    HW132747   3.085   3.111  14.640  0.0115  1.0342 -3.1547
 7096SOL    HW232748   3.158   3.043  14.534 -0.2362  1.5420 -0.3794
 7097SOL     OW32749   3.438   4.282   7.324 -0.0360 -0.2288  0.1000
 7097SOL    HW132750   3.370   4.301   7.259 -0.3949 -2.8303 -0.2763
 7097SOL    HW232751   3.461   4.194   7.292 -1.6876 -1.0590  1.1842
 7098SOL     OW32752   0.084   4.640   8.892  0.0911 -0.2186 -0.0131
 7098SOL    HW132753   0.004   4.682   8.924  0.8162 -0.9568  2.7785
 7098SOL    HW232754   0.073   4.552   8.927 -0.1880 -0.8244 -1.6334
 7099SOL     OW32755   0.490   2.791   6.249  0.2620  0.3211  0.5422
 7099SOL    HW132756   0.578   2.773   6.215  0.6051  1.9623  0.5764
 7099SOL    HW232757   0.474   2.879   6.215  2.1798  1.0046  1.3478
 7100SOL     OW32758   4.548   3.730  14.149 -0.6341 -0.5857 -0.2844
 7100SOL    HW132759   4.465   3.761  14.185 -0.6123 -0.6072 -0.2133
 7100SOL    HW232760   4.551   3.746  14.055 -0.1184 -1.0697 -0.3507
 7101SOL     OW32761   2.429   0.937   9.515  0.0936 -0.4921  0.3442
 7101SOL    HW132762   2.442   0.897   9.600  0.5860  0.7411  0.8600
 7101SOL    HW232763   2.345   0.983   9.524  0.3524  0.1388 -0.4318
 7102SOL     OW32764   3.962   2.554   4.052 -0.0268 -0.0463  0.1129
 7102SOL    HW132765   4.003   2.520   4.132 -1.3707 -2.0050 -0.0428
 7102SOL    HW232766   4.038   2.605   4.025  0.2344 -1.5541 -1.9588
 7103SOL     OW32767   2.422   1.537   5.413 -0.3053  0.0738 -0.1374
 7103SOL    HW132768   2.468   1.596   5.353 -1.6564  1.0096 -0.2524
 7103SOL    HW232769   2.352   1.591   5.449 -0.2160 -0.1508  0.3769
 7104SOL     OW32770   3.293   0.531   3.962 -0.0193 -0.0152  0.0393
 7104SOL    HW132771   3.254   0.528   3.875  1.1833  0.2477 -0.5163
 7104SOL    HW232772   3.366   0.592   3.946 -0.0626 -0.4787 -1.8827
 7105SOL     OW32773   4.324   4.677  16.840 -0.0968 -0.3798  0.4926
 7105SOL    HW132774   4.377   4.610  16.797  0.2870 -0.8653  1.7122
 7105SOL    HW232775   4.264   4.699  16.769 -0.3769 -1.2920  0.4470
 7106SOL     OW32776   1.936   2.148   8.099 -0.0774  0.1588  0.3937
 7106SOL    HW132777   1.886   2.067   8.087  1.1409 -0.5359 -0.0505
 7106SOL    HW232778   1.870   2.216   8.111 -0.0443  0.5019 -1.3162
 7107SOL     OW32779   3.485   3.011   8.128 -0.4985 -0.8087 -0.0511
 7107SOL    HW132780   3.481   3.097   8.169 -0.8121  0.3773 -2.6087
 7107SOL    HW232781   3.543   2.965   8.189  1.6233 -0.0599 -1.4878
 7108SOL     OW32782   0.005   0.031  11.840  0.6009  0.0329  0.0149
 7108SOL    HW132783   0.057   4.688  11.798 -1.1779 -0.4139 -1.4755
 7108SOL    HW232784   4.650   0.035  11.789 -0.0935  1.5081  1.2375
 7109SOL     OW32785   2.406   2.512   7.810 -0.3706 -0.5418  0.1538
 7109SOL    HW132786   2.353   2.449   7.858 -0.3791 -1.3099 -0.8671
 7109SOL    HW232787   2.334   2.566   7.776  0.2345 -0.3153 -0.7877
 7110SOL     OW32788   4.169   4.027  15.779  0.0396 -0.1334 -0.3357
 7110SOL    HW132789   4.143   3.940  15.749 -0.8777 -0.7906  2.2759
 7110SOL    HW232790   4.205   4.060  15.697  1.1056 -0.6945 -0.0936
 7111SOL     OW32791   3.255   2.543   2.048 -0.1111 -0.1679 -0.0015
 7111SOL    HW132792   3.197   2.471   2.025 -0.3586  0.7205 -2.1563
 7111SOL    HW232793   3.334   2.524   1.996 -0.0741 -2.5050  0.9270
 7112SOL     OW32794   0.852   3.841   7.975  0.0236 -0.2029 -0.4011
 7112SOL    HW132795   0.919   3.783   7.937 -0.4505 -1.5405  0.8281
 7112SOL    HW232796   0.899   3.897   8.036  1.9006  0.1827 -2.1805
 7113SOL     OW32797   1.106   2.245  15.769  0.8241 -0.3038 -0.0761
 7113SOL    HW132798   1.175   2.270  15.707 -1.6285 -0.4687 -2.8441
 7113SOL    HW232799   1.032   2.277  15.717  2.1084  4.1344  0.8565
 7114SOL     OW32800   3.839   3.598   6.617  0.2037  0.1091  0.1844
 7114SOL    HW132801   3.787   3.554   6.685 -0.4432 -1.6690 -1.4617
 7114SOL    HW232802   3.918   3.623   6.664  0.3331 -0.3549  0.2147
 7115SOL     OW32803   1.366   0.159   6.618 -0.8561  0.3978 -0.8538
 7115SOL    HW132804   1.282   0.136   6.578 -0.5071  0.2548 -1.4891
 7115SOL    HW232805   1.343   0.145   6.710 -1.6579 -0.3615 -1.1668
 7116SOL     OW32806   0.863   3.352   7.897  0.6299  0.7899 -0.0655
 7116SOL    HW132807   0.777   3.387   7.919 -0.3780  0.3617 -3.2946
 7116SOL    HW232808   0.892   3.312   7.979 -3.9170  0.0410  1.1365
 7117SOL     OW32809   2.142   2.957   6.633  0.0112  0.5424  1.2190
 7117SOL    HW132810   2.109   3.009   6.559  0.0172 -2.1455 -0.6578
 7117SOL    HW232811   2.173   2.877   6.591  2.5327  2.3661 -0.4165
 7118SOL     OW32812   2.813   3.357  13.864 -0.1753  0.8961  0.3401
 7118SOL    HW132813   2.833   3.269  13.832 -1.0256  0.8241  0.0064
 7118SOL    HW232814   2.759   3.334  13.941  2.4382 -1.2729  1.5314
 7119SOL     OW32815   3.172   4.389   9.137  0.3654 -0.0884  0.2033
 7119SOL    HW132816   3.183   4.358   9.226  0.6686 -0.9219 -0.1187
 7119SOL    HW232817   3.101   4.333   9.105  0.8051 -0.7479  0.3894
 7120SOL     OW32818   3.032   3.750   8.737 -0.0926  0.0897  0.3730
 7120SOL    HW132819   3.028   3.757   8.832 -0.0346  1.2294  0.2891
 7120SOL    HW232820   3.124   3.773   8.723  0.3105 -1.1091  1.0348
 7121SOL     OW32821   4.420   0.234  11.669  0.0007 -0.4363  0.4175
 7121SOL    HW132822   4.441   0.295  11.739  1.4956 -2.7762  2.0106
 7121SOL    HW232823   4.438   0.150  11.711  2.6116 -0.0175  0.1664
 7122SOL     OW32824   0.205   1.696   2.889 -0.2601  0.0131  0.2022
 7122SOL    HW132825   0.179   1.609   2.858  0.2109 -0.4295  1.0432
 7122SOL    HW232826   0.140   1.706   2.959 -0.1514  0.3766  0.2505
 7123SOL     OW32827   2.370   4.445   9.857  0.0630  0.2304 -0.3489
 7123SOL    HW132828   2.452   4.412   9.893 -0.1309  1.3311  1.1131
 7123SOL    HW232829   2.335   4.365   9.819 -0.4364 -0.0561  0.6954
 7124SOL     OW32830   3.486   0.601  10.875  0.2935 -0.0711 -0.2490
 7124SOL    HW132831   3.477   0.506  10.885 -1.4375  0.3519  2.1894
 7124SOL    HW232832   3.575   0.606  10.842  0.5505 -1.8956  0.1498
 7125SOL     OW32833   1.700   3.303   5.867  0.7205 -0.3025 -0.2104
 7125SOL    HW132834   1.612   3.269   5.884  1.0820 -0.7128  0.8509
 7125SOL    HW232835   1.726   3.230   5.811 -0.3916 -0.1572 -0.9228
 7126SOL     OW32836   2.079   0.791   4.643 -0.0379 -0.1812  0.0881
 7126SOL    HW132837   2.060   0.778   4.550  0.7740  1.3650 -0.2996
 7126SOL    HW232838   1.991   0.800   4.679  1.1903  4.3225  1.9183
 7127SOL     OW32839   4.149   2.454   4.202  0.0406 -0.1295  0.1579
 7127SOL    HW132840   4.156   2.373   4.151 -1.0039  0.7951 -1.4345
 7127SOL    HW232841   4.235   2.494   4.193 -1.7970  3.3380 -1.9561
 7128SOL     OW32842   2.743   3.466   5.630 -0.2107 -0.0935  0.1102
 7128SOL    HW132843   2.711   3.381   5.600  0.3617 -1.0091  2.1471
 7128SOL    HW232844   2.762   3.457   5.723 -1.3411  2.0282  0.5342
 7129SOL     OW32845   3.773   0.391  10.398 -0.0347 -0.4521  0.6925
 7129SOL    HW132846   3.772   0.389  10.302 -2.0112  0.3241  0.6940
 7129SOL    HW232847   3.714   0.318  10.413 -1.1390  0.0597 -1.2751
 7130SOL     OW32848   3.467   3.949   6.797 -0.5507  0.4933  0.4424
 7130SOL    HW132849   3.552   3.987   6.776  0.3613 -0.5212  2.2919
 7130SOL    HW232850   3.423   3.926   6.715  1.3807  0.9042 -0.6866
 7131SOL     OW32851   1.053   3.344  13.833 -0.9087 -0.6663 -0.0177
 7131SOL    HW132852   0.975   3.323  13.883 -0.4225  0.3300  1.1831
 7131SOL    HW232853   1.105   3.265  13.821 -0.7711 -0.4235 -1.0965
 7132SOL     OW32854   2.220   0.796  11.908 -0.3135  0.1120 -0.2925
 7132SOL    HW132855   2.294   0.837  11.952  0.0972 -0.2541 -0.6391
 7132SOL    HW232856   2.270   0.758  11.836 -0.1721  0.6183 -0.4633
 7133SOL     OW32857   2.644   2.049   7.284  0.7092  0.0702  0.1008
 7133SOL    HW132858   2.581   2.013   7.347  0.2819  2.3794  0.9888
 7133SOL    HW232859   2.702   2.078   7.354  0.1249 -0.3478  0.7678
 7134SOL     OW32860   1.350   0.838   9.300 -0.1949 -0.3391 -0.2929
 7134SOL    HW132861   1.421   0.900   9.313  1.3967 -1.6591 -2.6831
 7134SOL    HW232862   1.372   0.780   9.372  0.7017 -0.6869 -0.8482
 7135SOL     OW32863   3.883   3.057  12.067  0.0551 -0.5964  0.3613
 7135SOL    HW132864   3.855   2.968  12.088 -0.2450 -0.3749  0.9162
 7135SOL    HW232865   3.801   3.101  12.044  0.4999  0.8109  1.4216
 7136SOL     OW32866   4.549   0.232  13.609  0.1130 -0.0182  0.1799
 7136SOL    HW132867   4.460   0.245  13.641 -0.6523 -2.0916 -1.1582
 7136SOL    HW232868   4.590   0.313  13.641  1.3218  0.1928 -1.8945
 7137SOL     OW32869   2.321   0.532   9.459  0.3855 -0.5567  0.5507
 7137SOL    HW132870   2.279   0.618   9.455 -4.6360 -3.0498 -0.6393
 7137SOL    HW232871   2.398   0.554   9.407  0.8378  0.9761  1.8802
 7138SOL     OW32872   3.441   0.726  14.232  0.1342 -0.3462 -0.3088
 7138SOL    HW132873   3.512   0.744  14.294  0.0357 -0.9018 -0.0330
 7138SOL    HW232874   3.364   0.761  14.278 -0.6345 -0.2570 -1.6682
 7139SOL     OW32875   3.059   4.335   3.568  0.0171  0.0311 -0.5818
 7139SOL    HW132876   3.061   4.289   3.485  1.0611  0.2129 -0.6593
 7139SOL    HW232877   2.999   4.407   3.550  0.8376  1.4517  2.2763
 7140SOL     OW32878   4.242   0.946  13.170 -0.1221  0.1087  0.0079
 7140SOL    HW132879   4.314   0.969  13.229  0.1649 -2.0313  0.4792
 7140SOL    HW232880   4.271   0.856  13.157  1.5425  0.6014  0.3502
 7141SOL     OW32881   3.018   0.516   7.439  0.1310  0.3284  0.1695
 7141SOL    HW132882   3.030   0.448   7.373  1.0115  1.5404 -0.8972
 7141SOL    HW232883   3.106   0.554   7.444  0.2988 -0.1002  0.4657
 7142SOL     OW32884   1.344   2.599  16.819  0.3831 -0.3422  0.0408
 7142SOL    HW132885   1.262   2.553  16.835  0.4116 -1.2207 -2.4920
 7142SOL    HW232886   1.316   2.661  16.752  0.5300  1.9168  2.0464
 7143SOL     OW32887   0.921   1.067   5.578  0.3547  0.0914  0.5309
 7143SOL    HW132888   0.829   1.065   5.553  0.0952  1.8272  1.3960
 7143SOL    HW232889   0.918   1.078   5.673 -2.5033 -1.0542  0.5543
 7144SOL     OW32890   0.457   3.781   2.847 -0.1818  0.4455 -0.3639
 7144SOL    HW132891   0.525   3.837   2.884 -0.8146  0.3502  0.9354
 7144SOL    HW232892   0.505   3.697   2.846 -0.8662  0.0530 -0.0847
 7145SOL     OW32893   0.648   4.126   1.116  0.3346 -0.5543 -0.7518
 7145SOL    HW132894   0.650   4.146   1.023 -0.9127 -0.4389 -0.7459
 7145SOL    HW232895   0.563   4.087   1.134  0.2422 -0.0604 -0.0844
 7146SOL     OW32896   4.602   4.581   3.017 -0.6780  0.2573  0.3474
 7146SOL    HW132897   4.674   4.589   2.954  0.0313  1.5584  1.3392
 7146SOL    HW232898   4.613   4.661   3.067  1.9545  0.4186 -0.4500
 7147SOL     OW32899   4.192   3.343   4.339 -0.0464 -0.1306  0.2925
 7147SOL    HW132900   4.152   3.406   4.279  2.1956  0.4342 -0.5966
 7147SOL    HW232901   4.117   3.295   4.375 -0.0948 -0.5516 -0.3596
 7148SOL     OW32902   3.019   2.742  16.731  0.0981 -0.4451 -0.3579
 7148SOL    HW132903   3.036   2.740  16.637 -2.5878 -2.2462 -0.8264
 7148SOL    HW232904   3.034   2.836  16.741 -1.3560 -0.1008 -1.2820
 7149SOL     OW32905   0.324   1.533   7.109  0.6008 -0.0624 -0.0831
 7149SOL    HW132906   0.379   1.610   7.094 -1.0771  1.4200  1.3657
 7149SOL    HW232907   0.291   1.559   7.195  0.3159 -0.3977 -0.0897
 7150SOL     OW32908   4.520   2.765   8.628 -0.5030 -0.3945  0.2862
 7150SOL    HW132909   4.454   2.748   8.562 -0.1200 -0.3014 -0.1197
 7150SOL    HW232910   4.586   2.698   8.612  0.2091  0.5020 -0.4982
 7151SOL     OW32911   3.206   0.812   9.675  0.0468  0.0408  0.0818
 7151SOL    HW132912   3.228   0.746   9.740 -2.2726 -1.8807 -1.0716
 7151SOL    HW232913   3.111   0.799   9.678  0.2924 -0.9312  3.1797
 7152SOL     OW32914   0.633   4.512   3.266 -0.2751 -0.0529 -0.0205
 7152SOL    HW132915   0.672   4.549   3.345 -2.0593  0.1620  0.7688
 7152SOL    HW232916   0.626   4.590   3.212  0.1588 -1.3874 -1.9932
 7153SOL     OW32917   1.934   2.370   1.700  0.2583 -0.0102 -0.2178
 7153SOL    HW132918   1.921   2.372   1.795  0.4777 -0.7810 -0.1773
 7153SOL    HW232919   1.989   2.293   1.688 -0.2419 -0.0689 -1.9890
 7154SOL     OW32920   1.647   4.636   3.944  0.6244  0.7571 -0.6268
 7154SOL    HW132921   1.578   4.634   4.010  2.1719 -4.0640  0.8477
 7154SOL    HW232922   1.722   4.607   3.996  0.6723 -0.5401 -1.4226
 7155SOL     OW32923   1.105   4.273   7.128  0.1005  0.1128 -0.0794
 7155SOL    HW132924   1.160   4.330   7.073 -1.7862 -0.4877 -2.5432
 7155SOL    HW232925   1.169   4.248   7.195  0.5517  1.2615 -0.0709
 7156SOL     OW32926   4.135   2.721   5.474  0.2897  0.3239  0.5734
 7156SOL    HW132927   4.214   2.768   5.503  2.4778 -3.0364  0.1211
 7156SOL    HW232928   4.070   2.786   5.501 -0.1478  1.1368 -2.4117
 7157SOL     OW32929   4.319   4.086  15.566 -0.0039 -0.3573  0.2657
 7157SOL    HW132930   4.404   4.047  15.588  0.3370  1.0550  1.4194
 7157SOL    HW232931   4.291   4.030  15.493 -0.0859 -0.6348  0.5104
 7158SOL     OW32932   2.320   0.934   6.846  0.1552 -0.7625 -0.6379
 7158SOL    HW132933   2.229   0.912   6.825 -0.2629 -1.0314  1.4638
 7158SOL    HW232934   2.342   1.005   6.786  1.1286  0.9903  1.7934
 7159SOL     OW32935   4.292   3.625   8.496 -0.6658 -0.5928  0.1422
 7159SOL    HW132936   4.359   3.630   8.565  0.4871 -0.3003 -1.0020
 7159SOL    HW232937   4.278   3.530   8.487  0.8941 -0.9828  1.9214
 7160SOL     OW32938   2.367   2.596   9.220 -0.1795  0.0771  0.2752
 7160SOL    HW132939   2.290   2.646   9.194  1.2918  2.4209  0.3880
 7160SOL    HW232940   2.322   2.529   9.271  0.7510 -1.0015 -0.3212
 7161SOL     OW32941   2.691   1.116   6.838  0.7282  0.4836 -0.0934
 7161SOL    HW132942   2.728   1.029   6.827  0.5985  0.7147 -2.3613
 7161SOL    HW232943   2.685   1.119   6.934 -2.1448 -0.9145 -0.2089
 7162SOL     OW32944   1.179   2.754  11.412 -0.4505 -0.6699  0.3461
 7162SOL    HW132945   1.146   2.665  11.404 -1.0504 -0.3885 -0.2906
 7162SOL    HW232946   1.212   2.747  11.502 -0.4826 -3.2793  0.1544
 7163SOL     OW32947   3.543   3.433   9.570  0.1970 -0.1762  0.5944
 7163SOL    HW132948   3.486   3.401   9.639 -0.1049 -0.8358  0.0506
 7163SOL    HW232949   3.522   3.526   9.576  1.3776  0.0443  1.1894
 7164SOL     OW32950   3.395   3.173   6.649  0.1339 -0.5716  0.4031
 7164SOL    HW132951   3.384   3.083   6.617 -1.1196  0.1496 -1.1173
 7164SOL    HW232952   3.483   3.162   6.685 -0.0627  0.7904  1.2556
 7165SOL     OW32953   4.449   1.346   9.859 -0.1188  0.2545  0.2522
 7165SOL    HW132954   4.415   1.256   9.863  0.1623  0.0764 -1.1047
 7165SOL    HW232955   4.482   1.352   9.949  1.3633 -2.3902 -0.1074
 7166SOL     OW32956   1.427   4.027  16.055 -0.5683 -0.0586 -0.2657
 7166SOL    HW132957   1.419   3.995  16.145  2.2714 -1.0605 -0.3881
 7166SOL    HW232958   1.363   4.099  16.056  0.9535  1.3461 -2.2095
 7167SOL     OW32959   3.535   3.838   5.002  0.6120 -0.0545  0.4364
 7167SOL    HW132960   3.515   3.745   4.986 -0.4486  0.4280 -0.9973
 7167SOL    HW232961   3.585   3.860   4.924  1.5276  0.8715  1.2815
 7168SOL     OW32962   2.762   3.196  14.271 -0.4416  0.0135 -0.2130
 7168SOL    HW132963   2.753   3.268  14.333 -1.8217 -1.3875  1.1973
 7168SOL    HW232964   2.745   3.231  14.184 -0.7062 -0.4153 -0.3346
 7169SOL     OW32965   1.483   3.058   5.668  0.0524 -0.1852  0.0256
 7169SOL    HW132966   1.451   3.115   5.598  1.0783 -0.1020 -0.3752
 7169SOL    HW232967   1.576   3.079   5.670  0.1126 -0.3787 -0.5778
 7170SOL     OW32968   3.105   3.330   8.740  0.9327  0.0611  0.0824
 7170SOL    HW132969   3.195   3.330   8.705  1.0062 -1.2513  0.2458
 7170SOL    HW232970   3.102   3.245   8.783  2.0905 -0.5655 -1.0290
 7171SOL     OW32971   3.889   3.613   9.492 -0.0865 -0.0460  0.3186
 7171SOL    HW132972   3.936   3.634   9.573  1.2843  1.2613 -0.8166
 7171SOL    HW232973   3.799   3.644   9.507  0.0935  0.0839  1.1476
 7172SOL     OW32974   3.364   3.466   6.242  0.1121  0.3591 -0.4291
 7172SOL    HW132975   3.448   3.419   6.245 -0.1577 -0.0646  0.7328
 7172SOL    HW232976   3.350   3.480   6.149 -2.3447  1.0351  0.0562
 7173SOL     OW32977   4.518   2.085   4.780 -0.0817  0.5436  0.7312
 7173SOL    HW132978   4.480   2.099   4.693  0.1288 -0.5597  0.4658
 7173SOL    HW232979   4.461   2.140   4.834 -2.6792 -0.8058 -0.6500
 7174SOL     OW32980   0.343   4.088   7.235 -0.0858  0.4463  0.4615
 7174SOL    HW132981   0.399   4.083   7.313  1.9948  1.7968 -0.9700
 7174SOL    HW232982   0.309   4.176   7.246  1.1204  0.7944  1.4893
 7175SOL     OW32983   2.702   1.553   9.670  0.3560  0.3537 -0.4460
 7175SOL    HW132984   2.763   1.578   9.741  1.2775  0.5002 -1.2876
 7175SOL    HW232985   2.624   1.600   9.697 -0.0170  0.1282 -1.1538
 7176SOL     OW32986   2.752   4.708   3.353 -0.1354  0.8193  0.9466
 7176SOL    HW132987   2.701   0.062   3.366  0.4526  1.4992 -0.9779
 7176SOL    HW232988   2.782   4.721   3.263  2.0276 -1.0913  1.4111
 7177SOL     OW32989   0.373   0.025   8.101  0.5522 -0.0129 -0.1205
 7177SOL    HW132990   0.386   0.117   8.080 -0.7321 -0.3515 -2.5266
 7177SOL    HW232991   0.426   0.010   8.179  0.1729 -2.4788 -0.3177
 7178SOL     OW32992   4.433   0.390  17.527 -0.1261  0.6073 -0.6029
 7178SOL    HW132993   4.479   0.346  17.456 -1.7378 -0.1591 -1.1822
 7178SOL    HW232994   4.345   0.357  17.509 -0.3019 -0.0558  1.4801
 7179SOL     OW32995   0.662   3.186   2.711  0.2977  0.5504  0.5890
 7179SOL    HW132996   0.637   3.170   2.620 -1.8178  0.9976  1.0967
 7179SOL    HW232997   0.746   3.232   2.711 -1.4528  3.7907  0.3013
 7180SOL     OW32998   2.687   2.692   2.210 -0.0984 -0.0022 -0.0278
 7180SOL    HW132999   2.597   2.726   2.209  0.4413  1.3693 -1.5448
 7180SOL    HW233000   2.719   2.714   2.123 -2.3625  0.1702 -0.8006
 7181SOL     OW33001   1.657   3.982  13.921 -0.3145 -0.2050 -0.2735
 7181SOL    HW133002   1.670   3.943  13.834  1.3703 -0.8829  0.2781
 7181SOL    HW233003   1.745   4.008  13.949 -0.4293 -0.1714  0.0599
 7182SOL     OW33004   1.799   1.805   7.798  0.4175  0.4856 -0.2870
 7182SOL    HW133005   1.807   1.900   7.789  1.3047  0.2111 -2.4234
 7182SOL    HW233006   1.821   1.771   7.711  1.3625 -2.4031  1.0969
 7183SOL     OW33007   2.860   1.897  13.085 -0.4262  0.0329 -0.5229
 7183SOL    HW133008   2.796   1.845  13.035  0.3793 -0.7075 -0.7866
 7183SOL    HW233009   2.922   1.826  13.104 -1.1014 -0.3638  0.2056
 7184SOL     OW33010   0.579   0.974  10.422 -0.5292 -0.3875  0.8963
 7184SOL    HW133011   0.667   0.935  10.425 -0.6476 -0.6133  1.4634
 7184SOL    HW233012   0.589   1.065  10.393 -2.0050 -0.9028 -1.1836
 7185SOL     OW33013   0.809   4.578   4.636  0.3342 -0.0104 -0.4092
 7185SOL    HW133014   0.777   4.552   4.550  1.2100 -2.1150 -0.0860
 7185SOL    HW233015   0.865   4.646   4.598  2.5644 -2.1507 -0.9435
 7186SOL     OW33016   4.112   0.536  14.235  0.1705  0.2508  0.1689
 7186SOL    HW133017   4.154   0.456  14.267  1.5417  0.3569 -1.3641
 7186SOL    HW233018   4.091   0.574  14.321 -1.9125 -1.8191  0.5557
 7187SOL     OW33019   1.812   3.682   3.944  0.3661  0.2253  0.2525
 7187SOL    HW133020   1.823   3.691   4.039 -0.5764  0.7692  0.3180
 7187SOL    HW233021   1.865   3.758   3.918  2.1307 -0.8043  0.8520
 7188SOL     OW33022   0.403   2.998  12.223 -0.2566 -0.0561  0.2802
 7188SOL    HW133023   0.371   2.908  12.224  1.0732 -0.5354 -0.6286
 7188SOL    HW233024   0.447   3.005  12.308  1.4899  0.2553 -0.6527
 7189SOL     OW33025   3.644   1.400   8.630 -0.6660  0.2374 -0.3481
 7189SOL    HW133026   3.676   1.490   8.628  0.1932 -0.0269  1.3820
 7189SOL    HW233027   3.671   1.364   8.545  0.2303  0.6754 -0.2534
 7190SOL     OW33028   2.216   0.120  10.039  0.0175  0.7574  0.1309
 7190SOL    HW133029   2.187   0.039  10.081  1.9241 -0.3609 -0.6813
 7190SOL    HW233030   2.302   0.100  10.003 -0.3340  0.5152 -0.5742
 7191SOL     OW33031   3.472   2.578   3.702  0.0393 -0.0842 -0.0892
 7191SOL    HW133032   3.405   2.646   3.697 -0.1952 -0.1475  2.1952
 7191SOL    HW233033   3.517   2.610   3.780  0.0329 -2.6261  0.9293
 7192SOL     OW33034   3.984   0.636   2.931 -0.1785  0.9776  0.0607
 7192SOL    HW133035   4.040   0.651   2.854 -1.4739 -0.9716 -1.2407
 7192SOL    HW233036   4.054   0.652   2.994 -0.1901  3.3568 -0.4993
 7193SOL     OW33037   3.742   1.697   0.623  0.9244  0.5840  0.3471
 7193SOL    HW133038   3.669   1.669   0.567  0.6741  1.7697  0.0998
 7193SOL    HW233039   3.790   1.614   0.630 -0.5984 -0.3050  0.4905
 7194SOL     OW33040   3.354   1.219  12.493 -0.6556 -0.0315  0.9342
 7194SOL    HW133041   3.428   1.276  12.471 -0.7955  0.1817  1.0094
 7194SOL    HW233042   3.395   1.134  12.507  1.1024  0.3828 -1.5459
 7195SOL     OW33043   3.628   3.538  11.683 -0.2653  0.0901 -0.0438
 7195SOL    HW133044   3.710   3.542  11.733 -0.9308  1.8300  0.9143
 7195SOL    HW233045   3.647   3.504  11.596  0.8806  2.3926 -0.6954
 7196SOL     OW33046   2.044   4.578   1.632 -0.4773  0.1650 -0.1990
 7196SOL    HW133047   2.021   4.485   1.628 -1.1850  0.2482  1.6692
 7196SOL    HW233048   2.128   4.578   1.588 -2.5722  1.0342 -4.2300
 7197SOL     OW33049   0.914   0.587  10.878  0.2719  0.2021  0.0070
 7197SOL    HW133050   0.852   0.646  10.833  1.2999  1.0611 -0.2771
 7197SOL    HW233051   0.852   0.566  10.948 -0.8413 -2.2112 -1.6818
 7198SOL     OW33052   4.557   2.504   8.129 -0.2712 -0.3592 -0.3093
 7198SOL    HW133053   4.640   2.483   8.170 -0.9189 -0.6867  0.8396
 7198SOL    HW233054   4.584   2.538   8.044  0.7926  1.6173  0.7971
 7199SOL     OW33055   1.920   2.276   3.173 -0.3079 -0.4446  0.4280
 7199SOL    HW133056   1.851   2.334   3.204  0.9851  1.4549 -0.2329
 7199SOL    HW233057   1.934   2.315   3.086 -0.3315 -3.0590 -0.7596
 7200SOL     OW33058   2.580   1.984   9.153 -0.8332 -0.1989 -0.1988
 7200SOL    HW133059   2.501   1.947   9.115 -1.3530 -0.0817  0.7839
 7200SOL    HW233060   2.636   1.909   9.175  0.4857  1.0878  0.8904
 7201SOL     OW33061   2.687   2.515   1.240 -0.5928  0.6350 -0.4964
 7201SOL    HW133062   2.662   2.433   1.198  0.1252 -0.2466  0.7629
 7201SOL    HW233063   2.634   2.507   1.319 -0.1649 -2.5387 -0.5247
 7202SOL     OW33064   0.651   1.392  17.196  0.2007 -0.1158 -0.6442
 7202SOL    HW133065   0.566   1.348  17.197  1.7124 -3.0242 -1.1905
 7202SOL    HW233066   0.655   1.405  17.291 -0.2683 -0.4007 -0.5816
 7203SOL     OW33067   1.669   2.681   5.468 -0.3705 -0.1878  0.2880
 7203SOL    HW133068   1.656   2.774   5.449 -0.8570 -0.3148 -0.0145
 7203SOL    HW233069   1.707   2.651   5.385 -0.1984 -1.1550  0.7099
 7204SOL     OW33070   0.025   2.066  13.816  0.2876 -0.4285  0.6749
 7204SOL    HW133071   0.108   2.078  13.770 -0.2814 -1.8682 -0.7326
 7204SOL    HW233072   0.035   2.136  13.880  1.3410  1.2035 -1.2852
 7205SOL     OW33073   1.050   0.544   2.312 -0.8331  0.1851 -0.8041
 7205SOL    HW133074   1.061   0.451   2.332  2.2368  0.2065 -2.3148
 7205SOL    HW233075   1.018   0.533   2.222 -0.0008 -2.0734 -0.8375
 7206SOL     OW33076   4.070   3.460   2.865 -1.0412  0.0242  0.2480
 7206SOL    HW133077   4.102   3.443   2.777 -1.1453 -0.4353  0.2951
 7206SOL    HW233078   4.147   3.491   2.912  0.2258 -0.7395 -1.3630
 7207SOL     OW33079   0.123   0.249  15.101  0.1485  0.5790 -0.1903
 7207SOL    HW133080   0.093   0.189  15.032 -0.3396 -0.1060  0.6192
 7207SOL    HW233081   0.217   0.233  15.097 -0.1003 -0.2197 -3.3897
 7208SOL     OW33082   2.666   3.091   8.625 -0.4855  0.5428 -0.0959
 7208SOL    HW133083   2.678   3.185   8.609 -0.6135  0.6367  0.3442
 7208SOL    HW233084   2.580   3.093   8.668 -0.8922 -2.5618 -0.7937
 7209SOL     OW33085   2.072   0.922   1.130 -0.1559 -0.7105  0.1813
 7209SOL    HW133086   1.990   0.890   1.169  0.0913 -1.5197  0.0307
 7209SOL    HW233087   2.112   0.843   1.094 -0.6715 -0.0095 -1.9171
 7210SOL     OW33088   3.793   3.333  15.869 -0.0564  0.5715  0.0251
 7210SOL    HW133089   3.813   3.256  15.923 -0.8151  1.0670  1.0091
 7210SOL    HW233090   3.744   3.382  15.934 -0.3992 -2.0870  1.7777
 7211SOL     OW33091   3.869   4.050   9.378 -0.6127  0.1279  0.2619
 7211SOL    HW133092   3.846   4.069   9.469  0.9729  0.3970  0.6033
 7211SOL    HW233093   3.916   4.129   9.351  0.3192 -0.4220  0.2952
 7212SOL     OW33094   3.772   2.544   5.185  0.2779 -0.2948 -0.6141
 7212SOL    HW133095   3.687   2.540   5.230 -0.1453 -2.2467 -1.5985
 7212SOL    HW233096   3.790   2.638   5.197 -0.2953 -0.5556  2.4170
 7213SOL     OW33097   4.351   4.214   0.144  0.1942  0.5259 -0.2148
 7213SOL    HW133098   4.341   4.233   0.051 -0.3452  2.2636  0.1954
 7213SOL    HW233099   4.423   4.271   0.172  0.7426  0.6211 -1.8724
 7214SOL     OW33100   1.895   3.559   0.974 -0.1707 -0.0241  0.2301
 7214SOL    HW133101   1.846   3.557   0.892  1.0834  0.4793 -0.5357
 7214SOL    HW233102   1.827   3.561   1.041  0.9925 -1.0579  1.4462
 7215SOL     OW33103   3.560   4.267   6.740  0.2865 -0.7675  0.3239
 7215SOL    HW133104   3.625   4.227   6.682  0.1313 -4.3010  2.6333
 7215SOL    HW233105   3.601   4.339   6.787 -1.1920 -0.7343  1.5660
 7216SOL     OW33106   3.195   3.293   4.461 -0.4657 -0.0794  0.0504
 7216SOL    HW133107   3.222   3.344   4.384  2.2473  0.3985  1.3061
 7216SOL    HW233108   3.264   3.227   4.457 -0.1906  0.2477 -0.7126
 7217SOL     OW33109   3.486   3.391  10.009  0.7563  0.6128 -0.2910
 7217SOL    HW133110   3.535   3.473  10.010 -0.3155  1.2565 -0.1943
 7217SOL    HW233111   3.450   3.392  10.097  0.7916  0.0155 -0.2686
 7218SOL     OW33112   2.289   1.339   5.276  0.4450  0.8688 -0.1010
 7218SOL    HW133113   2.352   1.398   5.316  1.1205  0.1857 -0.1628
 7218SOL    HW233114   2.341   1.285   5.216  0.8639  0.1728  0.8746
 7219SOL     OW33115   2.498   1.316  11.199  0.1523 -0.2741  0.7697
 7219SOL    HW133116   2.471   1.370  11.273 -0.0519 -0.7743  1.0579
 7219SOL    HW233117   2.577   1.360  11.167 -2.1835  3.3424 -0.0983
 7220SOL     OW33118   1.179   0.737   8.863 -0.3291  0.1864  0.1582
 7220SOL    HW133119   1.090   0.746   8.828 -1.1837  0.0180  2.2580
 7220SOL    HW233120   1.200   0.649   8.833 -3.2409  0.5044 -2.8356
 7221SOL     OW33121   1.710   3.865  14.283 -0.0901  0.0197 -0.1932
 7221SOL    HW133122   1.672   3.819  14.208 -0.4342  1.3085 -0.8296
 7221SOL    HW233123   1.668   3.951  14.272  3.2590  1.8726  1.3540
 7222SOL     OW33124   2.779   0.439   7.575  0.2485  0.3570 -0.1451
 7222SOL    HW133125   2.847   0.462   7.511 -0.0438 -0.6390 -0.8252
 7222SOL    HW233126   2.826   0.368   7.619  0.4294  0.4786 -0.1421
 7223SOL     OW33127   4.181   4.464   6.414 -0.1159 -1.2265  0.3804
 7223SOL    HW133128   4.147   4.383   6.453 -1.1199 -1.4152 -0.9052
 7223SOL    HW233129   4.206   4.513   6.492  0.6982 -2.1511  0.7000
 7224SOL     OW33130   1.319   0.317  15.333 -0.2084 -0.3386 -0.5156
 7224SOL    HW133131   1.353   0.334  15.421  0.5224  2.6338 -1.3774
 7224SOL    HW233132   1.313   0.407  15.300  1.4663 -0.9468 -2.4410
 7225SOL     OW33133   3.264   0.773   1.187 -0.4341 -0.7561  0.3859
 7225SOL    HW133134   3.218   0.857   1.191 -2.5855 -1.8855 -0.4006
 7225SOL    HW233135   3.297   0.775   1.097  0.5762  2.2987  0.8161
 7226SOL     OW33136   1.446   3.466  16.968  0.2675 -0.0232 -0.3214
 7226SOL    HW133137   1.439   3.470  17.063 -3.2816 -1.3226 -0.5198
 7226SOL    HW233138   1.510   3.535  16.949 -2.6029  2.4651 -1.0277
 7227SOL     OW33139   0.706   1.520   7.369  1.1088 -0.0324  0.4119
 7227SOL    HW133140   0.727   1.500   7.278  1.7139  0.0294  0.5382
 7227SOL    HW233141   0.700   1.437   7.416  1.8974  0.3243  1.1333
 7228SOL     OW33142   0.895   3.364   8.653  0.3024 -0.0405  0.0418
 7228SOL    HW133143   0.913   3.445   8.605 -1.8069  0.6449  0.3643
 7228SOL    HW233144   0.862   3.405   8.734  0.2631 -1.7528  0.8799
 7229SOL     OW33145   3.446   2.343   6.337  0.2695  0.0037  0.4665
 7229SOL    HW133146   3.363   2.310   6.302 -0.4974  1.5323  0.8391
 7229SOL    HW233147   3.495   2.393   6.272  2.4474  0.0282  2.1338
 7230SOL     OW33148   3.311   2.839   7.970  0.0287 -0.7819 -0.0942
 7230SOL    HW133149   3.332   2.875   8.056  0.8322  2.2461 -1.5571
 7230SOL    HW233150   3.399   2.843   7.931  0.3000 -0.0250  0.6081
 7231SOL     OW33151   4.463   1.982   7.483 -0.3848  0.7039 -0.0065
 7231SOL    HW133152   4.484   2.067   7.445  0.3733  0.4582 -0.1294
 7231SOL    HW233153   4.537   1.928   7.455 -1.4684 -1.5117  1.3808
 7232SOL     OW33154   1.707   0.618   5.910  0.5947  0.0791 -0.0290
 7232SOL    HW133155   1.730   0.587   5.997  1.2552 -2.2906 -1.0573
 7232SOL    HW233156   1.795   0.601   5.878  0.2849  1.0432 -1.4249
 7233SOL     OW33157   4.560   0.952   2.335  0.0704 -0.5554 -0.0891
 7233SOL    HW133158   4.485   0.894   2.327  2.2591 -3.1385 -2.0254
 7233SOL    HW233159   4.523   1.036   2.363  2.7942  0.1073  1.5861
 7234SOL     OW33160   3.422   3.188   9.492 -0.0828  0.4698  0.1137
 7234SOL    HW133161   3.469   3.271   9.503  2.0052 -0.4979 -1.7238
 7234SOL    HW233162   3.485   3.122   9.521 -0.6748 -0.7578 -1.4293
 7235SOL     OW33163   2.975   0.859   8.755  0.0463 -0.1009  0.5839
 7235SOL    HW133164   2.982   0.951   8.783  1.2643  0.5537 -1.9228
 7235SOL    HW233165   3.043   0.856   8.688  0.8045  1.1288  1.2908
 7236SOL     OW33166   2.857   4.227  12.033 -0.1849 -0.2601 -0.0774
 7236SOL    HW133167   2.840   4.149  11.981 -2.6812  0.3983 -0.2390
 7236SOL    HW233168   2.947   4.200  12.050 -0.0646 -0.5360 -1.1210
 7237SOL     OW33169   0.828   2.177   3.918 -0.0973 -0.4510 -0.0402
 7237SOL    HW133170   0.775   2.229   3.858 -0.3253  0.6556  1.1190
 7237SOL    HW233171   0.821   2.087   3.886 -1.0911 -0.2627 -0.3449
 7238SOL     OW33172   2.100   3.493   5.840  0.0865  0.0318 -0.1353
 7238SOL    HW133173   2.132   3.580   5.813 -1.0463 -0.3330 -2.6048
 7238SOL    HW233174   2.023   3.491   5.784  0.2723  1.2061 -0.4456
 7239SOL     OW33175   2.753   3.662  11.002 -0.5803  0.5628 -0.8313
 7239SOL    HW133176   2.668   3.686  11.038 -0.7459  1.0187 -1.5220
 7239SOL    HW233177   2.812   3.723  11.044 -1.5790  0.8278  0.1926
 7240SOL     OW33178   2.024   3.529   3.408 -0.5612  0.3287  0.5009
 7240SOL    HW133179   2.050   3.453   3.357 -1.1801  0.5325 -0.1228
 7240SOL    HW233180   1.980   3.494   3.485 -0.3356  2.2789  1.5164
 7241SOL     OW33181   2.607   3.165   7.155  0.1182 -0.1921  0.2281
 7241SOL    HW133182   2.675   3.106   7.187 -0.8300 -1.1289  0.4923
 7241SOL    HW233183   2.655   3.248   7.166  0.3559 -0.4774  1.3842
 7242SOL     OW33184   2.354   2.689   4.649 -0.1424  0.4221  0.2490
 7242SOL    HW133185   2.416   2.661   4.581  0.0459 -0.5599  0.8242
 7242SOL    HW233186   2.274   2.679   4.596  0.1580  2.3632 -0.5573
 7243SOL     OW33187   1.460   1.168   5.014  0.9322  0.1607 -0.1923
 7243SOL    HW133188   1.384   1.154   4.958 -1.2051  0.4538  2.6821
 7243SOL    HW233189   1.524   1.202   4.951 -0.3101  1.8626 -0.5483
 7244SOL     OW33190   0.199   1.455   2.106  0.3565  0.2656 -0.5634
 7244SOL    HW133191   0.147   1.500   2.039  1.1977  0.2438 -1.2323
 7244SOL    HW233192   0.287   1.477   2.077  0.2213  2.1601  0.4928
 7245SOL     OW33193   3.675   2.505   6.682 -0.0677  0.3726  0.0295
 7245SOL    HW133194   3.713   2.513   6.769 -2.4555  3.0382  0.8173
 7245SOL    HW233195   3.655   2.597   6.668 -1.3507  0.1494  0.3347
 7246SOL     OW33196   3.157   4.294   7.562  0.2211 -0.0387  0.3218
 7246SOL    HW133197   3.118   4.232   7.500 -1.0537  1.5397 -0.4679
 7246SOL    HW233198   3.200   4.353   7.500 -1.5419 -0.2330 -1.1090
 7247SOL     OW33199   3.696   1.504  16.980  0.2542 -0.1220  0.2157
 7247SOL    HW133200   3.606   1.472  16.980  0.9159 -2.0421 -1.0025
 7247SOL    HW233201   3.680   1.598  16.977  0.3941 -0.0686  1.0802
 7248SOL     OW33202   1.629   0.414   6.977 -0.9838  0.5612 -0.1625
 7248SOL    HW133203   1.665   0.439   6.892  2.1883  0.4842  1.1805
 7248SOL    HW233204   1.668   0.471   7.043  2.3531 -2.8467  0.7879
 7249SOL     OW33205   1.134   2.858   0.642  0.3125 -0.1990 -0.2792
 7249SOL    HW133206   1.159   2.862   0.734 -0.2698  1.0535 -0.1775
 7249SOL    HW233207   1.128   2.952   0.624 -2.7802 -0.6476 -1.6952
 7250SOL     OW33208   3.520   2.778  12.128  0.3227 -0.0904 -0.0141
 7250SOL    HW133209   3.603   2.775  12.082 -0.4179 -1.3721 -1.2810
 7250SOL    HW233210   3.541   2.815  12.214  2.8037  0.2070 -0.7586
 7251SOL     OW33211   0.241   1.604   6.716  0.1424 -0.1664 -0.0421
 7251SOL    HW133212   0.296   1.677   6.687 -0.9250  0.2947 -0.9042
 7251SOL    HW233213   0.167   1.655   6.749  3.3695  3.0207  2.3179
 7252SOL     OW33214   0.320   2.991   5.620  0.2789  0.3045  0.3079
 7252SOL    HW133215   0.246   2.940   5.586  0.3506  0.1356  0.4046
 7252SOL    HW233216   0.368   3.018   5.542 -0.0659  2.3584  0.7963
 7253SOL     OW33217   3.284   1.983   6.151 -0.8484  0.4791 -0.2513
 7253SOL    HW133218   3.268   2.042   6.224  1.1585  1.7022 -0.7925
 7253SOL    HW233219   3.207   1.925   6.157 -0.1394 -0.5609 -1.1228
 7254SOL     OW33220   2.164   1.988   0.668  0.4925 -0.1624  0.0448
 7254SOL    HW133221   2.102   1.954   0.604  1.2125 -2.0309  0.3541
 7254SOL    HW233222   2.245   1.955   0.628 -0.1514 -0.4638 -0.9822
 7255SOL     OW33223   1.048   2.117   2.492  0.4087 -0.2923 -0.2601
 7255SOL    HW133224   1.070   2.126   2.399 -0.1839  0.2764 -0.3471
 7255SOL    HW233225   1.041   2.210   2.512 -0.9341 -0.6531  0.9206
 7256SOL     OW33226   3.247   0.521   7.957 -0.4241 -0.6492 -0.6602
 7256SOL    HW133227   3.303   0.477   7.892  0.9227 -1.4306  1.0302
 7256SOL    HW233228   3.183   0.571   7.907  0.5478  1.7552  0.4822
 7257SOL     OW33229   4.181   1.883  17.053  0.8613 -0.8437 -0.7456
 7257SOL    HW133230   4.232   1.802  17.046  0.1073 -1.2530 -1.5578
 7257SOL    HW233231   4.236   1.940  16.999 -0.1585  1.4573  0.6813
 7258SOL     OW33232   1.621   0.558  17.678  0.3377  0.0392 -0.4740
 7258SOL    HW133233   1.622   0.626   0.041 -2.3908  1.5448 -1.9763
 7258SOL    HW233234   1.528   0.536  17.677  0.9915 -2.8277  1.9079
 7259SOL     OW33235   1.504   0.660   5.566  0.4977 -0.1076 -0.2239
 7259SOL    HW133236   1.557   0.738   5.547  1.3353 -1.0907 -1.9727
 7259SOL    HW233237   1.447   0.662   5.489  1.9113 -4.0361 -1.3739
 7260SOL     OW33238   3.742   3.293   9.419  0.1593 -0.1347 -0.3072
 7260SOL    HW133239   3.695   3.344   9.484  1.0366  0.8066 -0.4134
 7260SOL    HW233240   3.702   3.319   9.336 -2.1918 -1.1667  0.4901
 7261SOL     OW33241   3.866   0.250  16.313  0.0163 -0.5625 -0.5400
 7261SOL    HW133242   3.831   0.339  16.302  1.3738  0.1607  0.9159
 7261SOL    HW233243   3.869   0.206  16.228 -0.2104  1.0823 -1.4215
 7262SOL     OW33244   1.901   3.055   4.517  0.1322 -0.1715  0.1990
 7262SOL    HW133245   1.862   3.007   4.444 -1.0377  1.1086 -0.0092
 7262SOL    HW233246   1.990   3.022   4.507  0.0590 -0.1463 -0.5803
 7263SOL     OW33247   4.552   3.157  16.361 -0.0851 -0.5496 -0.0458
 7263SOL    HW133248   4.472   3.120  16.324  0.4390 -2.6311  0.9060
 7263SOL    HW233249   4.594   3.212  16.295  0.5834 -0.9618  0.0370
 7264SOL     OW33250   3.703   2.482   2.947 -0.7327  0.0644  0.2858
 7264SOL    HW133251   3.689   2.389   2.930 -3.0815  0.2444  1.2994
 7264SOL    HW233252   3.642   2.524   2.886  0.2549  1.5856  0.3506
 7265SOL     OW33253   0.813   2.563   3.837  0.2719  0.1700  0.4127
 7265SOL    HW133254   0.879   2.539   3.773 -1.6246 -2.4101 -0.5508
 7265SOL    HW233255   0.740   2.508   3.811 -0.9367  1.5376  0.8840
 7266SOL     OW33256   3.243   2.199   2.428 -0.4421  0.2800  0.0225
 7266SOL    HW133257   3.176   2.131   2.423  0.7392 -0.8416 -0.5526
 7266SOL    HW233258   3.179   2.270   2.433 -0.3584  0.4583 -1.5412
 7267SOL     OW33259   1.101   1.833   1.708 -0.7885 -0.7587 -0.2351
 7267SOL    HW133260   1.179   1.791   1.745 -1.7865  0.6965  3.5169
 7267SOL    HW233261   1.102   1.925   1.736 -2.8167 -0.3988 -1.3454
 7268SOL     OW33262   1.155   3.319   5.261  0.0823  0.6381  0.5469
 7268SOL    HW133263   1.120   3.349   5.345 -1.8384 -0.2652  0.0559
 7268SOL    HW233264   1.174   3.404   5.221  0.2651  0.2635 -0.1467
 7269SOL     OW33265   0.616   0.243  15.899 -0.0516 -0.2869  0.2932
 7269SOL    HW133266   0.688   0.229  15.837 -1.8201  0.3384 -1.8871
 7269SOL    HW233267   0.664   0.212  15.976  1.2389  0.4437 -0.2162
 7270SOL     OW33268   4.404   1.820   8.575  0.2110 -0.2027  0.1850
 7270SOL    HW133269   4.313   1.843   8.589 -0.1257 -0.2130 -2.0050
 7270SOL    HW233270   4.424   1.752   8.639  0.8597  0.3413  0.5689
 7271SOL     OW33271   0.312   0.017   8.436  0.7796 -0.3084 -0.2122
 7271SOL    HW133272   0.242   0.024   8.371  0.2974 -2.7567  0.0706
 7271SOL    HW233273   0.263   4.716   8.514  1.2498 -1.5356 -0.3426
 7272SOL     OW33274   0.164   1.554  17.435  0.3177 -0.8840  0.0046
 7272SOL    HW133275   0.084   1.506  17.453  0.1342 -1.1324 -1.5182
 7272SOL    HW233276   0.217   1.483  17.398  2.8555  0.7581  0.4449
 7273SOL     OW33277   3.614   2.715  17.637  0.0178 -0.0718  0.2037
 7273SOL    HW133278   3.680   2.774  17.673 -0.7999  0.1025  1.3926
 7273SOL    HW233279   3.677   2.656  17.594  1.7092  0.4599  1.9855
 7274SOL     OW33280   0.988   4.355   8.618  0.1799  0.1138  0.3612
 7274SOL    HW133281   1.046   4.364   8.543  3.6012 -0.3258  2.9095
 7274SOL    HW233282   0.900   4.356   8.581  0.4114 -0.6174 -0.1941
 7275SOL     OW33283   1.656   4.533  12.240 -0.1141 -0.4572 -0.2611
 7275SOL    HW133284   1.671   4.527  12.335  0.8933  0.3899 -0.3723
 7275SOL    HW233285   1.587   4.469  12.223  1.2180 -2.3381  1.4537
 7276SOL     OW33286   1.882   3.708   4.197  0.0398  0.5241  0.6989
 7276SOL    HW133287   1.965   3.754   4.200  1.8635 -2.6438 -0.8121
 7276SOL    HW233288   1.898   3.647   4.269  2.4684  1.6307  1.0941
 7277SOL     OW33289   2.050   0.565   7.250  0.8022 -0.4682 -0.5788
 7277SOL    HW133290   2.112   0.615   7.303 -0.1858 -0.3272  0.4665
 7277SOL    HW233291   2.091   0.479   7.257 -0.0105 -0.7640  0.6152
 7278SOL     OW33292   1.057   2.272   3.769  0.6021  0.5782 -0.2810
 7278SOL    HW133293   1.020   2.341   3.714  0.5745  1.7535  1.2107
 7278SOL    HW233294   0.990   2.251   3.833  1.1809 -3.5980 -1.0288
 7279SOL     OW33295   2.226   4.278   6.481  0.1418 -0.0691 -0.4839
 7279SOL    HW133296   2.188   4.193   6.460 -0.6932  0.9973 -3.1912
 7279SOL    HW233297   2.167   4.314   6.548  1.4371 -0.3993  0.8496
 7280SOL     OW33298   2.790   2.749  15.700 -0.3415  0.3599 -0.5947
 7280SOL    HW133299   2.884   2.733  15.694 -0.2288 -0.1958  2.4617
 7280SOL    HW233300   2.776   2.836  15.665 -2.5806  0.4015  0.3877
 7281SOL     OW33301   4.075   4.414  10.819  1.0897 -0.5553 -0.1122
 7281SOL    HW133302   3.983   4.391  10.824  0.9574 -0.0153 -0.0591
 7281SOL    HW233303   4.077   4.499  10.863 -1.0333  0.0041 -1.1203
 7282SOL     OW33304   3.348   0.789   7.678  0.3214  0.3717  0.4476
 7282SOL    HW133305   3.365   0.831   7.762  0.2709  3.0637 -0.9152
 7282SOL    HW233306   3.281   0.732   7.718 -0.4847  1.1889  0.2682
 7283SOL     OW33307   0.538   0.939  11.001 -0.5722 -0.3303  0.4244
 7283SOL    HW133308   0.524   1.003  10.932  0.5685  1.5221  1.9164
 7283SOL    HW233309   0.602   0.989  11.051 -0.2924 -0.2045 -0.0628
 7284SOL     OW33310   1.889   2.860   6.772 -0.4516  0.0067 -0.2402
 7284SOL    HW133311   1.875   2.787   6.712 -0.4810  1.0157 -1.4608
 7284SOL    HW233312   1.919   2.932   6.717  2.4882 -1.2874 -0.2985
 7285SOL     OW33313   1.951   3.071   8.778  0.0193 -0.5457 -0.2067
 7285SOL    HW133314   1.873   3.016   8.785  0.7778 -1.7551 -1.1215
 7285SOL    HW233315   1.958   3.108   8.866  1.3642 -2.0232  0.3272
 7286SOL     OW33316   1.798   0.650   3.127 -0.1275  0.2595 -0.6262
 7286SOL    HW133317   1.732   0.678   3.191  0.2475 -0.6375  0.1706
 7286SOL    HW233318   1.880   0.671   3.171  1.2647 -1.3854 -2.4653
 7287SOL     OW33319   4.113   0.728  17.202  0.6391 -0.2594  0.1232
 7287SOL    HW133320   4.166   0.649  17.201  0.4490 -0.3969  1.5098
 7287SOL    HW233321   4.030   0.693  17.235  0.2089 -0.8490 -1.5382
 7288SOL     OW33322   3.914   0.939   1.452 -0.5206 -0.5062  0.5131
 7288SOL    HW133323   3.988   0.887   1.425  0.5104 -1.0695  4.4040
 7288SOL    HW233324   3.853   0.901   1.389  1.2894 -0.7668 -1.0519
 7289SOL     OW33325   0.357   4.106  14.052  0.0717  0.6361 -0.3463
 7289SOL    HW133326   0.369   4.160  14.130  2.0677  0.8962 -0.8099
 7289SOL    HW233327   0.268   4.129  14.026 -0.9252 -2.7633  0.1186
 7290SOL     OW33328   0.902   4.060   3.319 -0.3138 -0.2122 -0.2052
 7290SOL    HW133329   0.976   4.058   3.380 -0.3868 -0.2646 -0.1181
 7290SOL    HW233330   0.888   4.153   3.301 -0.5702 -0.5377 -1.7207
 7291SOL     OW33331   2.105   1.235   6.890  0.0589 -0.7872  0.3323
 7291SOL    HW133332   2.068   1.322   6.873 -1.0481 -1.5979 -1.3650
 7291SOL    HW233333   2.104   1.197   6.802 -3.6483 -0.2002  0.1290
 7292SOL     OW33334   3.900   1.357   1.078 -0.7075 -0.3805 -0.2815
 7292SOL    HW133335   3.871   1.275   1.116 -1.3294 -1.2380 -2.6067
 7292SOL    HW233336   3.835   1.409   1.125 -1.4072 -1.3221 -0.2077
 7293SOL     OW33337   3.472   2.486   4.469  0.4113 -0.3227 -0.6129
 7293SOL    HW133338   3.380   2.490   4.494  0.1260  0.6985 -1.8483
 7293SOL    HW233339   3.470   2.430   4.391  1.3743 -1.0352 -0.1305
 7294SOL     OW33340   1.636   3.079   9.222 -0.2492 -0.2312 -0.0000
 7294SOL    HW133341   1.567   3.085   9.156 -0.2521 -2.3370 -0.1854
 7294SOL    HW233342   1.687   3.158   9.205 -0.7295  0.2013  0.5450
 7295SOL     OW33343   3.381   3.441   6.574 -0.3646  0.3119  0.6415
 7295SOL    HW133344   3.371   3.349   6.598 -0.9046  0.8932  2.5965
 7295SOL    HW233345   3.365   3.431   6.480  1.1824 -0.1097  0.4208
 7296SOL     OW33346   1.095   0.865  15.535  0.0684  0.3122 -0.0462
 7296SOL    HW133347   1.117   0.904  15.450 -2.3062 -0.1397 -0.8589
 7296SOL    HW233348   1.003   0.887  15.547 -0.4283 -0.9331 -1.6060
 7297SOL     OW33349   2.057   2.561   1.524 -0.1564 -0.1694 -0.6056
 7297SOL    HW133350   2.042   2.625   1.593  0.7792 -1.8617  1.1804
 7297SOL    HW233351   2.021   2.477   1.554  0.2496 -0.1151  0.0388
 7298SOL     OW33352   0.380   1.144   8.147  0.2576  0.3672  0.0294
 7298SOL    HW133353   0.340   1.085   8.211  1.1763  0.8098  1.0274
 7298SOL    HW233354   0.358   1.228   8.187  3.8151  0.3531  2.0730
 7299SOL     OW33355   3.675   1.932   2.974 -0.0496  0.6073  0.0171
 7299SOL    HW133356   3.683   1.856   2.917 -0.4079  1.6206 -1.3622
 7299SOL    HW233357   3.590   1.968   2.951 -0.0004 -0.1414 -1.3038
 7300SOL     OW33358   0.879   0.463   2.651  0.8210  0.0723  0.3312
 7300SOL    HW133359   0.895   0.548   2.610 -2.2016  0.4648 -0.0701
 7300SOL    HW233360   0.854   0.413   2.573 -0.4573 -0.1943  0.9134
 7301SOL     OW33361   2.656   3.991  12.542 -0.4355  0.4164 -0.7873
 7301SOL    HW133362   2.667   4.001  12.448 -0.9351  1.0101 -0.7856
 7301SOL    HW233363   2.738   3.950  12.570 -0.9763 -0.1082  0.0419
 7302SOL     OW33364   2.880   2.671   7.708 -0.7241 -0.2251 -0.1539
 7302SOL    HW133365   2.811   2.632   7.762  0.9263 -2.1399  0.6150
 7302SOL    HW233366   2.929   2.710   7.780 -0.3985 -2.4113  0.8221
 7303SOL     OW33367   3.649   1.772  17.018  0.2130 -0.1219  0.4681
 7303SOL    HW133368   3.740   1.772  17.047  0.5323 -0.6960 -0.5223
 7303SOL    HW233369   3.638   1.867  17.021 -2.4688 -0.3882 -1.0581
 7304SOL     OW33370   1.633   3.400   3.097  0.7772 -0.2020  0.4985
 7304SOL    HW133371   1.625   3.412   3.003  2.2413 -0.8407  0.3023
 7304SOL    HW233372   1.605   3.311   3.120 -1.5224 -0.0189 -1.6343
 7305SOL     OW33373   4.185   0.385   1.512  0.3749  0.0530 -0.0087
 7305SOL    HW133374   4.195   0.378   1.607 -1.3155  4.1411  0.4689
 7305SOL    HW233375   4.189   0.294   1.482  2.5092 -0.2431  1.1615
 7306SOL     OW33376   4.584   0.408  13.922 -0.2446 -0.2281  0.0661
 7306SOL    HW133377   4.617   0.434  13.836  1.0844  0.6065  0.8326
 7306SOL    HW233378   4.629   0.473  13.976 -0.2066  0.9884 -1.4367
 7307SOL     OW33379   0.836   4.379   1.476 -0.3278 -0.1906 -0.3955
 7307SOL    HW133380   0.923   4.385   1.515  0.1134 -1.4866 -1.1642
 7307SOL    HW233381   0.833   4.294   1.432 -0.8847  1.0928 -2.8167
 7308SOL     OW33382   4.394   1.601   3.944 -0.0872  0.3148 -0.3615
 7308SOL    HW133383   4.463   1.536   3.932 -0.4040 -0.2282  0.7794
 7308SOL    HW233384   4.408   1.660   3.870 -1.3514  0.2449 -0.6536
 7309SOL     OW33385   3.567   3.279   0.722  0.5014 -0.5367  0.3672
 7309SOL    HW133386   3.613   3.313   0.798  1.5122  0.6988 -0.7927
 7309SOL    HW233387   3.501   3.348   0.729  0.6590 -0.3355 -0.1421
 7310SOL     OW33388   2.978   2.100   9.684  0.1947  0.4231 -0.1054
 7310SOL    HW133389   3.031   2.110   9.763 -0.8379  1.4165  0.4661
 7310SOL    HW233390   2.998   2.009   9.663  0.2167 -0.0625  1.9314
 7311SOL     OW33391   1.021   1.858   5.216 -0.1601  0.2049  0.4299
 7311SOL    HW133392   1.085   1.846   5.286 -1.1379 -1.5394  1.0078
 7311SOL    HW233393   1.038   1.952   5.205 -3.1012  0.6793 -0.1198
 7312SOL     OW33394   3.404   2.703   4.139 -0.0043 -0.2531  0.8210
 7312SOL    HW133395   3.452   2.690   4.221 -0.1482 -0.6330  0.8473
 7312SOL    HW233396   3.319   2.741   4.164 -0.4737 -0.7764  0.0338
 7313SOL     OW33397   0.962   4.288   9.221 -0.2675  0.4059 -0.0090
 7313SOL    HW133398   1.042   4.326   9.257  1.0626 -1.8686 -0.5060
 7313SOL    HW233399   0.936   4.244   9.302  1.0219 -1.3681 -0.5338
 7314SOL     OW33400   1.330   4.042   9.072 -0.0768  0.6851  0.0549
 7314SOL    HW133401   1.396   3.981   9.103 -0.9266 -0.5437 -0.5442
 7314SOL    HW233402   1.376   4.090   9.003  0.5655 -0.6484 -0.4382
 7315SOL     OW33403   2.515   2.418   3.845  0.5277 -0.4201 -0.4478
 7315SOL    HW133404   2.608   2.398   3.858  0.2309  0.1220  2.4872
 7315SOL    HW233405   2.477   2.330   3.847  0.0053 -0.1913 -0.2555
 7316SOL     OW33406   3.455   0.350   8.212  0.1904 -0.1544 -0.5177
 7316SOL    HW133407   3.379   0.296   8.193 -1.3072  2.4169 -1.7796
 7316SOL    HW233408   3.508   0.295   8.270 -0.4746 -1.0107 -0.7303
 7317SOL     OW33409   1.079   0.595   5.318  0.3188 -0.2987 -0.1936
 7317SOL    HW133410   1.122   0.510   5.326  0.4303 -0.4068 -2.0083
 7317SOL    HW233411   1.091   0.612   5.225 -0.8917 -2.1841 -0.7168
 7318SOL     OW33412   3.246   0.011   2.417  0.2208 -0.1312  0.5156
 7318SOL    HW133413   3.257   4.653   2.372 -1.5089  0.3692 -0.8370
 7318SOL    HW233414   3.241   0.063   2.337 -2.9692  1.2903  1.6499
 7319SOL     OW33415   2.698   4.507   4.446 -0.1430 -0.1288 -0.2522
 7319SOL    HW133416   2.615   4.554   4.436 -0.3359 -0.4105  0.0299
 7319SOL    HW233417   2.667   4.430   4.493 -2.1434  0.7322 -0.1593
 7320SOL     OW33418   2.208   0.894   6.340  0.6347  0.5806 -0.2355
 7320SOL    HW133419   2.208   0.844   6.259 -1.3685  0.3809 -0.1043
 7320SOL    HW233420   2.146   0.960   6.311  0.9259  1.0864  0.2821
 7321SOL     OW33421   3.936   1.196   1.558  0.3888 -0.4225 -0.0750
 7321SOL    HW133422   4.029   1.194   1.537  0.5021  0.0857  0.3763
 7321SOL    HW233423   3.906   1.119   1.509 -0.5084 -2.0283  2.9758
 7322SOL     OW33424   0.553   1.754   2.352  0.2637  0.1835 -0.0023
 7322SOL    HW133425   0.501   1.802   2.416 -2.1138 -0.3601 -1.5124
 7322SOL    HW233426   0.540   1.818   2.281  0.6229 -0.1390 -0.3538
 7323SOL     OW33427   1.656   4.071   5.118 -0.0673  0.7568 -0.1948
 7323SOL    HW133428   1.728   4.104   5.171  0.8638 -1.1002 -0.3276
 7323SOL    HW233429   1.595   4.145   5.113  0.1752  0.9748  0.0521
 7324SOL     OW33430   1.944   3.916   3.941 -0.0405 -0.4823 -0.2938
 7324SOL    HW133431   1.971   3.943   4.029 -0.5498 -3.6943  0.8519
 7324SOL    HW233432   1.922   4.000   3.900 -0.7441  0.0579  1.1866
 7325SOL     OW33433   1.307   3.441   3.758  0.6528  0.2753  1.0519
 7325SOL    HW133434   1.386   3.450   3.704 -1.7723  1.1973 -2.3149
 7325SOL    HW233435   1.317   3.364   3.813  2.9159 -0.7895 -0.8508
 7326SOL     OW33436   0.308   3.084  13.078 -0.5941  0.1189  0.0273
 7326SOL    HW133437   0.256   3.152  13.122 -0.6203 -1.1381  1.9145
 7326SOL    HW233438   0.342   3.033  13.151 -1.0169  0.7126  0.6460
 7327SOL     OW33439   2.968   0.538   3.993  0.0248  0.3000 -0.0484
 7327SOL    HW133440   2.935   0.543   3.903  0.8813  0.7753 -0.3338
 7327SOL    HW233441   2.970   0.442   3.993  0.3194  0.3144  1.8687
 7328SOL     OW33442   1.816   2.992   2.828 -0.1399 -0.3102 -0.1626
 7328SOL    HW133443   1.884   2.972   2.891 -0.1075  0.4686  0.0515
 7328SOL    HW233444   1.739   3.010   2.882 -0.4008 -0.3098 -0.5290
 7329SOL     OW33445   3.883   0.621   6.382  0.6114 -0.7144 -0.3644
 7329SOL    HW133446   3.908   0.532   6.409 -2.2417 -0.4620  3.0534
 7329SOL    HW233447   3.959   0.661   6.339 -0.9314  0.9571 -1.5293
 7330SOL     OW33448   1.405   2.270  14.670 -0.1473  0.3120 -0.6653
 7330SOL    HW133449   1.501   2.260  14.670 -0.2032 -0.2266 -0.5389
 7330SOL    HW233450   1.399   2.272  14.575  0.4932  1.1678 -0.6908
 7331SOL     OW33451   4.402   3.618  14.880  0.0923 -0.1194  0.0050
 7331SOL    HW133452   4.415   3.712  14.871  0.1963  0.0037  1.3418
 7331SOL    HW233453   4.351   3.617  14.961 -3.6664 -3.0300 -2.4104
 7332SOL     OW33454   0.453   3.869   7.684 -0.1078  0.2108  0.4524
 7332SOL    HW133455   0.520   3.810   7.649 -2.7637 -1.6305 -1.5384
 7332SOL    HW233456   0.385   3.807   7.713  0.2033  0.6902  2.2248
 7333SOL     OW33457   1.010   0.775  16.422  0.2657 -0.5754 -0.1966
 7333SOL    HW133458   1.073   0.841  16.393  0.2291  0.7803  2.6983
 7333SOL    HW233459   0.952   0.773  16.346  0.8575  2.5752 -0.7265
 7334SOL     OW33460   1.901   1.084   3.133  0.8601  0.3488 -0.5764
 7334SOL    HW133461   1.984   1.126   3.157  1.5885 -0.8235 -1.0103
 7334SOL    HW233462   1.844   1.155   3.161  2.2916  1.3067 -0.0770
 7335SOL     OW33463   0.872   0.764   8.774 -0.4947 -0.3322 -0.9365
 7335SOL    HW133464   0.802   0.762   8.839  1.4243  1.7925  1.1783
 7335SOL    HW233465   0.827   0.801   8.697 -0.9015  0.6826 -0.2095
 7336SOL     OW33466   2.793   1.487   5.954 -0.0955 -0.0857  0.2453
 7336SOL    HW133467   2.748   1.426   6.012  0.2432  1.1612  1.8371
 7336SOL    HW233468   2.779   1.567   6.004 -0.4276  0.5848 -0.9288
 7337SOL     OW33469   3.193   3.814   2.348  0.6512  0.7930 -0.5423
 7337SOL    HW133470   3.244   3.746   2.303  1.8050  2.4996 -1.8156
 7337SOL    HW233471   3.112   3.794   2.302 -0.4500  0.7021  1.4733
 7338SOL     OW33472   2.196   1.502   3.021 -0.3775  0.5349 -0.0383
 7338SOL    HW133473   2.179   1.470   2.933 -1.9887  1.3720 -0.0316
 7338SOL    HW233474   2.176   1.592   2.997  1.2304  1.9196  3.8703
 7339SOL     OW33475   0.564   4.598   5.813  0.1622 -0.3226 -0.2520
 7339SOL    HW133476   0.556   4.619   5.720 -0.6434 -0.1394 -0.1396
 7339SOL    HW233477   0.564   4.502   5.811 -2.2275 -0.3209 -1.0099
 7340SOL     OW33478   3.634   2.677  13.620  0.5440  0.1599  0.2444
 7340SOL    HW133479   3.663   2.586  13.615  1.8129  0.5708  0.1816
 7340SOL    HW233480   3.656   2.700  13.529 -0.2341 -0.1085 -0.0150
 7341SOL     OW33481   1.704   0.751   9.333 -0.3591  0.1271  0.4904
 7341SOL    HW133482   1.622   0.730   9.378 -0.2015  1.0862  1.2138
 7341SOL    HW233483   1.765   0.697   9.382 -1.3586 -1.4027  0.0865
 7342SOL     OW33484   1.667   4.322   4.572 -0.2773 -0.0450 -0.5276
 7342SOL    HW133485   1.681   4.324   4.667  1.6083  0.8529 -0.8269
 7342SOL    HW233486   1.655   4.228   4.557  3.1741 -0.4369 -0.6901
 7343SOL     OW33487   4.467   2.726   5.350 -0.1263 -0.0371  0.1352
 7343SOL    HW133488   4.517   2.768   5.281 -1.7602  1.5750 -0.0536
 7343SOL    HW233489   4.386   2.775   5.337 -0.3833 -0.7786 -1.0346
 7344SOL     OW33490   3.503   1.509   8.196 -0.3746 -0.4858  0.2720
 7344SOL    HW133491   3.450   1.507   8.276 -0.4529 -2.5220  0.1709
 7344SOL    HW233492   3.566   1.572   8.230 -2.0214  1.6840 -0.7827
 7345SOL     OW33493   0.898   3.434  11.186 -0.5494  0.3353 -0.4816
 7345SOL    HW133494   0.942   3.365  11.236 -1.9609 -1.5476 -1.8424
 7345SOL    HW233495   0.916   3.518  11.228  0.8850  0.2121 -0.8515
 7346SOL     OW33496   3.567   1.997   2.339 -0.5910 -0.3606 -0.2975
 7346SOL    HW133497   3.494   2.024   2.283  0.6375 -0.4956 -1.9622
 7346SOL    HW233498   3.619   1.931   2.293 -0.5553 -0.3132 -0.3247
 7347SOL     OW33499   0.086   4.030   7.038 -0.6617 -0.3430  0.3234
 7347SOL    HW133500   0.053   3.972   6.969 -0.2706 -0.4476  0.2290
 7347SOL    HW233501   0.178   4.005   7.040 -0.2865  1.2631  3.0285
 7348SOL     OW33502   1.521   0.847  11.804 -0.1233  0.2491  0.3004
 7348SOL    HW133503   1.478   0.865  11.887 -0.0329 -2.0564  0.8468
 7348SOL    HW233504   1.461   0.890  11.744 -0.0783  0.3505  0.3285
 7349SOL     OW33505   3.647   2.257   4.059  0.0624  0.1263  0.8596
 7349SOL    HW133506   3.667   2.293   3.973  0.5532 -1.4653  0.2912
 7349SOL    HW233507   3.641   2.164   4.035 -0.3925  0.6274 -0.8914
 7350SOL     OW33508   0.630   0.190   6.435  0.0143  0.6666  0.1588
 7350SOL    HW133509   0.613   0.122   6.370 -0.3264  0.3635  0.5669
 7350SOL    HW233510   0.698   0.246   6.396  1.0914 -1.2434 -0.7093
 7351SOL     OW33511   2.037   1.964   2.679  0.5174 -0.0563 -0.5917
 7351SOL    HW133512   1.962   2.014   2.711  0.3636 -0.5494 -0.1712
 7351SOL    HW233513   1.995   1.908   2.613  1.4030 -0.6706 -0.6226
 7352SOL     OW33514   3.820   2.678   3.548  0.3357  0.1728  0.2885
 7352SOL    HW133515   3.784   2.644   3.630 -1.8758  1.4735 -0.1341
 7352SOL    HW233516   3.748   2.653   3.490 -1.6664  1.6798  2.0925
 7353SOL     OW33517   3.036   3.818   7.544 -0.0381 -0.1624  0.0767
 7353SOL    HW133518   3.123   3.847   7.519  0.2303  0.4416  1.7133
 7353SOL    HW233519   2.996   3.810   7.458  0.8644  1.0835 -0.4514
 7354SOL     OW33520   0.976   0.083  10.603 -0.9055 -0.5628 -0.6292
 7354SOL    HW133521   1.025   0.145  10.549 -3.2733  1.0912 -0.9049
 7354SOL    HW233522   0.927   0.031  10.539 -2.0000 -0.1400 -0.1357
 7355SOL     OW33523   2.613   2.795   3.313  0.3183  0.1789  0.3796
 7355SOL    HW133524   2.654   2.763   3.233 -1.9361  0.3683 -0.8464
 7355SOL    HW233525   2.688   2.837   3.354 -0.3823  0.9890  0.8483
 7356SOL     OW33526   2.353   1.638  14.034 -0.3780  0.2327  0.1208
 7356SOL    HW133527   2.316   1.722  14.009 -0.6949  1.0379  3.2529
 7356SOL    HW233528   2.297   1.617  14.109  0.8307 -1.7265  0.4977
 7357SOL     OW33529   0.175   3.257  13.215 -0.0042  0.1142  0.0961
 7357SOL    HW133530   0.211   3.285  13.300  1.1294  0.6725 -0.5623
 7357SOL    HW233531   0.109   3.325  13.201 -0.1310  0.2335  1.2240
 7358SOL     OW33532   2.494   3.976   5.966  0.1786  0.4605 -0.3139
 7358SOL    HW133533   2.561   4.013   5.908  0.0833  0.5837 -0.3451
 7358SOL    HW233534   2.524   3.978   6.057 -0.7722 -3.2014  0.0760
 7359SOL     OW33535   0.993   0.086   8.189 -0.1505  0.3582  0.5819
 7359SOL    HW133536   1.015   0.135   8.268 -2.0327  1.5352  0.3707
 7359SOL    HW233537   0.915   0.034   8.210  1.2164 -2.7473 -1.9155
 7360SOL     OW33538   3.026   3.068   2.940 -0.2472 -0.0123 -0.0996
 7360SOL    HW133539   2.972   3.077   2.862  1.5604 -1.1540 -1.4983
 7360SOL    HW233540   3.112   3.078   2.900 -0.4101  0.5478 -0.3042
 7361SOL     OW33541   3.893   2.235   2.750 -0.0030 -0.4525 -0.0879
 7361SOL    HW133542   3.855   2.204   2.833 -2.1806  0.0063 -0.8999
 7361SOL    HW233543   3.939   2.153   2.734 -1.4270 -0.8422 -2.1349
 7362SOL     OW33544   0.023   4.414   2.646  0.0845  0.0360  0.3051
 7362SOL    HW133545   4.676   4.476   2.651  1.7155  1.8638  1.8034
 7362SOL    HW233546   0.097   4.471   2.623 -0.9027  0.6621 -1.3553
 7363SOL     OW33547   4.709   4.053   3.101 -0.6807 -0.1512 -0.4702
 7363SOL    HW133548   4.708   3.986   3.169 -0.3888 -0.4120 -0.7200
 7363SOL    HW233549   4.706   4.137   3.147  1.7071 -0.7717  0.8041
 7364SOL     OW33550   0.940   2.817   6.222  0.5745  0.1296 -0.2824
 7364SOL    HW133551   0.996   2.844   6.294 -1.7302  1.9805  0.8036
 7364SOL    HW233552   1.005   2.784   6.160  1.5265  1.0204  0.2480
 7365SOL     OW33553   2.270   1.552   8.716  0.1393  0.3139 -0.1268
 7365SOL    HW133554   2.353   1.566   8.671 -0.0731 -0.2731 -0.6898
 7365SOL    HW233555   2.295   1.473   8.764  1.3148  0.2962 -0.7725
 7366SOL     OW33556   2.613   3.375   1.795  0.1224 -0.2819  0.1263
 7366SOL    HW133557   2.518   3.381   1.790 -0.0297 -1.2975  1.6854
 7366SOL    HW233558   2.620   3.310   1.725 -2.8484  0.1012 -0.5131
 7367SOL     OW33559   2.736   1.594  12.216 -0.1851 -0.3053 -0.2449
 7367SOL    HW133560   2.784   1.598  12.133  0.9043  3.5796  0.5706
 7367SOL    HW233561   2.805   1.565  12.276  1.9550  0.8153 -2.1317
 7368SOL     OW33562   2.000   0.709  11.089  1.2716  0.2747 -0.2597
 7368SOL    HW133563   2.038   0.760  11.017 -0.0380  0.2216 -0.9939
 7368SOL    HW233564   1.937   0.653  11.043  0.3005  0.5668  0.7020
 7369SOL     OW33565   2.481   2.595   6.643  0.3062 -0.1620 -0.8077
 7369SOL    HW133566   2.430   2.634   6.714  1.0014  0.9329 -0.9253
 7369SOL    HW233567   2.484   2.668   6.582 -1.6283 -0.1230 -0.8619
 7370SOL     OW33568   4.446   4.640   2.223  0.4966  0.0694  0.4463
 7370SOL    HW133569   4.433   4.611   2.314  1.4727  1.5166  1.0374
 7370SOL    HW233570   4.427   0.008   2.223  1.2470  0.2222 -0.2649
 7371SOL     OW33571   2.181   1.727  12.388  0.4572 -0.3587 -0.1966
 7371SOL    HW133572   2.248   1.751  12.452 -0.1681 -1.5620  0.8987
 7371SOL    HW233573   2.236   1.723  12.310  1.8337  0.2602  0.7342
 7372SOL     OW33574   4.570   2.504  13.949  0.1145 -0.3903 -0.1021
 7372SOL    HW133575   4.480   2.534  13.942  0.7237  1.1883 -1.3705
 7372SOL    HW233576   4.611   2.524  13.865  2.6603 -0.4260  1.1253
 7373SOL     OW33577   1.166   3.193   6.552  0.6028  0.4281 -0.6027
 7373SOL    HW133578   1.216   3.174   6.472 -0.1264 -4.3839  0.0442
 7373SOL    HW233579   1.077   3.169   6.527  0.6997  0.4070 -0.9351
 7374SOL     OW33580   3.411   3.365  15.375  0.4314 -0.1103  0.5144
 7374SOL    HW133581   3.352   3.336  15.444  0.6887 -0.6443  0.5146
 7374SOL    HW233582   3.346   3.408  15.319  0.9324 -0.8428 -0.6376
 7375SOL     OW33583   1.254   2.593   2.982 -0.0295 -0.1118 -0.2376
 7375SOL    HW133584   1.247   2.499   2.966  0.6987 -0.1790 -0.1339
 7375SOL    HW233585   1.181   2.621   2.927 -0.1088  1.3397  0.6082
 7376SOL     OW33586   1.974   2.997   5.358 -0.2069  0.5080 -0.0450
 7376SOL    HW133587   1.994   2.931   5.424 -0.2350  0.4063 -0.1365
 7376SOL    HW233588   1.879   2.999   5.360 -0.2035  0.9125 -0.3195
 7377SOL     OW33589   4.129   1.696   1.238  0.1364  0.7446  0.3379
 7377SOL    HW133590   4.094   1.741   1.161 -1.5695  0.4467  0.9307
 7377SOL    HW233591   4.201   1.654   1.191 -2.4368 -1.9297 -1.2536
 7378SOL     OW33592   1.820   3.636   6.328  0.0994 -0.5513 -0.0345
 7378SOL    HW133593   1.742   3.584   6.348 -1.5018  0.9455 -2.3725
 7378SOL    HW233594   1.791   3.681   6.248 -1.4781  2.2076  2.0799
 7379SOL     OW33595   1.557   2.022   4.960  0.8622  0.2841 -0.4551
 7379SOL    HW133596   1.577   2.069   4.879  0.1214 -0.3806 -1.0239
 7379SOL    HW233597   1.610   1.943   4.952  0.4570 -0.2531  2.1551
 7380SOL     OW33598   1.184   1.713   6.120 -0.1049  0.5735  0.0525
 7380SOL    HW133599   1.095   1.683   6.103  0.1598 -0.1321 -0.0771
 7380SOL    HW233600   1.221   1.633   6.157  0.4326 -0.1162 -1.9643
 7381SOL     OW33601   2.238   4.245  10.236 -0.3305  0.4975 -0.3370
 7381SOL    HW133602   2.249   4.162  10.191  2.5750  1.7137 -1.8625
 7381SOL    HW233603   2.166   4.284  10.184 -1.3187 -0.0186  0.6509
 7382SOL     OW33604   3.422   0.984  12.289 -0.1920 -0.0721  0.1772
 7382SOL    HW133605   3.398   1.013  12.201 -2.7928 -1.2478  0.4923
 7382SOL    HW233606   3.343   0.937  12.317 -0.6994  0.6320 -0.0500
 7383SOL     OW33607   0.439   1.862  14.192  0.1587  0.2064  0.2717
 7383SOL    HW133608   0.467   1.791  14.134 -2.1150  0.8552 -1.6528
 7383SOL    HW233609   0.522   1.910  14.199  0.1935  0.4313 -1.5717
 7384SOL     OW33610   3.767   3.885   8.360  0.2127  0.7134 -0.4077
 7384SOL    HW133611   3.804   3.874   8.448 -1.4109 -2.8965 -0.1600
 7384SOL    HW233612   3.724   3.799   8.353 -0.5162  1.0032  0.3964
 7385SOL     OW33613   1.476   0.050  15.230 -0.1043 -0.0563  0.5077
 7385SOL    HW133614   1.503   4.718  15.302 -1.4982 -0.9598  0.3098
 7385SOL    HW233615   1.549   0.051  15.168  1.1476  0.9680  1.9786
 7386SOL     OW33616   2.528   1.706   8.413 -0.1167 -0.5519 -0.1201
 7386SOL    HW133617   2.600   1.671   8.362 -0.5679 -1.1799 -0.3262
 7386SOL    HW233618   2.450   1.661   8.381 -2.0130  1.9519  0.9353
 7387SOL     OW33619   4.477   1.557   0.212 -0.0539  0.1046  0.4063
 7387SOL    HW133620   4.495   1.593   0.125 -0.8045 -1.1495 -0.2582
 7387SOL    HW233621   4.498   1.629   0.273  0.6646 -0.1432  0.4491
 7388SOL     OW33622   0.740   1.349   8.603 -0.3300  0.0378  0.0333
 7388SOL    HW133623   0.676   1.359   8.674 -0.9287  3.1849 -0.9710
 7388SOL    HW233624   0.734   1.254   8.597 -1.3257  0.0307  1.2820
 7389SOL     OW33625   2.699   3.747  16.071 -0.2713 -0.2027  0.1882
 7389SOL    HW133626   2.724   3.838  16.088 -2.6267  0.6410 -1.0200
 7389SOL    HW233627   2.760   3.730  15.999 -1.0633 -0.1580 -0.4894
 7390SOL     OW33628   0.005   4.608   2.191 -0.1746  0.1567 -0.9332
 7390SOL    HW133629   4.635   4.609   2.187 -0.0838 -1.6529 -3.3081
 7390SOL    HW233630   0.010   4.523   2.148 -1.5483 -0.7713  0.7462
 7391SOL     OW33631   0.857   3.170   7.282 -0.3395 -0.1574 -0.0224
 7391SOL    HW133632   0.805   3.158   7.362 -0.1714  0.2786  0.1521
 7391SOL    HW233633   0.781   3.211   7.241  0.0685 -3.1957 -3.8289
 7392SOL     OW33634   1.927   1.756   4.718  0.4051  0.4733 -0.3757
 7392SOL    HW133635   1.876   1.686   4.679  0.5327  0.7035 -0.9547
 7392SOL    HW233636   1.934   1.820   4.647 -2.1151  0.8887 -0.2699
 7393SOL     OW33637   4.291   3.384   6.449 -0.5325 -0.3623 -0.1507
 7393SOL    HW133638   4.339   3.306   6.473 -0.4230 -0.0691  0.5807
 7393SOL    HW233639   4.203   3.357   6.473 -1.0063  1.4701  0.2139
 7394SOL     OW33640   3.859   1.512   5.048 -0.1717  0.2985  0.2869
 7394SOL    HW133641   3.917   1.587   5.063 -0.0546  0.4441 -0.8648
 7394SOL    HW233642   3.795   1.563   4.997 -1.9494 -2.9696 -0.7430
 7395SOL     OW33643   3.357   1.998   4.166 -0.3545  0.2039  0.2807
 7395SOL    HW133644   3.358   2.074   4.108 -1.5142  1.2055  1.5683
 7395SOL    HW233645   3.447   1.997   4.199 -0.1021  1.8703 -0.3648
 7396SOL     OW33646   2.876   2.097   1.950  0.2672  0.1389  0.0810
 7396SOL    HW133647   2.856   2.067   1.861 -0.0173  1.1745 -0.2086
 7396SOL    HW233648   2.895   2.013   1.992 -0.5551  0.2751  0.7165
 7397SOL     OW33649   0.289   4.501   8.019 -0.4610  0.1702  0.3296
 7397SOL    HW133650   0.306   4.590   8.049 -1.7666 -0.2602  2.2996
 7397SOL    HW233651   0.275   4.450   8.098 -0.5814 -0.9476 -0.4120
 7398SOL     OW33652   3.007   0.518   4.672 -1.1796  0.0179  0.0548
 7398SOL    HW133653   3.024   0.564   4.754  0.8291 -2.1023  0.8441
 7398SOL    HW233654   3.095   0.498   4.640 -2.2654 -0.1247 -2.8735
 7399SOL     OW33655   0.931   3.030   5.493 -0.0857 -1.2924  0.0105
 7399SOL    HW133656   0.999   3.076   5.541 -1.7790 -0.1898  1.3699
 7399SOL    HW233657   0.849   3.028   5.544 -0.7125 -0.6826 -0.9810
 7400SOL     OW33658   3.456   1.016  10.757 -0.2832 -0.5060 -0.2114
 7400SOL    HW133659   3.526   1.009  10.692  0.5329 -0.4368  0.6752
 7400SOL    HW233660   3.502   1.032  10.839 -0.4727  1.2416 -0.4497
 7401SOL     OW33661   1.014   3.760   1.915  0.3958  0.5049 -0.2441
 7401SOL    HW133662   1.083   3.772   1.980  0.3915  3.1430 -0.7269
 7401SOL    HW233663   0.938   3.790   1.964 -0.5474 -1.7171 -0.3500
 7402SOL     OW33664   2.852   0.810  13.185  0.2881  0.4456 -0.1944
 7402SOL    HW133665   2.856   0.806  13.280 -1.3967  3.0004 -0.0242
 7402SOL    HW233666   2.797   0.887  13.172  1.2966  1.1129 -0.6030
 7403SOL     OW33667   2.265   3.003  11.054 -0.4181 -0.2819 -0.5404
 7403SOL    HW133668   2.243   2.915  11.024  1.5584 -0.1970 -2.2102
 7403SOL    HW233669   2.353   3.007  11.017 -0.0557 -0.2019  0.3349
 7404SOL     OW33670   0.163   1.967  15.606  0.5228  0.4475  0.1343
 7404SOL    HW133671   0.083   1.982  15.557 -0.2909  1.3149  1.7306
 7404SOL    HW233672   0.222   1.939  15.536 -1.3196 -1.4827 -0.6383
 7405SOL     OW33673   1.129   1.101   4.416 -0.0881  0.1742 -0.0470
 7405SOL    HW133674   1.174   1.061   4.341  0.5525 -0.1515  0.5033
 7405SOL    HW233675   1.209   1.122   4.465  0.1342  0.4909 -0.5411
 7406SOL     OW33676   2.491   1.344   6.331 -0.4481  0.8229 -0.0646
 7406SOL    HW133677   2.446   1.414   6.379 -1.4490 -1.5660  2.5047
 7406SOL    HW233678   2.470   1.258   6.368  1.9852  0.9317  1.5229
 7407SOL     OW33679   2.371   3.562   0.623  0.5044  0.2386  0.3365
 7407SOL    HW133680   2.333   3.641   0.586  0.6294 -0.5694 -1.5208
 7407SOL    HW233681   2.368   3.507   0.545 -4.3117  0.5936  0.2313
 7408SOL     OW33682   0.752   3.179   3.361 -0.1553 -0.5591  0.1448
 7408SOL    HW133683   0.667   3.155   3.325 -0.3681 -1.1065  1.0149
 7408SOL    HW233684   0.769   3.093   3.399  0.7389 -0.5435 -0.2136
 7409SOL     OW33685   2.457   0.476  13.071 -0.2547  0.5118  0.3751
 7409SOL    HW133686   2.411   0.395  13.089  1.1203 -0.5874 -1.0418
 7409SOL    HW233687   2.504   0.494  13.152  1.4999  0.1858 -0.5788
 7410SOL     OW33688   2.657   0.088   3.848 -0.0931  0.7869  0.0382
 7410SOL    HW133689   2.596   0.048   3.785  1.7903 -2.5496  0.3130
 7410SOL    HW233690   2.642   0.041   3.930  0.4170  0.4020 -0.0931
 7411SOL     OW33691   4.358   3.641   3.794  0.3344 -0.2684  0.1161
 7411SOL    HW133692   4.444   3.654   3.834  0.1073 -0.6174  0.7131
 7411SOL    HW233693   4.376   3.682   3.709  1.7255  2.1374  1.5555
 7412SOL     OW33694   3.646   1.782   2.168 -0.3770  0.0899 -0.0730
 7412SOL    HW133695   3.615   1.710   2.223 -0.5558 -0.6217 -1.1088
 7412SOL    HW233696   3.583   1.780   2.095 -2.6043 -0.2490  1.8439
 7413SOL     OW33697   0.137   0.732   3.533 -0.0834  0.0101 -0.5351
 7413SOL    HW133698   0.101   0.657   3.485  0.2731 -1.4473  1.4396
 7413SOL    HW233699   0.080   0.802   3.501 -0.9950 -1.1382 -1.4194
 7414SOL     OW33700   3.126   0.353   4.956  0.5151 -0.1515 -0.3417
 7414SOL    HW133701   3.140   0.437   4.912  1.5000  0.0920  0.4383
 7414SOL    HW233702   3.197   0.371   5.017  0.3712 -0.4116 -0.0990
 7415SOL     OW33703   3.873   1.241  15.349  0.1553  0.2513 -0.5324
 7415SOL    HW133704   3.812   1.211  15.417 -0.7992  0.4321 -1.3092
 7415SOL    HW233705   3.941   1.174  15.355 -1.8284 -1.9881 -2.9035
 7416SOL     OW33706   3.901   4.442  16.396  0.5387  0.0466 -0.5126
 7416SOL    HW133707   3.917   4.504  16.467  0.3817 -0.1339 -0.3210
 7416SOL    HW233708   3.972   4.378  16.392  0.6604  0.0389  1.9764
 7417SOL     OW33709   3.615   4.356  16.505  0.0856  0.0701 -0.1664
 7417SOL    HW133710   3.695   4.354  16.452 -0.6301 -1.0142 -1.1886
 7417SOL    HW233711   3.584   4.266  16.516  0.5159  0.0570  1.0264
 7418SOL     OW33712   2.428   0.625   3.617 -0.4356  0.0545  0.2744
 7418SOL    HW133713   2.398   0.576   3.693  0.4159  2.9582  2.4758
 7418SOL    HW233714   2.395   0.579   3.540  0.4407 -3.0319  1.7451
 7419SOL     OW33715   3.701   4.441   0.698  0.6489  0.1407  0.3350
 7419SOL    HW133716   3.781   4.486   0.669 -1.5089  1.7709 -3.0109
 7419SOL    HW233717   3.733   4.351   0.707 -0.6221 -0.4238 -0.8429
 7420SOL     OW33718   3.489   0.901   8.774 -0.1697  0.1550  0.3522
 7420SOL    HW133719   3.493   0.810   8.743 -0.1873 -0.1220  1.1730
 7420SOL    HW233720   3.443   0.892   8.858 -0.8197 -0.2849 -0.0462
 7421SOL     OW33721   2.228   4.320  12.925 -0.1612 -0.1793 -0.6299
 7421SOL    HW133722   2.147   4.272  12.908 -0.4600  0.6060 -1.4360
 7421SOL    HW233723   2.272   4.269  12.993  0.4212  2.4242  0.9797
 7422SOL     OW33724   1.633   1.402   8.815  0.1627  0.0274 -0.0533
 7422SOL    HW133725   1.710   1.346   8.806  0.3003  0.0568  0.9419
 7422SOL    HW233726   1.668   1.491   8.815 -1.2262  0.5792 -0.8943
 7423SOL     OW33727   3.209   1.848   9.122 -0.2364 -0.1492 -0.0254
 7423SOL    HW133728   3.240   1.937   9.136 -0.1450 -0.1605 -0.1571
 7423SOL    HW233729   3.145   1.830   9.191 -1.0583  0.5175 -0.6116
 7424SOL     OW33730   0.647   3.167   3.835  0.3412 -0.1645 -1.0392
 7424SOL    HW133731   0.571   3.121   3.800 -1.2984  1.5199  0.3421
 7424SOL    HW233732   0.658   3.121   3.918  0.8028  1.2384 -0.3301
 7425SOL     OW33733   0.901   2.922   4.185 -0.3970  0.2533 -0.5406
 7425SOL    HW133734   0.910   2.837   4.228  1.3584 -0.6364 -2.6918
 7425SOL    HW233735   0.970   2.979   4.220  0.0339 -0.1247 -0.7811
 7426SOL     OW33736   3.920   1.931  17.371  0.4629  0.5617  0.3107
 7426SOL    HW133737   3.854   1.993  17.400 -0.5681  1.0224 -3.0163
 7426SOL    HW233738   3.947   1.895  17.455  1.5039  0.3589 -0.1096
 7427SOL     OW33739   1.195   3.904   4.535  0.3578  0.0417 -0.0634
 7427SOL    HW133740   1.264   3.897   4.469 -0.6659  1.1829 -1.2656
 7427SOL    HW233741   1.124   3.867   4.482  1.5056  1.2865 -2.4772
 7428SOL     OW33742   3.291   2.857  15.101  0.1664  0.0375  0.1739
 7428SOL    HW133743   3.378   2.851  15.142  0.3716  1.9892  0.0395
 7428SOL    HW233744   3.260   2.768  15.112  1.9733 -0.6489 -0.2219
 7429SOL     OW33745   4.159   1.321   1.124 -0.7274  0.2268 -0.2172
 7429SOL    HW133746   4.165   1.230   1.093  0.4122  0.9443 -2.0903
 7429SOL    HW233747   4.070   1.349   1.101 -2.2223 -3.3720  1.0237
 7430SOL     OW33748   4.449   4.491   7.720  0.3015  0.1377  0.1641
 7430SOL    HW133749   4.369   4.526   7.761  0.3658  1.4354 -0.8086
 7430SOL    HW233750   4.494   4.451   7.793 -0.9571  1.8125  1.8627
 7431SOL     OW33751   1.254   3.449   8.525 -0.2664  0.0424 -0.3224
 7431SOL    HW133752   1.332   3.476   8.573 -0.8605  0.2464  0.5228
 7431SOL    HW233753   1.197   3.459   8.601 -1.3702  1.5690 -1.3401
 7432SOL     OW33754   1.919   0.943   7.009 -0.4922  0.0997  0.3042
 7432SOL    HW133755   1.912   0.856   7.048  2.1704  0.0198  0.5994
 7432SOL    HW233756   1.967   0.919   6.929  2.5954 -0.3835  2.3065
 7433SOL     OW33757   2.463   2.293  12.481  0.0506 -0.5531 -0.8715
 7433SOL    HW133758   2.371   2.267  12.470 -0.0425 -0.6548  0.1867
 7433SOL    HW233759   2.459   2.358  12.551  1.7959  1.7930 -2.9088
 7434SOL     OW33760   2.007   3.763   0.395  0.0651 -0.8149 -0.1444
 7434SOL    HW133761   2.060   3.690   0.365 -1.6508 -1.7979 -0.8129
 7434SOL    HW233762   2.079   3.804   0.442  1.1219 -0.4244 -2.1614
 7435SOL     OW33763   0.918   0.719   1.245  0.2280 -0.0926  0.0075
 7435SOL    HW133764   0.836   0.735   1.198  0.2579 -1.5378 -0.5602
 7435SOL    HW233765   0.957   0.641   1.205  0.1996 -0.8695  1.5049
 7436SOL     OW33766   1.328   1.746   0.866 -0.2017  0.6741 -0.1365
 7436SOL    HW133767   1.405   1.803   0.866  0.2249  0.0925 -2.1163
 7436SOL    HW233768   1.348   1.702   0.784 -0.6095 -0.9284  0.6210
 7437SOL     OW33769   3.783   1.251   6.144 -0.1597 -0.1419  0.2553
 7437SOL    HW133770   3.778   1.163   6.109  0.3005 -0.1106  0.1104
 7437SOL    HW233771   3.697   1.263   6.185  0.5180  1.7878  1.1433
 7438SOL     OW33772   3.419   0.515   7.107 -0.0021  0.2342 -0.3742
 7438SOL    HW133773   3.370   0.447   7.061 -2.9272  0.7911  1.8601
 7438SOL    HW233774   3.484   0.457   7.146 -0.6704  0.7914  1.5991
 7439SOL     OW33775   0.196   3.276   2.745 -0.6858  0.2911  0.7530
 7439SOL    HW133776   0.235   3.331   2.677  1.6528  0.1003  1.9283
 7439SOL    HW233777   0.266   3.274   2.810  0.9615  3.1082 -0.9329
 7440SOL     OW33778   0.575   1.595  14.385 -0.1371  0.0726  0.5924
 7440SOL    HW133779   0.509   1.664  14.390  0.9141  1.1645 -0.5516
 7440SOL    HW233780   0.653   1.651  14.391  0.4838 -0.5487 -1.7140
 7441SOL     OW33781   0.467   2.701   1.022  0.5590 -0.0759 -0.0635
 7441SOL    HW133782   0.375   2.709   0.996  0.3516  1.9393  1.3400
 7441SOL    HW233783   0.511   2.752   0.953  0.8431  0.5116  0.5539
 7442SOL     OW33784   1.519   0.987   4.667 -0.6711  0.0535  0.2127
 7442SOL    HW133785   1.438   0.969   4.715  0.7579 -0.4629  2.4457
 7442SOL    HW233786   1.579   0.920   4.700 -1.8825 -1.8974 -1.5523
 7443SOL     OW33787   1.382   2.311   3.996  1.2036 -0.2267  0.1485
 7443SOL    HW133788   1.333   2.275   3.922  1.4271  0.0998 -0.1578
 7443SOL    HW233789   1.452   2.246   4.002 -1.5998 -3.2562  0.0172
 7444SOL     OW33790   2.772   0.819   5.130  0.3758 -0.4499  0.7972
 7444SOL    HW133791   2.864   0.843   5.139  0.1346  1.0355 -0.7728
 7444SOL    HW233792   2.745   0.825   5.221  1.3227  2.9442  0.8697
 7445SOL     OW33793   1.877   3.788  11.756  0.0860 -0.0418  0.7953
 7445SOL    HW133794   1.952   3.751  11.803  1.5883  1.7128 -0.2194
 7445SOL    HW233795   1.825   3.836  11.821 -1.0464 -1.2030  0.7360
 7446SOL     OW33796   4.454   1.044   3.921  0.1941  0.4940 -0.2830
 7446SOL    HW133797   4.481   0.971   3.976 -0.5009 -0.2351 -0.9297
 7446SOL    HW233798   4.378   1.084   3.964  0.8263  1.0334  0.3302
 7447SOL     OW33799   0.337   1.393   5.139 -0.3116  0.1320 -0.0734
 7447SOL    HW133800   0.389   1.439   5.073 -1.9400 -0.5829 -1.8587
 7447SOL    HW233801   0.364   1.426   5.225  0.6459  0.6281 -0.5716
 7448SOL     OW33802   0.245   0.374   7.881  0.1171  0.6346 -0.4430
 7448SOL    HW133803   0.268   0.378   7.788  1.6196 -3.4217 -0.2685
 7448SOL    HW233804   0.304   0.444   7.908 -0.1010  0.4106  0.5867
 7449SOL     OW33805   0.525   1.953   4.545  0.1575  0.2151 -0.0682
 7449SOL    HW133806   0.591   1.919   4.484  2.3482 -0.6251  2.7307
 7449SOL    HW233807   0.446   1.903   4.525  1.9476 -0.8325 -4.4564
 7450SOL     OW33808   2.896   0.181   6.807 -0.0444 -0.4863 -0.9739
 7450SOL    HW133809   2.837   0.107   6.799 -0.0841 -0.7557  1.6162
 7450SOL    HW233810   2.972   0.134   6.843 -0.0113 -0.1605 -0.6121
 7451SOL     OW33811   2.768   1.235  10.770  0.0872  0.8284 -0.8215
 7451SOL    HW133812   2.745   1.230  10.677  1.5670 -1.0839 -1.0957
 7451SOL    HW233813   2.855   1.275  10.781  0.4294 -0.6364  1.8826
 7452SOL     OW33814   4.264   2.295   4.497 -0.0120  0.0012  0.7073
 7452SOL    HW133815   4.191   2.322   4.441 -0.8089 -1.5817  0.9832
 7452SOL    HW233816   4.303   2.383   4.503  1.6275 -0.6831  0.1854
 7453SOL     OW33817   2.797   4.343   8.160  0.1010  0.4075 -0.4297
 7453SOL    HW133818   2.775   4.254   8.133  1.3269 -0.0601  0.1250
 7453SOL    HW233819   2.709   4.379   8.173  0.4103  1.2006 -0.4929
 7454SOL     OW33820   2.821   1.987  10.278  0.1541  0.5996  0.0530
 7454SOL    HW133821   2.820   2.045  10.202 -0.1883 -1.7758 -1.7357
 7454SOL    HW233822   2.869   1.912  10.243  0.8238  0.7296  0.6826
 7455SOL     OW33823   1.519   2.486   3.845  0.2784  0.3081 -0.1219
 7455SOL    HW133824   1.554   2.406   3.806  1.3893  1.0923 -0.7149
 7455SOL    HW233825   1.457   2.454   3.910 -0.1082  1.1695 -0.0654
 7456SOL     OW33826   3.180   0.315   7.067  0.3286 -0.7363 -0.5379
 7456SOL    HW133827   3.149   0.225   7.056 -0.3943 -0.7401  1.5695
 7456SOL    HW233828   3.125   0.369   7.010  1.4988 -0.7185 -1.6325
 7457SOL     OW33829   2.276   4.078   5.817  0.1389  0.4590  0.1747
 7457SOL    HW133830   2.318   4.162   5.836 -0.0258  0.1120  2.1549
 7457SOL    HW233831   2.339   4.015   5.852  1.0471  1.3496  0.1348
 7458SOL     OW33832   2.734   2.259   6.812 -0.1334 -0.5786 -0.2183
 7458SOL    HW133833   2.775   2.240   6.727 -1.5140 -0.5751 -0.8877
 7458SOL    HW233834   2.799   2.209   6.863 -0.1396 -1.0134 -0.6335
 7459SOL     OW33835   2.206   2.317   7.903 -0.1688  0.0684  0.0664
 7459SOL    HW133836   2.185   2.243   7.845  0.5110  0.6366 -0.8907
 7459SOL    HW233837   2.122   2.356   7.927 -0.4118  0.0227 -0.6927
 7460SOL     OW33838   4.003   3.356   8.646 -0.4304 -0.4003  0.0552
 7460SOL    HW133839   3.934   3.401   8.694 -0.9210  0.6048 -1.5762
 7460SOL    HW233840   3.948   3.289   8.606 -0.8148 -1.2681  2.0570
 7461SOL     OW33841   0.912   0.636   0.492  0.4985  0.7179  0.3880
 7461SOL    HW133842   0.888   0.709   0.435 -0.4575 -0.3311 -0.5371
 7461SOL    HW233843   0.913   0.690   0.572 -0.4993 -0.1491  0.9845
 7462SOL     OW33844   1.280   2.378   2.747  0.6643  0.5056  0.4575
 7462SOL    HW133845   1.243   2.321   2.814 -0.3769  0.5946 -0.0288
 7462SOL    HW233846   1.300   2.320   2.674  0.5504  1.5916 -0.4461
 7463SOL     OW33847   2.603   1.811   2.680 -0.4917  0.6409  0.5612
 7463SOL    HW133848   2.679   1.837   2.628  0.6974  0.1393  2.0250
 7463SOL    HW233849   2.573   1.729   2.640  1.1114 -1.2721  3.2117
 7464SOL     OW33850   3.180   4.282   7.157 -0.5861 -0.4254  1.0970
 7464SOL    HW133851   3.092   4.282   7.120 -1.1701  2.0515  2.4878
 7464SOL    HW233852   3.237   4.275   7.080  0.1981 -0.2836  1.6707
 7465SOL     OW33853   2.573   3.807  15.181 -0.0061  0.3065 -0.0193
 7465SOL    HW133854   2.598   3.899  15.180 -0.3686  0.4015 -0.9091
 7465SOL    HW233855   2.632   3.764  15.242  0.7530  0.2289 -0.8043
 7466SOL     OW33856   1.119   4.282   4.109  0.7115 -0.3664 -0.0243
 7466SOL    HW133857   1.179   4.350   4.139  1.9579 -1.3507 -0.2383
 7466SOL    HW233858   1.066   4.263   4.186  1.1176  1.1950  0.6412
 7467SOL     OW33859   1.433   1.711   7.648 -0.5500 -0.2930  0.0870
 7467SOL    HW133860   1.341   1.718   7.672 -1.2842 -1.0347 -2.5790
 7467SOL    HW233861   1.473   1.716   7.735  0.2762  0.9236 -0.3722
 7468SOL     OW33862   1.596   3.309  13.635  0.0412  0.4892 -0.1645
 7468SOL    HW133863   1.516   3.360  13.645  0.1589  0.5851  0.2836
 7468SOL    HW233864   1.635   3.321  13.722  1.1835  0.1915 -0.6331
 7469SOL     OW33865   0.335   2.592   6.676  0.2437 -0.1936  0.0202
 7469SOL    HW133866   0.400   2.625   6.614  0.2100  0.7470  0.4743
 7469SOL    HW233867   0.354   2.499   6.669  2.9763  0.2295  1.8032
 7470SOL     OW33868   0.729   4.135   5.263  0.0579 -0.5395  0.3532
 7470SOL    HW133869   0.783   4.133   5.184 -1.3573 -1.3505 -0.5897
 7470SOL    HW233870   0.691   4.222   5.256 -1.3759 -1.3220 -1.2979
 7471SOL     OW33871   3.277   3.588   6.793  0.6258 -0.5190 -0.0424
 7471SOL    HW133872   3.333   3.538   6.733  0.1597 -1.1001  0.0035
 7471SOL    HW233873   3.329   3.573   6.872  1.5186 -1.0039 -0.7184
 7472SOL     OW33874   4.175   0.932   5.306 -0.1061 -0.2965  0.0006
 7472SOL    HW133875   4.261   0.927   5.347 -0.4478 -0.2177  0.7251
 7472SOL    HW233876   4.163   1.026   5.291  0.4189 -0.3089 -0.4952
 7473SOL     OW33877   4.589   4.201   5.094  0.0155 -0.4600 -0.4380
 7473SOL    HW133878   4.575   4.185   5.001 -1.0881  0.5663 -0.4439
 7473SOL    HW233879   4.618   4.291   5.082  1.3068 -0.4836  2.3486
 7474SOL     OW33880   2.602   3.674   1.753  0.2198 -0.1557 -0.1928
 7474SOL    HW133881   2.660   3.608   1.792 -0.2274  1.2629  2.8916
 7474SOL    HW233882   2.614   3.643   1.664 -2.7015  0.1512 -0.7017
 7475SOL     OW33883   2.464   2.403   1.367 -0.5986  0.0876 -0.1140
 7475SOL    HW133884   2.497   2.313   1.366  1.2092  0.7591  0.1237
 7475SOL    HW233885   2.410   2.393   1.288 -0.1139  2.0147 -0.6922
 7476SOL     OW33886   4.173   1.931   7.464 -0.3514 -0.0108 -0.1510
 7476SOL    HW133887   4.259   1.939   7.506 -0.4117  3.0362 -0.6156
 7476SOL    HW233888   4.174   1.841   7.432  0.0357  0.3912 -1.2593
 7477SOL     OW33889   1.130   3.272   0.402  0.1274 -0.1544  0.3863
 7477SOL    HW133890   1.220   3.271   0.370 -0.5053 -4.1074 -1.2695
 7477SOL    HW233891   1.138   3.218   0.480 -0.2873  0.7915  1.0788
 7478SOL     OW33892   1.284   0.568   0.014  0.1090 -0.3237  0.3233
 7478SOL    HW133893   1.227   0.597  17.646 -1.3039 -0.5874  1.3351
 7478SOL    HW233894   1.346   0.508  17.677  1.0482  0.5861  0.4086
 7479SOL     OW33895   4.527   2.893   6.721 -0.2890  0.1991 -0.9842
 7479SOL    HW133896   4.551   2.816   6.774  1.2463  0.2193 -1.6454
 7479SOL    HW233897   4.437   2.906   6.752  0.3924 -0.1435  1.1803
 7480SOL     OW33898   0.245   1.706   5.888  0.1249  0.4386 -0.1228
 7480SOL    HW133899   0.309   1.684   5.820 -0.2571 -0.5081 -0.1799
 7480SOL    HW233900   0.308   1.755   5.941  0.3323 -2.1159  2.0214
 7481SOL     OW33901   2.344   0.571   6.981  0.1170  0.2120 -0.4474
 7481SOL    HW133902   2.293   0.529   6.912 -0.7884 -1.6678  1.3537
 7481SOL    HW233903   2.337   0.515   7.059 -0.4347  0.2327 -0.4824
 7482SOL     OW33904   1.205   0.901  15.276 -0.5097 -0.5751  0.5231
 7482SOL    HW133905   1.212   0.984  15.228  0.5812 -0.1815  1.3518
 7482SOL    HW233906   1.200   0.842  15.201 -0.5943  3.2662 -2.5114
 7483SOL     OW33907   1.959   4.513  10.184 -0.0887  0.4425  0.2262
 7483SOL    HW133908   2.025   4.555  10.128  0.2947  1.7136  1.6224
 7483SOL    HW233909   1.901   4.473  10.119 -0.3193 -0.6319  1.1078
 7484SOL     OW33910   0.100   0.914   6.300  0.2603 -0.0614 -0.0176
 7484SOL    HW133911   0.107   0.996   6.347 -1.0054 -0.5463  1.0214
 7484SOL    HW233912   0.191   0.912   6.270 -0.4937 -0.7290 -2.2991
 7485SOL     OW33913   2.196   2.817   6.199  0.2252 -0.6070 -0.4055
 7485SOL    HW133914   2.282   2.844   6.231  0.0255 -0.5296  0.0628
 7485SOL    HW233915   2.186   2.872   6.121 -1.4987  0.4774  0.5756
 7486SOL     OW33916   1.918   0.726   5.663  0.7016 -0.5099 -0.2198
 7486SOL    HW133917   1.953   0.681   5.740 -2.2481 -0.2153  1.2719
 7486SOL    HW233918   1.879   0.648   5.624  0.4949  0.4701 -1.9866
 7487SOL     OW33919   0.898   2.223   7.384  0.4826  0.0868  0.7526
 7487SOL    HW133920   0.906   2.282   7.310 -1.0241 -1.5516 -0.7161
 7487SOL    HW233921   0.986   2.187   7.391  0.7150  0.5448  0.1190
 7488SOL     OW33922   2.643   4.220   4.531  0.6382  0.2139  0.6238
 7488SOL    HW133923   2.728   4.182   4.514 -0.1892 -0.8572 -1.0820
 7488SOL    HW233924   2.587   4.143   4.541  0.1052  0.2980 -1.6645
 7489SOL     OW33925   2.220   0.720   7.408 -0.8099 -0.2150  0.2598
 7489SOL    HW133926   2.296   0.725   7.350 -0.9132 -0.4268  0.1073
 7489SOL    HW233927   2.260   0.668   7.478  0.5670  1.8208  0.9876
 7490SOL     OW33928   2.203   2.007   4.190 -0.1259 -0.4109 -0.0360
 7490SOL    HW133929   2.229   1.998   4.099  0.1507 -1.5938  0.1597
 7490SOL    HW233930   2.194   2.102   4.187  0.6318 -0.3534 -0.3166
 7491SOL     OW33931   2.656   1.955   4.151  0.2740 -0.1228  0.1796
 7491SOL    HW133932   2.700   1.899   4.216 -0.0005  2.3007  2.4739
 7491SOL    HW233933   2.729   1.977   4.093 -1.9922 -1.1204 -3.0276
 7492SOL     OW33934   3.639   0.524   3.324  0.2052 -0.5820  0.2768
 7492SOL    HW133935   3.588   0.490   3.397 -0.2486 -1.2618 -0.3597
 7492SOL    HW233936   3.693   0.447   3.308  1.8916  0.4467  0.9867
 7493SOL     OW33937   1.024   2.939   3.809  0.4568 -0.5848 -0.0080
 7493SOL    HW133938   1.045   3.031   3.795  1.1955 -0.7067  0.2958
 7493SOL    HW233939   0.961   2.920   3.739 -0.9244  3.2208  0.1910
 7494SOL     OW33940   2.818   1.396   4.142  0.0845  0.4059 -0.0236
 7494SOL    HW133941   2.878   1.423   4.211  1.1451 -1.1995 -0.3096
 7494SOL    HW233942   2.839   1.305   4.118 -0.9787 -0.0218  0.6444
 7495SOL     OW33943   3.697   3.808   7.178  0.2284 -0.5279 -0.0837
 7495SOL    HW133944   3.707   3.771   7.091 -0.7542  1.4614 -1.0558
 7495SOL    HW233945   3.653   3.729   7.212  1.4718 -0.1730  2.3479
 7496SOL     OW33946   4.037   2.286   5.108  0.2258  0.0024 -0.7885
 7496SOL    HW133947   4.035   2.268   5.014  3.3308 -0.2570 -0.8121
 7496SOL    HW233948   4.129   2.261   5.118  0.5327  0.5100 -2.3217
 7497SOL     OW33949   4.036   2.228   5.430  0.5848 -0.4528 -0.3423
 7497SOL    HW133950   4.045   2.141   5.391 -0.7104 -1.5691  1.8460
 7497SOL    HW233951   4.013   2.224   5.523 -0.7586 -1.3614 -0.7100
 7498SOL     OW33952   1.616   4.166  10.088  0.5983 -0.2857  0.1358
 7498SOL    HW133953   1.635   4.104  10.017 -0.2877 -0.3640 -0.0289
 7498SOL    HW233954   1.619   4.244  10.033  1.9513 -2.6467 -3.1616
 7499SOL     OW33955   0.594   3.272   6.230  0.7836 -0.8449 -0.2487
 7499SOL    HW133956   0.671   3.250   6.178  0.2802 -0.8456 -0.9975
 7499SOL    HW233957   0.630   3.334   6.293  1.1353  0.9388 -2.1933
 7500SOL     OW33958   4.407   2.136   0.437 -0.5518 -0.3729  0.0552
 7500SOL    HW133959   4.475   2.129   0.370 -0.2136  3.0773  0.0155
 7500SOL    HW233960   4.443   2.198   0.501 -0.2624 -0.0299 -0.4389
 7501SOL     OW33961   1.161   4.507  13.717 -0.6288  0.1225  0.0821
 7501SOL    HW133962   1.230   4.505  13.784  1.0053 -0.2284 -1.6127
 7501SOL    HW233963   1.085   4.514  13.775  1.2041  1.3377  2.3522
 7502SOL     OW33964   1.588   4.100  15.412 -0.3865  0.0701  0.6195
 7502SOL    HW133965   1.628   4.102  15.499  1.4238 -1.1005 -0.1960
 7502SOL    HW233966   1.494   4.100  15.430 -1.0137 -1.6723 -2.6324
 7503SOL     OW33967   4.711   0.950   3.484 -0.6727 -0.0255  0.1442
 7503SOL    HW133968   4.707   0.982   3.574 -0.8060 -0.0059  0.1308
 7503SOL    HW233969   0.008   1.031   3.438  1.5290  0.5432  2.2504
 7504SOL     OW33970   0.099   0.732  13.296 -0.0229 -0.3972 -0.7822
 7504SOL    HW133971   0.035   0.736  13.225  0.0309 -1.6744 -0.9077
 7504SOL    HW233972   0.085   0.816  13.340  1.2576 -1.5577  1.8307
 7505SOL     OW33973   4.394   3.484   1.134 -0.6345  0.0795  0.3976
 7505SOL    HW133974   4.363   3.575   1.138 -0.7084  0.1164 -0.9312
 7505SOL    HW233975   4.364   3.459   1.047  0.6471 -1.2292  0.3329
 7506SOL     OW33976   4.484   4.232   8.359  0.2810  0.3606 -0.4144
 7506SOL    HW133977   4.454   4.292   8.290 -4.1823 -0.0972  1.1525
 7506SOL    HW233978   4.477   4.283   8.439 -1.6694 -0.9274  0.2331
 7507SOL     OW33979   4.693   4.039   3.648  0.1498 -0.0657  0.4095
 7507SOL    HW133980   4.621   4.031   3.586  0.7678 -1.8763 -0.0906
 7507SOL    HW233981   0.038   4.035   3.583  0.9422  3.6853  1.0905
 7508SOL     OW33982   2.315   0.732  10.715  0.0898  0.2469  0.1500
 7508SOL    HW133983   2.286   0.819  10.688  1.4865  0.0371 -1.9670
 7508SOL    HW233984   2.399   0.761  10.752 -0.1829  1.8959 -0.5308
 7509SOL     OW33985   2.757   1.382  10.416 -0.0844 -0.0252 -0.0588
 7509SOL    HW133986   2.710   1.309  10.455 -0.1887  1.3560  2.4007
 7509SOL    HW233987   2.733   1.457  10.471  0.0111 -0.0414  0.0049
 7510SOL     OW33988   3.808   3.456  16.291  0.7358 -0.0850  0.7666
 7510SOL    HW133989   3.829   3.525  16.228  0.0201 -1.8700 -1.4264
 7510SOL    HW233990   3.793   3.388  16.226  1.3515  0.1624  0.3710
 7511SOL     OW33991   3.642   1.464   3.938  0.5054 -0.3181  0.2761
 7511SOL    HW133992   3.737   1.456   3.938  0.5627  0.6761  2.5343
 7511SOL    HW233993   3.613   1.413   4.013  0.1499  0.5148  0.6984
 7512SOL     OW33994   3.590   1.045  11.060  0.0509  0.0805 -0.2900
 7512SOL    HW133995   3.588   1.106  11.134 -0.5894 -0.0453 -0.2028
 7512SOL    HW233996   3.515   0.986  11.067 -0.6038  1.1054  1.2985
 7513SOL     OW33997   1.302   3.388  12.150  0.2369  0.2026  0.2387
 7513SOL    HW133998   1.237   3.319  12.164 -0.2968  0.7979  0.6824
 7513SOL    HW233999   1.374   3.355  12.204 -0.4011 -1.7633 -0.1089
 7514SOL     OW34000   4.523   2.532  14.831 -0.1129  0.5725  0.4106
 7514SOL    HW134001   4.534   2.461  14.767  0.0335  1.3555 -0.4463
 7514SOL    HW234002   4.591   2.518  14.897 -0.7231  2.3162  1.3934
 7515SOL     OW34003   0.227   0.087  12.998 -0.6648 -0.4148 -0.2551
 7515SOL    HW134004   0.263   0.042  12.922  0.6608  1.6135 -0.7949
 7515SOL    HW234005   0.286   0.059  13.068  0.1275 -1.2647 -1.2855
 7516SOL     OW34006   0.716   0.322   3.649  0.5433  0.0884  0.2352
 7516SOL    HW134007   0.653   0.253   3.668  0.8493 -0.3750 -0.4185
 7516SOL    HW234008   0.781   0.271   3.601 -0.0781 -0.9098  0.4565
 7517SOL     OW34009   2.719   3.978   4.230  0.0233  0.1917 -0.3574
 7517SOL    HW134010   2.760   3.893   4.216  1.9130  1.0300  0.1146
 7517SOL    HW234011   2.783   4.023   4.285  2.0299 -3.4641  0.2459
 7518SOL     OW34012   3.294   3.192   0.864 -0.0148 -0.0603  0.0274
 7518SOL    HW134013   3.208   3.226   0.888 -0.2871 -0.0270 -0.9932
 7518SOL    HW234014   3.271   3.099   0.860  2.9725 -0.8062  0.3383
 7519SOL     OW34015   4.690   1.623  14.856  0.2709  0.3216 -0.1636
 7519SOL    HW134016   0.036   1.565  14.879  1.1353  2.2902  2.1534
 7519SOL    HW234017   4.621   1.601  14.918 -1.1016 -1.0668 -2.1866
 7520SOL     OW34018   4.666   2.241   5.516  0.6746  0.3582 -0.6371
 7520SOL    HW134019   4.639   2.226   5.426 -0.5722 -0.9501 -0.0616
 7520SOL    HW234020   4.578   2.247   5.556  0.4231  0.3817 -1.1999
 7521SOL     OW34021   0.862   3.223  17.542  0.5543 -0.0779  0.1900
 7521SOL    HW134022   0.835   3.136  17.513 -1.1509  0.9251 -1.2167
 7521SOL    HW234023   0.790   3.254  17.598 -0.7000 -0.4187 -1.2632
 7522SOL     OW34024   2.099   0.892  10.919  0.0293  0.4282 -0.4313
 7522SOL    HW134025   2.161   0.936  10.861  0.4420  1.9500  1.1599
 7522SOL    HW234026   2.061   0.832  10.855  1.4437 -0.4752 -0.4182
 7523SOL     OW34027   0.656   0.174   3.345 -0.6824  0.0751 -0.2408
 7523SOL    HW134028   0.609   0.251   3.315 -0.0483  0.9796  1.1207
 7523SOL    HW234029   0.632   0.111   3.276 -1.5455 -0.5100  0.5903
 7524SOL     OW34030   2.887   4.337   3.002  0.3108  0.1372  0.5800
 7524SOL    HW134031   2.941   4.260   3.020 -1.7504 -1.8502 -1.7218
 7524SOL    HW234032   2.904   4.336   2.908 -1.3060 -1.7235  0.3311
 7525SOL     OW34033   0.379   0.405   8.779  0.5819  0.0671  0.4992
 7525SOL    HW134034   0.453   0.396   8.839  1.4277 -0.8699 -0.6780
 7525SOL    HW234035   0.416   0.392   8.691 -0.6298  1.2694 -0.1814
 7526SOL     OW34036   0.107   4.226   6.421  0.1255  0.7013  0.0967
 7526SOL    HW134037   0.175   4.254   6.483  0.8054 -0.3447 -0.1861
 7526SOL    HW234038   0.136   4.278   6.345 -0.6088 -0.4219 -0.9474
 7527SOL     OW34039   1.161   2.003   0.850 -0.0209 -0.2396 -0.1552
 7527SOL    HW134040   1.108   2.067   0.896  0.2799 -0.6490  0.7499
 7527SOL    HW234041   1.238   2.060   0.852  0.8226 -1.2863 -2.0270
 7528SOL     OW34042   0.613   4.236   4.660  0.0576  0.3871  0.2150
 7528SOL    HW134043   0.675   4.190   4.716 -3.1971 -0.7604  2.8888
 7528SOL    HW234044   0.644   4.200   4.577 -0.2953  1.0163 -0.1996
 7529SOL     OW34045   4.204   0.837   2.859  0.4858 -0.4458 -0.3497
 7529SOL    HW134046   4.203   0.768   2.926  1.1697  1.9292  2.1370
 7529SOL    HW234047   4.249   0.900   2.914 -0.4173  1.0427 -1.3295
 7530SOL     OW34048   2.304   4.705   4.179  0.1857  0.0483 -0.0954
 7530SOL    HW134049   2.218   0.007   4.148 -0.1706  0.3405  1.1567
 7530SOL    HW234050   2.288   4.668   4.266  0.1526  1.7231  0.5930
 7531SOL     OW34051   4.103   1.763   0.679  0.3716  0.8083 -0.2245
 7531SOL    HW134052   4.156   1.841   0.692  0.8716  0.0307  2.5747
 7531SOL    HW234053   4.026   1.796   0.725  0.6102  1.7918 -0.5434
 7532SOL     OW34054   4.411   1.084   7.918 -1.0236  0.1435 -0.0524
 7532SOL    HW134055   4.331   1.130   7.943 -1.0723 -0.0747  0.1988
 7532SOL    HW234056   4.454   1.156   7.872 -1.2844  0.8202  0.7580
 7533SOL     OW34057   4.497   3.115   4.026  0.4087 -0.2280  0.1394
 7533SOL    HW134058   4.476   3.030   3.988 -0.2835  0.6207 -1.3492
 7533SOL    HW234059   4.411   3.142   4.057  0.7436  0.1958  0.7028
 7534SOL     OW34060   3.908   0.699   7.333  0.1162  0.0416 -0.5908
 7534SOL    HW134061   3.994   0.658   7.336 -1.3400 -2.8082  2.6029
 7534SOL    HW234062   3.912   0.728   7.241  0.2555 -2.4181 -1.3733
 7535SOL     OW34063   0.565   0.502  15.945 -0.6926 -0.6430 -0.1846
 7535SOL    HW134064   0.638   0.513  16.005 -1.1369 -1.0193  0.4201
 7535SOL    HW234065   0.565   0.407  15.952 -2.1684 -0.6740 -0.6695
 7536SOL     OW34066   2.648   1.188  16.389  0.0428  0.0794 -0.0497
 7536SOL    HW134067   2.643   1.099  16.354 -0.1166  0.6809 -1.5418
 7536SOL    HW234068   2.652   1.240  16.309 -1.9238  1.0265  0.4689
 7537SOL     OW34069   3.446   4.628   8.990  0.3490  0.3279 -0.0292
 7537SOL    HW134070   3.412   4.679   8.916 -0.1209  1.3688  0.9061
 7537SOL    HW234071   3.430   4.535   8.978  2.3539  0.0076 -0.3586
 7538SOL     OW34072   1.772   1.667   1.535 -0.0476 -0.4743 -0.4955
 7538SOL    HW134073   1.822   1.588   1.512  3.0958  1.3347  0.1599
 7538SOL    HW234074   1.839   1.728   1.564 -0.6393 -0.9096  1.8497
 7539SOL     OW34075   1.048   0.969  10.369 -0.2014 -0.0535  0.1689
 7539SOL    HW134076   1.087   0.952  10.455  0.1012  1.1810  0.2722
 7539SOL    HW234077   1.015   1.058  10.382 -1.3192 -0.5874  0.9821
 7540SOL     OW34078   2.144   4.205  16.990 -0.1219  0.3657  0.4924
 7540SOL    HW134079   2.139   4.109  16.992 -0.7224  0.4026  0.7476
 7540SOL    HW234080   2.117   4.215  16.899  0.4246  0.2611  0.3188
 7541SOL     OW34081   0.926   3.681  13.805  0.0392 -0.1836 -0.0711
 7541SOL    HW134082   0.889   3.599  13.837  0.0398  0.1284  0.7121
 7541SOL    HW234083   0.969   3.701  13.887  2.5906 -2.9085 -0.7588
 7542SOL     OW34084   1.827   2.264   6.962 -0.0490 -0.0060 -0.3833
 7542SOL    HW134085   1.758   2.293   6.902  1.4758  0.9306 -1.7039
 7542SOL    HW234086   1.797   2.173   6.964 -0.5054  0.1860  0.9935
 7543SOL     OW34087   0.382   1.688  17.125  0.5687 -0.3562 -0.0599
 7543SOL    HW134088   0.351   1.600  17.148  3.3874 -1.6067 -1.0103
 7543SOL    HW234089   0.471   1.661  17.100  0.2633 -1.5954  0.1646
 7544SOL     OW34090   2.090   0.951   7.427  0.1316  0.1836 -0.1551
 7544SOL    HW134091   2.139   0.868   7.420 -1.4575 -0.7038 -0.7901
 7544SOL    HW234092   2.014   0.951   7.369  0.9494 -1.3250 -1.2387
 7545SOL     OW34093   0.642   3.318  12.797 -0.0065 -0.5940  0.0407
 7545SOL    HW134094   0.552   3.292  12.818 -0.3678 -0.3114 -1.1858
 7545SOL    HW234095   0.641   3.414  12.804  0.6389 -0.5669 -0.2325
 7546SOL     OW34096   3.602   2.871  15.142 -0.4180  0.0582  0.3645
 7546SOL    HW134097   3.596   2.861  15.047 -0.9154  1.5634  0.2318
 7546SOL    HW234098   3.693   2.843  15.150 -1.0142 -2.0440 -0.3122
 7547SOL     OW34099   0.066   3.293   3.180 -0.1514  0.1653 -0.0455
 7547SOL    HW134100   0.005   3.325   3.114  1.9883 -1.7713 -2.9820
 7547SOL    HW234101   0.013   3.223   3.218 -0.8665  1.2529  0.9551
 7548SOL     OW34102   2.688   1.777  10.102 -0.2363  0.5660 -0.1129
 7548SOL    HW134103   2.745   1.704  10.079 -1.7360  0.1707 -2.5061
 7548SOL    HW234104   2.635   1.737  10.171  1.8130  1.2894  1.8750
 7549SOL     OW34105   1.776   2.006   7.041 -0.0219 -0.0120  0.5114
 7549SOL    HW134106   1.696   1.970   7.080 -0.6751  1.0700  0.1851
 7549SOL    HW234107   1.830   1.931   7.065 -0.1584  0.4394  2.1965
 7550SOL     OW34108   1.697   1.279   4.385  0.2760  0.4710 -0.2173
 7550SOL    HW134109   1.765   1.345   4.377 -1.0145  2.1432  2.6541
 7550SOL    HW234110   1.644   1.285   4.306  2.0139 -1.5094 -1.5357
 7551SOL     OW34111   2.524   2.651   5.057  0.1176  0.3710  1.1136
 7551SOL    HW134112   2.493   2.735   5.091  0.5926  1.5434 -1.3780
 7551SOL    HW234113   2.614   2.664   5.029 -0.1687  0.2183  0.1286
 7552SOL     OW34114   4.397   3.497   7.351  0.4439 -0.0060 -0.1313
 7552SOL    HW134115   4.405   3.560   7.422 -0.4245  0.0878 -0.1095
 7552SOL    HW234116   4.369   3.421   7.403  1.8994 -0.2854  0.2423
 7553SOL     OW34117   1.593   3.022   3.021 -0.1809  0.0746  0.1279
 7553SOL    HW134118   1.558   3.081   3.089 -3.8600  1.4480 -2.9808
 7553SOL    HW234119   1.604   2.944   3.076 -1.9346  1.3425  2.3148
 7554SOL     OW34120   0.757   1.536   3.410 -0.0851  0.4426 -0.1108
 7554SOL    HW134121   0.797   1.475   3.472 -0.9027  0.7086  0.6828
 7554SOL    HW234122   0.686   1.474   3.391 -0.3399  1.0040 -0.9604
 7555SOL     OW34123   0.741   3.692  11.360 -0.5763  0.5920  0.1419
 7555SOL    HW134124   0.711   3.746  11.287 -0.4018  0.2310 -0.1989
 7555SOL    HW234125   0.834   3.684  11.337 -0.2721  1.8101  0.9287
 7556SOL     OW34126   1.473   3.409   8.676  0.6253  0.6576 -0.2842
 7556SOL    HW134127   1.551   3.365   8.709 -0.3647 -1.0841 -0.2406
 7556SOL    HW234128   1.516   3.492   8.659 -1.4222  1.8905  0.5695
 7557SOL     OW34129   0.252   1.400  11.432  0.0383 -0.1695 -0.2627
 7557SOL    HW134130   0.284   1.376  11.345  1.5597  1.3812 -0.1373
 7557SOL    HW234131   0.238   1.314  11.471 -2.2187  0.3872  0.1538
 7558SOL     OW34132   1.535   0.797   7.376 -0.5991  0.1651 -0.1396
 7558SOL    HW134133   1.542   0.889   7.402 -0.1959  0.6987 -2.1181
 7558SOL    HW234134   1.535   0.804   7.281  0.8993  3.1019  0.0773
 7559SOL     OW34135   1.228   0.149  14.536  0.6498 -0.3002 -0.1692
 7559SOL    HW134136   1.180   0.075  14.499  2.0625 -1.1294 -0.3589
 7559SOL    HW234137   1.180   0.227  14.509  2.0921  0.4526 -0.5613
 7560SOL     OW34138   2.955   1.967   6.841  0.4327 -0.0694  0.2343
 7560SOL    HW134139   2.938   2.056   6.874 -1.3450 -0.9537  1.7214
 7560SOL    HW234140   2.865   1.938   6.826  0.5423 -0.2574 -0.0434
 7561SOL     OW34141   3.508   3.169  11.639 -0.8498  0.8845  0.1111
 7561SOL    HW134142   3.534   3.160  11.547  2.3839 -1.1395  1.2473
 7561SOL    HW234143   3.487   3.262  11.634  1.9759  1.5296  0.2890
 7562SOL     OW34144   3.914   2.407  13.774  0.3411 -0.0517 -0.9067
 7562SOL    HW134145   3.841   2.376  13.720 -1.2099 -0.2872  1.2949
 7562SOL    HW234146   3.994   2.380  13.730  0.2754 -0.5185 -0.7355
 7563SOL     OW34147   4.707   2.266   2.342 -1.2610  0.9372 -0.7841
 7563SOL    HW134148   4.625   2.289   2.299 -0.5605  3.5175 -0.7649
 7563SOL    HW234149   0.001   2.178   2.311 -0.6791  0.9860 -0.5416
 7564SOL     OW34150   0.731   3.865   3.260 -0.2004  0.1072 -0.3401
 7564SOL    HW134151   0.802   3.802   3.245  1.0471  0.9887  1.8021
 7564SOL    HW234152   0.781   3.941   3.288 -3.2226  1.1485  2.2642
 7565SOL     OW34153   0.991   4.566  13.911  0.1264  0.0230 -0.0027
 7565SOL    HW134154   0.994   4.595  14.002  1.1403 -1.8636  0.5604
 7565SOL    HW234155   0.935   4.632  13.871  0.2912  0.0572 -0.1782
 7566SOL     OW34156   0.076   2.967   7.161  0.9232 -0.8445 -0.1661
 7566SOL    HW134157   0.077   3.060   7.182 -3.3852 -0.3304 -2.2858
 7566SOL    HW234158   0.090   2.961   7.067  0.0171 -1.0921 -0.2850
 7567SOL     OW34159   0.102   1.035   8.572  1.2120  0.0793  0.8103
 7567SOL    HW134160   0.008   1.037   8.551  1.6306  0.3318 -1.0920
 7567SOL    HW234161   0.119   1.128   8.563  2.0903  0.0098  1.8291
 7568SOL     OW34162   1.553   3.072  16.856 -0.0503  0.3942 -0.0497
 7568SOL    HW134163   1.592   3.098  16.940  1.2685  0.7443 -0.7724
 7568SOL    HW234164   1.542   2.977  16.867  0.8131 -0.0265 -2.7468
 7569SOL     OW34165   0.832   1.935  16.669  0.3599 -0.0160  0.1309
 7569SOL    HW134166   0.889   1.894  16.605 -0.0879 -0.4894  0.0392
 7569SOL    HW234167   0.818   1.858  16.725  0.1693  0.3739  0.6221
 7570SOL     OW34168   1.109   3.387   2.943 -1.0751  0.1214  0.5102
 7570SOL    HW134169   1.042   3.376   3.010 -1.9887 -0.5545 -0.5171
 7570SOL    HW234170   1.165   3.310   2.947 -0.3843  0.6786  1.6588
 7571SOL     OW34171   2.246   2.150   2.278  0.0462  0.0998  0.3273
 7571SOL    HW134172   2.216   2.234   2.244 -0.2069 -0.4961 -0.9052
 7571SOL    HW234173   2.203   2.146   2.363  0.6173  1.2949  0.6723
 7572SOL     OW34174   3.557   3.607   4.558  0.6708 -0.5688  0.0035
 7572SOL    HW134175   3.523   3.566   4.638 -1.1870  1.2640  0.1365
 7572SOL    HW234176   3.627   3.666   4.588 -1.1079  1.6111 -0.1461
 7573SOL     OW34177   2.708   3.365   4.924  0.3911  0.2667  0.0423
 7573SOL    HW134178   2.768   3.437   4.947  1.2065  0.0718 -1.4592
 7573SOL    HW234179   2.728   3.353   4.831  1.1533  0.5085  0.1720
 7574SOL     OW34180   3.595   3.191  12.080 -0.1503  0.0506  0.0993
 7574SOL    HW134181   3.574   3.140  12.159  0.4431 -0.4853 -0.0915
 7574SOL    HW234182   3.581   3.279  12.115 -0.4480 -1.0644  2.8087
 7575SOL     OW34183   1.926   1.896   1.234 -0.6768  0.0028 -0.2039
 7575SOL    HW134184   1.831   1.895   1.223 -0.4094  2.8197 -2.7653
 7575SOL    HW234185   1.957   1.806   1.243  0.2398  0.3188 -0.1896
 7576SOL     OW34186   0.447   3.531  16.730 -0.1633  0.0188  0.6687
 7576SOL    HW134187   0.411   3.496  16.812 -0.8933 -2.0859 -0.5336
 7576SOL    HW234188   0.362   3.526  16.686 -1.7799 -0.7135  3.8347
 7577SOL     OW34189   0.811   0.159   1.321 -0.2700 -0.6202 -1.0074
 7577SOL    HW134190   0.884   0.112   1.361 -0.5057 -0.0078  0.1342
 7577SOL    HW234191   0.836   0.149   1.229 -1.6122  0.3131 -1.4609
 7578SOL     OW34192   4.704   1.440  13.199 -0.1761  0.2764 -0.2572
 7578SOL    HW134193   4.664   1.432  13.286  0.8574 -0.1343  0.1827
 7578SOL    HW234194   0.027   1.358  13.194  1.0174  1.0384 -1.2185
 7579SOL     OW34195   3.615   0.577  10.157  0.1059  0.0692  0.2600
 7579SOL    HW134196   3.549   0.510  10.172 -1.1154  1.2928  0.4071
 7579SOL    HW234197   3.559   0.632  10.102  0.3439  1.1782  1.1136
 7580SOL     OW34198   3.942   4.261   9.995  0.1488 -0.1028 -0.2428
 7580SOL    HW134199   3.867   4.210  10.026 -0.9640  0.7072 -1.5879
 7580SOL    HW234200   3.892   4.315   9.933 -0.1327 -0.0725  0.0077
 7581SOL     OW34201   3.566   4.034  10.425 -0.4403  0.8456 -0.0298
 7581SOL    HW134202   3.593   4.123  10.449 -0.9233  1.0117 -0.0937
 7581SOL    HW234203   3.516   4.014  10.504 -1.4578  0.9916 -0.6356
 7582SOL     OW34204   2.154   3.935   5.488 -0.4194 -0.3957 -0.1149
 7582SOL    HW134205   2.135   4.014   5.539  0.0878 -1.5769  1.9161
 7582SOL    HW234206   2.070   3.896   5.511  0.0345  0.0446  2.3288
 7583SOL     OW34207   1.074   1.324   8.151 -0.1327 -0.5208  0.0360
 7583SOL    HW134208   1.137   1.253   8.141 -1.5169 -1.7394 -0.0233
 7583SOL    HW234209   1.032   1.306   8.067 -1.1781 -1.9263  0.8572
 7584SOL     OW34210   3.255   0.076   3.473  0.5924  0.4865 -0.7049
 7584SOL    HW134211   3.279   4.710   3.461  0.3067  0.7234 -3.1740
 7584SOL    HW234212   3.328   0.118   3.428 -0.9985  1.2498 -2.6041
 7585SOL     OW34213   3.611   1.965  10.293 -0.2657 -0.9921  0.2127
 7585SOL    HW134214   3.649   1.880  10.271  0.2541 -0.1622 -2.0320
 7585SOL    HW234215   3.682   2.028  10.279 -1.1138  0.2333  1.4716
 7586SOL     OW34216   2.917   2.583   6.942  0.2049  0.3948  0.3508
 7586SOL    HW134217   2.835   2.568   6.896  0.8185 -1.0624 -0.2838
 7586SOL    HW234218   2.905   2.518   7.011 -2.9380  0.7806  0.1391
 7587SOL     OW34219   3.232   1.280   8.013 -0.6622 -0.1076 -0.4602
 7587SOL    HW134220   3.278   1.294   8.096 -0.7866 -1.1469 -0.2227
 7587SOL    HW234221   3.292   1.320   7.949 -0.0256 -0.0950  0.1439
 7588SOL     OW34222   3.437   2.172   2.041 -0.0275  0.1997 -0.2745
 7588SOL    HW134223   3.525   2.148   2.011  1.0712 -0.5914  3.6397
 7588SOL    HW234224   3.462   2.222   2.118  0.2694  1.5051 -1.2163
 7589SOL     OW34225   1.297   0.039   4.309 -0.2707 -0.9158  0.1500
 7589SOL    HW134226   1.250   0.078   4.383 -0.7333 -0.8168 -0.1950
 7589SOL    HW234227   1.361   0.105   4.284 -1.1258 -0.6493 -1.3299
 7590SOL     OW34228   1.088   0.202   4.151  0.0361 -0.2700  0.0357
 7590SOL    HW134229   1.115   0.117   4.185 -0.3649  0.1674  1.4673
 7590SOL    HW234230   1.156   0.215   4.085  1.0184 -0.0282  1.0798
 7591SOL     OW34231   0.795   3.928  11.247 -0.4603 -0.2093 -0.0821
 7591SOL    HW134232   0.788   3.876  11.167 -0.2104  0.8049 -0.7772
 7591SOL    HW234233   0.805   4.018  11.214 -4.0411  1.0424  2.2817
 7592SOL     OW34234   1.665   1.148   0.208  0.1602  0.5537 -0.0414
 7592SOL    HW134235   1.708   1.204   0.144 -0.1579 -0.0305 -0.7631
 7592SOL    HW234236   1.574   1.168   0.189 -0.0768  0.2306  0.7381
 7593SOL     OW34237   4.480   3.819   1.445 -0.0722 -0.4444  0.0648
 7593SOL    HW134238   4.552   3.783   1.497  1.0059  0.1636 -1.0388
 7593SOL    HW234239   4.422   3.743   1.461  0.8376 -1.8880 -3.5977
 7594SOL     OW34240   2.773   2.993   1.863 -0.2964  0.2979 -0.2980
 7594SOL    HW134241   2.707   3.040   1.915 -1.4419 -0.0319 -1.4736
 7594SOL    HW234242   2.736   2.985   1.776 -0.8297  0.9379 -0.1256
 7595SOL     OW34243   4.607   0.712   4.454  0.3043  0.3045  0.2528
 7595SOL    HW134244   4.643   0.772   4.389  2.0232  0.5579  1.4461
 7595SOL    HW234245   4.603   0.634   4.400 -0.0692  0.5897 -0.1338
 7596SOL     OW34246   4.687   4.586   6.217  0.4894 -0.3926 -0.1548
 7596SOL    HW134247   0.020   4.658   6.237 -2.4784  1.9174  0.2901
 7596SOL    HW234248   0.012   4.548   6.145  1.0337 -1.9762  1.0631
 7597SOL     OW34249   3.863   2.768   2.260 -0.1191  0.0218 -0.2323
 7597SOL    HW134250   3.948   2.725   2.260  0.4687  1.2048  1.2660
 7597SOL    HW234251   3.810   2.707   2.310 -1.1524  0.5740 -0.6419
 7598SOL     OW34252   2.595   3.613  11.315 -0.3568  0.1553 -0.5754
 7598SOL    HW134253   2.650   3.648  11.384 -0.8560 -0.1429 -0.0308
 7598SOL    HW234254   2.655   3.553  11.270 -1.0482 -0.7358 -0.3218
 7599SOL     OW34255   1.470   4.646  17.489 -0.0960 -0.1678 -0.4145
 7599SOL    HW134256   1.497   4.709  17.556  1.6038 -1.8285  0.4797
 7599SOL    HW234257   1.462   4.569  17.545 -0.8906  0.0818 -0.1845
 7600SOL     OW34258   3.374   0.237   3.064  0.0002 -0.5668  0.3518
 7600SOL    HW134259   3.390   0.331   3.064 -0.0518 -0.5540  1.3465
 7600SOL    HW234260   3.279   0.223   3.073 -0.1663 -0.7296 -1.7398
 7601SOL     OW34261   4.070   3.721   2.145 -0.2516  0.6579  0.3819
 7601SOL    HW134262   4.060   3.677   2.229 -1.1587  1.9991  0.9788
 7601SOL    HW234263   4.151   3.679   2.116 -0.7450 -0.8885  1.2395
 7602SOL     OW34264   3.872   1.880   6.704 -0.0631  0.5650 -0.0984
 7602SOL    HW134265   3.850   1.961   6.658  0.8315 -0.1113 -1.7503
 7602SOL    HW234266   3.819   1.822   6.649 -1.0673  2.1295 -0.7775
 7603SOL     OW34267   3.334   1.972   0.875  0.1914  0.1226 -0.5129
 7603SOL    HW134268   3.330   2.015   0.789 -0.5827 -0.6766 -0.8833
 7603SOL    HW234269   3.420   2.004   0.901  0.3577  1.5467 -2.8011
 7604SOL     OW34270   1.405   4.327   6.350 -0.5637 -0.4689  0.5240
 7604SOL    HW134271   1.392   4.367   6.264  1.5991 -0.3286  0.2539
 7604SOL    HW234272   1.321   4.283   6.362 -0.7113  0.1583  1.8137
 7605SOL     OW34273   1.694   2.297   2.831  0.4488 -0.7127 -0.0872
 7605SOL    HW134274   1.647   2.373   2.797  0.1854 -1.3474 -1.1298
 7605SOL    HW234275   1.657   2.299   2.919 -0.4764 -1.3354 -0.4678
 7606SOL     OW34276   3.216   1.990   1.323 -0.0046 -0.0843  0.0743
 7606SOL    HW134277   3.288   1.950   1.274  0.3561 -0.8903  1.2623
 7606SOL    HW234278   3.155   1.916   1.327  1.0106 -1.0645 -2.5032
 7607SOL     OW34279   2.628   1.904  10.452 -0.2751 -0.6808 -0.2278
 7607SOL    HW134280   2.550   1.952  10.425  1.7800  2.0330 -1.3926
 7607SOL    HW234281   2.687   1.924  10.380  0.1569  0.9471  0.5719
 7608SOL     OW34282   2.468   2.761   8.547 -0.2743 -0.0136 -0.3818
 7608SOL    HW134283   2.474   2.783   8.640 -1.2368 -2.8888  0.3593
 7608SOL    HW234284   2.462   2.668   8.568 -0.9376  0.2403  0.5782
 7609SOL     OW34285   2.997   4.674   3.973  0.0167 -0.5086  0.3414
 7609SOL    HW134286   2.975   0.019   3.913  1.9973 -0.1502  0.0108
 7609SOL    HW234287   2.967   4.718   4.053 -1.4803 -1.1196  0.0971
 7610SOL     OW34288   3.517   2.088   6.418  0.0427  0.1393  0.1381
 7610SOL    HW134289   3.513   2.183   6.412 -1.5510 -0.1137 -2.8255
 7610SOL    HW234290   3.422   2.076   6.418  0.1045 -0.3625 -0.2895
 7611SOL     OW34291   3.592   4.325   6.429 -0.0204 -0.7835 -0.0548
 7611SOL    HW134292   3.556   4.239   6.408 -1.4786 -0.6705  2.0270
 7611SOL    HW234293   3.665   4.314   6.368 -1.7838 -0.3347 -2.2456
 7612SOL     OW34294   3.962   0.815   0.429  0.0442  0.5218 -0.2446
 7612SOL    HW134295   3.904   0.891   0.430 -1.3087 -0.5181 -1.6880
 7612SOL    HW234296   3.943   0.774   0.344 -2.2592  1.2263 -0.0580
 7613SOL     OW34297   3.570   3.137   3.431  0.2247 -0.5150 -0.0954
 7613SOL    HW134298   3.493   3.179   3.470  0.5838  2.0704 -2.1329
 7613SOL    HW234299   3.561   3.154   3.337  1.4597  0.2160 -0.0922
 7614SOL     OW34300   0.810   3.723   4.030  0.2719 -0.2427 -0.4352
 7614SOL    HW134301   0.787   3.806   3.989  1.7099  0.7008  0.6763
 7614SOL    HW234302   0.719   3.709   4.058  0.9358 -2.6225  0.4789
 7615SOL     OW34303   4.090   4.624  12.047 -0.1562 -0.0702 -0.0073
 7615SOL    HW134304   4.100   4.667  12.132 -1.9428  0.8496 -0.2378
 7615SOL    HW234305   4.184   4.620  12.030 -0.4127  0.5116 -1.5696
 7616SOL     OW34306   3.825   0.861   7.999 -0.3264  0.4372  0.0218
 7616SOL    HW134307   3.790   0.834   7.914 -0.2964 -1.4731  0.6237
 7616SOL    HW234308   3.892   0.794   8.011 -1.8912 -0.9716  0.8848
 7617SOL     OW34309   1.677   2.878  16.043 -0.4398 -0.5272 -0.3476
 7617SOL    HW134310   1.682   2.962  16.089 -1.3934 -1.0894  0.8145
 7617SOL    HW234311   1.623   2.895  15.966 -0.8827  1.3993  0.3820
 7618SOL     OW34312   3.009   2.781   5.384  0.0280  0.0735  0.0891
 7618SOL    HW134313   3.085   2.738   5.423  0.1798 -1.8111 -2.2226
 7618SOL    HW234314   2.956   2.794   5.462  0.3391  0.0300  0.3043
 7619SOL     OW34315   0.281   2.687   4.647  0.2743 -0.1804 -0.6246
 7619SOL    HW134316   0.299   2.722   4.734 -4.5775 -0.7139  0.6145
 7619SOL    HW234317   0.254   2.599   4.673 -2.0862  0.4596 -0.9129
 7620SOL     OW34318   3.937   4.108   7.425  0.5148  0.1445  0.3612
 7620SOL    HW134319   3.988   4.124   7.505  0.0638 -1.4907  0.9619
 7620SOL    HW234320   3.996   4.146   7.359  0.7812  0.8301  0.9971
 7621SOL     OW34321   4.250   3.314   5.845 -0.7620 -0.8027  0.2651
 7621SOL    HW134322   4.281   3.404   5.843  1.8215 -1.6720  2.0046
 7621SOL    HW234323   4.198   3.315   5.926 -1.1584 -1.8625  0.0349
 7622SOL     OW34324   0.750   0.009   5.398 -0.0613  0.1985 -0.1590
 7622SOL    HW134325   0.818   0.075   5.412  0.3906  0.0343 -1.5886
 7622SOL    HW234326   0.758   0.003   5.303 -1.1577  0.3436 -0.2592
 7623SOL     OW34327   0.921   3.256   8.386  0.5382  0.3645 -0.2549
 7623SOL    HW134328   0.959   3.315   8.451 -1.5764  1.4303 -0.0125
 7623SOL    HW234329   0.870   3.197   8.440 -1.0139  1.5879 -0.3859
 7624SOL     OW34330   3.717   1.930   8.970 -0.6198 -0.0168 -0.1920
 7624SOL    HW134331   3.652   1.862   8.987  1.5283 -1.7919  0.9508
 7624SOL    HW234332   3.738   1.924   8.877  0.4938  2.2565 -0.0776
 7625SOL     OW34333   1.856   4.241  11.533 -0.1261  0.5535 -0.3388
 7625SOL    HW134334   1.928   4.226  11.472 -1.5313 -1.8612 -1.4104
 7625SOL    HW234335   1.910   4.269  11.606 -1.3179  0.8707  0.4202
 7626SOL     OW34336   1.736   0.409   4.610  0.0217 -0.2244 -0.0032
 7626SOL    HW134337   1.648   0.425   4.576  1.0323 -1.2391 -3.1171
 7626SOL    HW234338   1.721   0.324   4.651 -0.7585  0.8936  2.0205
 7627SOL     OW34339   3.033   2.884   6.067 -0.5398 -0.3124 -0.7488
 7627SOL    HW134340   2.992   2.920   6.146 -0.2959  1.7155 -1.5213
 7627SOL    HW234341   2.988   2.940   6.004  1.6625  2.6401  0.2692
 7628SOL     OW34342   2.550   3.362   0.758 -0.0581  0.0490  0.4777
 7628SOL    HW134343   2.466   3.405   0.744 -0.0779  0.0162  0.4964
 7628SOL    HW234344   2.527   3.340   0.848  1.7513 -0.7659  0.7522
 7629SOL     OW34345   4.452   2.803  13.239  0.2466 -0.0273  0.3109
 7629SOL    HW134346   4.432   2.735  13.303 -1.3518 -0.7969 -1.0235
 7629SOL    HW234347   4.541   2.785  13.207  0.3528 -0.9119  1.1008
 7630SOL     OW34348   2.508   3.456   7.477  0.0817  0.2450  0.4243
 7630SOL    HW134349   2.600   3.447   7.453 -0.1682  0.5125 -0.6274
 7630SOL    HW234350   2.458   3.449   7.396 -1.7711  1.9625  1.3998
 7631SOL     OW34351   0.327   3.405   4.527 -0.4579 -0.0241 -0.3258
 7631SOL    HW134352   0.317   3.310   4.537  0.6724 -0.0112  1.0328
 7631SOL    HW234353   0.277   3.422   4.607  1.2402  0.2926  0.6777
 7632SOL     OW34354   1.868   3.884   9.231 -0.0747  0.6601 -0.0490
 7632SOL    HW134355   1.853   3.850   9.319  0.8388 -0.9335 -0.5069
 7632SOL    HW234356   1.834   3.807   9.185  1.7599  0.5828 -1.2785
 7633SOL     OW34357   1.939   0.761  11.374  0.1420  0.1626 -0.1964
 7633SOL    HW134358   1.964   0.735  11.286 -1.6653 -1.9401 -0.0913
 7633SOL    HW234359   1.946   0.856  11.359 -1.9316  0.3227 -0.1948
 7634SOL     OW34360   0.199   3.479   0.017  0.3156 -0.2658 -0.1115
 7634SOL    HW134361   0.293   3.496   0.019 -0.3626  3.3995 -0.0596
 7634SOL    HW234362   0.170   3.570   0.023  0.6312 -0.1958  0.3616
 7635SOL     OW34363   3.538   0.432   5.661 -0.1201  0.0491  0.7816
 7635SOL    HW134364   3.566   0.508   5.713 -0.3732  1.6398 -1.3880
 7635SOL    HW234365   3.451   0.449   5.624  1.1054  1.1442 -1.6359
 7636SOL     OW34366   3.399   0.075   4.512 -0.0900  0.4020 -0.0462
 7636SOL    HW134367   3.392   4.715   4.468  2.3528 -0.3276  0.9847
 7636SOL    HW234368   3.493   0.092   4.507 -0.5275  2.8941  0.5307
 7637SOL     OW34369   4.643   0.382   1.367 -0.3786 -0.0868  0.0771
 7637SOL    HW134370   0.008   0.385   1.397  0.4704  0.5301 -2.5502
 7637SOL    HW234371   4.613   0.471   1.382  2.0322  0.8752 -0.8838
 7638SOL     OW34372   0.411   2.576   1.302  0.6530 -0.4052  0.4565
 7638SOL    HW134373   0.498   2.544   1.325  0.0107 -0.7941  2.3280
 7638SOL    HW234374   0.423   2.640   1.231 -0.1064 -1.5427 -0.7012
 7639SOL     OW34375   4.642   0.964   9.790  0.3637  0.1974  0.6287
 7639SOL    HW134376   4.661   0.872   9.807 -0.1319 -0.2240 -1.1052
 7639SOL    HW234377   4.720   1.013   9.815 -1.7864  2.9799  1.8304
 7640SOL     OW34378   1.002   2.219   4.566  0.1104 -0.5481 -0.3045
 7640SOL    HW134379   1.003   2.198   4.472  1.9698  1.1302 -0.6556
 7640SOL    HW234380   0.923   2.171   4.589  0.3195 -1.6713 -1.9153
 7641SOL     OW34381   2.364   3.333   8.268 -0.3078 -0.1857  0.7578
 7641SOL    HW134382   2.311   3.351   8.191 -0.1751  1.6013  1.0962
 7641SOL    HW234383   2.306   3.285   8.327  0.2343 -2.5096 -0.5917
 7642SOL     OW34384   4.080   0.158   8.987  0.0607  0.3874 -0.0006
 7642SOL    HW134385   4.094   0.193   9.075  1.7947 -2.6429  0.9161
 7642SOL    HW234386   4.016   0.222   8.954 -0.3466  0.5424  1.0702
 7643SOL     OW34387   0.244   1.270   9.138  0.0495 -0.1036  0.0600
 7643SOL    HW134388   0.193   1.340   9.097  0.6959  0.7921  0.7794
 7643SOL    HW234389   0.306   1.320   9.192 -0.6671 -3.0113  3.5652
 7644SOL     OW34390   2.711   3.646   2.973  0.0889  0.2859 -0.0241
 7644SOL    HW134391   2.694   3.607   2.887 -0.8088 -1.7292  1.0606
 7644SOL    HW234392   2.626   3.638   3.016 -1.1148  0.2997 -2.3576
 7645SOL     OW34393   0.581   1.985   6.489 -0.2342 -0.4469  0.1754
 7645SOL    HW134394   0.610   2.076   6.501  0.2940 -0.7629  1.3161
 7645SOL    HW234395   0.658   1.951   6.444 -0.2060 -0.7999  0.4912
 7646SOL     OW34396   3.659   4.695  13.136  0.2103  0.3222 -0.1513
 7646SOL    HW134397   3.679   4.613  13.180 -0.4497  0.7140  0.8833
 7646SOL    HW234398   3.741   0.017  13.148  0.7394 -0.5115 -0.5028
 7647SOL     OW34399   4.639   4.700  13.772  0.1267  0.4187  0.3817
 7647SOL    HW134400   4.547   4.715  13.749  0.0369 -0.3072  0.2695
 7647SOL    HW234401   4.667   4.726  13.684 -0.3089  1.5101  0.5557
 7648SOL     OW34402   2.011   0.623  13.663 -0.0146 -0.2293 -0.2166
 7648SOL    HW134403   2.034   0.677  13.587 -1.3895  0.6729  0.0091
 7648SOL    HW234404   1.996   0.681  13.737 -1.8416 -1.3088  0.2550
 7649SOL     OW34405   2.547   2.370   4.572 -0.3463 -0.1199  0.6291
 7649SOL    HW134406   2.524   2.438   4.509  2.0523 -0.0721 -0.2048
 7649SOL    HW234407   2.556   2.426   4.649  1.9863  0.5309 -0.1040
 7650SOL     OW34408   2.709   3.308   9.638  0.3275 -0.1664  0.3302
 7650SOL    HW134409   2.733   3.346   9.722 -0.3596  3.5909 -1.1715
 7650SOL    HW234410   2.714   3.215   9.660 -1.4355 -0.4205 -0.3544
 7651SOL     OW34411   3.862   1.871   7.485  0.7562 -0.4520 -0.8327
 7651SOL    HW134412   3.955   1.891   7.474  1.2320 -1.2797  1.7396
 7651SOL    HW234413   3.818   1.880   7.401  0.4594  2.5637 -0.3685
 7652SOL     OW34414   0.836   3.816   5.065 -0.2661 -0.3141  0.4358
 7652SOL    HW134415   0.837   3.725   5.096 -1.7653 -0.4594  0.0308
 7652SOL    HW234416   0.870   3.806   4.976  0.4073  1.4213  0.4941
 7653SOL     OW34417   2.633   0.345  12.034  0.2083 -0.0092  0.1710
 7653SOL    HW134418   2.629   0.261  11.990 -0.3027 -0.4430  1.0422
 7653SOL    HW234419   2.561   0.396  11.997  0.7979 -1.5910 -3.1505
 7654SOL     OW34420   0.967   0.376   1.832 -0.4425 -0.2915 -0.1787
 7654SOL    HW134421   0.906   0.343   1.766 -0.5101  3.9694 -2.2658
 7654SOL    HW234422   1.025   0.432   1.780  1.8114 -2.0511  0.4019
 7655SOL     OW34423   3.680   0.808   2.763 -0.3770 -0.0752  0.0369
 7655SOL    HW134424   3.720   0.769   2.685 -0.6292 -0.9053  0.3240
 7655SOL    HW234425   3.587   0.807   2.744 -0.0184  2.4742 -1.8324
 7656SOL     OW34426   1.953   4.009   7.080  0.6237 -0.1704 -0.0987
 7656SOL    HW134427   1.931   3.973   7.166  0.8940  0.3969  0.2090
 7656SOL    HW234428   1.977   4.100   7.096  1.7960  0.1372 -3.6380
 7657SOL     OW34429   2.169   3.680   7.320  0.2631  0.2224 -0.3529
 7657SOL    HW134430   2.248   3.628   7.305  0.5132 -0.2150  2.4766
 7657SOL    HW234431   2.110   3.627   7.374  0.2757  0.9374  0.3654
 7658SOL     OW34432   4.588   2.569  14.248 -0.0780  0.4672  0.2045
 7658SOL    HW134433   4.574   2.576  14.153  0.3331 -2.2271 -0.0443
 7658SOL    HW234434   4.527   2.635  14.283 -1.0610 -1.1750  1.5834
 7659SOL     OW34435   4.207   3.067   6.588 -0.5550  0.1654  0.0438
 7659SOL    HW134436   4.219   2.973   6.586 -1.9418 -0.1389  5.1751
 7659SOL    HW234437   4.129   3.070   6.531 -0.1254 -0.2087 -0.5569
 7660SOL     OW34438   2.600   1.310   9.244 -0.6325 -0.0618 -0.2229
 7660SOL    HW134439   2.522   1.340   9.291 -1.9971  1.6884 -3.6371
 7660SOL    HW234440   2.614   1.225   9.286  0.3784  0.5440  0.6498
 7661SOL     OW34441   0.652   0.367   6.981  0.3924 -0.0997 -0.1805
 7661SOL    HW134442   0.587   0.362   6.911 -1.0218  0.2036  1.1243
 7661SOL    HW234443   0.663   0.462   6.990 -1.5632  0.1271 -0.3348
 7662SOL     OW34444   1.964   0.186   8.605  0.4531  0.5017 -0.5040
 7662SOL    HW134445   2.007   0.239   8.538  1.9106 -0.3288 -0.2277
 7662SOL    HW234446   1.964   0.247   8.679  0.3096  0.8703 -0.8060
 7663SOL     OW34447   2.762   2.791  16.148 -0.0501  0.7652 -0.4596
 7663SOL    HW134448   2.674   2.812  16.180 -0.9146 -2.4252 -0.7457
 7663SOL    HW234449   2.777   2.697  16.162 -0.7226  0.6958 -0.1952
 7664SOL     OW34450   4.254   3.628  10.598 -0.4698  0.3934 -0.3663
 7664SOL    HW134451   4.234   3.588  10.513  0.6374  1.2510 -1.0243
 7664SOL    HW234452   4.244   3.562  10.667  1.4560 -0.2251 -0.6767
 7665SOL     OW34453   4.197   1.948   2.082 -0.0596  0.1373  0.1677
 7665SOL    HW134454   4.209   1.883   2.012 -0.7832 -0.3752  0.5165
 7665SOL    HW234455   4.178   2.025   2.028  3.4136 -0.1042 -1.3968
 7666SOL     OW34456   1.260   0.469   0.668  0.2102 -0.1490  0.0174
 7666SOL    HW134457   1.200   0.480   0.743 -0.9411  1.1366 -1.0951
 7666SOL    HW234458   1.196   0.452   0.599 -0.6959 -1.1090  1.0757
 7667SOL     OW34459   3.317   1.566   9.758 -0.0539  0.4390  0.5299
 7667SOL    HW134460   3.375   1.512   9.811  0.4712 -2.1318 -2.6414
 7667SOL    HW234461   3.370   1.642   9.730  1.3611 -1.3668 -1.7005
 7668SOL     OW34462   4.265   1.168   5.181  0.2117 -0.3414 -0.4884
 7668SOL    HW134463   4.325   1.237   5.150 -0.9682  0.3938 -1.1223
 7668SOL    HW234464   4.187   1.222   5.195 -0.2837 -0.7451 -1.7061
 7669SOL     OW34465   2.513   0.457   4.060  0.5565 -0.4576  0.0425
 7669SOL    HW134466   2.446   0.403   4.102 -0.9793  1.9337  0.6907
 7669SOL    HW234467   2.590   0.413   4.095  2.1234  0.6207 -2.0305
 7670SOL     OW34468   3.026   0.741   2.854 -0.2506 -0.2297 -0.1817
 7670SOL    HW134469   2.952   0.694   2.893 -0.1652  0.5392  0.9158
 7670SOL    HW234470   3.013   0.828   2.891 -2.1820 -0.8353  0.5655
 7671SOL     OW34471   3.373   1.496   8.430 -0.0549  0.4267  0.1852
 7671SOL    HW134472   3.372   1.479   8.524 -0.1359 -0.9896 -0.0727
 7671SOL    HW234473   3.340   1.585   8.441  0.1084  0.2568  1.9955
 7672SOL     OW34474   1.915   1.889  17.386 -0.2418 -0.3300  0.6861
 7672SOL    HW134475   1.954   1.809  17.351  0.7741 -0.7260  2.7823
 7672SOL    HW234476   1.986   1.905  17.448 -0.8906 -0.4055  1.4481
 7673SOL     OW34477   2.073   4.106   9.469 -0.3385  0.2081  0.0439
 7673SOL    HW134478   2.018   4.129   9.545 -0.0158  0.7736  0.1116
 7673SOL    HW234479   2.024   4.159   9.406 -1.4359 -0.9548 -0.0975
 7674SOL     OW34480   1.841   1.474   7.089 -0.3183 -0.3238  0.5897
 7674SOL    HW134481   1.773   1.407   7.084 -0.3430 -0.2725  0.2494
 7674SOL    HW234482   1.914   1.421   7.121  0.2385  0.6262  0.9001
 7675SOL     OW34483   4.385   4.723  13.657 -0.1541 -0.0950  0.1505
 7675SOL    HW134484   4.305   4.670  13.657  0.8323 -1.5910  0.1320
 7675SOL    HW234485   4.384   0.041  13.572 -2.3056 -0.5103 -0.0198
 7676SOL     OW34486   2.172   2.777  10.738  0.2939  0.5125  0.0093
 7676SOL    HW134487   2.212   2.824  10.665 -1.0266 -0.7089 -1.4972
 7676SOL    HW234488   2.166   2.693  10.693  0.7428  1.2594 -1.4129
 7677SOL     OW34489   0.394   0.403  14.708 -0.4132  0.4122  0.3121
 7677SOL    HW134490   0.310   0.404  14.755 -0.4256 -0.3729  0.3057
 7677SOL    HW234491   0.404   0.309  14.723 -1.2628  0.4383  1.0916
 7678SOL     OW34492   3.697   1.609   9.216  0.2455 -0.1727 -0.0594
 7678SOL    HW134493   3.675   1.611   9.123 -0.1106  2.0494  0.0696
 7678SOL    HW234494   3.633   1.674   9.246 -2.6964 -3.6372  1.1600
 7679SOL     OW34495   2.226   0.166   4.795  0.2507  0.4208  0.1803
 7679SOL    HW134496   2.162   0.235   4.774 -1.2041 -0.7747  0.7035
 7679SOL    HW234497   2.177   0.097   4.840  2.2417  0.3453  2.1792
 7680SOL     OW34498   1.421   2.131   0.919  1.1352 -0.5991  0.8573
 7680SOL    HW134499   1.403   2.110   1.011  1.1745  0.8901  1.1999
 7680SOL    HW234500   1.400   2.224   0.919 -2.1992 -1.3348  0.8929
 7681SOL     OW34501   0.669   2.465   4.449  0.1293  0.0123  0.2427
 7681SOL    HW134502   0.640   2.384   4.491 -0.7124 -0.6648 -1.6228
 7681SOL    HW234503   0.749   2.443   4.401 -1.0160 -0.6422 -1.3678
 7682SOL     OW34504   0.034   2.554   1.279 -0.0963  0.1597 -0.1646
 7682SOL    HW134505   4.711   2.633   1.255 -0.2435 -0.3183 -1.4313
 7682SOL    HW234506   4.684   2.497   1.296 -2.1633  3.2304  0.7902
 7683SOL     OW34507   4.195   1.558   4.554  0.4882  0.1991  0.7519
 7683SOL    HW134508   4.267   1.530   4.499  1.4969  1.7910  1.2555
 7683SOL    HW234509   4.221   1.508   4.632 -2.3141 -0.0138  1.5543
 7684SOL     OW34510   0.649   0.177   2.581 -0.0369  0.3656 -0.2464
 7684SOL    HW134511   0.692   0.176   2.496 -1.6112 -0.7585 -1.0374
 7684SOL    HW234512   0.622   0.085   2.586  1.2665 -0.0746 -1.5896
 7685SOL     OW34513   0.995   1.395   7.431  0.1013  0.0777  0.1362
 7685SOL    HW134514   0.903   1.372   7.417  1.0408 -1.8968 -2.9543
 7685SOL    HW234515   0.998   1.432   7.519  0.4127  0.6160 -0.1040
 7686SOL     OW34516   4.266   4.605  14.789  0.3589 -0.7754 -0.2953
 7686SOL    HW134517   4.316   4.593  14.708 -0.1245  1.3948 -0.9161
 7686SOL    HW234518   4.339   4.597  14.850  1.6506  4.9523 -1.1286
 7687SOL     OW34519   2.418   2.890   3.726 -0.3543  0.2399  0.4688
 7687SOL    HW134520   2.342   2.936   3.691  0.0923  0.7169  0.1050
 7687SOL    HW234521   2.464   2.971   3.750 -0.0159  0.8451 -2.2015
 7688SOL     OW34522   2.392   4.558   5.318  0.1757  0.1140  0.1226
 7688SOL    HW134523   2.485   4.539   5.310 -0.0067 -1.2000  1.1859
 7688SOL    HW234524   2.377   4.626   5.252  1.0508 -1.3247 -1.5313
 7689SOL     OW34525   1.539   4.563   4.179  0.0741 -0.8745  0.2492
 7689SOL    HW134526   1.458   4.516   4.200 -0.7155  0.2649 -0.2474
 7689SOL    HW234527   1.540   4.619   4.257 -1.1731 -0.3853 -0.0812
 7690SOL     OW34528   4.627   1.903   6.166  0.2105  0.2946  0.1810
 7690SOL    HW134529   4.546   1.952   6.148  0.4698  1.0031  0.8925
 7690SOL    HW234530   4.663   1.928   6.081 -0.0634 -0.7268 -0.2328
 7691SOL     OW34531   2.729   4.115   6.627 -0.1737  0.1001  0.0838
 7691SOL    HW134532   2.743   4.058   6.551 -0.0329  0.4033 -0.1129
 7691SOL    HW234533   2.750   4.062   6.704  0.3306 -0.6009 -0.5254
 7692SOL     OW34534   2.824   0.825   2.277  0.2667  0.6587 -0.2981
 7692SOL    HW134535   2.748   0.872   2.243  0.7351  1.2982 -0.4596
 7692SOL    HW234536   2.810   0.813   2.371  0.9004 -1.9573 -0.5295
 7693SOL     OW34537   3.867   0.362   7.963  0.0165  0.3132 -0.4298
 7693SOL    HW134538   3.802   0.359   7.893 -0.0014 -1.4098 -0.3427
 7693SOL    HW234539   3.943   0.384   7.910 -0.4035 -0.8367 -1.5124
 7694SOL     OW34540   3.917   3.040   8.736 -0.1716 -0.2419 -0.1646
 7694SOL    HW134541   3.971   3.004   8.666 -0.4289  0.2782 -0.6227
 7694SOL    HW234542   3.887   2.965   8.788 -0.8581  1.2867  1.6593
 7695SOL     OW34543   1.013   0.202   8.444  0.1196 -0.0869  0.1627
 7695SOL    HW134544   0.979   0.210   8.533 -0.8090 -0.3154 -0.1695
 7695SOL    HW234545   1.087   0.143   8.456  0.5907  0.0972 -1.9751
 7696SOL     OW34546   2.032   2.283  10.608 -0.2576  0.8893  0.2904
 7696SOL    HW134547   1.954   2.307  10.558 -2.0652  0.3879  2.8344
 7696SOL    HW234548   1.996   2.245  10.689  0.1647 -0.1729 -0.0252
 7697SOL     OW34549   4.442   0.401   4.457  0.5781 -0.2977 -0.4312
 7697SOL    HW134550   4.485   0.442   4.382  0.5744 -1.9944 -1.3543
 7697SOL    HW234551   4.482   0.455   4.526  0.4916 -1.2247  0.3420
 7698SOL     OW34552   1.427   3.214   5.999 -0.3744  0.4951 -0.6083
 7698SOL    HW134553   1.346   3.233   5.951 -0.5707  0.1114 -0.4321
 7698SOL    HW234554   1.433   3.289   6.058 -2.5162  0.2471 -0.0814
 7699SOL     OW34555   3.119   1.521   3.085 -0.4289 -0.0223 -0.7161
 7699SOL    HW134556   3.066   1.493   3.159 -1.8834  2.0600 -0.9758
 7699SOL    HW234557   3.153   1.442   3.041  1.3477 -1.4037  3.1484
 7700SOL     OW34558   2.051   2.476   2.578 -0.1846  0.3861 -0.2256
 7700SOL    HW134559   2.010   2.514   2.655 -1.6490 -1.1282 -0.2292
 7700SOL    HW234560   1.980   2.496   2.516  3.0855  0.6021 -3.9203
 7701SOL     OW34561   2.199   2.588  15.418  0.4945  0.2106 -0.3407
 7701SOL    HW134562   2.273   2.622  15.367  0.4378  1.2931  0.2932
 7701SOL    HW234563   2.243   2.565  15.499 -0.8305 -0.8529  0.0656
 7702SOL     OW34564   0.268   3.441  15.913  0.5733  0.1973  0.2827
 7702SOL    HW134565   0.243   3.428  15.821  0.1981 -1.3278  0.6091
 7702SOL    HW234566   0.317   3.361  15.935  0.3136 -0.2077 -0.6017
 7703SOL     OW34567   0.321   3.549  11.283 -0.6107  0.0084  0.1298
 7703SOL    HW134568   0.235   3.517  11.310 -0.6221 -0.5969 -0.6390
 7703SOL    HW234569   0.296   3.605  11.210  0.3162 -1.0847 -1.0180
 7704SOL     OW34570   1.031   4.290  10.178  0.2914  0.3015  0.1226
 7704SOL    HW134571   1.021   4.256  10.089  1.9055  0.0560  0.0393
 7704SOL    HW234572   0.958   4.252  10.227  1.3435  0.2158  1.6341
 7705SOL     OW34573   0.200   4.385   6.228  0.1466 -0.0296 -0.8318
 7705SOL    HW134574   0.270   4.449   6.242 -0.0188 -0.0634  0.1204
 7705SOL    HW234575   0.178   4.407   6.137  0.0042  0.3263 -0.7101
 7706SOL     OW34576   2.414   1.832   3.516  0.5106 -0.0642 -0.5172
 7706SOL    HW134577   2.357   1.903   3.486  0.8625  0.5128  0.1716
 7706SOL    HW234578   2.350   1.768   3.484  0.3982 -0.0516 -0.3155
 7707SOL     OW34579   3.355   4.519  12.033  0.2170 -0.1616  0.5622
 7707SOL    HW134580   3.369   4.532  12.127  2.2917 -2.2194  0.5542
 7707SOL    HW234581   3.322   4.606  12.013  0.1413 -0.3111  0.0383
 7708SOL     OW34582   4.572   1.187   4.994  0.2989 -0.2297  0.1069
 7708SOL    HW134583   4.528   1.272   4.996  1.4050  0.4088 -2.6067
 7708SOL    HW234584   4.612   1.184   5.081  1.0109 -0.3494 -0.2170
 7709SOL     OW34585   1.140   4.128   3.171 -0.4617  0.1252 -0.1591
 7709SOL    HW134586   1.139   4.176   3.087 -2.0092  1.7481  0.8023
 7709SOL    HW234587   1.055   4.084   3.175  0.4198 -1.6965 -1.2803
 7710SOL     OW34588   3.160   1.356  13.797  0.0816 -0.2811 -0.1318
 7710SOL    HW134589   3.250   1.327  13.781 -0.1096 -0.9673  0.0888
 7710SOL    HW234590   3.180   1.434  13.850 -2.5421 -0.4961  1.1520
 7711SOL     OW34591   3.202   2.929   0.881 -0.4556  0.3193  0.2317
 7711SOL    HW134592   3.282   2.877   0.873 -0.1868  0.5671  1.3128
 7711SOL    HW234593   3.148   2.887   0.815 -0.3553  0.2287  0.2076
 7712SOL     OW34594   3.549   2.336   5.129  0.4915  0.3973  0.0094
 7712SOL    HW134595   3.540   2.282   5.050 -0.1614  0.1388  0.2600
 7712SOL    HW234596   3.639   2.314   5.151  1.1211  2.8746 -0.0015
 7713SOL     OW34597   3.877   1.816  17.137 -0.8464 -0.0176 -0.1598
 7713SOL    HW134598   3.953   1.855  17.094 -0.1747  1.6496  2.5163
 7713SOL    HW234599   3.867   1.849  17.227 -2.0882  2.0985 -1.0584
 7714SOL     OW34600   4.573   3.092   7.496  0.3610 -0.4905  0.0116
 7714SOL    HW134601   4.495   3.146   7.507  0.4361 -0.0016 -1.9205
 7714SOL    HW234602   4.622   3.134   7.566  0.3947 -0.9504  0.2661
 7715SOL     OW34603   4.579   2.751   9.383 -0.1676 -0.1834 -0.1483
 7715SOL    HW134604   4.650   2.698   9.347 -0.1339  0.6892 -1.3792
 7715SOL    HW234605   4.618   2.837   9.392  0.5090 -0.6970  1.8259
 7716SOL     OW34606   1.112   0.792   3.903  0.0441  0.5444 -0.0644
 7716SOL    HW134607   1.165   0.757   3.831 -2.9704  1.1035 -2.5323
 7716SOL    HW234608   1.041   0.832   3.853  0.3121  0.7369 -0.2936
 7717SOL     OW34609   1.533   3.507   6.854 -0.4772  0.7259 -0.6934
 7717SOL    HW134610   1.508   3.479   6.766 -1.1359  0.0405 -0.2860
 7717SOL    HW234611   1.485   3.590   6.858  0.1283  0.9295  2.4260
 7718SOL     OW34612   3.168   4.399   7.816 -0.2754  0.7749  0.0460
 7718SOL    HW134613   3.256   4.435   7.824  0.0361  0.1763 -0.6306
 7718SOL    HW234614   3.154   4.371   7.725  0.8872  1.5330 -0.3674
 7719SOL     OW34615   1.373   3.411   2.456  0.1486  0.0841 -0.1990
 7719SOL    HW134616   1.446   3.386   2.400 -0.4751 -2.1831 -0.0136
 7719SOL    HW234617   1.403   3.498   2.481 -0.9537  0.1956  0.7371
 7720SOL     OW34618   1.255   4.664   6.339  0.3664  0.7494 -0.0074
 7720SOL    HW134619   1.217   4.577   6.350  1.1824  0.4309  0.2543
 7720SOL    HW234620   1.191   4.722   6.381  1.7316  0.8391  1.9508
 7721SOL     OW34621   2.859   1.480   7.429 -0.3921  0.6212  0.7341
 7721SOL    HW134622   2.874   1.394   7.389  0.6596  1.1390  0.0292
 7721SOL    HW234623   2.947   1.515   7.422 -0.7790  1.7726  1.6542
 7722SOL     OW34624   2.969   2.612  10.012 -0.1071 -0.2122 -0.3012
 7722SOL    HW134625   2.970   2.657   9.927 -0.7368 -2.8444 -1.6751
 7722SOL    HW234626   2.902   2.656  10.064 -0.5162 -0.7178 -0.4032
 7723SOL     OW34627   1.524   3.702  11.126 -0.8922 -0.6954  0.0849
 7723SOL    HW134628   1.493   3.773  11.070 -1.1828 -1.4637 -0.7355
 7723SOL    HW234629   1.547   3.745  11.209  1.3345 -5.3643  1.8881
 7724SOL     OW34630   1.243   2.340   9.407 -0.2620 -0.2742  0.1132
 7724SOL    HW134631   1.273   2.280   9.475 -2.4004 -1.1913  0.2343
 7724SOL    HW234632   1.298   2.307   9.336 -0.4381 -1.6652  0.6332
 7725SOL     OW34633   1.099   0.215   8.842 -0.3367 -0.1870 -0.3136
 7725SOL    HW134634   1.028   0.160   8.808 -0.3168  0.3529 -1.2212
 7725SOL    HW234635   1.069   0.296   8.800 -0.1342 -0.3278 -0.7299
 7726SOL     OW34636   4.456   2.857  16.467 -0.6983  0.3751  0.5059
 7726SOL    HW134637   4.486   2.860  16.376  1.7266  0.6072  1.3365
 7726SOL    HW234638   4.476   2.946  16.494 -1.7834  0.3848  1.2952
 7727SOL     OW34639   3.823   2.494   7.392  0.0061 -0.3230  0.0097
 7727SOL    HW134640   3.787   2.486   7.481  0.6162  1.5331  0.4206
 7727SOL    HW234641   3.909   2.532   7.409  0.4816 -1.4764  0.1821
 7728SOL     OW34642   4.659   0.685  11.014 -0.3832 -0.5935  0.1676
 7728SOL    HW134643   4.572   0.694  10.977 -0.1677  1.6610  0.1917
 7728SOL    HW234644   4.715   0.726  10.948  1.1860 -0.0418  1.8378
 7729SOL     OW34645   4.014   2.060  10.662 -0.3085  0.0342  0.0387
 7729SOL    HW134646   3.935   2.108  10.686  1.0469  0.7656  2.9694
 7729SOL    HW234647   3.995   2.050  10.569 -1.4823  2.9951 -0.0285
 7730SOL     OW34648   2.369   1.530   8.095 -0.2707  0.3664 -0.0599
 7730SOL    HW134649   2.404   1.618   8.082  0.6111  0.1053  0.5382
 7730SOL    HW234650   2.434   1.489   8.152 -1.8311 -1.6935  0.2305
 7731SOL     OW34651   2.157   1.432   4.977 -0.2762  0.1642  0.3179
 7731SOL    HW134652   2.148   1.343   5.010  1.1289 -0.2952 -0.5567
 7731SOL    HW234653   2.156   1.410   4.884 -1.7273 -0.5140  0.4868
 7732SOL     OW34654   3.771   2.590   4.930  0.5746 -0.0556 -0.1776
 7732SOL    HW134655   3.779   2.569   5.023  0.6130  1.8154  0.2370
 7732SOL    HW234656   3.850   2.643   4.929  0.5010  0.0653  0.7807
 7733SOL     OW34657   1.220   1.102   8.125 -0.5590 -0.0053 -0.4404
 7733SOL    HW134658   1.273   1.046   8.182  0.8568  2.2994  0.5082
 7733SOL    HW234659   1.148   1.044   8.101 -0.5217  0.0661 -0.7250
 7734SOL     OW34660   0.960   4.648  12.320 -0.0633 -0.5566 -0.1305
 7734SOL    HW134661   0.962   4.623  12.412  0.6198  0.3065  0.0799
 7734SOL    HW234662   1.045   4.691  12.315 -0.2970 -0.0045  0.7350
 7735SOL     OW34663   3.398   1.209   5.892 -0.6989 -0.3356 -0.1160
 7735SOL    HW134664   3.463   1.142   5.916  2.0943  2.2302 -0.5358
 7735SOL    HW234665   3.441   1.285   5.932  2.5242 -1.9153 -0.4977
 7736SOL     OW34666   1.491   0.817   3.124 -0.0808  0.2825  0.1985
 7736SOL    HW134667   1.506   0.799   3.216 -1.9616 -1.4788  0.1550
 7736SOL    HW234668   1.412   0.766   3.104  0.3236  0.1282 -1.0270
 7737SOL     OW34669   4.183   3.013   1.081 -0.7012  0.4514  0.1150
 7737SOL    HW134670   4.248   3.050   1.022 -0.5286  0.2960  0.2083
 7737SOL    HW234671   4.110   3.059   1.040  0.8167  1.8578 -1.0043
 7738SOL     OW34672   2.519   1.393   9.862 -0.1474  0.2687  0.4014
 7738SOL    HW134673   2.596   1.337   9.873 -0.3378 -0.0609  0.0479
 7738SOL    HW234674   2.461   1.322   9.834  2.0327 -1.7701  1.0862
 7739SOL     OW34675   4.118   3.988   3.322 -0.4315 -0.3780 -0.3308
 7739SOL    HW134676   4.023   3.993   3.329 -0.4564  1.0213 -1.6760
 7739SOL    HW234677   4.139   4.080   3.339  0.2628 -0.2494 -1.8363
 7740SOL     OW34678   2.577   0.477   7.171 -0.2865  0.9104  0.4312
 7740SOL    HW134679   2.578   0.401   7.229 -3.1930  0.3836 -0.2288
 7740SOL    HW234680   2.532   0.439   7.096  0.0342 -0.2016  0.8013
 7741SOL     OW34681   2.184   4.580   6.326  0.3858 -0.2493  0.1293
 7741SOL    HW134682   2.222   4.558   6.241 -1.8935  1.1465 -1.2625
 7741SOL    HW234683   2.177   4.492   6.363 -0.6534 -0.2109  0.0201
 7742SOL     OW34684   3.152   2.917  17.204  0.1373 -0.2368  0.1893
 7742SOL    HW134685   3.237   2.877  17.183  0.4570  0.8260 -0.5404
 7742SOL    HW234686   3.162   2.915  17.299 -1.2594  0.0309  0.3324
 7743SOL     OW34687   3.128   4.660  16.175 -0.1297 -0.4595  0.3923
 7743SOL    HW134688   3.092   4.586  16.125  1.8634 -2.0967  1.4030
 7743SOL    HW234689   3.066   4.723  16.139 -3.0676 -1.6976  3.2508
 7744SOL     OW34690   2.641   4.643   7.264  0.1982  0.0751  0.3863
 7744SOL    HW134691   2.609   0.007   7.261 -1.1534 -0.3480  2.3899
 7744SOL    HW234692   2.706   4.643   7.334 -0.2355 -0.3073  0.7870
 7745SOL     OW34693   4.050   1.598  17.367 -0.1498 -0.4149 -0.0178
 7745SOL    HW134694   4.019   1.678  17.410  1.2639  0.0469  0.1208
 7745SOL    HW234695   3.975   1.590  17.307  0.7494 -0.3431 -1.1372
 7746SOL     OW34696   0.788   0.564  11.125 -0.3891  0.2666  0.1156
 7746SOL    HW134697   0.857   0.596  11.183  0.0837 -0.2327 -0.1733
 7746SOL    HW234698   0.746   0.507  11.190 -0.0297  1.5840  1.5137
 7747SOL     OW34699   0.041   2.838   6.584  1.2411  0.0325  0.2259
 7747SOL    HW134700   4.679   2.858   6.616  0.6313 -2.4315  0.0621
 7747SOL    HW234701   0.089   2.921   6.593 -1.7209  1.7312  0.5112
 7748SOL     OW34702   2.506   2.529   4.794  0.5488 -0.7650 -0.1479
 7748SOL    HW134703   2.435   2.584   4.762 -0.3187 -1.9597 -0.2910
 7748SOL    HW234704   2.522   2.563   4.882 -2.7004 -1.0479  0.5239
 7749SOL     OW34705   1.620   3.269  13.376 -0.1696  0.1246  0.4102
 7749SOL    HW134706   1.620   3.280  13.471  0.4893 -0.2436  0.4511
 7749SOL    HW234707   1.546   3.217  13.343 -0.9187  1.5871 -0.1947
 7750SOL     OW34708   2.938   3.817   2.213  0.3974 -0.4400  0.4749
 7750SOL    HW134709   2.967   3.868   2.137 -2.7262 -0.9253 -1.0524
 7750SOL    HW234710   2.855   3.784   2.180 -0.0996 -2.0206  3.2878
 7751SOL     OW34711   3.062   3.841   5.178 -0.2322  0.1023  0.2091
 7751SOL    HW134712   3.091   3.932   5.173  0.5365 -0.1140  0.7241
 7751SOL    HW234713   2.968   3.853   5.165 -0.0869 -0.7816 -1.5777
 7752SOL     OW34714   2.411   0.912  10.202 -0.1231 -0.0174 -0.9029
 7752SOL    HW134715   2.448   0.859  10.132 -0.5787  1.6539 -2.4047
 7752SOL    HW234716   2.434   0.854  10.274  0.0045 -1.2255 -1.9194
 7753SOL     OW34717   1.947   2.936  10.715 -0.5500  0.0128 -0.2645
 7753SOL    HW134718   1.924   2.962  10.805  2.2237 -0.4221  0.5662
 7753SOL    HW234719   2.016   2.872  10.728  0.4263  0.3570 -3.9828
 7754SOL     OW34720   2.951   3.030   8.252  0.4090  0.1112  0.1049
 7754SOL    HW134721   3.001   3.108   8.278 -0.1284 -0.0482  1.6021
 7754SOL    HW234722   2.907   2.998   8.331  1.9634 -0.1787  0.8619
 7755SOL     OW34723   0.732   2.661   9.104 -0.3013  0.2549 -0.3056
 7755SOL    HW134724   0.672   2.730   9.074 -3.0014 -1.6502  0.7325
 7755SOL    HW234725   0.760   2.698   9.188  2.3224 -1.3466 -0.4906
 7756SOL     OW34726   2.148   2.569   8.852 -0.0196  0.3457 -0.0661
 7756SOL    HW134727   2.137   2.602   8.941  2.7283  2.2078 -0.4129
 7756SOL    HW234728   2.130   2.475   8.860 -1.1456  0.2630 -3.4415
 7757SOL     OW34729   4.535   4.234   2.891 -0.2953  0.2576 -0.3356
 7757SOL    HW134730   4.473   4.243   2.964 -1.1694 -1.4066 -0.8639
 7757SOL    HW234731   4.499   4.161   2.841 -1.1339  0.6926 -0.3695
 7758SOL     OW34732   2.898   2.956   6.666  0.1567 -0.0825 -0.4944
 7758SOL    HW134733   2.871   2.900   6.739  0.8001 -0.4234 -0.5187
 7758SOL    HW234734   2.923   2.885   6.606  0.0871 -1.4572  1.0838
 7759SOL     OW34735   2.290   3.558   8.448 -0.7793  0.2100 -0.0658
 7759SOL    HW134736   2.312   3.479   8.399 -0.8396 -0.1047  0.4212
 7759SOL    HW234737   2.287   3.542   8.542  0.6442  1.0324  0.1275
 7760SOL     OW34738   1.435   1.439   3.386 -0.0980 -0.0048 -0.1117
 7760SOL    HW134739   1.410   1.510   3.327  0.3945 -0.1707 -0.5287
 7760SOL    HW234740   1.527   1.463   3.397  0.0666 -0.9023  0.4885
 7761SOL     OW34741   3.850   3.131   7.364 -0.3218 -0.3106  0.0589
 7761SOL    HW134742   3.768   3.169   7.331 -0.2864  0.1312  0.4762
 7761SOL    HW234743   3.902   3.207   7.337  0.4074 -0.7758  0.1714
 7762SOL     OW34744   1.619   3.005   9.732 -0.0499 -0.3777 -0.2190
 7762SOL    HW134745   1.571   2.935   9.776  1.4949  0.0425  2.1372
 7762SOL    HW234746   1.588   2.994   9.642  0.9457 -1.3903 -0.4419
 7763SOL     OW34747   2.475   3.012   9.170 -0.2946  0.0109  0.1602
 7763SOL    HW134748   2.477   3.075   9.098  2.4496  0.0672  0.2741
 7763SOL    HW234749   2.423   3.053   9.239 -0.7889 -1.3998  0.6416
 7764SOL     OW34750   2.969   4.069   9.902 -0.0252 -0.4138 -0.4348
 7764SOL    HW134751   2.957   4.085   9.808  1.9486  0.5296 -0.5336
 7764SOL    HW234752   2.898   4.113   9.948 -0.1472 -0.8198 -0.2354
 7765SOL     OW34753   3.587   3.034  10.454 -0.4665 -0.0026  0.5818
 7765SOL    HW134754   3.575   2.950  10.498 -0.3501 -1.0477 -1.3856
 7765SOL    HW234755   3.659   3.063  10.510  0.5634 -2.2297  0.4026
 7766SOL     OW34756   1.514   4.397   2.840 -0.2385  0.6534 -0.1901
 7766SOL    HW134757   1.458   4.412   2.916  0.3566  1.4079  0.1015
 7766SOL    HW234758   1.550   4.484   2.822 -1.8136  0.9223 -2.0371
 7767SOL     OW34759   3.990   3.785  10.309  0.6798  0.2200  0.4457
 7767SOL    HW134760   4.034   3.837  10.377  1.2214  0.3316  0.0067
 7767SOL    HW234761   4.037   3.702  10.321  0.3718  0.3580  2.6225
 7768SOL     OW34762   3.357   3.112  10.094 -0.0898  0.0195  0.3909
 7768SOL    HW134763   3.302   3.177  10.050  1.4589  0.8599 -0.2944
 7768SOL    HW234764   3.344   3.142  10.184 -1.6007  0.1269  0.1469
 7769SOL     OW34765   1.423   0.622   6.533  0.5844 -0.1601  0.0276
 7769SOL    HW134766   1.453   0.558   6.598  1.4888  2.4764  2.2010
 7769SOL    HW234767   1.339   0.579   6.520  0.5171  0.0017 -0.0730
 7770SOL     OW34768   1.135   2.836   6.404 -0.1906  0.3097  0.1746
 7770SOL    HW134769   1.100   2.854   6.491 -0.1590  2.2886 -0.2194
 7770SOL    HW234770   1.176   2.752   6.425 -1.7502 -0.3875  0.3904
 7771SOL     OW34771   3.950   3.473   6.935  0.6040  0.5944  0.1219
 7771SOL    HW134772   3.981   3.556   6.970  0.5862 -0.0941  1.8096
 7771SOL    HW234773   4.031   3.449   6.889 -1.3132 -0.4686 -2.7212
 7772SOL     OW34774   2.672   2.464  14.550  0.3385  0.2856 -0.1891
 7772SOL    HW134775   2.737   2.410  14.596  0.5195 -0.2848 -1.1061
 7772SOL    HW234776   2.610   2.478  14.622  0.9415  2.4722 -0.1128
 7773SOL     OW34777   2.224   2.453   6.440  0.0411 -0.5584 -0.0721
 7773SOL    HW134778   2.208   2.418   6.527  2.3727 -1.3544  0.0538
 7773SOL    HW234779   2.147   2.428   6.390  0.0736 -1.8163  0.5191
 7774SOL     OW34780   3.078   3.169   3.612 -0.2030  0.2015  0.8112
 7774SOL    HW134781   3.105   3.109   3.682  0.5752  0.0112  0.3550
 7774SOL    HW234782   2.985   3.153   3.602  0.1674 -2.4201  1.6481
 7775SOL     OW34783   1.467   1.507   7.189 -0.3559 -0.3626 -0.0719
 7775SOL    HW134784   1.512   1.425   7.173 -1.2788 -1.0119  0.6670
 7775SOL    HW234785   1.452   1.512   7.283 -2.5988  0.8264 -0.4717
 7776SOL     OW34786   3.284   0.585   6.211 -0.0084  0.5355  0.6576
 7776SOL    HW134787   3.194   0.571   6.182  0.1218  0.7558  0.1442
 7776SOL    HW234788   3.285   0.566   6.305 -0.0431  0.2094  0.5935
 7777SOL     OW34789   0.367   0.412   4.881  0.2646  0.1882  0.3401
 7777SOL    HW134790   0.299   0.375   4.936 -1.6022  2.3999 -0.4597
 7777SOL    HW234791   0.371   0.353   4.806  1.3630  0.2009  0.3867
 7778SOL     OW34792   2.030   1.160   4.053 -0.1576  0.4257  0.5347
 7778SOL    HW134793   2.074   1.110   4.121  0.8416  2.4745  1.3760
 7778SOL    HW234794   2.065   1.246   4.077  0.1426  0.4046  0.1621
 7779SOL     OW34795   2.431   2.194   8.297 -0.2120 -0.0423 -0.1435
 7779SOL    HW134796   2.397   2.265   8.242 -1.4955  0.1977  0.9657
 7779SOL    HW234797   2.526   2.211   8.297  0.2573 -2.6943 -0.8155
 7780SOL     OW34798   0.749   1.682   4.935  0.1081 -0.4150 -0.3815
 7780SOL    HW134799   0.704   1.664   4.852  0.5537 -1.3256 -0.4133
 7780SOL    HW234800   0.807   1.755   4.913 -1.7927  1.3948  0.6177
 7781SOL     OW34801   2.438   3.309   6.973 -0.2151 -0.3897 -0.0688
 7781SOL    HW134802   2.381   3.244   6.933  0.0080 -0.6504  0.0355
 7781SOL    HW234803   2.496   3.253   7.025 -1.3194  0.1352  1.7166
 7782SOL     OW34804   1.457   1.776   1.812  0.4543  0.1391  0.3226
 7782SOL    HW134805   1.491   1.848   1.866 -0.0532  0.3419  0.3737
 7782SOL    HW234806   1.481   1.807   1.725  2.4524 -0.8021  0.5345
 7783SOL     OW34807   1.183   4.113   5.397 -0.2133 -0.3273 -0.0912
 7783SOL    HW134808   1.125   4.049   5.357 -0.9953  1.3929 -1.7121
 7783SOL    HW234809   1.119   4.165   5.446  0.7538  0.3151  0.4962
 7784SOL     OW34810   4.353   3.753   1.058 -0.3522  0.0111  0.2193
 7784SOL    HW134811   4.315   3.774   1.143 -0.0686  1.7600 -0.0826
 7784SOL    HW234812   4.441   3.776   1.089 -0.6890 -0.8637  1.8085
 7785SOL     OW34813   4.134   2.170   9.121  0.2116  0.2991 -0.0803
 7785SOL    HW134814   4.103   2.259   9.105 -0.3218  0.5174  2.2742
 7785SOL    HW234815   4.074   2.129   9.183 -1.8018  2.6788 -0.4611
 7786SOL     OW34816   4.548   1.813   0.670 -0.9878  0.5763  0.2364
 7786SOL    HW134817   4.480   1.797   0.736 -1.1612 -0.3321 -0.1571
 7786SOL    HW234818   4.567   1.733   0.621 -0.3908  1.4517 -0.9623
 7787SOL     OW34819   2.111   3.015   9.133 -0.2154 -0.2825 -0.8970
 7787SOL    HW134820   2.180   3.043   9.192  0.1755  0.6756 -1.8052
 7787SOL    HW234821   2.047   2.980   9.195  1.7018 -0.8023  0.7550
 7788SOL     OW34822   1.063   2.975   7.283 -0.3009  0.1524  0.0302
 7788SOL    HW134823   1.027   2.902   7.334  2.6754 -0.0959  1.7612
 7788SOL    HW234824   0.992   3.040   7.280 -0.3313  0.1647  0.8922
 7789SOL     OW34825   4.058   0.644   6.650  0.0991 -0.1635  0.0945
 7789SOL    HW134826   3.989   0.587   6.684 -1.3599  2.0330  0.8332
 7789SOL    HW234827   4.124   0.575   6.642 -1.8032 -1.9515 -0.1222
 7790SOL     OW34828   3.082   3.315   4.942 -0.1799  0.1710  0.3804
 7790SOL    HW134829   3.145   3.349   5.006 -0.2447  1.2400 -0.1286
 7790SOL    HW234830   3.083   3.390   4.883 -1.7762  0.8162  1.1797
 7791SOL     OW34831   4.377   2.532   4.495  0.2944 -0.2771  0.1427
 7791SOL    HW134832   4.343   2.621   4.508 -1.8041 -1.1787  0.6292
 7791SOL    HW234833   4.406   2.542   4.404  2.6186  0.0200  0.9040
 7792SOL     OW34834   2.439   1.409  15.326 -0.4310  0.2360 -0.1571
 7792SOL    HW134835   2.464   1.472  15.259  0.0554 -0.9966 -1.1247
 7792SOL    HW234836   2.509   1.344  15.317  1.2678  1.8834  1.1288
 7793SOL     OW34837   3.221   1.048  13.678 -0.1253 -0.3510  0.0878
 7793SOL    HW134838   3.282   1.118  13.700 -2.4112  2.0149 -1.0752
 7793SOL    HW234839   3.270   0.966  13.685 -0.4954 -0.3103  2.9027
 7794SOL     OW34840   0.384   1.028   9.311 -0.0391  1.0477  0.1438
 7794SOL    HW134841   0.400   0.934   9.322 -4.0302  0.5640  1.6049
 7794SOL    HW234842   0.296   1.029   9.348 -0.1491 -1.7577 -0.0339
 7795SOL     OW34843   3.844   0.199   0.632  0.2539 -0.3668 -0.4997
 7795SOL    HW134844   3.770   0.166   0.683  0.0949  1.2611  0.3235
 7795SOL    HW234845   3.848   0.132   0.564  0.5518  0.5223 -1.3500
 7796SOL     OW34846   0.790   4.215  13.964  0.1275  0.1582 -0.0042
 7796SOL    HW134847   0.713   4.269  13.944  0.8502  1.1089 -0.2337
 7796SOL    HW234848   0.844   4.271  14.020 -0.4211  1.0087 -0.3145
 7797SOL     OW34849   2.895   2.124   9.250 -0.6815 -0.6397 -0.6465
 7797SOL    HW134850   2.847   2.161   9.324  2.4134  1.0727  0.4760
 7797SOL    HW234851   2.958   2.192   9.224 -1.9576  1.1357  0.8529
 7798SOL     OW34852   1.327   2.656   2.284 -0.5318  0.1070  0.0380
 7798SOL    HW134853   1.284   2.615   2.209  0.8849  1.5303 -1.5517
 7798SOL    HW234854   1.420   2.641   2.270 -0.4530 -0.6961  1.4188
 7799SOL     OW34855   1.109   3.957   4.790  0.0299  0.5601  0.4872
 7799SOL    HW134856   1.153   3.938   4.708 -0.6633 -1.8589  0.6722
 7799SOL    HW234857   1.056   3.879   4.810  0.3342  1.0760  3.4166
 7800SOL     OW34858   4.377   1.228  15.133  0.6474  0.0203  0.5641
 7800SOL    HW134859   4.296   1.190  15.169  0.3353  1.4919  1.4053
 7800SOL    HW234860   4.347   1.293  15.070  2.2020  0.1829 -0.0088
 7801SOL     OW34861   2.706   1.373   8.518  0.5634 -0.5589  0.4314
 7801SOL    HW134862   2.700   1.447   8.457 -1.2221  1.2395  2.7730
 7801SOL    HW234863   2.619   1.344   8.493  0.1842  1.3510 -0.4932
 7802SOL     OW34864   4.157   1.173   3.700 -0.1487  0.1452 -0.3518
 7802SOL    HW134865   4.090   1.119   3.657 -0.1874 -1.5316  1.8727
 7802SOL    HW234866   4.227   1.173   3.635  1.6897 -1.2740  1.6310
 7803SOL     OW34867   3.243   3.824   1.843  0.2888 -0.5482  0.1607
 7803SOL    HW134868   3.319   3.838   1.899 -0.4715  0.4855  0.9241
 7803SOL    HW234869   3.280   3.856   1.760 -0.5061  2.4206  0.9284
 7804SOL     OW34870   4.612   1.938   2.070 -0.1097 -0.1794  0.5974
 7804SOL    HW134871   4.594   2.013   2.013 -0.5074  0.4356  1.5244
 7804SOL    HW234872   4.543   1.881   2.036 -0.0000  0.8533 -1.3712
 7805SOL     OW34873   2.893   4.302   7.044 -0.9194  0.9338 -0.1159
 7805SOL    HW134874   2.869   4.322   7.135 -0.1253  0.9106  0.0992
 7805SOL    HW234875   2.826   4.353   6.998 -0.8584 -0.7840 -2.0856
 7806SOL     OW34876   2.258   0.229   7.706  0.8023 -0.1370  0.1475
 7806SOL    HW134877   2.202   0.301   7.735  0.1545 -1.0971  1.3176
 7806SOL    HW234878   2.232   0.163   7.770  1.3224  0.7743  1.2975
 7807SOL     OW34879   3.100   3.861   4.363  0.3117 -0.2750 -0.2675
 7807SOL    HW134880   3.167   3.848   4.296  0.7848  1.0701 -0.0546
 7807SOL    HW234881   3.092   3.772   4.396  1.5144 -0.2104  0.1959
 7808SOL     OW34882   1.264   1.184   8.919  0.1717  0.4264 -0.3080
 7808SOL    HW134883   1.251   1.275   8.944  0.5295  0.4638 -0.2542
 7808SOL    HW234884   1.244   1.197   8.827 -0.9233 -0.9621 -0.2642
 7809SOL     OW34885   0.893   1.468   4.798  0.3447  0.1501 -0.0915
 7809SOL    HW134886   0.836   1.518   4.857  0.5347 -0.3130  0.4847
 7809SOL    HW234887   0.968   1.444   4.852 -0.1022 -0.1992  0.3796
 7810SOL     OW34888   1.142   2.214   2.247  0.5618 -0.1817 -0.1895
 7810SOL    HW134889   1.086   2.291   2.237  0.8665  0.0416 -0.1908
 7810SOL    HW234890   1.231   2.250   2.245 -0.0686  1.3405 -1.4646
 7811SOL     OW34891   4.036   3.849  14.872 -0.4741  0.2173 -0.0586
 7811SOL    HW134892   3.941   3.849  14.860 -0.2888  0.4407 -1.5732
 7811SOL    HW234893   4.076   3.863  14.786 -1.2639  0.6965 -0.3514
 7812SOL     OW34894   4.134   1.921   6.048 -0.3281  0.1713  0.1040
 7812SOL    HW134895   4.221   1.927   6.088  0.4462 -1.3733 -1.3756
 7812SOL    HW234896   4.106   2.008   6.020 -1.3261 -0.0702  0.3393
 7813SOL     OW34897   1.796   1.161   4.651  0.0142  0.1412  0.0564
 7813SOL    HW134898   1.780   1.193   4.562 -2.1943 -0.1211  0.3508
 7813SOL    HW234899   1.715   1.192   4.692 -0.6292  0.4389 -1.4380
 7814SOL     OW34900   2.297   4.115   7.851  0.6922 -0.3266  0.0550
 7814SOL    HW134901   2.216   4.144   7.808  3.9657  3.6894 -3.3834
 7814SOL    HW234902   2.351   4.192   7.831 -2.6913  1.7619 -1.1240
 7815SOL     OW34903   2.985   0.276   9.687 -0.5022  0.1064 -0.2441
 7815SOL    HW134904   3.023   0.199   9.728 -1.5289  0.4781  1.3811
 7815SOL    HW234905   3.028   0.339   9.744  1.0866 -0.5394 -0.7284
 7816SOL     OW34906   4.488   3.708   2.622 -0.1708  0.2107 -0.2590
 7816SOL    HW134907   4.428   3.779   2.598 -1.9518 -0.9553  0.7333
 7816SOL    HW234908   4.458   3.684   2.710 -0.2200  0.4376 -0.2142
 7817SOL     OW34909   0.237   1.395   1.100  0.6513  0.5037 -0.2258
 7817SOL    HW134910   0.170   1.386   1.168  1.9158  0.7565  1.0637
 7817SOL    HW234911   0.247   1.490   1.098 -2.2696  0.8342  0.3129
 7818SOL     OW34912   2.045   4.585   7.204 -0.4179 -0.4628  0.3118
 7818SOL    HW134913   2.017   4.648   7.271  3.9392  1.4045  0.3365
 7818SOL    HW234914   2.136   4.579   7.233  0.1617  1.7131 -1.1571
 7819SOL     OW34915   0.357   3.167  14.701  0.0169  0.1418 -0.8154
 7819SOL    HW134916   0.424   3.158  14.768 -0.5357 -0.0309 -0.2802
 7819SOL    HW234917   0.284   3.202  14.752  0.9548 -1.1939  1.4419
 7820SOL     OW34918   0.485   2.082  16.262 -0.0723 -0.4040  0.2453
 7820SOL    HW134919   0.411   2.063  16.205 -0.6534 -1.6846  1.4268
 7820SOL    HW234920   0.551   2.108  16.198 -0.4291  1.2031  0.5470
 7821SOL     OW34921   0.990   2.289  14.321 -0.1785  0.0255 -0.0030
 7821SOL    HW134922   0.916   2.346  14.301  1.1644  1.4434 -0.9489
 7821SOL    HW234923   1.060   2.325  14.266  0.1475  0.4886  0.7079
 7822SOL     OW34924   2.113   1.317   2.490 -0.0780 -0.4948  0.3195
 7822SOL    HW134925   2.032   1.274   2.464  0.5579  0.1741 -2.7134
 7822SOL    HW234926   2.081   1.406   2.501  0.5263 -0.3462  0.8782
 7823SOL     OW34927   0.498   2.021   2.232 -0.0036 -0.6720  0.4327
 7823SOL    HW134928   0.419   2.057   2.272  0.3256 -0.6265  1.0412
 7823SOL    HW234929   0.566   2.085   2.254  0.0171 -0.2690 -0.7476
 7824SOL     OW34930   3.101   3.591  13.914  0.2392  0.0857 -0.3071
 7824SOL    HW134931   3.168   3.596  13.982 -1.5319  4.2676  1.0951
 7824SOL    HW234932   3.090   3.496  13.909  0.0020  0.2367 -2.5324
 7825SOL     OW34933   2.597   0.601   2.633  0.6226 -0.2922 -0.1779
 7825SOL    HW134934   2.668   0.600   2.569 -0.9544 -2.1309 -1.8812
 7825SOL    HW234935   2.548   0.676   2.601  2.4265  1.6680  1.6321
 7826SOL     OW34936   2.151   4.600   5.460 -0.3011 -0.2613  0.2967
 7826SOL    HW134937   2.239   4.600   5.423 -1.6284  1.7621 -2.8946
 7826SOL    HW234938   2.170   4.624   5.551  0.0588 -1.1159  0.4446
 7827SOL     OW34939   4.658   0.836   8.850 -0.2838 -0.0647  0.2122
 7827SOL    HW134940   0.017   0.872   8.877  0.0447  0.4484 -1.5138
 7827SOL    HW234941   4.636   0.778   8.923  0.6009 -0.9033 -0.1844
 7828SOL     OW34942   3.156   3.719   5.931  0.2384 -0.0062  0.6986
 7828SOL    HW134943   3.108   3.796   5.963 -0.5230  0.0463 -0.5892
 7828SOL    HW234944   3.162   3.664   6.009  0.6414 -0.2371  0.5021
 7829SOL     OW34945   0.213   0.674   4.009 -0.0763 -0.2603  0.0359
 7829SOL    HW134946   0.290   0.731   4.002  0.4957 -0.8448  1.5263
 7829SOL    HW234947   0.262   0.602   4.049 -0.5470 -0.6521 -0.1072
 7830SOL     OW34948   1.862   1.202   0.031 -0.0295 -0.5431 -0.0588
 7830SOL    HW134949   1.899   1.135   0.088  2.3669  1.8323  1.1791
 7830SOL    HW234950   1.817   1.144  17.674  1.8542 -0.6283 -1.3689
 7831SOL     OW34951   0.847   0.765  16.217  0.2060  0.1180 -0.3978
 7831SOL    HW134952   0.813   0.807  16.138 -3.0686  1.7873  1.9228
 7831SOL    HW234953   0.851   0.672  16.194  0.7250  0.2861 -0.9850
 7832SOL     OW34954   1.764   0.790   6.413  0.1366  0.0190  0.1241
 7832SOL    HW134955   1.794   0.705   6.443 -1.3306 -0.9701 -1.2532
 7832SOL    HW234956   1.806   0.787   6.327 -1.8138 -1.4580 -0.7677
 7833SOL     OW34957   3.300   0.445   0.873  0.3466  0.2714  0.2346
 7833SOL    HW134958   3.390   0.471   0.853  0.8744 -1.2772  0.5579
 7833SOL    HW234959   3.292   0.377   0.806  1.6896  2.7914 -2.4927
 7834SOL     OW34960   1.068   3.930   9.062  0.9687  0.4443  1.1138
 7834SOL    HW134961   1.142   3.983   9.034  1.4302 -1.7864 -1.9202
 7834SOL    HW234962   1.111   3.845   9.077 -1.3063 -0.8839  0.1464
 7835SOL     OW34963   2.666   0.065   5.862 -0.5469 -0.3797  0.1115
 7835SOL    HW134964   2.657   0.154   5.897  3.2637 -1.2416  3.2477
 7835SOL    HW234965   2.589   0.020   5.896 -0.0936 -1.8764 -0.8247
 7836SOL     OW34966   3.367   2.964  11.559  0.2786  0.1588 -0.3403
 7836SOL    HW134967   3.429   3.035  11.578 -1.0327  1.7013 -1.7311
 7836SOL    HW234968   3.400   2.907  11.628  2.2580  1.4117 -0.2539
 7837SOL     OW34969   3.848   2.800   0.058 -0.4767  0.0639 -0.0976
 7837SOL    HW134970   3.927   2.832   0.013 -0.5340 -2.2882 -1.8681
 7837SOL    HW234971   3.870   2.786   0.150  1.5407  0.9975 -0.4377
 7838SOL     OW34972   3.324   4.062   4.126 -0.4159  0.8488  0.3329
 7838SOL    HW134973   3.341   4.037   4.217  3.2355 -0.6367 -0.7916
 7838SOL    HW234974   3.244   4.114   4.137  0.1575  1.5210  1.3903
 7839SOL     OW34975   4.344   3.732   6.179  1.0931 -0.4022  0.2720
 7839SOL    HW134976   4.255   3.712   6.210 -0.2856  2.4380 -1.8396
 7839SOL    HW234977   4.376   3.642   6.183 -1.0542 -1.1966 -0.3214
 7840SOL     OW34978   3.927   3.804   9.288 -0.2269  0.0155 -0.3549
 7840SOL    HW134979   3.929   3.894   9.320 -1.0247 -0.6184  1.4976
 7840SOL    HW234980   3.915   3.749   9.366 -0.8102  1.1539  0.3559
 7841SOL     OW34981   3.510   2.065  13.185  0.1685  0.7657  0.0067
 7841SOL    HW134982   3.456   2.012  13.127  3.1774 -0.1831 -1.9205
 7841SOL    HW234983   3.459   2.143  13.169  2.0190  1.7186 -1.2439
 7842SOL     OW34984   2.700   1.487  13.143  0.2957  0.0126 -0.3681
 7842SOL    HW134985   2.707   1.440  13.060 -0.2672 -0.4327 -0.1612
 7842SOL    HW234986   2.749   1.565  13.116  0.0460  0.4632  0.4706
 7843SOL     OW34987   2.956   0.267   7.700  0.4345 -0.2488 -0.2630
 7843SOL    HW134988   2.908   0.191   7.670  0.4390 -0.4998  0.3578
 7843SOL    HW234989   3.050   0.246   7.698  0.9188  1.9471 -0.3388
 7844SOL     OW34990   0.329   3.476   4.256  0.4369  0.0691  0.1105
 7844SOL    HW134991   0.350   3.395   4.210  1.5108  0.0711  0.5829
 7844SOL    HW234992   0.332   3.450   4.348 -1.1467 -0.1310  0.1015
 7845SOL     OW34993   3.467   1.370  16.922  0.0503 -0.4936  0.1490
 7845SOL    HW134994   3.513   1.293  16.889  1.5811  0.3964  0.1985
 7845SOL    HW234995   3.401   1.381  16.854  0.2646 -2.3838 -0.3656
 7846SOL     OW34996   4.416   3.617  10.053 -0.4868 -0.0344 -0.4562
 7846SOL    HW134997   4.341   3.615   9.994 -0.2031  2.1618 -0.9079
 7846SOL    HW234998   4.414   3.710  10.078  1.2829 -0.6145  1.8374
 7847SOL     OW34999   4.653   2.584   9.092  0.0735 -0.3720  0.4244
 7847SOL    HW135000   4.715   2.647   9.054 -1.2947  1.3446  1.0473
 7847SOL    HW235001   4.692   2.560   9.176  2.1091  0.9410 -0.1463
 7848SOL     OW35002   3.655   3.319   3.743  0.2585  0.5705  0.2412
 7848SOL    HW135003   3.711   3.251   3.706  1.3031  0.4113  2.0948
 7848SOL    HW235004   3.565   3.297   3.716  1.1584 -1.4340 -1.1191
 7849SOL     OW35005   0.219   1.788  16.934 -0.1574  0.3684  0.5196
 7849SOL    HW135006   0.284   1.768  17.002  3.1558  2.7165 -1.9664
 7849SOL    HW235007   0.256   1.755  16.852 -0.5991  1.0884  0.0363
 7850SOL     OW35008   0.279   1.441  10.674  0.2301 -0.4363  0.0092
 7850SOL    HW135009   0.276   1.524  10.626 -0.9767 -2.1382 -2.8996
 7850SOL    HW235010   0.206   1.386  10.646 -0.7164  0.6115  0.4119
 7851SOL     OW35011   1.312   2.875  13.632 -0.1990 -0.0068  0.2756
 7851SOL    HW135012   1.289   2.866  13.540  0.5467  1.5090 -0.0566
 7851SOL    HW235013   1.377   2.805  13.636 -0.3571 -0.2236 -0.9327
 7852SOL     OW35014   1.525   2.836   8.286 -0.4946 -0.1931 -0.4889
 7852SOL    HW135015   1.446   2.797   8.248 -0.1764 -2.0624  0.7772
 7852SOL    HW235016   1.500   2.857   8.377  2.9703 -1.5696  0.7904
 7853SOL     OW35017   0.603   4.278  11.109  0.2158 -0.2896 -0.3541
 7853SOL    HW135018   0.581   4.192  11.075 -2.9072  0.3578  0.0446
 7853SOL    HW235019   0.642   4.246  11.190 -1.1714 -1.4424 -0.1370
 7854SOL     OW35020   3.035   4.028   6.050  0.0958  0.9384 -0.2311
 7854SOL    HW135021   2.952   4.076   6.049 -0.5239 -0.0487  2.6857
 7854SOL    HW235022   3.058   4.012   6.142 -2.6931 -0.4920  0.2164
 7855SOL     OW35023   0.189   1.157  11.545 -0.1905  0.4031  0.0278
 7855SOL    HW135024   0.241   1.077  11.539  2.4881  2.0350  1.6318
 7855SOL    HW235025   0.196   1.169  11.640  0.9989 -0.9789  0.1179
 7856SOL     OW35026   1.113   0.895  10.619 -0.1231 -0.0804 -0.0141
 7856SOL    HW135027   1.172   0.878  10.692 -0.8988 -1.1862  0.3527
 7856SOL    HW235028   1.034   0.929  10.660 -0.0904 -0.9868  0.8064
 7857SOL     OW35029   1.851   2.751  10.010 -0.3102  0.3138 -0.4448
 7857SOL    HW135030   1.841   2.704   9.927  0.3758  0.8480 -0.8266
 7857SOL    HW235031   1.832   2.687  10.079 -5.0773  0.5637 -1.5643
 7858SOL     OW35032   2.422   2.548   1.864 -0.0804 -0.5908 -0.0712
 7858SOL    HW135033   2.387   2.561   1.776  0.5569 -3.3904 -0.7424
 7858SOL    HW235034   2.490   2.483   1.843  2.1032  2.2573 -1.8302
 7859SOL     OW35035   3.670   0.326  17.665 -0.2854 -0.3296 -0.0981
 7859SOL    HW135036   3.761   0.297  17.668  0.1172  0.7093 -2.0409
 7859SOL    HW235037   3.686   0.416  17.637 -1.2379 -0.4698 -1.0659
 7860SOL     OW35038   0.214   4.264   4.175  0.5527 -0.2524 -0.0310
 7860SOL    HW135039   0.172   4.229   4.253  0.2954 -0.0848 -0.0961
 7860SOL    HW235040   0.284   4.198   4.170 -1.4663 -2.2820 -1.4495
 7861SOL     OW35041   3.623   3.912   6.125  0.6917  0.1003 -0.3079
 7861SOL    HW135042   3.706   3.888   6.165  0.0512 -3.2103 -0.9245
 7861SOL    HW235043   3.649   3.992   6.081  3.0697 -1.3657 -1.5389
 7862SOL     OW35044   0.996   2.640   8.279 -0.0924  0.6529  0.0094
 7862SOL    HW135045   1.035   2.679   8.357 -0.9690 -0.2268  0.8840
 7862SOL    HW235046   0.939   2.715   8.262 -1.4026  0.3741  3.1798
 7863SOL     OW35047   3.084   4.269  11.578  0.2283  0.0660  0.3492
 7863SOL    HW135048   3.162   4.296  11.529  0.7242  2.0767  2.2311
 7863SOL    HW235049   3.111   4.284  11.669  0.0505  3.3540 -0.1597
 7864SOL     OW35050   0.155   3.812   8.472  0.5167 -0.6094  0.0752
 7864SOL    HW135051   0.129   3.738   8.416  2.3500 -0.9478 -0.3207
 7864SOL    HW235052   0.069   3.847   8.492  1.2174  0.2240  1.6019
 7865SOL     OW35053   3.572   2.884   7.790 -0.2993 -0.7668 -0.0448
 7865SOL    HW135054   3.597   2.935   7.713 -1.5250  0.0669  0.1163
 7865SOL    HW235055   3.606   2.795   7.780  0.2307 -0.2650 -2.6855
 7866SOL     OW35056   4.588   3.540   5.919  0.6190 -0.0939 -0.2653
 7866SOL    HW135057   4.572   3.501   6.005  1.3490  1.0202  0.3823
 7866SOL    HW235058   4.499   3.562   5.893  1.1509 -0.5248 -2.4657
 7867SOL     OW35059   2.550   4.382  11.018  0.0522 -0.1989 -0.4367
 7867SOL    HW135060   2.456   4.401  11.015  0.3528  1.4003  0.6555
 7867SOL    HW235061   2.552   4.287  11.007 -1.8912 -0.3975  0.9408
 7868SOL     OW35062   2.126   4.497   8.495 -0.6369  0.6696  0.3716
 7868SOL    HW135063   2.066   4.499   8.570 -1.1914 -2.9384  0.0571
 7868SOL    HW235064   2.207   4.515   8.543 -0.4855  1.9897 -0.3779
 7869SOL     OW35065   4.395   1.196   7.589 -0.4399  0.2228 -0.1278
 7869SOL    HW135066   4.326   1.234   7.534 -0.0496  1.4789  0.2557
 7869SOL    HW235067   4.368   1.230   7.674 -2.3979 -0.5761 -0.4334
 7870SOL     OW35068   1.858   3.271   8.138 -0.5884 -0.0594  0.6857
 7870SOL    HW135069   1.824   3.276   8.227  0.9666  0.6835  1.2356
 7870SOL    HW235070   1.880   3.178   8.130  1.2438  0.1356  3.3117
 7871SOL     OW35071   0.501   3.693   6.057 -0.2397  0.2927 -0.0544
 7871SOL    HW135072   0.441   3.729   5.991 -0.4287  0.2543  0.0938
 7871SOL    HW235073   0.439   3.709   6.129 -1.1173  2.6972 -1.3328
 7872SOL     OW35074   0.992   0.439  15.239 -0.4920 -0.0026 -0.0136
 7872SOL    HW135075   0.923   0.488  15.196  1.2419 -0.2136 -3.0749
 7872SOL    HW235076   0.959   0.427  15.328 -0.1160  0.6894  0.2225
 7873SOL     OW35077   1.367   3.772   5.451 -0.4591  0.2410  0.0999
 7873SOL    HW135078   1.401   3.858   5.424  0.1083  0.5048  1.6622
 7873SOL    HW235079   1.333   3.798   5.536  2.3624 -0.2818  1.3972
 7874SOL     OW35080   2.733   4.230   3.403 -0.5350  0.6321  0.3069
 7874SOL    HW135081   2.663   4.284   3.364  1.2475  0.9382 -2.4902
 7874SOL    HW235082   2.794   4.297   3.434  0.4154 -0.1804  0.1849
 7875SOL     OW35083   4.239   0.031   2.491  0.7384 -0.3620 -0.3814
 7875SOL    HW135084   4.160   4.716   2.457 -0.0856  0.3776  0.6576
 7875SOL    HW235085   4.251   0.108   2.435  0.2760  0.6021  0.8643
 7876SOL     OW35086   4.325   2.640   7.062  0.0090  0.6891  0.2022
 7876SOL    HW135087   4.368   2.694   6.996  0.7623  1.0931  1.0140
 7876SOL    HW235088   4.245   2.688   7.080 -0.2817 -0.5553  2.2087
 7877SOL     OW35089   1.824   3.726   9.440 -0.3179 -0.3375  0.5070
 7877SOL    HW135090   1.730   3.717   9.425 -0.3948  0.7869  0.2683
 7877SOL    HW235091   1.823   3.689   9.528 -2.0702 -1.7586 -0.1296
 7878SOL     OW35092   4.566   4.449   6.765 -0.7586 -0.3184 -0.2162
 7878SOL    HW135093   4.608   4.412   6.843  1.1486  2.6375  0.1494
 7878SOL    HW235094   4.549   4.372   6.710  1.5094 -2.6147  2.2736
 7879SOL     OW35095   3.309   0.886   4.837 -0.1817  0.2005 -0.5099
 7879SOL    HW135096   3.238   0.867   4.776 -1.2508  3.1641 -0.1912
 7879SOL    HW235097   3.330   0.977   4.815  0.4796 -0.1108 -1.1516
 7880SOL     OW35098   1.949   1.036   5.306 -0.1294  0.5239  0.7143
 7880SOL    HW135099   2.014   1.058   5.373 -0.6062  1.3414  0.9069
 7880SOL    HW235100   1.867   1.061   5.349 -0.8794 -1.5687  0.4719
 7881SOL     OW35101   0.115   0.844  15.801 -0.3659 -0.5107 -0.1855
 7881SOL    HW135102   0.071   0.926  15.823 -0.8642 -0.6566 -0.6353
 7881SOL    HW235103   0.137   0.822  15.892  2.4905 -2.2115 -1.2765
 7882SOL     OW35104   2.179   1.626   0.136  0.0528 -0.9347 -0.6736
 7882SOL    HW135105   2.133   1.548   0.106 -0.9492 -2.1071  3.8991
 7882SOL    HW235106   2.235   1.594   0.207  0.7526  2.8781  0.4990
 7883SOL     OW35107   3.015   1.177   6.680 -0.2017 -0.0835  0.4738
 7883SOL    HW135108   2.929   1.189   6.639  0.8039  1.3863 -1.1455
 7883SOL    HW235109   3.071   1.147   6.608  2.3816 -1.7842  3.1910
 7884SOL     OW35110   2.641   2.091   5.729  0.0465 -0.0665  0.5721
 7884SOL    HW135111   2.676   2.005   5.705 -1.2257 -0.7961  1.3049
 7884SOL    HW235112   2.698   2.107   5.804 -0.8788  1.4722  0.9368
 7885SOL     OW35113   4.607   3.993   5.565 -0.0600 -0.4849  0.3747
 7885SOL    HW135114   4.653   3.964   5.644 -0.8672 -0.1805  0.9644
 7885SOL    HW235115   4.515   3.973   5.582 -0.3659 -0.2452 -1.0212
 7886SOL     OW35116   0.669   3.700  16.829  0.6248 -0.6672  0.0045
 7886SOL    HW135117   0.613   3.763  16.784  0.9992 -1.3268 -1.3750
 7886SOL    HW235118   0.709   3.754  16.897  1.1002  0.9046 -1.5309
 7887SOL     OW35119   1.860   4.617   3.379  0.7052 -0.3913  0.2870
 7887SOL    HW135120   1.769   4.639   3.360  1.1195  2.3248  1.5719
 7887SOL    HW235121   1.871   4.523   3.362 -0.9613 -0.9095  2.0004
 7888SOL     OW35122   1.675   3.339   2.013  0.6249 -0.5677 -0.4423
 7888SOL    HW135123   1.704   3.249   2.001  1.0412 -0.1949 -2.1554
 7888SOL    HW235124   1.670   3.386   1.930 -1.1526  0.7329  0.3901
 7889SOL     OW35125   4.395   0.960   5.102 -0.0650  0.1566 -0.3294
 7889SOL    HW135126   4.340   1.032   5.133  3.0861  1.2014  2.9525
 7889SOL    HW235127   4.456   1.015   5.052  0.9879  0.1186  0.9234
 7890SOL     OW35128   3.893   2.693   8.609 -0.0756 -0.1238 -0.5641
 7890SOL    HW135129   3.963   2.749   8.576 -0.0602  0.5726  0.6427
 7890SOL    HW235130   3.885   2.729   8.698  0.3627 -2.9573  0.6081
 7891SOL     OW35131   2.124   1.272   8.881  0.5166  0.1227 -0.0992
 7891SOL    HW135132   2.192   1.332   8.912  1.3246 -0.4271 -0.8155
 7891SOL    HW235133   2.169   1.192   8.852  0.3705  0.6286 -1.7244
 7892SOL     OW35134   2.510   1.090   5.718 -0.2973  0.1462 -0.1970
 7892SOL    HW135135   2.425   1.049   5.707 -1.7056  2.9187  0.3305
 7892SOL    HW235136   2.488   1.179   5.692 -0.2968  0.3366  0.4546
 7893SOL     OW35137   2.288   4.591   7.307 -0.2622  0.0483  0.5444
 7893SOL    HW135138   2.339   4.652   7.361  1.6227 -0.2826 -0.8610
 7893SOL    HW235139   2.321   4.511   7.348 -1.5492 -0.6042  0.2955
 7894SOL     OW35140   2.695   1.556   5.705  0.1592 -0.1718  0.3987
 7894SOL    HW135141   2.616   1.582   5.753 -0.4471 -0.9363 -0.1848
 7894SOL    HW235142   2.765   1.539   5.769  0.1181 -1.6017  0.0651
 7895SOL     OW35143   4.418   1.187   4.256  0.3750  0.4996 -0.0139
 7895SOL    HW135144   4.386   1.226   4.338  2.5212  2.2448 -0.0190
 7895SOL    HW235145   4.339   1.206   4.206 -0.6819  0.5778  1.6790
 7896SOL     OW35146   3.838   1.646   6.267  0.4770  0.1542 -0.5685
 7896SOL    HW135147   3.776   1.713   6.237  0.5381  0.4523 -0.0379
 7896SOL    HW235148   3.914   1.701   6.290  1.0398 -0.3227 -1.3103
 7897SOL     OW35149   0.376   2.758   3.789  0.1447  0.5941  0.0430
 7897SOL    HW135150   0.328   2.676   3.794 -1.7036  1.4143 -3.6319
 7897SOL    HW235151   0.434   2.754   3.864  1.4547 -0.4162 -1.0144
 7898SOL     OW35152   3.385   1.662   4.456  0.7216  0.0291  0.2467
 7898SOL    HW135153   3.345   1.598   4.515 -0.7933 -0.1171 -0.9280
 7898SOL    HW235154   3.455   1.604   4.426  0.6247 -0.5638  1.1630
 7899SOL     OW35155   2.260   3.481  12.075 -0.0337 -0.0224 -0.1076
 7899SOL    HW135156   2.334   3.541  12.078 -1.9820  2.4740 -2.2051
 7899SOL    HW235157   2.306   3.406  12.039 -0.0463 -0.0661 -0.0318
 7900SOL     OW35158   1.207   0.967   5.207  0.8906  0.2599 -0.3386
 7900SOL    HW135159   1.136   0.969   5.271 -0.5274 -1.0649 -1.9049
 7900SOL    HW235160   1.178   1.039   5.152  0.6320  1.4337  1.3216
 7901SOL     OW35161   0.847   2.705   3.298  0.2569 -0.3908 -0.5225
 7901SOL    HW135162   0.851   2.785   3.246  1.5902  0.0510  0.2512
 7901SOL    HW235163   0.942   2.693   3.293  0.3369 -0.6268  1.3832
 7902SOL     OW35164   0.299   3.954  15.334  0.0872 -0.4027  0.4333
 7902SOL    HW135165   0.389   3.985  15.320  0.0385 -0.1649  0.6456
 7902SOL    HW235166   0.263   4.032  15.377  1.0035  0.1492  0.1972
 7903SOL     OW35167   1.866   1.129   7.191  0.2440 -0.2164  0.1031
 7903SOL    HW135168   1.888   1.070   7.119 -0.1437 -0.0124 -0.1794
 7903SOL    HW235169   1.829   1.072   7.259  2.3321  0.6700  2.0085
 7904SOL     OW35170   3.636   4.497  11.646 -0.2785 -0.1154  0.1194
 7904SOL    HW135171   3.596   4.504  11.559 -1.1752  0.8314  0.6083
 7904SOL    HW235172   3.680   4.581  11.660 -0.1606  0.1582 -1.8786
 7905SOL     OW35173   2.487   2.820   7.764 -0.1847 -0.0057 -0.0024
 7905SOL    HW135174   2.528   2.790   7.845  0.1740  1.4807  0.3647
 7905SOL    HW235175   2.402   2.777   7.754  0.1246 -0.8338  0.9401
 7906SOL     OW35176   2.685   0.065  16.057 -0.0756  0.4870  0.4471
 7906SOL    HW135177   2.720   0.058  15.968 -1.8432  1.5807 -0.3257
 7906SOL    HW235178   2.594   0.089  16.043  0.5633  3.0403  0.4990
 7907SOL     OW35179   2.139   3.438   8.069 -0.0723 -0.3641  0.5496
 7907SOL    HW135180   2.141   3.360   8.014  1.3556  0.3978 -0.4968
 7907SOL    HW235181   2.072   3.414   8.133 -0.2116  1.3568  1.0651
 7908SOL     OW35182   1.137   0.548   0.389  0.1484  0.0396 -0.0383
 7908SOL    HW135183   1.068   0.567   0.452  0.2122  2.1396 -0.6121
 7908SOL    HW235184   1.084   0.502   0.324 -1.0627 -0.7483  1.5053
 7909SOL     OW35185   1.607   2.529   3.398 -0.3225  0.4802  0.0423
 7909SOL    HW135186   1.546   2.474   3.449 -0.0075 -0.3411 -0.4661
 7909SOL    HW235187   1.640   2.572   3.477  0.3637 -1.4156  0.8022
 7910SOL     OW35188   3.907   4.199  12.063  0.1630  0.3858  0.2740
 7910SOL    HW135189   3.989   4.178  12.017  1.0165 -0.7833  2.3079
 7910SOL    HW235190   3.911   4.167  12.153  1.1951 -1.6654 -0.4744
 7911SOL     OW35191   0.038   3.940   7.533 -0.4447 -0.4283 -0.2401
 7911SOL    HW135192   4.692   4.003   7.527  2.5022  2.7843 -1.7115
 7911SOL    HW235193   0.073   3.933   7.444 -0.3707 -3.2585 -0.0062
 7912SOL     OW35194   3.966   2.673  12.447 -0.0564  0.1630  0.0213
 7912SOL    HW135195   3.915   2.595  12.470 -1.1266  1.5392  2.2376
 7912SOL    HW235196   4.047   2.631  12.417  0.3363  0.2586  0.9375
 7913SOL     OW35197   3.191   1.579  17.489  1.1779  0.1843  0.3987
 7913SOL    HW135198   3.278   1.566  17.527  0.6042  1.5710  2.1759
 7913SOL    HW235199   3.136   1.546  17.559  0.9443  1.7876  0.9638
 7914SOL     OW35200   2.534   0.359  14.154 -1.1066 -0.3340  0.0957
 7914SOL    HW135201   2.589   0.400  14.221 -2.1171  2.8795 -1.0493
 7914SOL    HW235202   2.473   0.295  14.192 -0.1125 -2.2379 -1.4694
 7915SOL     OW35203   2.686   2.856   9.516 -0.3637 -0.1755 -0.3133
 7915SOL    HW135204   2.595   2.872   9.541 -0.6214 -1.7039 -0.2392
 7915SOL    HW235205   2.681   2.762   9.498  0.0409 -0.3401  0.4243
 7916SOL     OW35206   2.334   3.913   4.419  0.3984  0.3606 -0.1811
 7916SOL    HW135207   2.389   3.947   4.489  1.2333  0.2292 -0.7758
 7916SOL    HW235208   2.337   3.821   4.445 -0.7253  0.4068  0.1278
 7917SOL     OW35209   2.667   1.694   4.876 -0.1314 -0.3157  0.0668
 7917SOL    HW135210   2.581   1.717   4.910  0.0070  0.2566  0.0256
 7917SOL    HW235211   2.655   1.603   4.847  0.6013 -0.8073  1.3367
 7918SOL     OW35212   3.491   4.240   5.259 -0.1551 -0.0222 -0.1349
 7918SOL    HW135213   3.432   4.251   5.185  1.3306  0.4407 -1.2483
 7918SOL    HW235214   3.545   4.173   5.218 -0.4232 -1.7786  2.3942
 7919SOL     OW35215   3.252   0.401  13.033  0.0537  0.8428 -0.5426
 7919SOL    HW135216   3.298   0.351  12.966 -3.0683 -1.2151 -1.1853
 7919SOL    HW235217   3.230   0.481  12.985  2.8708  2.3459  0.6830
 7920SOL     OW35218   3.252   3.409   4.174  0.1026  0.2683 -0.3073
 7920SOL    HW135219   3.183   3.423   4.109  1.1913 -1.9096 -1.9438
 7920SOL    HW235220   3.309   3.482   4.151 -1.3573  1.2801 -0.7173
 7921SOL     OW35221   0.637   3.855   7.024 -0.1928 -0.5616  0.2375
 7921SOL    HW135222   0.636   3.793   7.097  0.2593 -0.0575  0.6683
 7921SOL    HW235223   0.706   3.821   6.967 -0.2471 -0.2050 -0.0419
 7922SOL     OW35224   0.876   2.657   2.003 -0.2989 -0.5968  0.2069
 7922SOL    HW135225   0.917   2.577   1.970  1.6391  0.2059  0.6411
 7922SOL    HW235226   0.914   2.713   1.935  0.5267 -1.5828 -0.1414
 7923SOL     OW35227   3.249   2.113   9.216 -0.1179 -0.0160 -0.9082
 7923SOL    HW135228   3.261   2.199   9.175  1.9858  0.5179  0.7930
 7923SOL    HW235229   3.194   2.137   9.291  2.3907 -1.9234  1.5344
 7924SOL     OW35230   2.510   4.279   8.744 -0.1999 -0.0577  0.7837
 7924SOL    HW135231   2.486   4.214   8.678  0.7752 -0.2050  0.5730
 7924SOL    HW235232   2.589   4.304   8.696  0.7421 -1.6958  1.4898
 7925SOL     OW35233   2.502   2.567   7.122  0.2723  0.4236 -0.4314
 7925SOL    HW135234   2.416   2.574   7.082 -0.0244  0.8996  0.2741
 7925SOL    HW235235   2.496   2.475   7.148  1.7310  0.1665 -1.0281
 7926SOL     OW35236   2.549   0.699  10.047  0.2819  0.0191 -0.1830
 7926SOL    HW135237   2.496   0.646  10.105 -0.0615  1.4624  0.8316
 7926SOL    HW235238   2.531   0.658   9.962 -2.9356 -0.3916  0.7228
 7927SOL     OW35239   3.057   4.118   3.126 -0.8026 -0.1621 -0.0427
 7927SOL    HW135240   2.990   4.053   3.106  0.0558 -0.8473 -0.7195
 7927SOL    HW235241   3.133   4.084   3.079  0.7231  1.0796  1.5268
 7928SOL     OW35242   2.095   4.395   8.877 -0.0678 -0.1532  0.2524
 7928SOL    HW135243   2.186   4.403   8.907  0.1612  1.1152 -0.7891
 7928SOL    HW235244   2.085   4.483   8.842 -0.8284 -1.3721 -2.6659
 7929SOL     OW35245   3.447   2.046   2.920  0.9639 -0.6926 -0.5545
 7929SOL    HW135246   3.418   2.078   2.835  0.2862  1.6807  0.5800
 7929SOL    HW235247   3.372   2.003   2.961  0.9557 -0.4343 -0.2991
 7930SOL     OW35248   2.453   3.663   5.389  0.3594 -0.1583 -0.2782
 7930SOL    HW135249   2.397   3.599   5.432 -0.2621  0.6297  0.0808
 7930SOL    HW235250   2.476   3.718   5.464 -1.2514 -0.6896  0.6121
 7931SOL     OW35251   1.498   2.092   3.086  0.2615 -0.0558  0.2239
 7931SOL    HW135252   1.574   2.041   3.055 -0.2987 -1.3760  1.0177
 7931SOL    HW235253   1.440   2.040   3.030  1.9847 -0.5885 -1.1122
 7932SOL     OW35254   2.505   3.571   9.252  0.0963  0.1553 -0.1236
 7932SOL    HW135255   2.491   3.649   9.307 -2.3646 -1.8013  2.0240
 7932SOL    HW235256   2.565   3.521   9.307  0.6285  0.5759 -0.3188
 7933SOL     OW35257   0.681   1.953   5.176 -0.5843 -0.0261  0.7831
 7933SOL    HW135258   0.605   1.983   5.126  0.3999 -1.5381 -1.6799
 7933SOL    HW235259   0.747   1.929   5.111  0.3667  0.0681  1.7200
 7934SOL     OW35260   3.600   0.370   6.198  0.0495  0.0527  0.2220
 7934SOL    HW135261   3.695   0.367   6.192  0.1323  2.8654  0.2372
 7934SOL    HW235262   3.583   0.372   6.292  0.7734 -0.8089  0.3685
 7935SOL     OW35263   2.526   2.743   8.061 -0.0373  0.1839  0.1512
 7935SOL    HW135264   2.560   2.759   8.149 -2.3581  2.8947  0.5568
 7935SOL    HW235265   2.597   2.699   8.014 -0.7652 -0.6325 -0.2015
 7936SOL     OW35266   0.236   2.425   3.307 -0.4073  0.1060  0.9082
 7936SOL    HW135267   0.154   2.428   3.356 -0.4362  0.0344  0.8647
 7936SOL    HW235268   0.285   2.500   3.341 -1.3156 -0.2450  3.0067
 7937SOL     OW35269   3.688   3.967   8.971  0.3251 -0.2374  0.1831
 7937SOL    HW135270   3.593   3.967   8.961  0.3938 -0.3479 -0.4513
 7937SOL    HW235271   3.701   4.052   9.014  2.4010 -0.2450 -0.4536
 7938SOL     OW35272   0.621   3.281   7.236 -0.3815 -0.5415  0.3281
 7938SOL    HW135273   0.565   3.310   7.165  0.6163 -0.6512 -0.5075
 7938SOL    HW235274   0.573   3.327   7.305 -0.3648  1.3128 -0.9080
 7939SOL     OW35275   3.338   1.509   7.323  0.1735 -0.3796  0.1677
 7939SOL    HW135276   3.349   1.420   7.356 -0.5625 -0.8304 -0.8111
 7939SOL    HW235277   3.425   1.550   7.320  0.1383 -0.3609 -0.6799
 7940SOL     OW35278   0.635   2.280   4.090  0.2347  0.2344  0.6125
 7940SOL    HW135279   0.716   2.234   4.067  0.7568  1.3122  0.3042
 7940SOL    HW235280   0.579   2.206   4.115  0.4040  0.2899  1.1531
 7941SOL     OW35281   2.861   0.255   3.701 -0.0012 -0.0230 -0.3620
 7941SOL    HW135282   2.767   0.240   3.707 -0.2422  1.1622 -1.1012
 7941SOL    HW235283   2.885   0.204   3.624 -0.6462  1.1447 -1.3377
 7942SOL     OW35284   4.213   1.136   6.347  0.0463 -0.0102  0.2157
 7942SOL    HW135285   4.128   1.109   6.384  0.8493 -1.3767  1.0598
 7942SOL    HW235286   4.264   1.055   6.345  0.3893  0.2695 -2.2125
 7943SOL     OW35287   4.474   4.571   8.792 -0.1039  0.7966 -0.2252
 7943SOL    HW135288   4.519   4.632   8.851  0.3886 -0.5862  0.8404
 7943SOL    HW235289   4.422   4.517   8.851 -1.3513  3.6555  1.2997
 7944SOL     OW35290   4.341   3.253   7.488 -0.0369  0.4246 -0.6640
 7944SOL    HW135291   4.275   3.295   7.543  0.9699 -2.0907  2.4633
 7944SOL    HW235292   4.295   3.182   7.442 -1.9915  0.7716  0.7915
 7945SOL     OW35293   3.339   4.485  16.878  0.0354 -0.1918  0.3120
 7945SOL    HW135294   3.394   4.483  16.800  0.3560 -1.1298  0.5526
 7945SOL    HW235295   3.398   4.522  16.944 -0.5805  0.6627  0.3764
 7946SOL     OW35296   1.472   0.422   2.494  0.1887  0.2302 -0.5120
 7946SOL    HW135297   1.473   0.463   2.407  1.9850 -0.5215 -0.8647
 7946SOL    HW235298   1.510   0.336   2.475 -0.0052 -0.4840  2.4255
 7947SOL     OW35299   4.347   3.709   2.862  0.3938 -0.0029 -0.0303
 7947SOL    HW135300   4.277   3.763   2.900 -0.7326 -0.9694 -0.7105
 7947SOL    HW235301   4.429   3.755   2.881  0.3477 -0.3878  1.0894
 7948SOL     OW35302   1.479   2.794   1.117 -0.6872 -0.3877 -0.5718
 7948SOL    HW135303   1.405   2.832   1.165 -0.0559 -1.2864  1.1141
 7948SOL    HW235304   1.462   2.701   1.136  1.3116 -0.1337  2.4003
 7949SOL     OW35305   0.087   4.684   7.685 -0.6085  0.5179 -0.2393
 7949SOL    HW135306   0.110   0.039   7.640 -0.0680 -0.9908 -2.6282
 7949SOL    HW235307   0.011   4.716   7.734 -0.7547  0.1484 -0.2213
 7950SOL     OW35308   1.982   4.590  17.447 -0.4169 -0.1834 -0.0266
 7950SOL    HW135309   2.069   4.555  17.429 -0.2763 -0.9085  2.0857
 7950SOL    HW235310   1.924   4.519  17.419  0.0037 -1.3562  2.0639
 7951SOL     OW35311   2.687   1.559   6.826  0.4897  0.7980  0.2286
 7951SOL    HW135312   2.662   1.642   6.785 -1.8142  1.2049  2.4054
 7951SOL    HW235313   2.680   1.591   6.917  0.8399  0.3750  0.4039
 7952SOL     OW35314   0.640   1.750   8.532 -0.0773  0.6484 -0.3408
 7952SOL    HW135315   0.636   1.820   8.466 -0.2595  0.9019 -0.0613
 7952SOL    HW235316   0.734   1.732   8.536 -0.2167  0.3218  1.6949
 7953SOL     OW35317   3.909   3.124   2.091  0.4739  0.1964 -0.1769
 7953SOL    HW135318   3.905   3.192   2.023  2.0291  1.2081  0.7517
 7953SOL    HW235319   3.968   3.059   2.051 -0.9765 -2.1476  1.4621
 7954SOL     OW35320   2.672   4.605   5.313  0.1741 -0.0267  0.8312
 7954SOL    HW135321   2.689   4.690   5.271  1.0461 -0.6567 -0.0898
 7954SOL    HW235322   2.714   4.621   5.397  0.9065  1.7447  0.1373
 7955SOL     OW35323   0.525   4.071  15.481  0.1046 -0.1827 -0.3885
 7955SOL    HW135324   0.433   4.092  15.472  0.6305  2.0936 -0.5509
 7955SOL    HW235325   0.565   4.154  15.453  0.8810 -0.8216 -1.1718
 7956SOL     OW35326   3.239   2.604   3.268 -0.0042  0.0325 -0.1657
 7956SOL    HW135327   3.149   2.630   3.250 -0.5217 -1.3720  0.3783
 7956SOL    HW235328   3.244   2.614   3.364  2.1593  0.4090 -0.3203
 7957SOL     OW35329   3.934   0.930  11.466 -0.1689 -0.4521 -0.0585
 7957SOL    HW135330   4.021   0.960  11.440  0.0756 -0.5692  0.6059
 7957SOL    HW235331   3.960   0.886  11.547  0.4482  1.0260  0.5363
 7958SOL     OW35332   0.015   2.976  15.018 -0.1229 -0.3360 -0.1934
 7958SOL    HW135333   4.684   3.049  14.993  2.8613  2.1033  0.0859
 7958SOL    HW235334   0.016   2.942  14.929  0.4418 -0.5534 -0.1094
 7959SOL     OW35335   1.348   0.640  11.255 -0.7832  0.1395 -0.2431
 7959SOL    HW135336   1.395   0.607  11.178  1.7836  0.8234  1.0257
 7959SOL    HW235337   1.261   0.655  11.219 -0.2407  0.7038 -1.3192
 7960SOL     OW35338   0.082   0.074   8.292  0.2949  0.1217  0.1865
 7960SOL    HW135339   0.073   0.153   8.346 -1.5854  0.3712 -0.4706
 7960SOL    HW235340   0.093   0.114   8.206 -0.2417 -0.6812 -0.2573
 7961SOL     OW35341   1.800   2.920  11.885 -0.0521 -0.2729  0.6336
 7961SOL    HW135342   1.885   2.928  11.928 -0.5728 -1.0091  1.8184
 7961SOL    HW235343   1.740   2.953  11.952 -1.0114 -2.3295  0.7951
 7962SOL     OW35344   2.973   1.681   8.473  0.6989  0.6952  0.0673
 7962SOL    HW135345   2.915   1.716   8.541 -0.5344  1.6199 -1.4469
 7962SOL    HW235346   3.024   1.759   8.448 -1.0184  2.2974  1.5389
 7963SOL     OW35347   1.224   3.851   2.090  0.0778  0.1421 -0.0800
 7963SOL    HW135348   1.290   3.920   2.099  0.7353 -0.0012 -3.7384
 7963SOL    HW235349   1.225   3.819   2.180  1.6310  0.8063  0.1499
 7964SOL     OW35350   4.224   2.608   2.020  0.5661  0.3012 -0.0953
 7964SOL    HW135351   4.298   2.657   1.984  1.4597  0.9692  2.6241
 7964SOL    HW235352   4.248   2.519   1.997 -0.7218 -0.5055  1.6869
 7965SOL     OW35353   1.202   2.567   2.071 -0.1721  0.0442  0.0850
 7965SOL    HW135354   1.111   2.542   2.056  0.1699 -0.8292 -0.4919
 7965SOL    HW235355   1.209   2.636   2.005 -0.7302 -0.3231 -0.3581
 7966SOL     OW35356   4.691   4.260   9.455 -0.1617 -1.0383  0.0455
 7966SOL    HW135357   0.002   4.254   9.543 -2.3897 -0.2100  1.0407
 7966SOL    HW235358   0.041   4.287   9.404 -0.7483 -0.1033 -0.3194
 7967SOL     OW35359   2.991   4.433   2.720 -0.1113  0.5319 -0.1010
 7967SOL    HW135360   3.033   4.456   2.637  1.5564 -3.0940 -0.2756
 7967SOL    HW235361   2.910   4.484   2.714 -1.2597 -1.3616 -0.6732
 7968SOL     OW35362   0.501   2.566  13.519  0.3914 -0.6333  0.4290
 7968SOL    HW135363   0.526   2.483  13.479  0.8384  1.2596 -3.1783
 7968SOL    HW235364   0.587   2.607  13.529 -0.1118  0.1152  1.7965
 7969SOL     OW35365   0.221   2.176  17.395  0.3596  0.0441 -0.5364
 7969SOL    HW135366   0.138   2.224  17.402  0.0451 -0.1765 -2.6096
 7969SOL    HW235367   0.282   2.242  17.362 -0.6724  0.3381 -1.8328
 7970SOL     OW35368   2.219   0.469   7.859 -0.3908 -0.2698  0.5854
 7970SOL    HW135369   2.281   0.449   7.930 -0.4922 -2.2510  0.1244
 7970SOL    HW235370   2.138   0.459   7.910  0.0545 -2.6902  0.8289
 7971SOL     OW35371   1.606   0.689   3.354 -0.0269  0.1347 -0.0968
 7971SOL    HW135372   1.541   0.635   3.400  0.6819  0.3047  1.1151
 7971SOL    HW235373   1.669   0.704   3.424  1.4159  2.1344 -1.8237
 7972SOL     OW35374   1.118   3.293   4.405 -0.5967 -0.4202  0.2677
 7972SOL    HW135375   1.062   3.328   4.474  0.2094 -2.4668  1.9686
 7972SOL    HW235376   1.064   3.287   4.326 -0.0288 -0.5348 -0.1090
 7973SOL     OW35377   3.819   4.368   7.223 -0.5319 -0.0514  0.0602
 7973SOL    HW135378   3.835   4.286   7.176 -0.7071 -0.1647  0.1996
 7973SOL    HW235379   3.894   4.417   7.189 -1.3912  1.0516 -0.2490
 7974SOL     OW35380   2.429   4.423   7.442  0.0901 -0.6559  0.0279
 7974SOL    HW135381   2.368   4.385   7.507 -0.1723 -0.0645  0.1256
 7974SOL    HW235382   2.496   4.466   7.495  1.9408  0.4379 -3.2216
 7975SOL     OW35383   3.436   0.172   4.964  0.3230  0.3171 -0.4723
 7975SOL    HW135384   3.375   0.137   4.900 -0.5947 -2.3750  1.9041
 7975SOL    HW235385   3.509   0.111   4.955 -0.2324 -0.8165  2.7142
 7976SOL     OW35386   3.886   1.059   3.352  0.4549  0.1912  0.1810
 7976SOL    HW135387   3.806   1.036   3.305  0.5564  0.0748  0.0622
 7976SOL    HW235388   3.871   1.133   3.410  0.2970 -0.0220  0.4149
 7977SOL     OW35389   2.492   3.646   2.327  0.0226  0.0244 -0.1698
 7977SOL    HW135390   2.559   3.601   2.379  0.7774 -1.5957 -2.5530
 7977SOL    HW235391   2.437   3.574   2.295 -0.6025 -0.3641  1.7904
 7978SOL     OW35392   4.278   1.486   4.834 -0.0247  0.3028  0.2095
 7978SOL    HW135393   4.227   1.420   4.881  1.2148  1.0418  2.6011
 7978SOL    HW235394   4.340   1.519   4.898  0.3960 -0.5590  0.2493
 7979SOL     OW35395   4.708   3.724  14.686  0.0428 -0.1350 -0.0220
 7979SOL    HW135396   4.685   3.750  14.596  1.7277  1.9185  0.1523
 7979SOL    HW235397   4.661   3.792  14.734 -0.6475  1.3070 -2.6924
 7980SOL     OW35398   1.905   2.117   8.770  0.2954 -0.4780 -0.1526
 7980SOL    HW135399   1.855   2.047   8.814  0.9150 -1.9942 -1.8603
 7980SOL    HW235400   1.979   2.072   8.730  0.9252  0.9146 -0.5315
 7981SOL     OW35401   3.560   2.748   6.663  0.1140 -0.4817  0.1018
 7981SOL    HW135402   3.581   2.766   6.754  0.6180 -2.5910  0.4236
 7981SOL    HW235403   3.485   2.803   6.640  0.1887 -1.0345 -1.4559
 7982SOL     OW35404   2.199   1.641   9.742  0.0509  0.0108 -0.1032
 7982SOL    HW135405   2.264   1.641   9.671 -0.1962 -1.9865 -0.3403
 7982SOL    HW235406   2.257   1.632   9.817  0.7118  1.5814 -0.4280
 7983SOL     OW35407   4.088   3.669   6.260  0.0727  0.7352 -0.2396
 7983SOL    HW135408   4.103   3.657   6.353  0.7191  0.6172 -0.3590
 7983SOL    HW235409   4.011   3.615   6.242 -1.6517  2.7939  0.9023
 7984SOL     OW35410   1.392   0.630   0.441 -0.2642 -0.6625  0.3632
 7984SOL    HW135411   1.311   0.596   0.402  0.4363 -0.8793 -0.8958
 7984SOL    HW235412   1.367   0.722   0.449  1.3790  0.0173 -2.4637
 7985SOL     OW35413   1.044   2.785   8.673  0.5427  0.1270 -0.4989
 7985SOL    HW135414   1.078   2.763   8.759  1.1684 -1.0919 -1.0611
 7985SOL    HW235415   1.106   2.742   8.614  0.7795  0.6241 -0.6161
 7986SOL     OW35416   1.011   2.543   9.756  0.3118  0.1547  0.7775
 7986SOL    HW135417   0.990   2.488   9.681  0.1845  1.7790 -0.3779
 7986SOL    HW235418   0.925   2.571   9.786 -0.2520 -1.5326  0.7237
 7987SOL     OW35419   2.591   3.501   4.340 -0.0029  0.0668 -0.0284
 7987SOL    HW135420   2.615   3.559   4.412  0.6330 -1.8636  1.3394
 7987SOL    HW235421   2.498   3.513   4.357 -0.1219  0.5632 -1.0200
 7988SOL     OW35422   3.614   1.860   1.759  0.0891 -0.1802 -0.4991
 7988SOL    HW135423   3.640   1.945   1.794  0.2138 -0.5822  0.3954
 7988SOL    HW235424   3.617   1.874   1.664 -1.3301 -1.8375 -0.7930
 7989SOL     OW35425   3.962   2.226   3.639  0.7668  0.0792 -0.1947
 7989SOL    HW135426   4.023   2.286   3.683  2.3243 -0.2945 -1.8466
 7989SOL    HW235427   3.886   2.243   3.696  2.5607  2.1382  1.6397
 7990SOL     OW35428   4.569   4.536   4.592 -0.3577 -0.1136 -0.4115
 7990SOL    HW135429   4.492   4.584   4.622 -0.3300 -0.2266 -0.1592
 7990SOL    HW235430   4.637   4.600   4.614  0.6369 -1.1488 -0.4316
 7991SOL     OW35431   2.513   0.269   3.655 -0.4066 -0.1070 -0.0556
 7991SOL    HW135432   2.540   0.336   3.718 -0.1192 -2.9458  2.8659
 7991SOL    HW235433   2.424   0.257   3.689 -1.0772  0.7068 -1.5162
 7992SOL     OW35434   1.487   3.515  13.946  0.2253  0.0505 -0.3193
 7992SOL    HW135435   1.405   3.510  13.994 -0.4017  0.2442 -1.3908
 7992SOL    HW235436   1.457   3.506  13.856  0.3684 -1.3096 -0.2258
 7993SOL     OW35437   4.554   4.270   4.450  0.4676  0.2026 -0.1274
 7993SOL    HW135438   4.560   4.305   4.361  2.9635 -1.1676 -0.4949
 7993SOL    HW235439   4.543   4.357   4.488 -0.4547 -0.5153  1.2537
 7994SOL     OW35440   0.170   0.180   5.234  0.0770 -0.7524  0.6395
 7994SOL    HW135441   0.138   0.258   5.190 -1.9275 -0.3309  2.8459
 7994SOL    HW235442   0.264   0.196   5.235  0.1213 -1.0002  0.4009
 7995SOL     OW35443   1.617   1.854   5.676  0.0324 -0.2229 -0.3528
 7995SOL    HW135444   1.551   1.904   5.724 -1.0648 -0.6105 -1.4596
 7995SOL    HW235445   1.683   1.922   5.664  0.2271 -0.3538 -0.0110
 7996SOL     OW35446   2.807   2.008   5.251 -0.3514 -0.1900 -0.0734
 7996SOL    HW135447   2.875   2.016   5.317 -0.6996 -0.3854  0.3114
 7996SOL    HW235448   2.867   1.975   5.184  0.1668 -1.8995  1.2425
 7997SOL     OW35449   1.757   0.120  11.996  0.4849 -0.2197 -0.0816
 7997SOL    HW135450   1.712   0.169  11.928 -0.3867 -1.1918 -0.1999
 7997SOL    HW235451   1.737   0.030  11.972  0.4665 -0.8481  2.2390
 7998SOL     OW35452   3.561   0.229   9.647 -0.2157  0.1496  0.1482
 7998SOL    HW135453   3.586   0.175   9.572 -1.9395  0.0666 -0.3904
 7998SOL    HW235454   3.536   0.308   9.599  1.0527  0.2518 -0.3335
 7999SOL     OW35455   0.070   2.017   2.252 -0.2229  0.2655  0.6517
 7999SOL    HW135456   0.021   1.962   2.314 -0.5451 -1.2452 -0.9569
 7999SOL    HW235457   0.015   2.000   2.176  0.2823 -1.0420  0.5763
 8000SOL     OW35458   4.029   1.154   6.971  0.4890 -0.1842 -0.4514
 8000SOL    HW135459   3.960   1.217   6.951  0.2608 -0.1786  0.3456
 8000SOL    HW235460   3.991   1.074   6.935 -0.6553 -0.3004  1.0261
 8001SOL     OW35461   4.033   1.170  12.958  0.6669  0.0735  0.0416
 8001SOL    HW135462   4.029   1.075  12.946 -0.0787  0.1941 -0.6540
 8001SOL    HW235463   4.128   1.173  12.950  0.7981 -0.6276  1.3381
 8002SOL     OW35464   2.705   2.240   9.842 -0.3678 -0.7284 -0.0026
 8002SOL    HW135465   2.699   2.306   9.911 -0.1851 -1.2733  0.5338
 8002SOL    HW235466   2.720   2.163   9.896  2.7218  0.8222  1.3595
 8003SOL     OW35467   1.451   3.867   7.529 -0.8032 -0.3127  0.3725
 8003SOL    HW135468   1.437   3.953   7.568  1.3488 -0.1679  0.8341
 8003SOL    HW235469   1.377   3.856   7.470  0.0111 -0.2497 -0.6450
 8004SOL     OW35470   1.846   1.217   2.412 -0.4061  0.6716  0.1559
 8004SOL    HW135471   1.809   1.215   2.500  0.7367  0.3083  0.6288
 8004SOL    HW235472   1.776   1.166   2.372 -0.4821  0.1700  0.9265
 8005SOL     OW35473   2.996   3.127  12.801 -0.0279 -0.0180  0.2647
 8005SOL    HW135474   3.013   3.046  12.752  0.3175  0.8592 -1.0550
 8005SOL    HW235475   2.943   3.171  12.734 -2.8837 -0.8067  2.0289
 8006SOL     OW35476   1.205   2.314   7.367 -0.2311 -0.1366 -0.7041
 8006SOL    HW135477   1.233   2.367   7.293 -1.3329 -1.1259 -1.8468
 8006SOL    HW235478   1.161   2.385   7.413 -4.0739 -3.9930  1.6629
 8007SOL     OW35479   0.534   0.250   1.761 -0.6188 -0.4906  0.1689
 8007SOL    HW135480   0.624   0.219   1.765  0.2680  2.3831  2.6091
 8007SOL    HW235481   0.489   0.175   1.722  2.4898 -1.7139 -1.0276
 8008SOL     OW35482   3.105   3.596   3.229 -0.1359  0.2832  0.8185
 8008SOL    HW135483   3.080   3.519   3.280  0.2822 -0.3134  0.1181
 8008SOL    HW235484   3.159   3.639   3.296 -0.2438  1.1614  0.3375
 8009SOL     OW35485   2.760   2.309   4.255  0.1908 -0.1246 -0.2677
 8009SOL    HW135486   2.829   2.261   4.209 -0.1199 -1.4674  0.6769
 8009SOL    HW235487   2.800   2.380   4.304 -0.4428 -0.4252  0.6881
 8010SOL     OW35488   2.197   3.110   4.737  0.5884  0.3720 -0.6310
 8010SOL    HW135489   2.207   3.123   4.643 -1.0498  2.0836 -0.5661
 8010SOL    HW235490   2.235   3.023   4.752 -0.5138  0.4600  2.7280
 8011SOL     OW35491   3.664   3.784   3.301 -0.4950  0.1716  0.1335
 8011SOL    HW135492   3.645   3.770   3.208  0.7034 -0.4786 -0.0237
 8011SOL    HW235493   3.598   3.729   3.342 -1.1713  1.6399  0.9986
 8012SOL     OW35494   4.083   1.099  15.443  0.4307 -0.3127 -0.6155
 8012SOL    HW135495   4.139   1.071  15.371  2.3394 -2.1447  1.5937
 8012SOL    HW235496   4.137   1.079  15.519 -0.3202  1.0177  0.2695
 8013SOL     OW35497   0.471   3.004   7.447  0.8308 -0.3981 -0.3411
 8013SOL    HW135498   0.382   2.984   7.476  0.9184 -1.8685 -1.0557
 8013SOL    HW235499   0.504   3.065   7.512 -0.7487 -0.8618  0.8875
 8014SOL     OW35500   4.710   1.218   2.194 -0.0161 -0.3575 -0.2890
 8014SOL    HW135501   4.623   1.259   2.195 -0.1630 -0.7467  1.7197
 8014SOL    HW235502   0.035   1.284   2.147  0.5223 -0.7843 -0.2950
 8015SOL     OW35503   3.340   2.486   9.727 -0.4161 -0.0356  0.1816
 8015SOL    HW135504   3.278   2.421   9.761 -0.2454 -0.4693 -0.3405
 8015SOL    HW235505   3.294   2.569   9.741  2.2046  1.0964  2.0292
 8016SOL     OW35506   2.260   0.319  16.276 -0.2149  0.5029 -0.8610
 8016SOL    HW135507   2.227   0.230  16.289  2.8030 -0.7059 -1.3162
 8016SOL    HW235508   2.187   0.356  16.226 -3.9264 -1.4172  3.1935
 8017SOL     OW35509   3.537   0.471   1.090 -0.4750 -0.0757 -0.2125
 8017SOL    HW135510   3.585   0.415   1.151  0.7573  0.0669 -1.0418
 8017SOL    HW235511   3.580   0.448   1.007 -0.1661 -1.4112  0.3190
 8018SOL     OW35512   1.213   3.701   9.041 -0.0813 -0.3179 -0.7146
 8018SOL    HW135513   1.135   3.648   9.055 -0.0310  0.1327  1.3491
 8018SOL    HW235514   1.219   3.681   8.948  1.3236  1.9254 -1.1060
 8019SOL     OW35515   3.743   2.208   7.292  0.0872  0.4516  0.4048
 8019SOL    HW135516   3.827   2.171   7.322  0.3122  0.7464  0.1311
 8019SOL    HW235517   3.768   2.300   7.297  0.8328  0.2481  0.4306
 8020SOL     OW35518   0.885   1.402   5.231 -0.5084 -0.2053  0.1714
 8020SOL    HW135519   0.940   1.335   5.190 -1.1357 -1.7449  1.8003
 8020SOL    HW235520   0.924   1.485   5.206  0.2513 -1.4954 -2.9661
 8021SOL     OW35521   0.193   1.828   1.200  0.8387  0.3680  0.3374
 8021SOL    HW135522   0.179   1.737   1.175 -0.2947  0.6959 -0.2119
 8021SOL    HW235523   0.269   1.860   1.151  1.7006 -0.9729  0.7857
 8022SOL     OW35524   4.064   2.068   0.464  0.1757 -0.4791 -0.7384
 8022SOL    HW135525   4.029   1.979   0.471 -1.6442  0.0571 -3.3825
 8022SOL    HW235526   4.005   2.120   0.518  0.6628  1.6680 -2.2912
 8023SOL     OW35527   0.975   3.918   3.018  0.4909  0.7450  0.0866
 8023SOL    HW135528   0.936   3.921   2.931  1.9496 -2.5142 -0.6555
 8023SOL    HW235529   0.918   3.985   3.058  0.1985  0.2090  0.5651
 8024SOL     OW35530   0.288   1.007  15.449  0.0034 -0.3424 -0.3689
 8024SOL    HW135531   0.367   1.060  15.446  0.3628 -0.7808  0.9966
 8024SOL    HW235532   0.266   1.022  15.541 -0.4974  0.3984 -0.6060
 8025SOL     OW35533   2.700   3.133   3.184 -0.7114 -1.1387  0.4259
 8025SOL    HW135534   2.691   3.118   3.089 -2.2242 -0.0973  0.3931
 8025SOL    HW235535   2.659   3.220   3.191 -0.1320 -1.0568  2.7502
 8026SOL     OW35536   3.566   3.226   4.965 -0.6300  0.0698 -0.0267
 8026SOL    HW135537   3.498   3.163   4.989 -0.7403  1.5743  3.6905
 8026SOL    HW235538   3.623   3.160   4.927  1.1105  0.5206  1.8106
 8027SOL     OW35539   1.000   0.061   1.841 -0.7691  0.4433  0.4792
 8027SOL    HW135540   1.010   4.695   1.866 -2.0363  0.4953  1.1796
 8027SOL    HW235541   1.063   0.100   1.902  1.3281 -1.5233 -0.4249
 8028SOL     OW35542   4.011   3.927   3.983  0.7060 -0.0208 -0.2921
 8028SOL    HW135543   3.995   3.942   3.890 -2.2710  1.2039  0.4229
 8028SOL    HW235544   3.928   3.882   3.999  1.7577 -1.8721 -0.1284
 8029SOL     OW35545   3.874   2.779   4.409  0.3594 -0.1389 -0.0551
 8029SOL    HW135546   3.871   2.684   4.417 -0.4324 -0.2519 -1.6718
 8029SOL    HW235547   3.792   2.801   4.454  1.8554 -0.0757  2.6199
 8030SOL     OW35548   2.694   1.759   1.252 -0.3581  0.5668 -0.0590
 8030SOL    HW135549   2.755   1.735   1.183 -0.5535  0.0520 -0.0532
 8030SOL    HW235550   2.645   1.827   1.205  2.8130  0.3089 -3.6924
 8031SOL     OW35551   3.874   0.011   3.316  0.9078  0.1348 -0.1419
 8031SOL    HW135552   3.817   0.013   3.393 -2.1104  1.2840 -2.3728
 8031SOL    HW235553   3.929   4.663   3.344 -0.5053 -0.3877  1.2792
 8032SOL     OW35554   0.902   0.228   3.464  0.0562 -0.1248 -0.1425
 8032SOL    HW135555   0.952   0.215   3.384 -0.9773 -1.9164 -0.5033
 8032SOL    HW235556   0.817   0.204   3.426 -1.2397  2.1871  1.3241
 8033SOL     OW35557   2.046   4.320  11.740 -0.3532  0.0376  0.8411
 8033SOL    HW135558   2.014   4.410  11.752 -0.7816  0.0673 -0.5328
 8033SOL    HW235559   2.121   4.336  11.682  0.1161 -2.9488  0.6572
 8034SOL     OW35560   3.737   3.954   5.832  0.0953  0.0012 -0.3827
 8034SOL    HW135561   3.778   3.882   5.881 -0.0768  0.5617  0.5729
 8034SOL    HW235562   3.709   3.905   5.754  0.7499 -1.2526  0.1670
 8035SOL     OW35563   4.451   3.991   7.337  0.1919 -0.3294 -0.1268
 8035SOL    HW135564   4.459   4.082   7.365 -2.3244 -0.7334  1.8668
 8035SOL    HW235565   4.424   4.011   7.247  0.2441 -0.5994 -0.2023
 8036SOL     OW35566   4.688   0.036   5.079  0.2981 -0.8777 -0.1486
 8036SOL    HW135567   4.693   4.668   5.096 -0.3653 -0.0961  4.2649
 8036SOL    HW235568   0.039   0.062   5.131  0.7745 -0.6132 -0.9801
 8037SOL     OW35569   2.724   1.376   3.053  0.1229  0.9682  0.0297
 8037SOL    HW135570   2.639   1.410   3.080  0.0426 -0.7480  1.9339
 8037SOL    HW235571   2.733   1.307   3.119 -1.8881 -0.9114 -1.6775
 8038SOL     OW35572   2.640   2.799   8.326 -0.5138 -0.1656  0.0479
 8038SOL    HW135573   2.575   2.809   8.396  0.2551 -1.4186  0.9225
 8038SOL    HW235574   2.660   2.706   8.320 -0.5005 -0.0427 -1.7841
 8039SOL     OW35575   2.644   4.422  10.000 -0.2890  0.2164  0.4361
 8039SOL    HW135576   2.716   4.420  10.063 -1.8808  1.2346  2.2780
 8039SOL    HW235577   2.585   4.373  10.056  0.1409  0.5754  1.1963
 8040SOL     OW35578   3.226   2.871   1.949  0.6500 -0.1339  0.0784
 8040SOL    HW135579   3.302   2.881   1.891  1.3827 -1.6410  0.7748
 8040SOL    HW235580   3.257   2.790   1.991 -0.3053 -1.4052 -1.7018
 8041SOL     OW35581   1.867   0.157   4.656 -0.3500 -0.1536  0.2762
 8041SOL    HW135582   1.898   0.124   4.572 -1.9930 -3.0628  0.8004
 8041SOL    HW235583   1.809   0.083   4.675 -0.6857 -0.1491 -0.7245
 8042SOL     OW35584   2.639   3.544   8.333 -0.0141  0.1313  0.1991
 8042SOL    HW135585   2.573   3.609   8.307 -0.2544  0.7596  2.4165
 8042SOL    HW235586   2.586   3.464   8.332  0.4842 -0.2037  1.9001
 8043SOL     OW35587   4.143   0.712  15.473 -0.1316 -0.3192 -0.0339
 8043SOL    HW135588   4.068   0.680  15.523 -1.9264 -2.9833 -4.4159
 8043SOL    HW235589   4.101   0.789  15.434 -1.4497 -1.2181 -0.3676
 8044SOL     OW35590   2.476   1.294   8.434 -0.0277 -0.3273  0.3401
 8044SOL    HW135591   2.394   1.318   8.478  0.1540 -0.2141  0.6131
 8044SOL    HW235592   2.450   1.298   8.342 -1.7422  2.3521  0.9488
 8045SOL     OW35593   4.311   4.193  14.000  0.2158  0.3862 -0.3846
 8045SOL    HW135594   4.391   4.246  14.005 -0.5479  1.3291  1.5623
 8045SOL    HW235595   4.340   4.133  13.930  2.2516 -2.5173  2.8943
 8046SOL     OW35596   0.965   2.512   5.821  0.2236 -0.9290  0.1312
 8046SOL    HW135597   1.056   2.482   5.814  0.0430 -1.2483 -0.7822
 8046SOL    HW235598   0.931   2.499   5.733  0.7485  0.7062 -0.3096
 8047SOL     OW35599   0.721   1.271   7.420 -0.3482 -0.5107 -0.6487
 8047SOL    HW135600   0.693   1.189   7.461 -0.7318 -1.0679 -2.0249
 8047SOL    HW235601   0.692   1.256   7.330 -1.0074 -0.1668 -0.4974
 8048SOL     OW35602   2.235   3.147   8.032 -0.1711  0.3628 -0.6196
 8048SOL    HW135603   2.296   3.198   7.980 -0.6957  1.2691 -0.3515
 8048SOL    HW235604   2.299   3.096   8.082  0.7061  1.4704 -0.6264
 8049SOL     OW35605   4.479   3.978  17.132  0.2812  0.7288 -0.1291
 8049SOL    HW135606   4.469   3.890  17.168  1.3241 -0.0855 -1.8217
 8049SOL    HW235607   4.532   4.007  17.207 -1.8741 -0.6024  1.9344
 8050SOL     OW35608   1.480   0.863   6.485  0.1665  0.2818  0.4654
 8050SOL    HW135609   1.572   0.880   6.505  0.7240 -2.0636 -0.0183
 8050SOL    HW235610   1.475   0.769   6.506  1.8123  0.2948  0.9769
 8051SOL     OW35611   1.325   3.463  14.805 -0.0984 -0.4958  0.7722
 8051SOL    HW135612   1.253   3.476  14.743 -1.7728 -3.3609  2.0998
 8051SOL    HW235613   1.373   3.387  14.773 -1.2308 -1.0801  0.4590
 8052SOL     OW35614   2.967   3.830  11.094 -0.6494 -0.5851 -0.2068
 8052SOL    HW135615   3.024   3.831  11.017 -0.3176 -1.4682  0.0223
 8052SOL    HW235616   3.010   3.769  11.154  1.5213  1.0604 -0.0958
 8053SOL     OW35617   4.458   0.314  10.316  0.0947 -0.6100  0.0549
 8053SOL    HW135618   4.395   0.386  10.308  1.0009  0.1646 -0.1632
 8053SOL    HW235619   4.491   0.328  10.405 -0.4761  1.8904 -0.1269
 8054SOL     OW35620   2.447   1.168  15.091  0.6918 -0.2380  0.2956
 8054SOL    HW135621   2.357   1.192  15.114  1.2355  1.0927  1.0443
 8054SOL    HW235622   2.511   1.231  15.124  0.4622  0.4513 -0.5608
 8055SOL     OW35623   2.544   2.740  15.842  0.1354  0.0635 -0.3988
 8055SOL    HW135624   2.630   2.703  15.823  0.9819  2.0559 -0.4172
 8055SOL    HW235625   2.528   2.701  15.928 -0.5239  1.9956  0.3496
 8056SOL     OW35626   2.376   1.340   8.976  0.0727 -0.0751  0.5348
 8056SOL    HW135627   2.425   1.305   8.902 -0.8074 -1.2450  0.5114
 8056SOL    HW235628   2.373   1.259   9.025  2.0593 -1.0265 -0.9035
 8057SOL     OW35629   4.658   2.688   3.655 -0.1230  0.3026 -0.3249
 8057SOL    HW135630   4.564   2.702   3.667  0.0874  2.0481 -0.7583
 8057SOL    HW235631   4.689   2.755   3.716 -0.9423  1.0869 -0.7726
 8058SOL     OW35632   3.522   0.236   8.851  0.4847 -0.4882 -0.2317
 8058SOL    HW135633   3.463   0.168   8.818 -1.1644  1.1013 -0.5811
 8058SOL    HW235634   3.464   0.313   8.852 -0.9629 -1.5783  0.3431
 8059SOL     OW35635   1.431   3.536  10.841  0.3681 -0.2919  0.1223
 8059SOL    HW135636   1.353   3.577  10.804  1.8459  1.3919 -1.2020
 8059SOL    HW235637   1.419   3.536  10.936 -0.8424  2.4866 -0.0353
 8060SOL     OW35638   0.095   0.787  12.136 -0.3273  0.0593  0.2373
 8060SOL    HW135639   0.149   0.726  12.086  0.0833  0.9106 -0.3454
 8060SOL    HW235640   0.015   0.799  12.085 -0.8115  2.0793  1.4646
 8061SOL     OW35641   3.874   0.613   5.494 -0.1361 -0.3538  0.2900
 8061SOL    HW135642   3.923   0.623   5.413 -0.5734  1.3891  0.2421
 8061SOL    HW235643   3.906   0.696   5.529 -0.5594 -0.5072  1.0475
 8062SOL     OW35644   0.188   2.850  12.889  0.4837 -0.3596  0.2194
 8062SOL    HW135645   0.261   2.885  12.940  0.5023  1.4345 -1.0403
 8062SOL    HW235646   0.133   2.928  12.896  0.0577 -0.6752  0.3755
 8063SOL     OW35647   2.341   3.867   7.982 -0.4467 -0.1476  0.6344
 8063SOL    HW135648   2.317   3.952   7.945 -0.3353 -1.2309 -1.9390
 8063SOL    HW235649   2.431   3.890   8.003  0.0045 -2.9051  1.7787
 8064SOL     OW35650   4.286   4.367   5.777  0.1263  0.0784  0.2045
 8064SOL    HW135651   4.197   4.389   5.807  0.0543 -1.4725  1.1483
 8064SOL    HW235652   4.269   4.303   5.708 -1.2143 -0.1330  0.7181
 8065SOL     OW35653   2.590   1.073   2.003 -0.4726 -0.2819  0.1051
 8065SOL    HW135654   2.599   1.139   1.935  1.9672 -0.4045  0.3288
 8065SOL    HW235655   2.607   0.994   1.952  0.1311 -1.2911  1.8671
 8066SOL     OW35656   2.460   2.670  16.100 -0.5379  0.0043  0.4692
 8066SOL    HW135657   2.478   2.584  16.137  0.4175 -0.1593 -0.3862
 8066SOL    HW235658   2.478   2.726  16.176 -1.1634 -0.0419  0.6512
 8067SOL     OW35659   2.412   2.614   1.104  0.4834 -0.4948 -0.2355
 8067SOL    HW135660   2.464   2.534   1.112  0.4290 -0.5000  0.0425
 8067SOL    HW235661   2.427   2.642   1.013  0.2040 -0.1869 -0.1851
 8068SOL     OW35662   1.363   3.426   0.424 -0.2460  0.6599 -0.4874
 8068SOL    HW135663   1.348   3.418   0.518  2.5844 -0.2926 -0.1344
 8068SOL    HW235664   1.458   3.416   0.419 -0.2493 -0.3273  1.6819
 8069SOL     OW35665   1.320   1.312   2.793 -0.1522 -0.2231 -0.3893
 8069SOL    HW135666   1.239   1.313   2.741  1.0814 -3.9000 -2.3904
 8069SOL    HW235667   1.283   1.334   2.878 -0.4077 -0.0992 -0.5310
 8070SOL     OW35668   1.513   2.072   5.791  0.3579 -0.2298 -0.0786
 8070SOL    HW135669   1.466   2.122   5.724 -0.2005 -1.7313 -0.8071
 8070SOL    HW235670   1.467   2.107   5.867 -0.0766 -2.1249  0.5439
 8071SOL     OW35671   3.272   4.418  10.176  0.4497 -0.1876  1.5103
 8071SOL    HW135672   3.323   4.495  10.151 -3.0495  2.0423  1.1936
 8071SOL    HW235673   3.279   4.362  10.099  1.7386  0.7511  0.9480
 8072SOL     OW35674   2.316   0.826   4.801  0.3236  0.4313  0.0538
 8072SOL    HW135675   2.234   0.820   4.752  0.5087 -3.1296  0.1413
 8072SOL    HW235676   2.333   0.920   4.801  1.3184  0.2447  1.7663
 8073SOL     OW35677   0.915   1.303   7.068  0.3660  0.6281  0.1291
 8073SOL    HW135678   0.824   1.285   7.089  0.7633 -2.5811 -0.8388
 8073SOL    HW235679   0.921   1.398   7.060  0.8463  0.6144  0.3013
 8074SOL     OW35680   4.242   0.181   7.244  0.2053  0.0630 -0.2437
 8074SOL    HW135681   4.325   0.141   7.267  0.3638  0.5138 -0.0245
 8074SOL    HW235682   4.259   0.273   7.263 -2.9332  0.3858  1.0083
 8075SOL     OW35683   2.651   0.217   3.440  0.8091  0.4418  0.1427
 8075SOL    HW135684   2.589   0.230   3.512  2.3103  0.8242  1.3555
 8075SOL    HW235685   2.629   0.295   3.390 -2.5473  0.2750  1.3492
 8076SOL     OW35686   0.349   3.182  16.165 -0.5733  1.2374  0.3046
 8076SOL    HW135687   0.308   3.245  16.224 -0.4729  0.2028  1.4853
 8076SOL    HW235688   0.417   3.240  16.129  1.6858 -0.6942  1.4400
 8077SOL     OW35689   3.580   1.663   7.632 -0.4097 -0.6107  0.7921
 8077SOL    HW135690   3.593   1.664   7.537 -1.1423  1.6625  0.7336
 8077SOL    HW235691   3.660   1.707   7.660 -0.7654  0.3337  0.2978
 8078SOL     OW35692   0.982   1.254  16.909  0.0383  0.1463  0.1085
 8078SOL    HW135693   1.055   1.263  16.848  0.1525 -0.8817  0.0955
 8078SOL    HW235694   0.951   1.166  16.888  2.3493 -0.8521  0.9419
 8079SOL     OW35695   1.936   1.796   6.200 -0.5591 -0.1461  0.0232
 8079SOL    HW135696   1.851   1.810   6.159 -0.3343  1.7591  0.2372
 8079SOL    HW235697   1.990   1.858   6.153  0.1004 -0.7903 -0.0643
 8080SOL     OW35698   2.786   3.610  12.273 -0.1011  0.5426  0.0245
 8080SOL    HW135699   2.820   3.600  12.184  1.6768  2.8230  0.4762
 8080SOL    HW235700   2.831   3.689  12.301  0.2501  0.2353  0.3415
 8081SOL     OW35701   1.986   3.299   2.132  0.8686  0.3251 -0.5050
 8081SOL    HW135702   1.948   3.212   2.123 -0.7392  0.9294  0.3885
 8081SOL    HW235703   2.038   3.293   2.212 -0.4995  1.4994  0.4775
 8082SOL     OW35704   1.327   1.957   3.838 -0.0953 -0.0320 -0.0652
 8082SOL    HW135705   1.379   1.921   3.766  1.3317  1.1390  0.3783
 8082SOL    HW235706   1.306   2.046   3.810 -0.6846  0.2768  1.3400
 8083SOL     OW35707   0.630   4.276   7.476 -0.5513  0.2591 -0.3240
 8083SOL    HW135708   0.609   4.322   7.558 -2.6640  1.0860 -1.3176
 8083SOL    HW235709   0.565   4.205   7.476 -1.5937  1.2180 -1.3461
 8084SOL     OW35710   0.215   0.833   8.705  0.1905 -0.0382 -0.4050
 8084SOL    HW135711   0.165   0.864   8.781 -0.2155 -0.5958 -0.4450
 8084SOL    HW235712   0.173   0.899   8.648 -2.2335 -0.2663  1.1020
 8085SOL     OW35713   3.741   0.843   1.262  0.5243 -0.1050 -0.6750
 8085SOL    HW135714   3.716   0.767   1.210  2.4996  0.5131 -2.4957
 8085SOL    HW235715   3.653   0.878   1.251  1.0826  1.5224  0.0153
 8086SOL     OW35716   4.093   2.752   7.794  0.4213 -0.3302  0.2541
 8086SOL    HW135717   4.161   2.743   7.727  1.5049 -2.1169  1.6000
 8086SOL    HW235718   4.050   2.834   7.768 -0.6608 -1.0008 -0.1017
 8087SOL     OW35719   4.356   1.770   8.297  0.6007 -0.1333 -0.4030
 8087SOL    HW135720   4.372   1.781   8.391  0.8145  1.0807 -0.5718
 8087SOL    HW235721   4.380   1.679   8.280  2.4971  0.6689 -2.1278
 8088SOL     OW35722   1.161   1.041  15.952 -0.1751  0.0441  0.2586
 8088SOL    HW135723   1.245   1.061  15.911  0.2324  0.3289  1.2413
 8088SOL    HW235724   1.176   1.013  16.042  0.3189 -0.9684 -0.1365
 8089SOL     OW35725   1.614   0.377   6.259 -0.4986  0.2139 -0.2641
 8089SOL    HW135726   1.573   0.463   6.267  1.9010  1.3516 -0.2109
 8089SOL    HW235727   1.612   0.336   6.345  1.7383  1.6770  0.4875
 8090SOL     OW35728   0.735   0.924   2.296 -0.3607  0.2041 -0.0292
 8090SOL    HW135729   0.727   0.947   2.389  4.0894  3.6762 -0.5065
 8090SOL    HW235730   0.796   0.991   2.264 -0.2268  0.4412  0.7161
 8091SOL     OW35731   3.061   2.790   7.894 -0.0527  0.0608 -0.5291
 8091SOL    HW135732   3.142   2.822   7.933  1.5237 -1.4941 -2.4944
 8091SOL    HW235733   2.991   2.815   7.954 -0.7174 -1.0209 -0.8421
 8092SOL     OW35734   3.392   3.478   8.014 -0.2330 -0.5584 -0.6352
 8092SOL    HW135735   3.415   3.567   7.986 -0.3704 -0.1226  0.5961
 8092SOL    HW235736   3.330   3.498   8.085  0.8308 -0.6039  0.3173
 8093SOL     OW35737   3.366   3.332  10.609 -0.0902  0.0200 -0.1479
 8093SOL    HW135738   3.341   3.247  10.647 -1.0814 -0.7571 -2.4814
 8093SOL    HW235739   3.282   3.355  10.569  0.4340 -0.6708 -1.6624
 8094SOL     OW35740   2.810   3.602   5.101  0.2561  0.0815  0.7826
 8094SOL    HW135741   2.775   3.670   5.159  0.7150 -0.2008  1.3905
 8094SOL    HW235742   2.819   3.534   5.168 -1.3751  0.9289  1.8661
 8095SOL     OW35743   0.475   2.609  11.025 -0.2992  0.1051  0.3328
 8095SOL    HW135744   0.511   2.536  11.076 -0.7286 -0.8160 -0.6566
 8095SOL    HW235745   0.547   2.668  11.047  0.3580 -0.6947  0.3394
 8096SOL     OW35746   2.347   1.095   2.312 -0.2404 -0.4292 -0.1145
 8096SOL    HW135747   2.284   1.024   2.299  0.6525 -1.3097  0.3672
 8096SOL    HW235748   2.422   1.040   2.288 -0.9083 -0.7480 -1.4894
 8097SOL     OW35749   4.115   0.155   8.521  0.1291 -0.1197 -0.5059
 8097SOL    HW135750   4.171   0.137   8.596 -2.0953 -0.0060  1.1910
 8097SOL    HW235751   4.176   0.193   8.458  0.0655  3.4905  1.6264
 8098SOL     OW35752   1.532   2.076   2.587 -0.2845  0.4918 -0.1351
 8098SOL    HW135753   1.469   2.047   2.520  0.9160  0.5325 -1.2938
 8098SOL    HW235754   1.536   2.166   2.556  2.6027 -0.5543 -2.9015
 8099SOL     OW35755   2.163   2.106   2.013  0.5680  0.4365 -0.1892
 8099SOL    HW135756   2.188   2.194   1.987 -0.5491  1.0818  0.9093
 8099SOL    HW235757   2.202   2.111   2.101 -0.6957  1.9761  0.2785
 8100SOL     OW35758   3.061   0.759  13.722  0.1575 -0.0556  0.5339
 8100SOL    HW135759   3.041   0.850  13.699 -0.6305 -0.8779 -2.0944
 8100SOL    HW235760   3.017   0.740  13.805 -0.2025 -1.0405  0.1242
 8101SOL     OW35761   3.064   1.083   3.375  0.1931  0.1677  0.4235
 8101SOL    HW135762   3.124   1.024   3.420 -0.1879 -0.2770  0.3524
 8101SOL    HW235763   3.004   1.091   3.449  0.0943  0.5019  0.3081
 8102SOL     OW35764   2.853   1.668   1.033  0.2610  0.1415 -0.2119
 8102SOL    HW135765   2.944   1.640   1.022  0.0792 -0.7979  0.6640
 8102SOL    HW235766   2.843   1.748   0.981 -2.0547  1.1146  1.7502
 8103SOL     OW35767   0.436   2.897   2.791  0.4416 -0.0122 -0.1786
 8103SOL    HW135768   0.346   2.868   2.779  0.9127 -0.7253 -2.0023
 8103SOL    HW235769   0.467   2.914   2.702 -0.0546 -0.0907 -0.3627
 8104SOL     OW35770   4.520   0.020  13.076  0.3319  0.0564 -0.1925
 8104SOL    HW135771   4.472   0.089  13.123  0.2060 -0.0137 -0.2171
 8104SOL    HW235772   4.566   0.078  13.015 -0.3359  1.5986  0.7671
 8105SOL     OW35773   1.788   4.536   5.575  0.2591  0.0916  0.1031
 8105SOL    HW135774   1.806   4.594   5.650  1.6352  1.1466 -1.0541
 8105SOL    HW235775   1.797   4.446   5.608  1.6843  0.9304  2.0266
 8106SOL     OW35776   3.082   0.752  12.591 -0.0776 -0.4299  0.0139
 8106SOL    HW135777   3.011   0.781  12.649  0.6734 -1.7116  1.5874
 8106SOL    HW235778   3.051   0.782  12.506 -0.0469 -0.0726  0.1240
 8107SOL     OW35779   1.637   3.738   3.710 -0.2987  0.8801 -0.6756
 8107SOL    HW135780   1.705   3.737   3.643  0.5595  1.9728  0.1731
 8107SOL    HW235781   1.679   3.740   3.796  0.1198  0.9816 -0.8847
 8108SOL     OW35782   4.439   0.875  12.937 -0.1344 -0.2217  0.2769
 8108SOL    HW135783   4.393   0.813  12.994 -1.8289  0.1956 -0.6242
 8108SOL    HW235784   4.368   0.937  12.917  1.6933  0.8929 -2.7771
 8109SOL     OW35785   1.586   0.504   3.708  0.5482 -0.6659 -0.0184
 8109SOL    HW135786   1.513   0.446   3.728  0.3111 -0.4539 -0.2821
 8109SOL    HW235787   1.617   0.472   3.624  0.4742  0.4936 -0.4885
 8110SOL     OW35788   3.124   1.645   9.971 -0.0286 -0.1770  0.0952
 8110SOL    HW135789   3.187   1.705  10.011  0.7243 -1.1296  0.3382
 8110SOL    HW235790   3.179   1.606   9.903 -1.0322  1.0453 -1.4408
 8111SOL     OW35791   2.756   3.110  17.266  0.0252 -0.9149 -0.2809
 8111SOL    HW135792   2.705   3.048  17.215 -0.4406  0.4622 -1.5070
 8111SOL    HW235793   2.719   3.096  17.353 -1.0138  1.8479 -0.2732
 8112SOL     OW35794   3.302   1.749   8.485 -0.4353  0.0789 -0.6051
 8112SOL    HW135795   3.373   1.808   8.510 -1.9568  1.6510  0.0453
 8112SOL    HW235796   3.234   1.818   8.486  0.4242  0.8809  1.0578
 8113SOL     OW35797   0.636   3.228  12.404 -0.7725  0.7341  0.6674
 8113SOL    HW135798   0.552   3.268  12.427 -0.8884 -0.0108  1.5048
 8113SOL    HW235799   0.643   3.249  12.311  0.6472 -1.6353  0.2498
 8114SOL     OW35800   2.424   2.664  13.010  0.1653  0.0651 -0.1759
 8114SOL    HW135801   2.449   2.708  12.928  1.3930 -0.9127 -0.3291
 8114SOL    HW235802   2.372   2.733  13.052 -1.0891 -0.5629 -0.6866
 8115SOL     OW35803   2.223   4.572  10.025 -0.5573  0.3907 -0.4028
 8115SOL    HW135804   2.247   4.523   9.946 -0.1136  2.2311 -1.4328
 8115SOL    HW235805   2.297   4.556  10.084  0.1693  0.3099 -1.3204
 8116SOL     OW35806   3.678   0.540   1.902 -0.3683 -0.2266  0.2395
 8116SOL    HW135807   3.665   0.472   1.968  0.3827  0.7166  1.3567
 8116SOL    HW235808   3.624   0.514   1.828 -0.5400  1.8275 -0.3532
 8117SOL     OW35809   3.492   3.004  15.335  0.3475 -0.0690 -0.3491
 8117SOL    HW135810   3.549   3.079  15.318 -1.0777  0.3162 -3.4842
 8117SOL    HW235811   3.527   2.940  15.273 -1.2530 -1.6529  0.3693
 8118SOL     OW35812   0.806   1.067   8.376  0.0776  0.5693  0.1006
 8118SOL    HW135813   0.879   1.114   8.414  1.2891 -2.7304  1.8298
 8118SOL    HW235814   0.748   1.059   8.451  0.0633  2.5884  0.3139
 8119SOL     OW35815   2.985   0.189   3.470 -0.1108 -0.1872 -0.8162
 8119SOL    HW135816   3.066   0.142   3.493 -0.2080 -0.3645 -0.8407
 8119SOL    HW235817   2.929   0.120   3.434  0.7713 -0.9102 -0.8045
 8120SOL     OW35818   3.433   3.940   5.821 -0.0740  0.0804  0.4676
 8120SOL    HW135819   3.526   3.952   5.843  0.2921 -1.1560 -0.4113
 8120SOL    HW235820   3.430   3.850   5.789 -1.3995  1.9321 -4.6870
 8121SOL     OW35821   2.267   4.475   6.995  0.2154  0.0859  0.1112
 8121SOL    HW135822   2.350   4.494   7.038  0.5910 -2.9258  0.6783
 8121SOL    HW235823   2.270   4.533   6.918  1.9795 -0.9473 -0.5937
 8122SOL     OW35824   2.365   3.367   4.530  0.1963  0.3630  0.0886
 8122SOL    HW135825   2.395   3.299   4.590  0.5798 -0.1476 -0.6865
 8122SOL    HW235826   2.296   3.318   4.486  0.9217 -1.4409  0.9891
 8123SOL     OW35827   2.454   1.133   4.443  0.1770 -0.4793 -0.0291
 8123SOL    HW135828   2.425   1.085   4.366  0.5981 -0.7638 -0.0112
 8123SOL    HW235829   2.499   1.210   4.407 -0.8812  0.7863  1.3410
 8124SOL     OW35830   3.034   4.159   4.720 -0.3920  0.1719  0.1010
 8124SOL    HW135831   3.041   4.235   4.779 -0.9337  0.3350 -0.0380
 8124SOL    HW235832   2.996   4.088   4.773 -0.1706 -1.2681 -1.6938
 8125SOL     OW35833   1.763   3.126   2.432 -0.0679  0.0877  0.0737
 8125SOL    HW135834   1.795   3.071   2.361 -1.8314  0.5859 -1.0997
 8125SOL    HW235835   1.842   3.140   2.485  1.1535  0.2088 -1.7986
 8126SOL     OW35836   4.208   0.653  11.426 -0.4764 -0.2302 -0.6162
 8126SOL    HW135837   4.267   0.577  11.431 -0.0405  0.3144  2.1620
 8126SOL    HW235838   4.224   0.686  11.337  2.2511 -0.4152 -0.1922
 8127SOL     OW35839   4.555   0.715   3.535  0.1089 -0.0813  0.3683
 8127SOL    HW135840   4.571   0.784   3.471 -0.9710  0.1358  0.3339
 8127SOL    HW235841   4.502   0.764   3.598  1.5281  0.0081  1.4999
 8128SOL     OW35842   0.054   3.071  12.897  1.0433 -0.0530  0.6737
 8128SOL    HW135843   0.124   3.135  12.908  3.1245 -2.1042 -0.5596
 8128SOL    HW235844   4.703   3.128  12.899  1.4038  0.4451  0.3386
 8129SOL     OW35845   3.198   3.129  16.679  0.0375 -0.3125 -0.3935
 8129SOL    HW135846   3.177   3.154  16.589 -1.2037 -1.4650 -0.4340
 8129SOL    HW235847   3.290   3.154  16.682  0.1614 -0.6462 -1.1472
 8130SOL     OW35848   0.788   4.244   8.098 -0.4212  1.0832 -0.9222
 8130SOL    HW135849   0.698   4.242   8.131  0.1566 -0.9806  0.5512
 8130SOL    HW235850   0.775   4.224   8.006  0.2492 -1.2839 -0.4903
 8131SOL     OW35851   3.934   1.555   8.534  0.0027  0.4573 -0.1259
 8131SOL    HW135852   3.974   1.606   8.464 -0.0949  0.8535  0.1088
 8131SOL    HW235853   3.901   1.475   8.493  0.5368 -1.2430  2.7381
 8132SOL     OW35854   1.624   3.976   6.868 -0.3448  0.1430  0.0190
 8132SOL    HW135855   1.680   4.047   6.837  0.2370 -0.7822 -1.0311
 8132SOL    HW235856   1.539   4.021   6.868  0.4584  1.6264  0.9597
 8133SOL     OW35857   0.489   0.541  11.434 -0.4049 -0.0803 -1.0468
 8133SOL    HW135858   0.505   0.607  11.368  0.1681  1.1331  0.3042
 8133SOL    HW235859   0.551   0.469  11.423  0.8979  1.0089 -0.7487
 8134SOL     OW35860   4.645   0.803  11.272  0.2766 -0.2642 -0.0676
 8134SOL    HW135861   4.662   0.737  11.204 -1.0591 -1.3563  0.6541
 8134SOL    HW235862   4.624   0.878  11.216 -2.9004  0.8535  2.6371
 8135SOL     OW35863   2.335   0.528   6.346  0.2102  0.2660 -0.6406
 8135SOL    HW135864   2.426   0.502   6.336 -0.0791  0.1717 -3.1648
 8135SOL    HW235865   2.344   0.582   6.425 -2.0694 -0.3300  0.0240
 8136SOL     OW35866   0.894   1.511   9.311  0.3704 -1.2368  0.7896
 8136SOL    HW135867   0.927   1.541   9.396 -1.5548  3.2798 -0.0484
 8136SOL    HW235868   0.918   1.419   9.303  0.1934 -1.2826  0.8049
 8137SOL     OW35869   1.302   1.624   5.117  0.1286  0.0073  0.2370
 8137SOL    HW135870   1.355   1.692   5.160  0.0163 -0.8559  1.7371
 8137SOL    HW235871   1.326   1.642   5.026 -0.7570 -0.1416 -0.0215
 8138SOL     OW35872   1.572   4.157  17.675 -0.1325 -0.3355  0.0275
 8138SOL    HW135873   1.604   4.200   0.050 -0.6249 -1.8413  1.0581
 8138SOL    HW235874   1.615   4.071  17.683  1.5252  0.6230  1.3844
 8139SOL     OW35875   4.236   1.917   3.224 -0.0324  0.3755 -0.6472
 8139SOL    HW135876   4.247   1.974   3.301 -1.7418  0.5442 -0.5390
 8139SOL    HW235877   4.158   1.870   3.253 -0.5991  3.0035  2.0843
 8140SOL     OW35878   3.762   0.584   8.102  0.7366  0.2223  0.4177
 8140SOL    HW135879   3.793   0.495   8.084 -2.5794 -0.4308 -2.0381
 8140SOL    HW235880   3.820   0.609   8.174  1.5368 -0.2386 -0.0591
 8141SOL     OW35881   4.715   0.495   8.824 -0.0329  0.4714 -0.0727
 8141SOL    HW135882   4.632   0.535   8.801 -0.1331  0.9000  1.0164
 8141SOL    HW235883   4.707   0.503   8.919 -2.0445  3.4036 -0.5061
 8142SOL     OW35884   1.424   4.645   5.340 -0.0472 -0.1057  0.6578
 8142SOL    HW135885   1.438   4.556   5.371  0.4782  0.2991  1.5793
 8142SOL    HW235886   1.481   4.697   5.397  0.5958  0.9356 -0.9301
 8143SOL     OW35887   4.331   0.458   6.286 -0.0827 -0.1239 -0.4592
 8143SOL    HW135888   4.318   0.530   6.348 -1.6969 -0.2852 -0.6104
 8143SOL    HW235889   4.332   0.495   6.198 -0.9083 -1.1847 -0.9083
 8144SOL     OW35890   1.448   1.370   6.438 -0.1188  0.0440  0.4031
 8144SOL    HW135891   1.534   1.410   6.437 -0.3610  0.5710  0.5481
 8144SOL    HW235892   1.418   1.385   6.528 -3.6457 -2.3849 -0.3505
 8145SOL     OW35893   0.023   4.596  11.586 -0.1492  0.4368  0.4873
 8145SOL    HW135894   0.039   4.502  11.595 -1.4465 -0.0792 -2.5791
 8145SOL    HW235895   0.070   4.610  11.504  0.6341 -0.1661  0.8301
 8146SOL     OW35896   0.559   1.984  16.669 -0.2754 -0.0348 -0.3290
 8146SOL    HW135897   0.653   1.988  16.654 -0.2906  1.1256 -0.1388
 8146SOL    HW235898   0.551   2.012  16.760 -0.4059  1.8422 -0.9048
 8147SOL     OW35899   2.055   3.274   4.980  0.0493  0.3670  0.0878
 8147SOL    HW135900   2.148   3.266   4.960 -0.4709 -2.4664 -1.0990
 8147SOL    HW235901   2.011   3.243   4.901  0.1352 -3.2518  1.4946
 8148SOL     OW35902   1.263   1.136  15.137 -0.0008  0.0356 -0.1963
 8148SOL    HW135903   1.262   1.225  15.173 -1.8290  0.0893 -0.3854
 8148SOL    HW235904   1.352   1.141  15.101  0.2470  0.4731  0.4792
 8149SOL     OW35905   0.023   1.398   0.773 -0.0339  0.2359 -0.8785
 8149SOL    HW135906   0.101   1.343   0.783  0.5568  1.0438 -1.1261
 8149SOL    HW235907   4.721   1.362   0.689 -0.6776 -0.6493 -0.2897
 8150SOL     OW35908   2.934   1.606   8.042  0.5542 -0.0546  0.3974
 8150SOL    HW135909   2.944   1.512   8.024 -0.1685 -0.0358 -0.0753
 8150SOL    HW235910   2.988   1.640   7.972 -2.2180 -1.2219 -2.2909
 8151SOL     OW35911   3.028   2.950   9.594  0.0101  0.2701  0.3335
 8151SOL    HW135912   3.067   3.020   9.541  1.0195 -1.1961 -0.8653
 8151SOL    HW235913   2.999   2.885   9.530  0.4982  1.3828 -1.0378
 8152SOL     OW35914   2.222   1.788  16.884 -0.3738 -0.8414  0.4466
 8152SOL    HW135915   2.132   1.821  16.877  0.2204  0.5409 -0.6867
 8152SOL    HW235916   2.248   1.832  16.965  0.8491 -2.0548  0.6928
 8153SOL     OW35917   1.496   0.636   9.761  0.2952 -0.1858 -0.4595
 8153SOL    HW135918   1.504   0.632   9.857  1.4771 -1.3699 -0.6022
 8153SOL    HW235919   1.564   0.701   9.743 -0.3271  0.6451  0.1870
 8154SOL     OW35920   3.357   3.384   4.770  0.6573 -0.4991 -0.2836
 8154SOL    HW135921   3.347   3.301   4.817 -0.9473 -0.5413 -0.6892
 8154SOL    HW235922   3.345   3.345   4.683  0.0638  0.6936 -0.7435
 8155SOL     OW35923   2.960   1.330   9.685  0.1885 -0.2786  0.4815
 8155SOL    HW135924   3.004   1.250   9.657  2.3016  0.6131  1.2768
 8155SOL    HW235925   2.907   1.351   9.608  0.5471 -2.9734 -0.4782
 8156SOL     OW35926   3.563   1.381  12.419  0.1382 -0.3747  0.7717
 8156SOL    HW135927   3.633   1.406  12.480 -0.0863 -2.1412  1.7714
 8156SOL    HW235928   3.547   1.470  12.390  0.1589 -0.8024 -0.5181
 8157SOL     OW35929   4.396   1.721  11.550 -0.1981  0.1163  0.0899
 8157SOL    HW135930   4.480   1.766  11.561 -0.2615 -0.0767  1.3659
 8157SOL    HW235931   4.382   1.659  11.621 -1.7855 -0.3420 -0.6189
 8158SOL     OW35932   3.249   2.297   0.308 -0.4110 -0.1002 -0.1616
 8158SOL    HW135933   3.248   2.386   0.272  1.3499 -0.6402 -1.5535
 8158SOL    HW235934   3.155   2.278   0.305 -0.6327  1.1576 -1.0598
 8159SOL     OW35935   0.804   3.968   7.410 -0.2527  0.1039 -0.4764
 8159SOL    HW135936   0.755   3.888   7.426 -2.0452  1.4999  0.9905
 8159SOL    HW235937   0.858   3.979   7.488  0.0448  1.6685 -0.8967
 8160SOL     OW35938   3.212   4.283   1.964 -0.2208 -0.0758 -0.7252
 8160SOL    HW135939   3.242   4.288   1.873 -0.5779 -0.1540 -0.8459
 8160SOL    HW235940   3.296   4.257   2.000  0.1103  1.1669 -0.6054
 8161SOL     OW35941   1.247   0.981   8.668  0.6038 -0.2445  0.0159
 8161SOL    HW135942   1.232   1.075   8.660  2.4099  0.1792  1.6873
 8161SOL    HW235943   1.257   0.955   8.576  2.9181  0.8235 -0.0408
 8162SOL     OW35944   0.362   3.936   5.509 -0.0258 -0.2995  0.3676
 8162SOL    HW135945   0.390   3.947   5.418 -1.0245  0.9260  0.2006
 8162SOL    HW235946   0.311   3.855   5.502 -1.7104  0.7556  0.5620
 8163SOL     OW35947   0.765   3.873  11.593 -0.4406  0.1198  0.0096
 8163SOL    HW135948   0.779   3.884  11.498  2.3671  2.2818  0.6582
 8163SOL    HW235949   0.721   3.789  11.591 -0.3188  0.1050 -2.1289
 8164SOL     OW35950   4.548   1.150   6.643  0.0697  0.4791 -0.3122
 8164SOL    HW135951   4.514   1.112   6.723 -0.0727  1.4285  0.0763
 8164SOL    HW235952   4.637   1.161   6.676 -0.1619 -0.0175  0.4758
 8165SOL     OW35953   4.340   0.653   1.334 -0.1496  0.1099 -0.2489
 8165SOL    HW135954   4.405   0.626   1.399 -1.0703 -3.1349 -0.7095
 8165SOL    HW235955   4.367   0.739   1.301 -1.1283 -0.9736 -3.8031
 8166SOL     OW35956   2.939   2.998  14.195 -0.0934  0.3186 -0.5485
 8166SOL    HW135957   2.903   2.924  14.146 -0.2416 -1.5226  2.3112
 8166SOL    HW235958   2.862   3.031  14.241 -0.9237 -0.1693 -1.5750
 8167SOL     OW35959   1.367   4.361   8.893 -0.2842  0.0678  0.4345
 8167SOL    HW135960   1.429   4.385   8.962 -0.6026 -0.5149  0.9261
 8167SOL    HW235961   1.292   4.367   8.952 -0.6864 -0.0456 -0.0666
 8168SOL     OW35962   0.122   3.291   3.693 -0.3968  0.3637  0.5166
 8168SOL    HW135963   0.158   3.310   3.780 -1.2752 -2.8096  1.5936
 8168SOL    HW235964   0.032   3.279   3.724 -0.8987  0.7123 -0.7936
 8169SOL     OW35965   1.442   0.331  17.648  0.5423  0.0993  0.1304
 8169SOL    HW135966   1.493   0.297  17.575  2.9373  2.2704  0.7667
 8169SOL    HW235967   1.361   0.283  17.633  0.6559 -0.3904  1.0776
 8170SOL     OW35968   2.011   2.589   5.445  0.4185  0.3749  0.1654
 8170SOL    HW135969   2.031   2.561   5.356  0.9374  0.4678  0.2484
 8170SOL    HW235970   1.916   2.581   5.452  0.1613  2.0791 -1.3877
 8171SOL     OW35971   1.409   0.172  13.890 -0.1789 -0.1534 -0.0350
 8171SOL    HW135972   1.349   0.229  13.938 -1.3192 -1.7433  0.4146
 8171SOL    HW235973   1.421   0.218  13.807 -0.7546  0.1844  0.0690
 8172SOL     OW35974   3.070   3.799  16.644  0.1408 -0.2103 -0.1016
 8172SOL    HW135975   3.027   3.713  16.644 -0.1424 -0.0716  0.1127
 8172SOL    HW235976   3.018   3.847  16.709 -0.0114 -0.5873  0.0533
 8173SOL     OW35977   2.629   1.465  10.850  0.3162 -0.0376 -0.3705
 8173SOL    HW135978   2.627   1.458  10.945 -1.1530  0.0168 -0.3920
 8173SOL    HW235979   2.650   1.377  10.817  1.0683  1.5166 -4.0127
 8174SOL     OW35980   0.970   4.068  17.673  0.0583 -0.3862 -0.0314
 8174SOL    HW135981   1.056   4.042  17.639  0.1385 -1.6936  1.1441
 8174SOL    HW235982   0.985   4.162  17.668 -0.0755 -0.3532  0.2071
 8175SOL     OW35983   1.405   4.090  16.530 -0.2446 -0.2957  0.3801
 8175SOL    HW135984   1.465   4.164  16.534 -0.1542 -0.4649  1.9001
 8175SOL    HW235985   1.465   4.015  16.527  0.4799  0.2697  0.8195
 8176SOL     OW35986   3.298   1.706   7.144 -0.5357 -0.1288  0.2372
 8176SOL    HW135987   3.210   1.705   7.107 -0.1189  2.1825 -0.7993
 8176SOL    HW235988   3.290   1.633   7.206 -1.4398 -0.7763 -0.6570
 8177SOL     OW35989   0.094   1.901   3.951  0.1067  0.0715 -0.1367
 8177SOL    HW135990   0.093   1.996   3.935 -0.8850  0.4548  2.1895
 8177SOL    HW235991   0.008   1.879   3.987 -0.0612  0.8676 -0.0497
 8178SOL     OW35992   1.444   4.404  17.610 -0.0804  0.2403  0.2708
 8178SOL    HW135993   1.367   4.350  17.593  0.9626 -1.4705  0.8991
 8178SOL    HW235994   1.505   4.335  17.637  0.4384  1.6764  2.8255
 8179SOL     OW35995   1.423   3.552   5.861 -0.2123  0.2449 -0.3312
 8179SOL    HW135996   1.433   3.627   5.919 -0.3714  0.8085 -1.0285
 8179SOL    HW235997   1.505   3.568   5.814  0.0512  0.1616  0.1074
 8180SOL     OW35998   4.306   1.368  10.294  0.1136 -0.1991  0.0850
 8180SOL    HW135999   4.309   1.281  10.335 -1.2633 -1.0933 -1.7331
 8180SOL    HW236000   4.222   1.403  10.325  0.4839  1.0753 -0.3512
 8181SOL     OW36001   3.455   1.608   1.477  0.3962 -0.1421  0.1895
 8181SOL    HW136002   3.441   1.543   1.409  1.1294 -1.0093  0.8757
 8181SOL    HW236003   3.366   1.632   1.505  0.2572  2.2410 -2.2288
 8182SOL     OW36004   0.783   3.569   6.809  0.2151 -0.2414  0.0210
 8182SOL    HW136005   0.776   3.661   6.784 -1.8195 -0.4811 -0.3073
 8182SOL    HW236006   0.762   3.566   6.902  1.6548  1.2305  0.3789
 8183SOL     OW36007   2.258   4.369  11.544 -0.3842 -0.1069  0.4217
 8183SOL    HW136008   2.339   4.376  11.494 -2.0880  0.0318 -2.3471
 8183SOL    HW236009   2.223   4.287  11.508  1.2793  0.0854 -1.6448
 8184SOL     OW36010   1.715   4.204   8.596  0.0182 -0.1001  0.3967
 8184SOL    HW136011   1.707   4.203   8.692  1.7258 -2.3239  0.5237
 8184SOL    HW236012   1.624   4.212   8.566  0.5565  2.1944 -0.6308
 8185SOL     OW36013   2.158   3.042   8.606 -0.0760 -0.0641 -0.4228
 8185SOL    HW136014   2.079   3.053   8.660 -0.3669  0.3588 -0.9373
 8185SOL    HW236015   2.166   2.947   8.610 -0.4568 -0.0920 -0.3494
 8186SOL     OW36016   2.385   3.451   6.346 -0.2085  0.2065  0.2508
 8186SOL    HW136017   2.345   3.484   6.266 -0.4382 -1.5644 -0.3709
 8186SOL    HW236018   2.316   3.453   6.412  0.1031  0.8052  0.5637
 8187SOL     OW36019   4.422   4.017   5.255 -0.9166 -0.0100  0.1386
 8187SOL    HW136020   4.369   4.096   5.260 -2.3005 -0.9275 -0.0489
 8187SOL    HW236021   4.485   4.040   5.187  1.6989  1.2812  2.9760
 8188SOL     OW36022   3.420   0.346   2.674  0.0855 -0.4308 -0.0770
 8188SOL    HW136023   3.385   0.258   2.685 -1.9243  0.5302  1.1642
 8188SOL    HW236024   3.466   0.359   2.757 -0.5873  0.2927  0.1824
 8189SOL     OW36025   2.170   1.040   4.232 -0.7726  0.4037 -0.0622
 8189SOL    HW136026   2.243   0.987   4.267 -1.0606 -0.5003 -0.8233
 8189SOL    HW236027   2.148   1.102   4.301 -1.1523  0.4560 -0.2315
 8190SOL     OW36028   3.585   3.866   2.520 -0.6198  0.0351  0.0616
 8190SOL    HW136029   3.620   3.863   2.609  0.8987  0.3176 -0.5197
 8190SOL    HW236030   3.617   3.784   2.482  0.5311  0.8096 -0.6649
 8191SOL     OW36031   3.334   3.792   7.811  0.1583  0.5391  0.3040
 8191SOL    HW136032   3.315   3.875   7.767  0.0382  0.5458  0.3663
 8191SOL    HW236033   3.427   3.804   7.831  0.0919  1.5449  0.0089
 8192SOL     OW36034   3.840   4.215  10.698  0.1136 -0.1789  0.4882
 8192SOL    HW136035   3.777   4.230  10.628 -0.9731  2.2578  2.0042
 8192SOL    HW236036   3.833   4.295  10.750 -0.0560 -1.0917  1.8751
 8193SOL     OW36037   3.445   3.703   5.324 -0.3216  0.4339 -0.4659
 8193SOL    HW136038   3.406   3.670   5.243 -1.9057  1.4900 -0.1237
 8193SOL    HW236039   3.389   3.780   5.336  0.2075  0.5634  1.1876
 8194SOL     OW36040   1.864   1.985   7.455 -0.1233  0.4166  0.1250
 8194SOL    HW136041   1.895   1.904   7.414  1.1836  0.9958 -0.0243
 8194SOL    HW236042   1.914   2.003   7.535  0.8759  1.0724 -0.6597
 8195SOL     OW36043   0.643   2.482   3.379  0.3423  0.4729  0.1889
 8195SOL    HW136044   0.611   2.562   3.339 -2.6272 -0.4943  0.6576
 8195SOL    HW236045   0.738   2.491   3.369  0.3936  1.0066  1.0787
 8196SOL     OW36046   2.299   0.700   5.667 -0.1468  0.1332  0.1453
 8196SOL    HW136047   2.223   0.758   5.667 -1.0641 -1.0736 -1.6398
 8196SOL    HW236048   2.356   0.748   5.728 -1.0903 -0.3990  1.4484
 8197SOL     OW36049   4.002   1.296   4.235  0.2963 -0.5845 -0.4534
 8197SOL    HW136050   4.086   1.253   4.249 -0.0897 -0.9702  0.7136
 8197SOL    HW236051   3.978   1.251   4.154 -1.9638  1.0447 -0.6883
 8198SOL     OW36052   1.645   3.208  15.448  0.4437  0.4336 -0.6705
 8198SOL    HW136053   1.592   3.132  15.425  0.0268  1.1059 -1.9647
 8198SOL    HW236054   1.735   3.178  15.431  0.6764 -0.3511  1.9395
 8199SOL     OW36055   0.370   4.655  12.788 -0.1686  0.6488 -0.1263
 8199SOL    HW136056   0.419   4.643  12.707  0.7170  1.6280  0.2778
 8199SOL    HW236057   0.340   4.565  12.802  2.8313 -0.6514 -2.0011
 8200SOL     OW36058   3.228   1.575  13.935 -0.1393 -0.2289 -0.5598
 8200SOL    HW136059   3.259   1.642  13.873  1.8600 -0.1684  0.5058
 8200SOL    HW236060   3.154   1.615  13.980  1.3195 -1.0941  2.5918
 8201SOL     OW36061   0.621   0.484   8.160 -0.0216 -0.6464  0.2881
 8201SOL    HW136062   0.573   0.417   8.209 -1.3042  0.1343  0.1056
 8201SOL    HW236063   0.637   0.436   8.079 -0.7752 -2.7388  1.3616
 8202SOL     OW36064   3.653   0.871   3.284  0.4711 -0.5594  0.0440
 8202SOL    HW136065   3.695   0.869   3.198  0.7601 -3.1077  0.2303
 8202SOL    HW236066   3.562   0.880   3.257  0.5229  1.2699  0.4807
 8203SOL     OW36067   2.152   0.530  11.678 -0.1841  0.5958  0.2065
 8203SOL    HW136068   2.145   0.625  11.666  2.0177  0.5777 -1.1676
 8203SOL    HW236069   2.231   0.510  11.628 -1.5080 -0.9921 -1.2343
 8204SOL     OW36070   4.075   1.655   5.566 -0.0121 -0.0334  0.1688
 8204SOL    HW136071   4.066   1.730   5.624 -1.7240 -0.8176  0.8975
 8204SOL    HW236072   4.167   1.654   5.537 -0.0099  0.0093  0.1739
 8205SOL     OW36073   1.334   1.282  15.870  0.3639 -0.0972  0.3490
 8205SOL    HW136074   1.385   1.204  15.850 -0.0817  0.1313 -1.7228
 8205SOL    HW236075   1.352   1.295  15.963  0.0811 -0.4729  0.4559
 8206SOL     OW36076   4.473   1.001  11.432  0.2623 -0.3935 -0.4087
 8206SOL    HW136077   4.524   0.933  11.476 -0.1049 -1.1273 -1.1233
 8206SOL    HW236078   4.529   1.078  11.446 -0.8744 -0.3820  4.0440
 8207SOL     OW36079   1.540   1.350  13.559  0.3887 -0.0061  0.5525
 8207SOL    HW136080   1.477   1.381  13.494 -0.2922 -0.9002  0.7718
 8207SOL    HW236081   1.478   1.365  13.631 -1.5970 -1.2635 -0.8785
 8208SOL     OW36082   0.784   4.353   3.839 -0.0794 -1.7182 -0.2755
 8208SOL    HW136083   0.874   4.321   3.840 -0.2737 -2.2977 -2.3834
 8208SOL    HW236084   0.760   4.312   3.922 -0.7595 -0.5143  0.1314
 8209SOL     OW36085   3.750   0.551   2.632 -0.0422 -0.6848  0.4990
 8209SOL    HW136086   3.705   0.543   2.716  0.2560 -0.1628  0.7131
 8209SOL    HW236087   3.735   0.469   2.585 -1.1336  0.1017 -0.5254
 8210SOL     OW36088   3.957   1.945   0.810 -0.0150 -0.3752  0.3222
 8210SOL    HW136089   3.944   2.039   0.818 -0.0351 -0.2649 -0.9889
 8210SOL    HW236090   4.009   1.916   0.885  3.2039 -0.9992 -2.1446
 8211SOL     OW36091   2.746   0.239   2.991  0.1985 -0.4088 -0.3328
 8211SOL    HW136092   2.786   0.286   3.064  2.2569 -0.9930 -1.0902
 8211SOL    HW236093   2.692   0.307   2.952  0.3928  1.1361  2.0967
 8212SOL     OW36094   2.675   1.755   6.198  0.1215 -0.3939 -0.6740
 8212SOL    HW136095   2.667   1.845   6.228 -0.1053 -0.2461 -1.1800
 8212SOL    HW236096   2.752   1.756   6.141 -0.6824 -2.1205 -1.8067
 8213SOL     OW36097   4.301   3.123  13.722 -0.4451 -0.0437  0.3194
 8213SOL    HW136098   4.372   3.161  13.670 -0.3764 -0.3903  0.1589
 8213SOL    HW236099   4.327   3.031  13.721 -0.0441  0.0754  0.0553
 8214SOL     OW36100   3.979   1.843   9.059 -0.1031  0.2354  0.3179
 8214SOL    HW136101   3.995   1.846   9.153  3.0480  2.1893 -0.3024
 8214SOL    HW236102   3.891   1.880   9.050  0.1713  0.2569 -2.3184
 8215SOL     OW36103   1.966   0.759  14.493  0.1702 -0.1534  0.1278
 8215SOL    HW136104   1.888   0.767  14.548 -0.7070  1.1784 -1.3096
 8215SOL    HW236105   1.995   0.849  14.484 -2.2041  0.7624  1.7247
 8216SOL     OW36106   4.571   0.218   1.593  0.1560 -0.4633 -0.0925
 8216SOL    HW136107   4.609   0.138   1.557 -4.4768 -2.2150 -1.1682
 8216SOL    HW236108   4.608   0.285   1.536  0.0460 -1.4421 -1.3190
 8217SOL     OW36109   0.337   0.283   6.414 -0.2255 -0.4571  0.2530
 8217SOL    HW136110   0.432   0.285   6.420 -0.2269  0.3957  0.0309
 8217SOL    HW236111   0.310   0.374   6.425  0.1083 -0.6803  2.9418
 8218SOL     OW36112   1.375   2.770   2.601  0.3811  0.2532  0.1339
 8218SOL    HW136113   1.395   2.773   2.694  0.9847 -1.8421  0.0794
 8218SOL    HW236114   1.453   2.810   2.561 -0.0548  0.5236 -0.4509
 8219SOL     OW36115   0.648   1.929   8.331  0.3209 -0.0222 -0.5473
 8219SOL    HW136116   0.617   1.899   8.246 -2.2835 -1.1875  0.8247
 8219SOL    HW236117   0.699   2.006   8.307 -1.9898  1.0310 -2.1165
 8220SOL     OW36118   4.050   3.353   7.299  0.5887  0.4444  0.2870
 8220SOL    HW136119   4.093   3.429   7.260 -0.5673  0.1516 -1.5369
 8220SOL    HW236120   4.054   3.365   7.394  0.6020  2.0080  0.0989
 8221SOL     OW36121   1.600   0.822   6.075  0.1099  0.1556 -0.3288
 8221SOL    HW136122   1.642   0.752   6.025  0.2357 -0.7857  1.0742
 8221SOL    HW236123   1.532   0.842   6.011 -0.7816  1.5109  1.0265
 8222SOL     OW36124   1.580   3.894   2.830 -0.1056 -0.7034 -0.2851
 8222SOL    HW136125   1.488   3.894   2.856  0.0199  1.8155  0.1673
 8222SOL    HW236126   1.585   3.960   2.761 -1.9539  0.0075  0.2476
 8223SOL     OW36127   3.939   1.320   6.348  0.3693 -0.2282 -0.3302
 8223SOL    HW136128   3.891   1.294   6.269 -0.1153 -0.0663 -0.0907
 8223SOL    HW236129   4.001   1.386   6.316 -0.6290 -0.9508 -3.7741
 8224SOL     OW36130   4.085   2.580   2.285 -0.2467  0.3055  0.5104
 8224SOL    HW136131   4.075   2.504   2.343  1.2088 -0.3994 -0.1448
 8224SOL    HW236132   4.159   2.567   2.225 -1.2301 -4.2627  0.2639
 8225SOL     OW36133   1.414   1.221  16.123  0.5374  0.3179  0.0022
 8225SOL    HW136134   1.461   1.149  16.166  1.8148  1.7781  1.1017
 8225SOL    HW236135   1.449   1.294  16.175 -0.1235  1.5556 -1.3035
 8226SOL     OW36136   1.943   0.961   8.826 -0.5069 -0.2834  0.1618
 8226SOL    HW136137   1.932   1.053   8.853  0.0983 -0.6049  1.5232
 8226SOL    HW236138   2.014   0.924   8.879  0.3634  2.3745  0.8781
 8227SOL     OW36139   2.830   1.954   1.432  0.2024 -0.2273  0.0135
 8227SOL    HW136140   2.880   1.884   1.474  0.3016  0.2808  0.7499
 8227SOL    HW236141   2.785   1.906   1.363  1.2862  1.5364 -1.9448
 8228SOL     OW36142   1.636   1.992   5.334  0.1019 -0.1443 -0.6178
 8228SOL    HW136143   1.636   2.074   5.383 -0.2325  0.4262 -1.5648
 8228SOL    HW236144   1.718   1.952   5.362 -0.9400 -1.6493  0.3479
 8229SOL     OW36145   1.005   0.267  16.679 -0.6167 -0.7478 -0.2221
 8229SOL    HW136146   0.995   0.361  16.660  0.6563 -0.7533 -0.9220
 8229SOL    HW236147   1.052   0.228  16.605  0.4503 -0.5415  0.3463
 8230SOL     OW36148   1.272   0.941   6.640 -0.4419  0.4224  0.1453
 8230SOL    HW136149   1.340   0.916   6.703  0.4993 -0.3853 -1.1940
 8230SOL    HW236150   1.309   0.900   6.561 -0.6367  0.3224  0.1052
 8231SOL     OW36151   1.330   3.792  10.567 -0.1560  0.0243 -0.3017
 8231SOL    HW136152   1.400   3.815  10.627  0.0081  1.6793 -1.1321
 8231SOL    HW236153   1.276   3.740  10.627  1.0320 -0.7964  0.0578
 8232SOL     OW36154   0.395   1.910   6.270 -0.8550  0.3219  0.0632
 8232SOL    HW136155   0.444   1.980   6.313  0.8508 -1.7370  1.4927
 8232SOL    HW236156   0.307   1.945   6.283  0.0302  2.7357 -0.3535
 8233SOL     OW36157   2.905   3.896  13.026  0.6088  1.0598 -0.3659
 8233SOL    HW136158   2.921   3.990  13.013  4.3619  1.0035  3.9835
 8233SOL    HW236159   2.940   3.885  13.115  0.1268  0.3597 -0.2605
 8234SOL     OW36160   0.283   1.147   5.074  0.1762 -0.3127 -0.0915
 8234SOL    HW136161   0.254   1.157   4.983 -0.7686  0.1945  0.2593
 8234SOL    HW236162   0.314   1.233   5.102  0.5614 -0.1628 -0.9936
 8235SOL     OW36163   0.199   2.703   1.454 -0.2131  0.2647 -0.4465
 8235SOL    HW136164   0.276   2.663   1.414  0.1163  0.2796  0.1693
 8235SOL    HW236165   0.137   2.646   1.408 -1.3913  0.0478  1.4011
 8236SOL     OW36166   4.335   3.623   6.832 -0.1805 -0.4508  0.2634
 8236SOL    HW136167   4.354   3.717   6.826  0.0248 -0.5463 -0.4846
 8236SOL    HW236168   4.423   3.585   6.834  0.6458  1.4750  1.3595
 8237SOL     OW36169   0.654   0.469   2.298 -0.3567 -0.5226  0.0847
 8237SOL    HW136170   0.711   0.414   2.351 -0.5201 -0.0778  0.7264
 8237SOL    HW236171   0.704   0.470   2.216 -2.0298  4.6494 -0.8870
 8238SOL     OW36172   1.869   4.251   5.969  0.2305 -0.1861  0.5018
 8238SOL    HW136173   1.913   4.324   5.926  3.2542 -2.1918  0.1705
 8238SOL    HW236174   1.885   4.264   6.063 -1.6312 -0.8005  0.9085
 8239SOL     OW36175   2.397   2.886  16.934 -0.1944  0.2721  0.6435
 8239SOL    HW136176   2.328   2.949  16.910  0.9368  0.4662 -2.0543
 8239SOL    HW236177   2.344   2.811  16.961 -1.1068  0.4651 -0.5860
 8240SOL     OW36178   1.324   4.093   4.199  0.5036  0.4832  0.6717
 8240SOL    HW136179   1.275   4.011   4.195  0.6609  0.3549  1.3601
 8240SOL    HW236180   1.267   4.154   4.153  0.3298 -1.0461 -1.1384
 8241SOL     OW36181   1.824   2.575   3.916  0.3169  0.6081  0.2824
 8241SOL    HW136182   1.762   2.590   3.844  0.1686  2.2574  0.7745
 8241SOL    HW236183   1.865   2.490   3.895  0.2016  0.4338  0.7798
 8242SOL     OW36184   3.551   3.265   8.210 -0.6185 -0.1302 -0.1410
 8242SOL    HW136185   3.589   3.349   8.182  0.0591 -0.4869 -0.2915
 8242SOL    HW236186   3.470   3.292   8.254 -0.7559 -0.4022 -0.2267
 8243SOL     OW36187   4.467   3.283   6.063  0.0148 -0.3046 -0.7745
 8243SOL    HW136188   4.543   3.226   6.051 -0.8051 -0.7143 -3.7815
 8243SOL    HW236189   4.391   3.235   6.031 -1.4719  2.2734 -1.0993
 8244SOL     OW36190   0.243   4.711   5.897 -0.1849  0.1237  0.4329
 8244SOL    HW136191   0.334   0.015   5.899  0.0888 -0.5716 -1.1213
 8244SOL    HW236192   0.192   0.048   5.948  0.0010  1.1693 -0.6496
 8245SOL     OW36193   3.791   3.789   4.029  0.7838 -0.5528 -0.1904
 8245SOL    HW136194   3.737   3.739   4.090  0.7886 -0.4594 -0.1097
 8245SOL    HW236195   3.728   3.855   4.000 -1.6104 -2.2155  1.1893
 8246SOL     OW36196   4.176   2.410   1.647 -0.3057 -0.0147 -0.0919
 8246SOL    HW136197   4.268   2.395   1.669 -0.0184  2.1233  0.0913
 8246SOL    HW236198   4.176   2.481   1.584  1.2888  1.2754  1.3547
 8247SOL     OW36199   4.708   2.873  14.085  0.1600  0.5652  0.4177
 8247SOL    HW136200   0.031   2.804  14.130 -0.5137  0.5507  1.1101
 8247SOL    HW236201   0.047   2.944  14.087 -1.0253  1.7193 -1.6443
 8248SOL     OW36202   0.453   3.828  16.714  0.1884 -0.2983 -0.4891
 8248SOL    HW136203   0.397   3.812  16.790  0.6742  0.7258  0.0932
 8248SOL    HW236204   0.425   3.762  16.651  1.5586 -1.4592  0.1092
 8249SOL     OW36205   3.176   1.734   5.651  0.0243 -0.2044 -0.4254
 8249SOL    HW136206   3.258   1.720   5.698  0.1569  0.0138 -0.5946
 8249SOL    HW236207   3.206   1.781   5.573 -1.8883  1.3178 -0.2623
 8250SOL     OW36208   3.515   0.725  11.603 -0.0899  0.0445 -0.2023
 8250SOL    HW136209   3.599   0.685  11.580  0.5005  1.1225  0.0677
 8250SOL    HW236210   3.521   0.754  11.694  0.7401 -0.3969 -0.1224
 8251SOL     OW36211   3.494   2.672   7.417  0.1125 -0.5984 -0.0166
 8251SOL    HW136212   3.446   2.589   7.422 -1.4739  0.2200 -1.6450
 8251SOL    HW236213   3.574   2.660   7.468  0.0876  0.1353  0.1934
 8252SOL     OW36214   0.871   3.764   3.678 -0.5870 -0.1334 -0.0882
 8252SOL    HW136215   0.931   3.801   3.613  1.4503 -1.3609  1.0743
 8252SOL    HW236216   0.933   3.741   3.747  0.5256  3.0847 -0.0346
 8253SOL     OW36217   1.450   4.009   5.367 -0.4186  0.1885 -0.1394
 8253SOL    HW136218   1.440   3.995   5.273  2.3612 -1.7603 -0.1350
 8253SOL    HW236219   1.373   4.060   5.391 -1.8179 -0.5922 -2.9833
 8254SOL     OW36220   2.604   3.664   2.668  0.1213 -0.1421  0.0261
 8254SOL    HW136221   2.592   3.755   2.693 -0.9170 -0.3673  0.3469
 8254SOL    HW236222   2.675   3.669   2.605 -0.2055 -1.7738 -0.4790
 8255SOL     OW36223   1.837   0.699   3.582 -0.2661 -0.2988  0.0597
 8255SOL    HW136224   1.779   0.694   3.658 -2.5358  0.2291 -1.6555
 8255SOL    HW236225   1.911   0.648   3.614 -2.4789 -2.8924  1.0042
 8256SOL     OW36226   0.934   1.405   7.894  0.0841 -0.2770  0.6577
 8256SOL    HW136227   0.872   1.429   7.964 -0.0174 -3.1874  1.5692
 8256SOL    HW236228   0.935   1.309   7.886 -2.1648 -0.2056 -0.4915
 8257SOL     OW36229   2.477   3.417  12.936 -0.2613 -0.2622  0.2942
 8257SOL    HW136230   2.503   3.463  12.857 -0.0914 -1.6084 -0.4288
 8257SOL    HW236231   2.425   3.343  12.905 -0.3879  0.9586 -2.3981
 8258SOL     OW36232   2.976   4.653  13.565  0.2250  0.2494  0.0250
 8258SOL    HW136233   2.890   4.688  13.539  0.8236  1.0150 -0.9390
 8258SOL    HW236234   3.010   4.646  13.476 -2.1344  0.0137 -0.8684
 8259SOL     OW36235   0.769   2.599   1.063  0.0595 -0.7986 -0.3016
 8259SOL    HW136236   0.829   2.667   1.034  0.8058 -2.3662 -2.4548
 8259SOL    HW236237   0.716   2.651   1.123  1.2880  1.0548 -0.8276
 8260SOL     OW36238   2.536   2.750  10.922 -0.3630 -0.5674  0.8846
 8260SOL    HW136239   2.452   2.756  10.968 -0.9225 -0.8975 -0.1098
 8260SOL    HW236240   2.568   2.840  10.922 -1.1531 -0.2892  1.7493
 8261SOL     OW36241   3.033   1.189   8.376 -0.1319 -0.4264 -0.1897
 8261SOL    HW136242   3.036   1.225   8.464 -0.1812  0.0607 -0.3867
 8261SOL    HW236243   3.121   1.211   8.346 -0.2498  0.2602 -0.0333
 8262SOL     OW36244   4.088   3.232  13.879 -0.4154  0.1087 -0.5625
 8262SOL    HW136245   4.023   3.164  13.894  3.6623 -3.5005  0.4851
 8262SOL    HW236246   4.133   3.213  13.796 -1.3026  0.7633 -1.2029
 8263SOL     OW36247   0.938   2.790   7.975  0.2019  0.5293  0.2211
 8263SOL    HW136248   0.999   2.860   7.953  0.1956 -0.1434 -1.8648
 8263SOL    HW236249   0.991   2.717   8.006 -0.4681 -0.1340 -0.2222
 8264SOL     OW36250   4.721   4.038  13.064 -0.1271 -0.3827 -0.7318
 8264SOL    HW136251   0.019   4.127  13.090 -0.8852  0.1441 -1.8230
 8264SOL    HW236252   4.666   4.065  12.990  0.0783  0.2239 -0.6617
 8265SOL     OW36253   2.607   4.513  15.408  0.6478  0.2008 -0.4940
 8265SOL    HW136254   2.533   4.555  15.364  0.3287 -0.4488 -0.5743
 8265SOL    HW236255   2.585   4.420  15.413  1.8225  0.0981  3.0112
 8266SOL     OW36256   2.548   0.566   9.814 -0.1133 -0.1672  0.4786
 8266SOL    HW136257   2.643   0.559   9.802  0.0331  0.3556  1.3460
 8266SOL    HW236258   2.517   0.480   9.786  0.7833  0.0678 -1.2711
 8267SOL     OW36259   1.877   4.717   1.367  0.5177 -0.0743 -0.2838
 8267SOL    HW136260   1.933   0.017   1.440  0.0404  1.2853 -0.4042
 8267SOL    HW236261   1.845   4.633   1.401 -1.4414  0.8235  0.0912
 8268SOL     OW36262   1.738   2.325   8.111  0.1240  0.4213 -0.5015
 8268SOL    HW136263   1.692   2.345   8.193 -0.6594  1.2816 -1.1508
 8268SOL    HW236264   1.657   2.337   8.061 -0.6118 -2.2734  0.0625
 8269SOL     OW36265   3.924   4.420   4.230 -0.2022 -0.1149  0.3190
 8269SOL    HW136266   3.981   4.364   4.178 -1.0633  0.6096 -1.4063
 8269SOL    HW236267   3.991   4.455   4.288 -0.1429 -0.2676  0.3419
 8270SOL     OW36268   3.277   3.885   8.710  0.3257 -0.0341 -0.4207
 8270SOL    HW136269   3.271   3.979   8.723  1.1652  0.2929 -2.4179
 8270SOL    HW236270   3.325   3.860   8.789  1.1545  1.0115 -0.5970
 8271SOL     OW36271   2.632   2.119  11.889  0.4001  0.3953  0.3250
 8271SOL    HW136272   2.586   2.172  11.954 -0.3257 -0.0290  0.1669
 8271SOL    HW236273   2.599   2.167  11.813 -0.5811 -0.8581 -0.0542
 8272SOL     OW36274   3.773   1.765   6.943 -0.0419 -0.3650 -0.0996
 8272SOL    HW136275   3.806   1.843   6.898  2.0043 -0.2551  1.6284
 8272SOL    HW236276   3.789   1.692   6.882  0.5220  0.1262 -0.5379
 8273SOL     OW36277   1.755   4.241  10.409  0.8141  0.1978 -0.2700
 8273SOL    HW136278   1.671   4.283  10.387 -0.0839 -0.5267  1.7672
 8273SOL    HW236279   1.748   4.161  10.357 -1.7124 -0.5763  1.2326
 8274SOL     OW36280   3.052   1.785   1.279  0.1182  0.5909 -0.3233
 8274SOL    HW136281   3.017   1.807   1.193  2.1447 -2.2429 -1.8530
 8274SOL    HW236282   3.019   1.697   1.299  0.1971  0.0410 -2.6537
 8275SOL     OW36283   2.600   0.411   6.376 -0.0632  0.5565  0.4325
 8275SOL    HW136284   2.660   0.350   6.419 -0.8588  1.3058  2.6106
 8275SOL    HW236285   2.619   0.396   6.283  1.5701  3.0585  0.3513
 8276SOL     OW36286   0.741   0.844  15.983 -0.2090 -0.9349  0.5334
 8276SOL    HW136287   0.779   0.932  15.985 -4.0042  0.6916  1.4072
 8276SOL    HW236288   0.778   0.812  15.901 -0.2173 -1.3888  0.7056
 8277SOL     OW36289   3.391   3.981  14.068  0.3542 -0.4162  0.4275
 8277SOL    HW136290   3.409   4.046  14.136  2.6952 -1.4447  0.7824
 8277SOL    HW236291   3.477   3.980  14.026  1.0402  0.2916  1.7807
 8278SOL     OW36292   1.849   0.858   7.308 -0.5456 -0.4874  0.0577
 8278SOL    HW136293   1.809   0.816   7.385  0.1259 -2.3201 -0.5899
 8278SOL    HW236294   1.781   0.834   7.246 -0.3034  2.3710 -1.2873
 8279SOL     OW36295   2.220   1.084   2.054 -0.0102  0.4247 -0.3836
 8279SOL    HW136296   2.137   1.130   2.045 -0.6957 -0.8350 -0.5889
 8279SOL    HW236297   2.273   1.149   2.099 -1.4840  1.8960 -0.7794
 8280SOL     OW36298   4.434   2.336  10.998 -0.0170 -0.1217 -0.2051
 8280SOL    HW136299   4.352   2.339  11.047 -0.8807 -1.0636 -1.5704
 8280SOL    HW236300   4.494   2.281  11.049 -2.0961 -1.0445  1.2438
 8281SOL     OW36301   2.519   2.356  15.438  0.2998  0.1463 -0.1891
 8281SOL    HW136302   2.468   2.411  15.497 -3.3680 -1.0237 -2.3049
 8281SOL    HW236303   2.606   2.395  15.449  0.1553  0.5949 -0.6166
 8282SOL     OW36304   2.284   1.722   2.444  0.1378 -0.4074 -0.0845
 8282SOL    HW136305   2.229   1.671   2.385  0.3379 -0.4548 -0.2334
 8282SOL    HW236306   2.327   1.786   2.387 -0.0971 -0.1850 -0.0110
 8283SOL     OW36307   2.396   2.663   3.915  0.1404  0.3537  0.5213
 8283SOL    HW136308   2.442   2.588   3.876  0.2504  1.5417 -1.6497
 8283SOL    HW236309   2.304   2.650   3.892  0.2144 -0.1360  0.4957
 8284SOL     OW36310   0.675   0.339  15.402  0.0592  0.3595  0.2894
 8284SOL    HW136311   0.701   0.378  15.485  0.9542  0.6875 -0.1412
 8284SOL    HW236312   0.583   0.367  15.401 -0.2753 -0.7365  0.2249
 8285SOL     OW36313   4.593   1.269   7.811 -0.1571 -0.4118  0.3664
 8285SOL    HW136314   4.630   1.268   7.899  0.5352  2.0105  0.1018
 8285SOL    HW236315   4.664   1.295   7.753 -0.8113 -2.1399 -1.2044
 8286SOL     OW36316   0.912   2.100  16.158  0.5387 -0.2294 -0.0476
 8286SOL    HW136317   0.893   2.088  16.065  0.4549 -1.0806  0.0828
 8286SOL    HW236318   0.830   2.137  16.191  1.0072 -1.9470  3.0347
 8287SOL     OW36319   0.290   1.401   0.327  0.1619  0.2837  0.1441
 8287SOL    HW136320   0.307   1.491   0.298  1.1231  0.0699  0.0387
 8287SOL    HW236321   0.298   1.414   0.422 -0.4928 -0.2275  0.2671
 8288SOL     OW36322   1.471   3.738  14.745 -0.4320  0.8415  0.4367
 8288SOL    HW136323   1.505   3.806  14.687  2.8524  0.6801  2.1509
 8288SOL    HW236324   1.380   3.742  14.716  0.5159  1.6026 -2.3875
 8289SOL     OW36325   2.944   3.315  17.273  0.4018 -0.0169  0.1904
 8289SOL    HW136326   2.878   3.254  17.303 -1.5753  1.0573 -1.9690
 8289SOL    HW236327   2.937   3.306  17.178  1.2990 -0.3121  0.1541
 8290SOL     OW36328   2.866   3.685   9.671  0.1574 -0.8444  0.2357
 8290SOL    HW136329   2.819   3.663   9.751  0.5192 -0.8848  0.4373
 8290SOL    HW236330   2.896   3.597   9.648  1.1872 -0.9103  1.8302
 8291SOL     OW36331   4.053   4.444   7.112  0.3796  0.1031 -0.0398
 8291SOL    HW136332   4.094   4.420   7.029  0.5321  2.3709 -0.6198
 8291SOL    HW236333   4.074   4.538   7.113 -0.2743  0.2482  0.4652
 8292SOL     OW36334   4.393   2.519   7.810  0.1947  0.3006 -0.0318
 8292SOL    HW136335   4.338   2.550   7.882 -0.5021 -1.1915  0.0736
 8292SOL    HW236336   4.467   2.482   7.859  2.0033  1.9507 -1.5200
 8293SOL     OW36337   3.231   4.190   1.361  0.0403 -0.0551  0.0342
 8293SOL    HW136338   3.237   4.195   1.457  0.0269  0.5277  0.0037
 8293SOL    HW236339   3.172   4.117   1.345  1.7324 -0.9747 -1.9267
 8294SOL     OW36340   0.910   1.742   8.492 -0.2290 -0.1132 -0.0115
 8294SOL    HW136341   0.930   1.834   8.510  0.4940 -0.5546  1.4392
 8294SOL    HW236342   0.991   1.697   8.517  0.4349  1.8692  1.4263
 8295SOL     OW36343   3.503   2.150   7.403  0.0028 -0.6419 -0.3845
 8295SOL    HW136344   3.493   2.066   7.359  0.9354 -0.0339 -1.7824
 8295SOL    HW236345   3.586   2.179   7.365  0.8508 -0.7396  1.3954
 8296SOL     OW36346   0.872   1.915   4.392  0.1545  0.0912  0.0819
 8296SOL    HW136347   0.849   1.868   4.311  0.2836  0.5586 -0.2243
 8296SOL    HW236348   0.860   2.005   4.363  0.2751  0.0368 -0.1398
 8297SOL     OW36349   0.457   1.867  14.453 -0.1842 -0.2759  0.5924
 8297SOL    HW136350   0.378   1.880  14.505 -1.4085 -0.0768 -1.2773
 8297SOL    HW236351   0.417   1.896  14.370  1.1889  1.4695  0.5271
 8298SOL     OW36352   4.351   2.825   9.247  0.0789  0.2164 -0.3689
 8298SOL    HW136353   4.422   2.799   9.307 -0.8916  1.2551  1.2335
 8298SOL    HW236354   4.295   2.885   9.296 -0.4465 -0.4277 -0.1875
 8299SOL     OW36355   1.677   2.418   0.664 -0.3312 -0.6375  0.0431
 8299SOL    HW136356   1.714   2.398   0.578  3.9701 -1.4336  2.0775
 8299SOL    HW236357   1.653   2.510   0.657  1.3641 -0.2031  0.2070
 8300SOL     OW36358   4.431   1.787   5.966 -0.0741 -0.2248 -0.8295
 8300SOL    HW136359   4.512   1.805   5.918 -0.0630  2.0818  0.0535
 8300SOL    HW236360   4.456   1.707   6.011  1.1799  1.1778  1.0010
 8301SOL     OW36361   2.442   1.523  14.629 -0.6490 -0.0747 -0.4251
 8301SOL    HW136362   2.411   1.614  14.634 -1.5213 -0.4335  0.7321
 8301SOL    HW236363   2.385   1.495  14.557 -0.5120  0.9625 -0.9289
 8302SOL     OW36364   0.994   0.236  14.865 -0.1331  0.0417 -0.0340
 8302SOL    HW136365   0.910   0.267  14.898  0.3624  0.8587  0.4788
 8302SOL    HW236366   0.974   0.204  14.777 -1.2754  0.3076  0.1245
 8303SOL     OW36367   0.010   1.687  12.665  0.0612  0.2453  0.1381
 8303SOL    HW136368   0.005   1.735  12.748 -0.2318  0.0776  0.2172
 8303SOL    HW236369   4.672   1.740  12.617 -0.8674  0.3848  1.5150
 8304SOL     OW36370   0.130   2.758   4.393 -0.1962  0.0267 -0.5311
 8304SOL    HW136371   0.191   2.732   4.463  1.2942 -0.3079 -1.9462
 8304SOL    HW236372   0.114   2.847   4.423  3.5242  0.3803  0.4855
 8305SOL     OW36373   0.409   4.260   8.425 -0.6295 -0.6496  0.1320
 8305SOL    HW136374   0.369   4.177   8.400 -2.7053  1.1462 -2.4036
 8305SOL    HW236375   0.383   4.264   8.518 -0.2316  0.6577  0.1819
 8306SOL     OW36376   3.585   2.356   1.019 -0.1962  0.2502  0.2662
 8306SOL    HW136377   3.606   2.425   0.957  0.2746  0.5056  0.7164
 8306SOL    HW236378   3.522   2.399   1.077 -0.0239  0.9694 -0.0855
 8307SOL     OW36379   2.525   2.463   3.565 -0.0659  0.4260  0.5267
 8307SOL    HW136380   2.477   2.540   3.535  0.1281  0.6701  0.8547
 8307SOL    HW236381   2.486   2.451   3.651  0.5510 -2.1078  0.4511
 8308SOL     OW36382   1.531   2.423   9.258 -0.3070 -0.2968 -0.5314
 8308SOL    HW136383   1.619   2.410   9.294  0.3057 -1.2308 -2.3554
 8308SOL    HW236384   1.549   2.505   9.212  1.5583  0.7844  2.1355
 8309SOL     OW36385   3.502   3.380   6.880  0.3124 -0.4550 -0.1811
 8309SOL    HW136386   3.449   3.313   6.837 -2.2955  0.7393  1.1623
 8309SOL    HW236387   3.577   3.330   6.913 -0.5233 -0.3761  1.8633
 8310SOL     OW36388   2.596   4.659  16.286 -0.4493 -0.5825  0.1242
 8310SOL    HW136389   2.636   4.717  16.221  0.3378 -0.0410  1.0860
 8310SOL    HW236390   2.618   4.712  16.363 -1.1301  2.0722 -1.5289
 8311SOL     OW36391   4.690   1.258   6.021  0.5027 -0.3652  0.2457
 8311SOL    HW136392   4.635   1.259   5.943  0.4822 -0.0798  0.2640
 8311SOL    HW236393   0.028   1.325   5.996 -0.2948  0.5995  0.8013
 8312SOL     OW36394   3.236   0.752  13.259 -0.0042 -0.0887  0.0835
 8312SOL    HW136395   3.225   0.684  13.325 -1.4368 -0.1706 -0.2278
 8312SOL    HW236396   3.317   0.733  13.212  0.0599  0.6212 -0.0998
 8313SOL     OW36397   3.562   2.798   4.795  0.2177 -0.2697  0.1122
 8313SOL    HW136398   3.575   2.752   4.712 -0.3422 -0.5965  0.2136
 8313SOL    HW236399   3.610   2.736   4.849  0.7201  0.4697  0.5235
 8314SOL     OW36400   0.185   2.370   2.762 -0.0287 -0.0238 -0.3862
 8314SOL    HW136401   0.208   2.288   2.804  2.7688  1.1754  0.3951
 8314SOL    HW236402   0.142   2.409   2.838 -3.0115 -1.9716 -1.0505
 8315SOL     OW36403   1.524   2.369   3.056  0.3578  0.4696  0.2757
 8315SOL    HW136404   1.510   2.276   3.071  0.1049  0.2632 -1.2210
 8315SOL    HW236405   1.442   2.401   3.017 -0.4571 -1.4238  0.4300
 8316SOL     OW36406   0.200   1.223   1.522 -0.5527  0.4211  0.2491
 8316SOL    HW136407   0.188   1.131   1.546  1.3925  0.2092  0.4372
 8316SOL    HW236408   0.182   1.270   1.603  0.2802  0.3975  0.4549
 8317SOL     OW36409   3.629   4.679   4.906  0.4085 -0.0310 -0.4549
 8317SOL    HW136410   3.648   4.655   4.816  1.7807  0.3910 -0.2703
 8317SOL    HW236411   3.653   4.599   4.954 -1.0410  0.7555  1.5751
 8318SOL     OW36412   1.907   2.481  10.469  0.1348  0.1011 -0.4948
 8318SOL    HW136413   1.963   2.528  10.531  1.1883 -1.9371  0.1282
 8318SOL    HW236414   1.821   2.499  10.509  2.1546  0.4912  3.7385
 8319SOL     OW36415   0.919   2.158   4.297 -0.1144  0.3156  0.0335
 8319SOL    HW136416   0.877   2.244   4.299  1.3100  1.0056  0.1563
 8319SOL    HW236417   0.969   2.174   4.217 -0.1829  1.2459  0.1824
 8320SOL     OW36418   3.957   0.340  12.401  0.1429  0.1953  0.4803
 8320SOL    HW136419   3.877   0.365  12.355  1.2687 -0.1525 -1.6640
 8320SOL    HW236420   3.920   0.316  12.486  2.5590 -0.1927  1.4121
 8321SOL     OW36421   4.442   4.114  10.534  0.0810  0.3827 -0.1507
 8321SOL    HW136422   4.504   4.116  10.608 -0.1132 -0.0714  0.0267
 8321SOL    HW236423   4.435   4.019  10.530 -0.4282  0.3426  1.5838
 8322SOL     OW36424   1.321   3.081  17.099 -0.3367 -0.3200 -0.4878
 8322SOL    HW136425   1.364   3.150  17.149 -1.2627 -0.3899  0.4103
 8322SOL    HW236426   1.299   3.017  17.167  2.1469  1.2164  1.8259
 8323SOL     OW36427   0.214   3.835   3.087 -0.1281 -0.1441  0.5586
 8323SOL    HW136428   0.214   3.797   2.999 -0.0510  0.3801  0.3303
 8323SOL    HW236429   0.244   3.922   3.059 -2.8620  0.9031  0.9554
 8324SOL     OW36430   2.942   0.740   7.602 -0.0628  0.1049 -0.1779
 8324SOL    HW136431   2.966   0.654   7.566  1.0560  1.5986 -3.0109
 8324SOL    HW236432   2.916   0.776   7.518  1.8874  0.6292 -0.5610
 8325SOL     OW36433   1.555   0.630   6.268 -0.7601  0.3169  0.1844
 8325SOL    HW136434   1.563   0.704   6.208 -0.3122  2.3550  2.7647
 8325SOL    HW236435   1.489   0.657   6.332 -1.8619 -0.9755 -0.4179
 8326SOL     OW36436   2.747   1.612   8.278 -0.1890 -0.8132  0.2263
 8326SOL    HW136437   2.804   1.611   8.201 -1.1264  0.7472 -0.4678
 8326SOL    HW236438   2.815   1.640   8.340 -0.0046 -0.3411 -0.1895
 8327SOL     OW36439   2.325   1.859   4.602 -0.2244 -0.5319  0.1812
 8327SOL    HW136440   2.272   1.918   4.655  0.8861  0.3596  0.2842
 8327SOL    HW236441   2.415   1.873   4.629 -0.8842  0.2307  1.9591
 8328SOL     OW36442   4.271   1.388  16.613  0.2223 -0.3303 -0.1885
 8328SOL    HW136443   4.290   1.481  16.625 -1.8828 -0.0770  1.0465
 8328SOL    HW236444   4.247   1.383  16.521  2.5792 -0.4257 -0.7989
 8329SOL     OW36445   0.012   0.327  11.806  0.7600  0.0898  0.0728
 8329SOL    HW136446   0.015   0.232  11.809  0.6520  0.0003 -3.2265
 8329SOL    HW236447   4.693   0.357  11.885  1.3753  2.3812 -0.4283
 8330SOL     OW36448   0.198   1.847   8.700 -0.2277 -0.4830 -0.0133
 8330SOL    HW136449   0.141   1.817   8.771  0.2035  0.5916  0.7784
 8330SOL    HW236450   0.271   1.786   8.706 -0.5742 -0.8476  0.4874
 8331SOL     OW36451   3.567   3.296   6.266  0.0948  0.1345 -0.8290
 8331SOL    HW136452   3.615   3.302   6.349 -1.3980 -0.2601  0.0474
 8331SOL    HW236453   3.627   3.263   6.199  1.4746  0.7798  0.0894
 8332SOL     OW36454   4.546   1.837   9.025  0.3620 -0.1422  0.1559
 8332SOL    HW136455   4.458   1.872   9.040  0.5356 -0.2184  1.3241
 8332SOL    HW236456   4.587   1.860   9.108  1.5081  1.3222 -0.8217
 8333SOL     OW36457   0.764   4.257   0.101 -0.2194 -0.0727 -0.2850
 8333SOL    HW136458   0.669   4.261   0.090 -0.2625 -0.1908  0.0541
 8333SOL    HW236459   0.782   4.168   0.070  0.7331  0.1764 -0.4412
 8334SOL     OW36460   4.476   0.135  13.968 -0.2126 -0.0295  0.2970
 8334SOL    HW136461   4.385   0.161  13.960  0.7332  3.1858 -0.0658
 8334SOL    HW236462   4.535   0.207  13.945  0.5970 -0.9054 -0.3300
 8335SOL     OW36463   4.694   1.238   8.056  0.3358  0.2838  0.2806
 8335SOL    HW136464   4.653   1.310   8.103 -1.4829 -1.2105  0.9955
 8335SOL    HW236465   0.003   1.192   8.132  5.2891 -0.4958 -2.4769
 8336SOL     OW36466   4.609   3.544   8.047 -0.1430  0.0861 -0.0364
 8336SOL    HW136467   4.672   3.615   8.035  0.7850 -1.0030 -1.5284
 8336SOL    HW236468   4.553   3.579   8.117 -0.0987  1.9845 -0.9494
 8337SOL     OW36469   0.740   4.506   7.983  0.0222 -0.4199 -0.5425
 8337SOL    HW136470   0.831   4.478   7.994  0.0359 -0.2751 -0.2998
 8337SOL    HW236471   0.693   4.431   7.946 -0.2605  0.4440 -1.9181
 8338SOL     OW36472   2.204   1.686   4.123  0.2219  0.0089 -0.1712
 8338SOL    HW136473   2.253   1.630   4.184 -0.3853 -2.7782 -2.2704
 8338SOL    HW236474   2.268   1.756   4.113 -2.2748  2.3148  0.0402
 8339SOL     OW36475   1.698   0.969   3.777  0.4111 -0.3955 -0.2062
 8339SOL    HW136476   1.785   0.947   3.742  0.1500 -2.0212  0.1672
 8339SOL    HW236477   1.716   1.025   3.853  1.9038 -2.6756  1.1401
 8340SOL     OW36478   4.434   1.530   8.384  0.5403  0.3246 -0.0398
 8340SOL    HW136479   4.410   1.439   8.404  2.1112 -0.0959 -0.0756
 8340SOL    HW236480   4.520   1.548   8.422  0.3048 -0.6212  0.9518
 8341SOL     OW36481   4.102   3.982   6.687 -0.2533 -0.5650 -0.5323
 8341SOL    HW136482   4.175   3.994   6.747 -0.8397 -0.1362  0.0885
 8341SOL    HW236483   4.065   3.897   6.711  0.1037 -0.8367 -0.9436
 8342SOL     OW36484   0.159   4.555   6.563 -0.1536  0.5155  0.5454
 8342SOL    HW136485   0.133   4.542   6.472 -0.0587 -1.2374  0.7784
 8342SOL    HW236486   0.092   4.612   6.600 -1.6207 -0.4368 -0.6691
 8343SOL     OW36487   1.678   4.127  14.467 -0.0319 -0.3638 -0.2987
 8343SOL    HW136488   1.772   4.110  14.473  0.3958  1.6706 -1.2760
 8343SOL    HW236489   1.670   4.220  14.491  2.7148 -0.2857  0.2483
 8344SOL     OW36490   0.250   2.737   7.811 -0.1716 -0.0880 -0.0762
 8344SOL    HW136491   0.264   2.653   7.854 -1.5758 -0.8306 -1.0362
 8344SOL    HW236492   0.193   2.702   7.742 -0.7692  1.4609 -0.3549
 8345SOL     OW36493   0.121   0.518   0.963 -0.1416  0.4248 -0.5945
 8345SOL    HW136494   0.200   0.560   0.929 -0.7257  0.9258 -1.3078
 8345SOL    HW236495   0.069   0.499   0.886 -1.4691  2.8328 -0.2882
 8346SOL     OW36496   4.611   1.497  17.404 -0.3256 -0.3445 -0.3388
 8346SOL    HW136497   4.585   1.405  17.411  0.4307 -0.6627 -1.6661
 8346SOL    HW236498   4.531   1.549  17.405 -1.4128 -2.0599 -0.2638
 8347SOL     OW36499   1.468   4.243   5.578  0.3329  0.3541 -0.0553
 8347SOL    HW136500   1.395   4.208   5.630  0.3548  0.1078 -0.1944
 8347SOL    HW236501   1.497   4.307   5.643 -0.8353 -1.0002  1.8251
 8348SOL     OW36502   2.840   1.801   5.912 -0.0436 -0.2007 -0.5279
 8348SOL    HW136503   2.829   1.815   5.818 -0.3421  0.8421 -0.3375
 8348SOL    HW236504   2.906   1.732   5.910  0.3220  0.1609 -0.9709
 8349SOL     OW36505   1.029   0.436   8.707 -0.6122 -0.6443 -0.1154
 8349SOL    HW136506   1.089   0.451   8.634 -0.7447  0.0180 -0.0850
 8349SOL    HW236507   0.968   0.508   8.693 -0.1186  0.0202  1.1358
 8350SOL     OW36508   1.970   4.699   3.102  0.7389  0.6672 -0.0079
 8350SOL    HW136509   1.970   4.611   3.141 -0.1595  0.2872 -0.8852
 8350SOL    HW236510   2.064   4.703   3.085  0.8147  2.1951  0.7240
 8351SOL     OW36511   4.221   1.994   1.306 -0.6453 -0.3679 -0.1253
 8351SOL    HW136512   4.214   2.083   1.338 -0.5327 -0.3788 -0.0694
 8351SOL    HW236513   4.231   1.940   1.384  2.5797  0.5006  0.0561
 8352SOL     OW36514   2.337   3.100   2.148  0.0535 -0.0389 -0.2168
 8352SOL    HW136515   2.265   3.040   2.170 -0.7854  1.3981  0.9345
 8352SOL    HW236516   2.387   3.054   2.080  0.3726  0.3388 -0.2335
 8353SOL     OW36517   1.959   2.922  17.361  0.1068  0.1243 -0.3810
 8353SOL    HW136518   1.936   2.859  17.430 -0.5264 -0.9503 -1.5755
 8353SOL    HW236519   1.883   2.978  17.377  2.1277  2.2212  1.8215
 8354SOL     OW36520   0.854   4.413   9.857  1.0648  0.0095  0.4387
 8354SOL    HW136521   0.822   4.340   9.910 -1.8106 -0.8676 -2.5451
 8354SOL    HW236522   0.878   4.365   9.778  1.2017  0.4012  0.2418
 8355SOL     OW36523   1.803   3.473   2.430 -0.1972  0.1473  0.1648
 8355SOL    HW136524   1.718   3.432   2.443  0.4954 -0.8287  1.5846
 8355SOL    HW236525   1.830   3.433   2.348 -1.6919  0.2985 -0.3905
 8356SOL     OW36526   2.667   4.016   5.752 -0.1906 -0.2334 -0.2720
 8356SOL    HW136527   2.740   3.998   5.693  1.3658 -1.8679  2.1862
 8356SOL    HW236528   2.595   4.031   5.690  0.5144  1.0706 -0.7813
 8357SOL     OW36529   3.754   3.421   4.734 -0.1597 -0.0402  0.3583
 8357SOL    HW136530   3.748   3.445   4.827 -4.0588 -1.5984  0.5469
 8357SOL    HW236531   3.832   3.471   4.712  0.3307 -0.9532  0.0535
 8358SOL     OW36532   1.149   0.379   2.989 -0.9169  0.3922 -0.0606
 8358SOL    HW136533   1.111   0.297   3.019 -1.7741  0.7183 -0.2591
 8358SOL    HW236534   1.221   0.357   2.930 -0.0762 -0.2605  1.1976
 8359SOL     OW36535   0.659   0.083   0.283  0.6506 -0.0028 -0.2691
 8359SOL    HW136536   0.565   0.094   0.273  0.6253  0.6896  0.7320
 8359SOL    HW236537   0.677   0.162   0.335 -1.3908 -0.4899  1.1592
 8360SOL     OW36538   2.224   4.101   2.857 -0.3079 -0.5875  0.1711
 8360SOL    HW136539   2.179   4.026   2.819 -0.7270 -0.4522  0.3971
 8360SOL    HW236540   2.179   4.105   2.941 -1.7911 -2.9427 -0.5500
 8361SOL     OW36541   4.256   0.666   6.477  0.0349 -0.1211  0.4842
 8361SOL    HW136542   4.322   0.671   6.546  0.0470 -1.0527  0.5430
 8361SOL    HW236543   4.181   0.702   6.524 -2.1994 -0.5492 -2.7809
 8362SOL     OW36544   4.239   2.841   8.766 -0.0710  0.3009  0.2259
 8362SOL    HW136545   4.235   2.759   8.717 -1.6402 -0.3415  1.4249
 8362SOL    HW236546   4.215   2.810   8.853 -2.5585 -0.1312 -0.6329
 8363SOL     OW36547   0.623   1.834   3.443 -0.0577 -0.0548  0.4200
 8363SOL    HW136548   0.713   1.865   3.446 -0.3584  1.0058 -1.7556
 8363SOL    HW236549   0.639   1.740   3.451  1.0436  0.2163  1.3901
 8364SOL     OW36550   0.867   4.620   2.942  0.0790 -0.0535  0.0972
 8364SOL    HW136551   0.906   4.649   2.859 -1.0760  0.8620 -0.1186
 8364SOL    HW236552   0.902   4.532   2.954 -0.5868 -0.2516  0.5757
 8365SOL     OW36553   4.701   4.280  10.558 -0.4202 -0.6407  0.0232
 8365SOL    HW136554   4.671   4.230  10.634 -0.4557 -0.1437  0.3334
 8365SOL    HW236555   0.029   4.341  10.609  0.6839 -0.2752 -1.5931
 8366SOL     OW36556   3.233   1.781   4.273 -0.5514  0.5717  0.4060
 8366SOL    HW136557   3.270   1.855   4.225  0.6277 -0.4822 -0.3136
 8366SOL    HW236558   3.304   1.764   4.335  0.9259  0.2745 -1.3426
 8367SOL     OW36559   3.611   3.408   3.211 -0.1041 -0.2554 -0.3163
 8367SOL    HW136560   3.534   3.368   3.250 -0.1379  0.4412  0.3104
 8367SOL    HW236561   3.605   3.502   3.227  1.0609 -0.5062  1.5507
 8368SOL     OW36562   2.040   4.127   7.755 -0.1217  0.5398  0.1769
 8368SOL    HW136563   2.057   4.158   7.666 -0.9868  1.9182  0.4984
 8368SOL    HW236564   1.945   4.134   7.754 -0.1567 -0.1051 -1.0186
 8369SOL     OW36565   2.014   0.634   5.911  0.6389 -0.4481  0.4420
 8369SOL    HW136566   2.050   0.709   5.957  3.2095 -1.8864  0.8083
 8369SOL    HW236567   2.074   0.560   5.926  1.4200 -0.2943 -1.8712
 8370SOL     OW36568   2.230   1.781   2.951 -1.1094  0.5889  0.2887
 8370SOL    HW136569   2.248   1.796   2.858  0.8212  1.1641  0.7757
 8370SOL    HW236570   2.137   1.805   2.945 -1.2812 -0.0163  0.4677
 8371SOL     OW36571   0.129   1.331   0.097 -0.1214  0.3538 -0.0338
 8371SOL    HW136572   0.084   1.416   0.093 -1.6640 -0.5039 -0.9294
 8371SOL    HW236573   0.194   1.346   0.165 -0.9078 -0.3583  0.8735
 8372SOL     OW36574   1.962   0.758   9.076 -0.3858  0.3008  0.2376
 8372SOL    HW136575   1.962   0.696   9.149 -1.3726 -0.6183 -0.5446
 8372SOL    HW236576   2.054   0.784   9.065  0.2603 -1.2273  2.0501
 8373SOL     OW36577   0.016   0.584   1.944  0.0545  0.1607  0.8813
 8373SOL    HW136578   4.671   0.564   2.006  0.6950 -2.5973  0.7092
 8373SOL    HW236579   0.067   0.504   1.935  0.7322  0.6920  0.1163
 8374SOL     OW36580   0.483   3.168   8.776 -0.4673  0.3613  0.7402
 8374SOL    HW136581   0.506   3.172   8.869  1.5015  1.8598  0.1835
 8374SOL    HW236582   0.400   3.121   8.778  0.5088 -1.3513  2.0477
 8375SOL     OW36583   3.382   3.913   1.600 -0.3420 -0.3319  0.4348
 8375SOL    HW136584   3.404   3.896   1.509 -1.8281 -1.4364  0.2803
 8375SOL    HW236585   3.469   3.947   1.620  1.3348 -3.8753 -0.9133
 8376SOL     OW36586   1.667   3.174  10.175 -0.4667  0.3790 -0.9801
 8376SOL    HW136587   1.724   3.231  10.124 -0.4016  1.3438  0.1684
 8376SOL    HW236588   1.678   3.088  10.135 -1.1892  0.2049 -0.8073
 8377SOL     OW36589   0.920   4.304   3.486  0.2679  0.1866 -0.5925
 8377SOL    HW136590   0.999   4.348   3.518  1.0022 -0.3428 -1.6938
 8377SOL    HW236591   0.908   4.330   3.395 -2.5324  2.4031  0.4003
 8378SOL     OW36592   1.018   3.271  12.077 -0.5852  0.2797  0.3033
 8378SOL    HW136593   0.926   3.256  12.057 -0.2303 -0.8670 -0.4330
 8378SOL    HW236594   1.042   3.347  12.025  0.7432  1.6832  2.9646
 8379SOL     OW36595   0.387   4.564  17.076  0.4438  0.3565  0.3672
 8379SOL    HW136596   0.477   4.532  17.074 -0.5229 -2.2228 -1.9237
 8379SOL    HW236597   0.388   4.606  17.162  1.5332 -1.1875  1.1027
 8380SOL     OW36598   0.789   3.851   1.088 -0.5437  0.1579 -0.2846
 8380SOL    HW136599   0.796   3.838   1.183 -2.5856 -0.6922 -0.2512
 8380SOL    HW236600   0.880   3.873   1.068 -0.7740  1.2006 -0.1754
 8381SOL     OW36601   2.932   2.021   3.454 -0.1679  0.6005  0.0353
 8381SOL    HW136602   2.905   2.049   3.367  1.3678  0.1875 -0.5642
 8381SOL    HW236603   2.873   1.950   3.480  0.0708  0.4868  0.2633
 8382SOL     OW36604   0.387   2.648   7.464  0.1519 -0.1624  0.5011
 8382SOL    HW136605   0.326   2.696   7.408 -1.4380 -0.8462  1.6378
 8382SOL    HW236606   0.373   2.569   7.412 -1.1560 -0.3563  1.1439
 8383SOL     OW36607   1.680   4.586   3.669 -0.5905 -0.4845  0.1944
 8383SOL    HW136608   1.753   4.526   3.684 -0.6952 -1.2212 -2.0974
 8383SOL    HW236609   1.675   4.614   3.760  0.3191  1.0333 -0.2174
 8384SOL     OW36610   0.766   0.019  17.045 -0.4397 -0.3905  0.2778
 8384SOL    HW136611   0.791   0.043  16.956  0.4772 -2.0419  0.0916
 8384SOL    HW236612   0.705   4.671  17.043 -2.8369  1.6297 -0.8698
 8385SOL     OW36613   2.171   3.239   8.423 -0.9869  0.0889  0.2262
 8385SOL    HW136614   2.077   3.237   8.407 -0.8263 -0.1155 -0.7117
 8385SOL    HW236615   2.175   3.162   8.479  0.8763 -0.6661 -0.9571
 8386SOL     OW36616   0.527   2.176   2.803  0.0292  0.4733 -0.0323
 8386SOL    HW136617   0.482   2.128   2.734  0.8550  0.5786 -0.6404
 8386SOL    HW236618   0.462   2.167   2.872  0.2047  1.3746  0.2449
 8387SOL     OW36619   0.085   1.508   5.985 -0.0095  0.2915  0.2729
 8387SOL    HW136620   0.089   1.546   6.073 -1.1822  1.7095 -0.2833
 8387SOL    HW236621   0.157   1.557   5.946  0.5790 -0.7455  0.0599
 8388SOL     OW36622   2.684   3.184   1.608  0.3874 -0.1006  0.4532
 8388SOL    HW136623   2.663   3.110   1.550  1.5491  0.3260 -0.5346
 8388SOL    HW236624   2.700   3.246   1.536  0.9038  0.9210  1.4362
 8389SOL     OW36625   3.107   3.907   0.619  0.2289 -0.0118 -0.1120
 8389SOL    HW136626   3.125   3.993   0.656  0.6737 -0.5585  0.9293
 8389SOL    HW236627   3.183   3.885   0.565  0.5701  1.2364 -0.1329
 8390SOL     OW36628   1.995   3.873  17.494  0.4333 -0.2429  0.7845
 8390SOL    HW136629   2.044   3.915  17.423 -1.4944  2.0915  0.8302
 8390SOL    HW236630   1.908   3.911  17.505  1.8509  2.5532  2.2637
 8391SOL     OW36631   0.834   1.433   2.352 -0.0411  0.0351 -0.3040
 8391SOL    HW136632   0.827   1.341   2.328  0.3893 -0.3215  0.9470
 8391SOL    HW236633   0.785   1.467   2.277 -0.9547 -0.6379 -0.0117
 8392SOL     OW36634   2.336   2.929   5.427 -0.0689  0.2878  0.0215
 8392SOL    HW136635   2.310   2.838   5.443  0.4078  0.5552  2.3181
 8392SOL    HW236636   2.255   2.970   5.397 -0.1599  0.8047  0.9904
 8393SOL     OW36637   4.355   3.917   3.211 -0.4021  0.2221 -0.2487
 8393SOL    HW136638   4.272   3.938   3.254 -0.4145  2.0237 -1.1380
 8393SOL    HW236639   4.327   3.838   3.166 -0.0566  0.6339 -1.2010
 8394SOL     OW36640   4.429   3.895  14.886  0.5658  0.6176 -0.1663
 8394SOL    HW136641   4.517   3.896  14.924 -0.3835 -0.7737  2.0924
 8394SOL    HW236642   4.449   3.919  14.795  1.6389 -1.2448 -0.4272
 8395SOL     OW36643   1.362   4.706   5.075  0.3842  0.1774 -0.4470
 8395SOL    HW136644   1.445   0.015   5.043  1.5442 -1.5063  0.7399
 8395SOL    HW236645   1.386   4.681   5.164  0.6883  0.5988 -0.4143
 8396SOL     OW36646   0.479   1.682   7.405 -0.4216  0.1125 -0.3262
 8396SOL    HW136647   0.570   1.655   7.417  0.1402  1.7818 -0.9097
 8396SOL    HW236648   0.468   1.709   7.314 -4.0477  0.2605  0.1704
 8397SOL     OW36649   0.086   4.284   5.439  0.4822  0.5568 -0.5129
 8397SOL    HW136650   4.717   4.272   5.431  0.8928 -2.3293 -1.1291
 8397SOL    HW236651   0.100   4.267   5.532 -0.0333 -1.1463 -0.7364
 8398SOL     OW36652   1.637   2.716   8.561  0.4076  0.7493 -0.7367
 8398SOL    HW136653   1.712   2.682   8.609 -0.5512  1.3836  1.2280
 8398SOL    HW236654   1.676   2.792   8.520  0.6022  0.8259 -0.4046
 8399SOL     OW36655   1.654   0.415   8.678 -0.6352  0.0880 -0.0034
 8399SOL    HW136656   1.681   0.476   8.747  0.0487  0.4373 -0.5838
 8399SOL    HW236657   1.625   0.340   8.730  1.1059 -0.1957  0.5868
 8400SOL     OW36658   3.472   3.945   1.330  0.0606  0.3175  0.0090
 8400SOL    HW136659   3.520   3.962   1.249 -1.6234 -1.4981 -1.3522
 8400SOL    HW236660   3.463   4.036   1.360  2.2996  0.3850  0.5085
 8401SOL     OW36661   0.313   4.170   5.283  0.5482  0.1215  0.1039
 8401SOL    HW136662   0.243   4.162   5.218  0.9561 -0.9090 -0.1995
 8401SOL    HW236663   0.261   4.177   5.363  0.0089  0.9583 -0.3214
 8402SOL     OW36664   3.600   1.823   5.512 -0.8082  0.1847  0.1550
 8402SOL    HW136665   3.588   1.790   5.423  2.1653 -2.5566  0.7601
 8402SOL    HW236666   3.633   1.747   5.561  1.8178  0.6006 -0.9312
 8403SOL     OW36667   0.417   3.923  17.527  0.0649  0.1648 -0.1149
 8403SOL    HW136668   0.461   3.969  17.456  0.9139  2.0799  1.6625
 8403SOL    HW236669   0.477   3.851  17.547 -0.6411 -0.7642 -1.3463
 8404SOL     OW36670   1.138   1.379  11.257  0.2799  0.1199  0.2681
 8404SOL    HW136671   1.088   1.452  11.291  1.1899 -0.2646  2.4488
 8404SOL    HW236672   1.109   1.326  11.331 -1.2987 -0.4401 -0.7526
 8405SOL     OW36673   4.123   4.649   3.996 -0.8150 -0.5629 -0.9293
 8405SOL    HW136674   4.193   4.698   3.953 -0.9279  0.0503 -0.4245
 8405SOL    HW236675   4.176   4.592   4.052 -1.4213  0.1583  0.3919
 8406SOL     OW36676   3.097   0.397   3.708 -0.0606  0.1991 -0.2474
 8406SOL    HW136677   3.007   0.363   3.708  0.0406 -0.0528  5.8623
 8406SOL    HW236678   3.083   0.491   3.710 -3.1554 -0.2667 -0.2085
 8407SOL     OW36679   2.331   3.421   7.259  0.9478  0.1092 -0.4313
 8407SOL    HW136680   2.338   3.381   7.173  0.5408 -0.7228 -0.0771
 8407SOL    HW236681   2.314   3.346   7.315 -0.2879  0.9665  0.3474
 8408SOL     OW36682   2.438   2.107  10.857  0.0954  0.7915 -0.2179
 8408SOL    HW136683   2.522   2.105  10.903 -0.1810 -0.7419  0.2164
 8408SOL    HW236684   2.426   2.016  10.830  0.3859 -0.0382  2.3817
 8409SOL     OW36685   0.418   3.865   4.758 -0.1691  0.0643  0.0179
 8409SOL    HW136686   0.348   3.819   4.804  0.1776 -0.0327  0.4518
 8409SOL    HW236687   0.491   3.866   4.821  0.0426  0.6116 -0.2427
 8410SOL     OW36688   3.241   1.184   3.632 -0.6214  0.1331 -0.5681
 8410SOL    HW136689   3.267   1.252   3.695  0.6081  1.3344 -2.3704
 8410SOL    HW236690   3.179   1.134   3.684 -0.4349 -0.5806 -1.0304
 8411SOL     OW36691   0.171   2.417   5.459 -0.0776 -0.0378 -0.0346
 8411SOL    HW136692   0.123   2.498   5.474 -0.3709 -0.1529 -0.3401
 8411SOL    HW236693   0.121   2.359   5.516 -0.6813  0.1204 -0.4017
 8412SOL     OW36694   2.424   1.059   2.603  0.0637  0.2251  0.4293
 8412SOL    HW136695   2.427   1.033   2.695  1.1696 -0.4194  0.2133
 8412SOL    HW236696   2.434   0.969   2.572  1.7308  0.9646 -1.2067
 8413SOL     OW36697   3.052   0.386   1.331  0.4390  0.0326 -0.1583
 8413SOL    HW136698   3.033   0.308   1.278  0.8484  0.8339 -1.4803
 8413SOL    HW236699   3.136   0.412   1.293 -1.4559  0.6671 -3.8974
 8414SOL     OW36700   2.293   1.046   8.775  0.2981  0.2114 -0.4756
 8414SOL    HW136701   2.270   1.073   8.686 -0.7553 -1.3210 -0.6699
 8414SOL    HW236702   2.296   0.952   8.757 -2.1911 -0.2840  1.8036
 8415SOL     OW36703   3.645   1.586  12.789 -0.9447 -0.5311 -0.0620
 8415SOL    HW136704   3.626   1.582  12.883 -2.5237 -0.9648 -0.3877
 8415SOL    HW236705   3.718   1.526  12.774 -0.0749  1.5278 -4.0338
 8416SOL     OW36706   0.500   2.001   4.175  0.1690  0.3723  0.0199
 8416SOL    HW136707   0.472   2.067   4.238  1.5537  1.4834 -0.5249
 8416SOL    HW236708   0.418   1.954   4.160 -0.0220  0.3236  1.1940
 8417SOL     OW36709   4.157   1.575   0.353  0.1442  0.2699  0.0852
 8417SOL    HW136710   4.163   1.646   0.289  2.1935 -1.7391 -1.9481
 8417SOL    HW236711   4.180   1.496   0.303 -0.6034 -0.9258  1.6069
 8418SOL     OW36712   3.644   1.421   0.828 -0.4136 -0.4300 -0.3694
 8418SOL    HW136713   3.732   1.439   0.859  0.8137 -1.6714 -3.1440
 8418SOL    HW236714   3.601   1.473   0.896 -1.5905 -1.6545 -0.1876
 8419SOL     OW36715   0.183   0.096   2.678  0.0876  0.0174  0.1688
 8419SOL    HW136716   0.199   0.164   2.612  0.1822  0.1859  0.3648
 8419SOL    HW236717   0.272   0.100   2.714  0.0198  0.8367  0.2441
 8420SOL     OW36718   0.915   1.904   4.917  0.0937  0.4247  0.5390
 8420SOL    HW136719   0.937   1.930   4.828  0.7509  0.5703  0.7365
 8420SOL    HW236720   0.988   1.851   4.951  1.3646  1.6181 -0.3032
 8421SOL     OW36721   0.452   0.830   4.009 -0.3949  0.0405 -0.7374
 8421SOL    HW136722   0.517   0.893   3.981  0.3442 -0.2227  0.3714
 8421SOL    HW236723   0.457   0.841   4.104 -0.3325 -3.1783 -0.3553
 8422SOL     OW36724   1.415   0.906   3.997 -0.0723 -0.0804 -0.0000
 8422SOL    HW136725   1.414   0.862   3.911 -3.5610  0.9626 -0.4930
 8422SOL    HW236726   1.458   0.849   4.060  0.6808 -1.0492 -1.3714
 8423SOL     OW36727   4.160   0.543   0.339 -0.6176 -0.4197 -0.3395
 8423SOL    HW136728   4.195   0.517   0.424 -1.4231 -1.5577 -0.3594
 8423SOL    HW236729   4.188   0.634   0.336 -0.2028 -0.5317  0.2275
 8424SOL     OW36730   0.191   2.177   6.793 -0.5500 -0.2198  0.2546
 8424SOL    HW136731   0.268   2.125   6.772 -0.0229  0.1288  1.3073
 8424SOL    HW236732   0.173   2.220   6.710 -0.4798  0.5611  0.6380
 8425SOL     OW36733   0.518   3.073   7.699  0.5751  0.2538 -0.3883
 8425SOL    HW136734   0.462   2.998   7.719  1.5875  0.5193  3.5052
 8425SOL    HW236735   0.590   3.062   7.761  0.1040 -1.1045 -0.0904
 8426SOL     OW36736   0.980   4.127   2.099  0.4781  0.3904 -0.9254
 8426SOL    HW136737   1.010   4.148   2.010 -1.6154  2.1829 -1.2103
 8426SOL    HW236738   0.912   4.063   2.078  0.2584  0.6150 -0.9070
 8427SOL     OW36739   3.781   2.663  16.265 -0.9940  0.4653 -0.3574
 8427SOL    HW136740   3.754   2.753  16.285  1.3248  0.4408  2.9733
 8427SOL    HW236741   3.704   2.630  16.218 -0.0203 -0.3769 -1.3646
 8428SOL     OW36742   2.064   0.518   2.472 -0.3021  0.0612  0.1670
 8428SOL    HW136743   2.010   0.552   2.543  1.5705  0.5178  1.4018
 8428SOL    HW236744   2.015   0.441   2.443 -0.1585 -0.3261  0.9432
 8429SOL     OW36745   0.456   4.297   9.729 -0.5107  0.2867 -0.2681
 8429SOL    HW136746   0.473   4.379   9.776  2.6314  0.1535 -1.1884
 8429SOL    HW236747   0.442   4.242   9.806  0.0125  0.0744 -0.3207
 8430SOL     OW36748   0.495   1.046  14.414 -0.0998  0.1434  0.0202
 8430SOL    HW136749   0.504   1.138  14.437  0.0652  0.0170  0.4786
 8430SOL    HW236750   0.412   1.022  14.456  0.4855 -0.4345  0.8680
 8431SOL     OW36751   3.056   2.858   3.117  0.2029  0.0582 -0.8288
 8431SOL    HW136752   2.989   2.805   3.074 -1.0931  1.7144 -0.8190
 8431SOL    HW236753   3.060   2.932   3.057 -1.4068  1.1203  0.3766
 8432SOL     OW36754   4.188   0.427  10.252  0.7286  0.2924  0.1950
 8432SOL    HW136755   4.100   0.449  10.282 -0.7399 -1.4205 -2.9422
 8432SOL    HW236756   4.207   0.515  10.220  1.1123 -1.0730 -3.3170
 8433SOL     OW36757   4.611   3.450   0.043 -0.0526 -0.0354  0.8457
 8433SOL    HW136758   4.583   3.537   0.014  1.2225 -0.3691 -1.4253
 8433SOL    HW236759   4.535   3.394   0.058  0.0330  0.3961  2.8899
 8434SOL     OW36760   0.909   3.466  14.425 -0.2505  0.4180 -0.0578
 8434SOL    HW136761   0.841   3.533  14.436  0.3584  1.2613 -1.3476
 8434SOL    HW236762   0.858   3.390  14.451 -0.6326  1.5670  2.5565
 8435SOL     OW36763   2.801   1.021  10.976  0.1013  1.3066  0.4981
 8435SOL    HW136764   2.779   1.079  11.049 -0.8082 -0.7832  1.8737
 8435SOL    HW236765   2.767   1.069  10.900  1.3388  0.8420 -0.3479
 8436SOL     OW36766   0.985   4.150   3.924 -0.2142 -0.7591 -0.1299
 8436SOL    HW136767   1.040   4.071   3.926 -0.7638 -1.1429 -0.2810
 8436SOL    HW236768   1.039   4.204   3.981 -2.0448 -0.1640  1.0140
 8437SOL     OW36769   1.268   0.833  13.492 -0.3200  0.0921 -0.0585
 8437SOL    HW136770   1.176   0.859  13.504 -0.8220 -1.1336 -1.2258
 8437SOL    HW236771   1.312   0.883  13.561  0.3196 -1.3733  0.6012
 8438SOL     OW36772   0.333   1.325   0.588 -0.1316  0.1589  0.1576
 8438SOL    HW136773   0.283   1.318   0.669 -0.3056  0.5277  0.0786
 8438SOL    HW236774   0.403   1.261   0.601 -0.2865 -0.0898 -0.2725
 8439SOL     OW36775   1.574   0.565  15.506 -0.4107 -0.2493 -0.0825
 8439SOL    HW136776   1.513   0.635  15.483  0.7085  1.1272  1.1198
 8439SOL    HW236777   1.523   0.496  15.549  0.1843 -1.4705 -1.3226
 8440SOL     OW36778   4.476   3.068   8.419 -0.0172 -0.2906 -0.1451
 8440SOL    HW136779   4.433   3.034   8.341  0.3473  2.4743 -1.5501
 8440SOL    HW236780   4.567   3.038   8.407  0.4365  0.4380  1.5485
 8441SOL     OW36781   1.230   3.181   7.308 -0.2693 -0.2060 -0.5946
 8441SOL    HW136782   1.232   3.222   7.394  0.3026 -0.5975 -0.4212
 8441SOL    HW236783   1.183   3.102   7.334  2.1371 -1.6256 -0.5487
 8442SOL     OW36784   0.250   0.073  15.525  0.3952  0.4577  0.1346
 8442SOL    HW136785   0.332   0.110  15.557 -0.5306  1.8111  0.9150
 8442SOL    HW236786   0.227   0.149  15.472 -1.5975 -1.5921 -1.9562
 8443SOL     OW36787   0.662   4.429   6.238  0.0563 -0.1592 -0.0547
 8443SOL    HW136788   0.639   4.504   6.293  1.3444 -0.6464  1.1493
 8443SOL    HW236789   0.589   4.427   6.176 -0.7180 -1.0036  0.8885
 8444SOL     OW36790   1.041   1.594   5.160  0.3971 -0.6587 -0.2580
 8444SOL    HW136791   1.020   1.677   5.204 -0.3863 -1.2520  0.4941
 8444SOL    HW236792   1.136   1.601   5.161  0.3071  0.6867 -1.1143
 8445SOL     OW36793   2.931   1.023   2.861 -0.3014 -0.5511  0.1826
 8445SOL    HW136794   2.942   1.101   2.806  1.2862 -0.5974  0.4272
 8445SOL    HW236795   2.966   1.060   2.942 -1.3116 -1.4482  1.0210
 8446SOL     OW36796   4.112   0.838   0.706  0.0988 -0.6559  0.2449
 8446SOL    HW136797   4.060   0.806   0.632 -0.3716  1.3723 -0.3163
 8446SOL    HW236798   4.119   0.769   0.771 -0.0714 -2.3655 -1.5578
 8447SOL     OW36799   1.480   0.291   5.745 -0.6580 -0.5759 -0.2868
 8447SOL    HW136800   1.454   0.314   5.835  0.0800  0.4677 -0.3416
 8447SOL    HW236801   1.419   0.346   5.696 -0.7392 -0.5187 -0.1235
 8448SOL     OW36802   0.177   0.807   0.933  0.7312  0.4206 -0.0967
 8448SOL    HW136803   0.088   0.802   0.896  0.7197 -1.6631  0.2493
 8448SOL    HW236804   0.173   0.882   0.992 -1.0822  0.7562 -0.6279
 8449SOL     OW36805   0.625   3.772   8.622 -0.8895 -0.2564  0.1320
 8449SOL    HW136806   0.532   3.779   8.639 -1.1111 -2.0763 -0.3721
 8449SOL    HW236807   0.656   3.860   8.643 -1.7112  0.9671 -3.8023
 8450SOL     OW36808   4.441   4.537   1.204 -0.1063  1.0497 -0.4222
 8450SOL    HW136809   4.399   4.612   1.162  1.1116  1.1340 -1.4944
 8450SOL    HW236810   4.433   4.481   1.126  1.5816  1.2926 -0.7722
 8451SOL     OW36811   3.603   0.318   7.175  0.3145  0.2998  0.3146
 8451SOL    HW136812   3.673   0.346   7.115 -0.1953 -0.7450 -0.7545
 8451SOL    HW236813   3.559   0.251   7.123 -0.5170  1.2581 -0.2144
 8452SOL     OW36814   1.497   4.151   9.548 -0.5770 -0.0978  0.3922
 8452SOL    HW136815   1.485   4.202   9.468 -1.5832 -2.1267 -0.7676
 8452SOL    HW236816   1.488   4.222   9.612 -3.7048  1.1866 -1.4518
 8453SOL     OW36817   0.891   0.112   8.683 -0.6374  0.5983 -0.6053
 8453SOL    HW136818   0.796   0.124   8.673 -0.4781  1.8205 -0.6604
 8453SOL    HW236819   0.897   0.031   8.633  1.2257  0.8409 -0.7599
 8454SOL     OW36820   1.085   3.671   6.931 -0.5483 -0.2305 -0.2043
 8454SOL    HW136821   1.082   3.714   6.845 -0.8608 -2.7092 -1.4321
 8454SOL    HW236822   1.098   3.579   6.909  1.1818 -0.0479 -0.0125
 8455SOL     OW36823   0.303   3.462   2.979  0.1988 -0.5038 -0.0431
 8455SOL    HW136824   0.273   3.549   2.952  0.8105  0.4242  2.2245
 8455SOL    HW236825   0.273   3.459   3.070 -1.1039  1.1597 -0.4064
 8456SOL     OW36826   0.303   1.241  15.845 -0.0176 -0.0825 -0.1309
 8456SOL    HW136827   0.288   1.284  15.761  2.5105 -0.6134 -0.8234
 8456SOL    HW236828   0.335   1.157  15.812 -1.5610 -1.0051  0.7062
 8457SOL     OW36829   2.465   0.016   8.328  0.3180  0.5728  0.4802
 8457SOL    HW136830   2.496   0.075   8.396 -1.0333  1.6022  0.1812
 8457SOL    HW236831   2.456   4.667   8.387  2.8155 -0.8370 -0.8663
 8458SOL     OW36832   1.021   4.462   7.925 -0.1400 -0.9747  0.6540
 8458SOL    HW136833   1.050   4.548   7.896 -0.3037 -1.3449 -0.5807
 8458SOL    HW236834   1.019   4.461   8.021  0.0189 -0.3043  0.6627
 8459SOL     OW36835   2.428   2.995   8.151  0.2463  0.5423  0.1625
 8459SOL    HW136836   2.426   2.899   8.155  0.2770  0.6028  1.6906
 8459SOL    HW236837   2.518   3.020   8.128  0.0841  0.8980 -0.0759
 8460SOL     OW36838   0.459   1.836   6.005  0.3183 -0.2129 -0.5293
 8460SOL    HW136839   0.482   1.748   6.035  0.4068 -0.4332 -1.2515
 8460SOL    HW236840   0.442   1.879   6.089  0.3445 -1.0635 -0.0914
 8461SOL     OW36841   3.648   0.767   6.325  0.5155  0.0474 -0.0788
 8461SOL    HW136842   3.625   0.675   6.311 -2.0024  0.6769 -0.0668
 8461SOL    HW236843   3.730   0.750   6.372  1.5923  1.1233 -1.5732
 8462SOL     OW36844   1.039   4.117   8.449 -0.8231  0.1787 -0.1098
 8462SOL    HW136845   1.105   4.049   8.465 -1.6241 -0.7764 -0.9000
 8462SOL    HW236846   0.989   4.115   8.531 -2.3555  1.2517 -1.0436
 8463SOL     OW36847   3.876   0.567   6.904  0.0157  0.1177  0.3519
 8463SOL    HW136848   3.808   0.617   6.950  0.5417  0.3105  0.9184
 8463SOL    HW236849   3.820   0.537   6.832  0.0007 -1.1912  0.9036
 8464SOL     OW36850   2.090   4.043   8.070  0.5810  0.2455 -0.3214
 8464SOL    HW136851   2.158   4.062   8.005 -0.0671  2.3917 -0.3910
 8464SOL    HW236852   2.013   4.065   8.018  0.3496 -0.0659 -0.1099
 8465SOL     OW36853   1.484   3.855  16.288  0.1403 -0.4410 -0.7439
 8465SOL    HW136854   1.577   3.874  16.297 -0.4081  0.9226  1.9439
 8465SOL    HW236855   1.474   3.777  16.342  0.0357  0.9718  1.2626
 8466SOL     OW36856   0.130   4.645   2.859  0.1757  0.2020  0.5911
 8466SOL    HW136857   0.217   4.606   2.865  0.3391  0.1647 -2.1096
 8466SOL    HW236858   0.136   4.706   2.785 -1.5120 -0.7721 -0.3574
 8467SOL     OW36859   1.806   0.317   0.555 -0.0607  0.3253  0.1790
 8467SOL    HW136860   1.879   0.368   0.592  0.6465 -1.4108  1.1608
 8467SOL    HW236861   1.828   0.320   0.461  0.0216 -1.2404  0.1457
 8468SOL     OW36862   2.589   0.989   2.259  0.3141 -0.2857  0.2064
 8468SOL    HW136863   2.588   0.997   2.163  0.6043  1.0081  0.3095
 8468SOL    HW236864   2.648   1.061   2.284  0.1006 -0.4345  1.1287
 8469SOL     OW36865   2.851   4.465   3.433 -0.6383 -0.4908 -0.0545
 8469SOL    HW136866   2.811   4.552   3.423  1.2504  0.5151  1.0247
 8469SOL    HW236867   2.894   4.457   3.347 -1.9096  1.0068 -0.8386
 8470SOL     OW36868   0.380   1.557   4.234 -0.2679  0.9385  0.0670
 8470SOL    HW136869   0.378   1.462   4.242  3.1293  0.9192  0.7650
 8470SOL    HW236870   0.372   1.568   4.139  2.1893 -1.7818 -0.4242
 8471SOL     OW36871   2.789   2.007   1.689  0.0352 -0.0567 -0.7301
 8471SOL    HW136872   2.806   1.990   1.597 -0.1684  0.8010 -0.9277
 8471SOL    HW236873   2.697   2.033   1.687  0.4249  1.5183  1.3520
 8472SOL     OW36874   4.039   2.931  15.364  0.6551  0.0793 -0.2192
 8472SOL    HW136875   4.054   3.023  15.385 -1.6475 -0.0023  1.7671
 8472SOL    HW236876   4.115   2.888  15.403 -0.6420  0.8899  3.1859
 8473SOL     OW36877   1.996   1.074  11.661  0.2725 -0.0765  0.2737
 8473SOL    HW136878   1.911   1.035  11.644  0.1686  1.1695 -2.0552
 8473SOL    HW236879   2.002   1.039  11.750  0.4024 -0.5452  0.0812
 8474SOL     OW36880   4.337   0.660   9.955  0.2418  0.1912 -0.1203
 8474SOL    HW136881   4.377   0.640   9.870  1.4755  1.0983  0.2428
 8474SOL    HW236882   4.410   0.640  10.013 -1.1426 -0.0693  1.5135
 8475SOL     OW36883   1.774   0.488  12.158 -0.1530 -0.2512  0.0593
 8475SOL    HW136884   1.859   0.451  12.181  0.6905  2.2713  1.0984
 8475SOL    HW236885   1.723   0.408  12.154  0.9293 -0.9816  1.0245
 8476SOL     OW36886   2.319   3.960   4.996  0.4565  0.0376 -0.7777
 8476SOL    HW136887   2.290   4.048   4.971 -2.0025 -0.2571  0.9347
 8476SOL    HW236888   2.299   3.962   5.090  2.0698  1.1286 -0.4581
 8477SOL     OW36889   4.239   1.918   4.992 -0.2708  0.1073  0.4063
 8477SOL    HW136890   4.257   1.869   4.911  0.7413  0.3270  0.5050
 8477SOL    HW236891   4.324   1.960   5.004 -0.1306 -0.4000  1.1827
 8478SOL     OW36892   2.283   0.269   6.751  0.0283 -0.0751 -0.4520
 8478SOL    HW136893   2.224   0.237   6.682  0.8489 -3.0583  0.2547
 8478SOL    HW236894   2.341   0.331   6.707  0.4398 -0.9235 -1.1063
 8479SOL     OW36895   2.926   1.949   7.389 -0.0408 -0.2994 -0.4530
 8479SOL    HW136896   2.933   2.040   7.416 -0.2376 -0.2810 -0.4648
 8479SOL    HW236897   2.932   1.896   7.468  0.6075  0.7887  0.2161
 8480SOL     OW36898   0.404   0.834   9.088 -0.2020  0.1965  0.0993
 8480SOL    HW136899   0.401   0.757   9.031 -1.8830  1.0940 -1.0246
 8480SOL    HW236900   0.439   0.798   9.170  1.8636 -1.5590 -1.5677
 8481SOL     OW36901   2.964   2.049   4.602 -0.0312  0.1541 -0.3854
 8481SOL    HW136902   2.918   2.132   4.594  0.1537  0.1884 -1.0744
 8481SOL    HW236903   3.049   2.067   4.561  1.0083 -1.4321  1.0546
 8482SOL     OW36904   4.239   0.988   4.827  0.5311  0.3746  0.3506
 8482SOL    HW136905   4.197   0.977   4.913  0.5911  0.1750  0.3543
 8482SOL    HW236906   4.178   0.943   4.769  0.5840  1.2721 -0.4037
 8483SOL     OW36907   2.551   0.015  12.861 -0.3214  0.3398  0.0376
 8483SOL    HW136908   2.575   4.651  12.882 -1.8901 -0.1156 -0.0819
 8483SOL    HW236909   2.460   0.003  12.832 -0.5065 -3.0252  1.9993
 8484SOL     OW36910   1.773   3.154   8.437 -0.0174 -0.0115  0.2641
 8484SOL    HW136911   1.812   3.067   8.430 -0.2432 -0.1812  1.0635
 8484SOL    HW236912   1.678   3.143   8.434  0.0746 -0.0037 -2.6879
 8485SOL     OW36913   0.646   1.868   2.767 -0.4951  0.1497 -0.0941
 8485SOL    HW136914   0.689   1.900   2.688 -0.9711 -1.2196 -0.9012
 8485SOL    HW236915   0.555   1.849   2.746 -0.6023  0.5302  0.0215
 8486SOL     OW36916   1.543   4.710   9.009 -0.0727  0.1632  0.1155
 8486SOL    HW136917   1.476   4.642   9.019  0.4565 -0.4610 -0.5927
 8486SOL    HW236918   1.622   4.657   9.018 -0.2362 -0.0470  0.3301
 8487SOL     OW36919   3.267   0.018   9.643 -0.3056  0.2136 -0.6177
 8487SOL    HW136920   3.198   0.037   9.708  1.0866  0.4942  0.7813
 8487SOL    HW236921   3.338   0.022   9.707  0.6198  0.7700 -1.6712
 8488SOL     OW36922   1.117   4.191   4.388  0.6697  0.3613  0.1829
 8488SOL    HW136923   1.179   4.167   4.457  1.5780 -0.7851 -1.0217
 8488SOL    HW236924   1.063   4.114   4.365  0.7712  0.2152  0.4316
 8489SOL     OW36925   0.777   3.664   4.625 -0.8148  0.6482 -0.1132
 8489SOL    HW136926   0.773   3.726   4.552 -2.4754  1.2481  0.4798
 8489SOL    HW236927   0.690   3.665   4.665  0.5739  1.5147  2.8931
 8490SOL     OW36928   0.516   4.604   5.094  0.6598 -0.2453  0.1139
 8490SOL    HW136929   0.610   4.619   5.096  0.0596  3.5669  0.5226
 8490SOL    HW236930   0.512   4.516   5.132 -1.4299 -1.2584 -2.4294
 8491SOL     OW36931   4.355   4.286   3.550  0.5441 -0.2537  0.4422
 8491SOL    HW136932   4.358   4.340   3.629 -0.5561 -0.6907  0.7840
 8491SOL    HW236933   4.446   4.287   3.520  0.6629  0.6804  0.8158
 8492SOL     OW36934   1.244   0.625   3.717 -0.4689 -0.0214  0.4502
 8492SOL    HW136935   1.329   0.668   3.719  0.5356 -2.0874  1.7953
 8492SOL    HW236936   1.264   0.550   3.772 -2.5851  0.3595  1.7373
 8493SOL     OW36937   0.869   3.415   6.241 -0.1281 -0.1571 -0.7012
 8493SOL    HW136938   0.820   3.427   6.159  0.0245  0.9047 -0.6473
 8493SOL    HW236939   0.863   3.505   6.274 -1.2907 -1.2126  1.9319
 8494SOL     OW36940   0.011   4.259  12.669 -0.7431  0.0380 -0.2101
 8494SOL    HW136941   0.063   4.308  12.733 -1.0244 -0.4114  0.3538
 8494SOL    HW236942   4.652   4.276  12.709 -0.5545  0.0899  0.1723
 8495SOL     OW36943   3.071   1.510   5.583  0.2881  0.4395 -0.3493
 8495SOL    HW136944   3.112   1.592   5.607  1.1222 -0.1367  0.2021
 8495SOL    HW236945   3.138   1.445   5.603 -0.9000 -0.6460  0.1533
 8496SOL     OW36946   3.356   4.294   3.089  0.5889  0.0937 -0.6625
 8496SOL    HW136947   3.373   4.200   3.096  1.6200  0.2894 -0.5283
 8496SOL    HW236948   3.318   4.304   3.002 -0.7803 -1.2744 -0.2232
 8497SOL     OW36949   4.476   1.629   5.013 -0.1051  0.4380 -0.5222
 8497SOL    HW136950   4.460   1.724   5.019  1.4217  0.5791  1.3168
 8497SOL    HW236951   4.548   1.625   4.950 -1.8904  0.6659 -2.6053
 8498SOL     OW36952   3.340   1.906   5.508  0.1258  0.2696 -0.3710
 8498SOL    HW136953   3.436   1.910   5.510  0.1015  0.9573 -0.4419
 8498SOL    HW236954   3.327   1.898   5.413 -0.3222  0.5370 -0.3326
 8499SOL     OW36955   3.098   4.031   6.786  0.6525  0.1224  0.6057
 8499SOL    HW136956   3.055   3.956   6.745 -0.3923  0.8462  0.3966
 8499SOL    HW236957   3.187   3.999   6.800  0.5256 -0.1612  0.7707
 8500SOL     OW36958   0.990   4.054   8.179 -0.2907  0.0023  0.0335
 8500SOL    HW136959   0.935   4.115   8.130 -0.6758  0.6341  1.2656
 8500SOL    HW236960   1.000   4.093   8.266  0.2023  1.8556 -0.8512
 8501SOL     OW36961   2.653   4.097   2.538 -0.3289  0.3758  0.3434
 8501SOL    HW136962   2.592   4.056   2.477  0.1963 -1.6563  1.2041
 8501SOL    HW236963   2.611   4.173   2.578 -0.5024  1.0110 -1.0267
 8502SOL     OW36964   0.459   2.111   5.056  0.0669  0.3734  0.3101
 8502SOL    HW136965   0.436   2.113   5.149 -0.2933 -1.2962  0.2492
 8502SOL    HW236966   0.383   2.065   5.021 -1.0079  1.0877  1.6763
 8503SOL     OW36967   4.718   1.752   3.072 -0.2638 -0.0331  0.1315
 8503SOL    HW136968   0.028   1.835   3.104 -3.1759  1.1479  0.2795
 8503SOL    HW236969   4.635   1.739   3.117 -1.4574 -1.3118 -2.4184
 8504SOL     OW36970   2.480   0.635   5.218  0.2232 -0.4103  0.3099
 8504SOL    HW136971   2.472   0.725   5.186 -0.0899 -0.6197 -0.2027
 8504SOL    HW236972   2.514   0.656   5.304  1.2017 -0.9994  0.0637
 8505SOL     OW36973   2.295   1.535   4.366 -0.3946 -0.1796 -0.0517
 8505SOL    HW136974   2.341   1.617   4.383 -2.3164  0.3930  2.5385
 8505SOL    HW236975   2.255   1.519   4.452 -2.3065 -1.1637 -1.1201
 8506SOL     OW36976   4.106   2.525   7.421  0.0374 -0.1170  0.6297
 8506SOL    HW136977   4.180   2.497   7.475 -0.5619  1.0375  2.0519
 8506SOL    HW236978   4.101   2.454   7.357  0.5207  1.0024 -0.6522
 8507SOL     OW36979   2.209   0.792   3.805  0.0348  0.2042 -0.2641
 8507SOL    HW136980   2.149   0.800   3.878  0.6012 -0.0893  0.2325
 8507SOL    HW236981   2.265   0.722   3.838 -0.1500 -0.0554 -0.5008
 8508SOL     OW36982   0.544   2.758   7.677 -0.0011  0.3209 -0.3561
 8508SOL    HW136983   0.496   2.692   7.728 -0.9638  0.8178 -0.6285
 8508SOL    HW236984   0.498   2.756   7.593  0.1418  0.4511 -0.4361
 8509SOL     OW36985   3.386   1.803  15.349  0.4549  0.1538 -0.0810
 8509SOL    HW136986   3.436   1.792  15.269 -0.6234 -0.9089 -0.6120
 8509SOL    HW236987   3.458   1.793  15.411  0.9813  5.1844  0.0811
 8510SOL     OW36988   4.522   4.089   4.095  0.3819  0.0856  0.5776
 8510SOL    HW136989   4.559   4.028   4.030 -0.6454  0.7284 -0.6194
 8510SOL    HW236990   4.433   4.053   4.099  0.7928 -0.9602  0.5042
 8511SOL     OW36991   1.997   4.336   5.480  0.3641  0.2310 -0.2927
 8511SOL    HW136992   2.063   4.313   5.545  0.0307  1.6002  0.5294
 8511SOL    HW236993   2.040   4.416   5.449  2.0433 -1.2032 -1.6690
 8512SOL     OW36994   2.939   0.425  15.749 -0.4859 -0.1890 -0.6851
 8512SOL    HW136995   3.004   0.483  15.787  0.2641 -0.3037 -1.7971
 8512SOL    HW236996   2.878   0.497  15.729 -0.4517  0.0653  0.1516
 8513SOL     OW36997   1.986   0.560  14.193  0.2435  0.4582  0.3222
 8513SOL    HW136998   2.039   0.626  14.150  1.8020 -0.9961  0.0177
 8513SOL    HW236999   1.899   0.600  14.186  0.5329  0.7004 -2.0422
 8514SOL     OW37000   1.899   1.502   4.283  0.0492 -0.3906  0.5952
 8514SOL    HW137001   1.934   1.589   4.297  2.6984 -1.5103  0.9081
 8514SOL    HW237002   1.847   1.511   4.203  1.8023 -0.0231 -0.4889
 8515SOL     OW37003   0.335   0.394   4.417 -0.4957 -0.1451  0.1025
 8515SOL    HW137004   0.344   0.465   4.481  2.4823  0.1480 -0.6573
 8515SOL    HW237005   0.342   0.449   4.339 -1.1845  2.4214  1.8231
 8516SOL     OW37006   1.940   3.594   8.676 -0.3373  0.2540 -0.1299
 8516SOL    HW137007   1.965   3.684   8.655 -1.9742  0.4196 -1.3578
 8516SOL    HW237008   1.993   3.574   8.753 -2.3346 -1.1286  0.8741
 8517SOL     OW37009   1.994   1.543   2.595 -0.3131  0.0922  0.4124
 8517SOL    HW137010   1.907   1.523   2.562  1.1129 -0.9740 -2.6855
 8517SOL    HW237011   1.980   1.637   2.585 -2.4737 -0.2388  0.3484
 8518SOL     OW37012   2.791   3.934   9.100 -0.2578 -0.6092  0.5750
 8518SOL    HW137013   2.743   3.872   9.046 -0.1016  0.4806 -0.7967
 8518SOL    HW237014   2.830   3.879   9.168  0.7995 -1.0980 -0.4349
 8519SOL     OW37015   0.327   3.331   5.016 -0.3523  0.1402  0.2550
 8519SOL    HW137016   0.412   3.308   5.053  0.3831 -0.3138 -1.7489
 8519SOL    HW237017   0.301   3.242   4.992 -0.1727 -0.2112  1.3781
 8520SOL     OW37018   3.679   3.472  16.063  0.1868  0.6462 -0.0877
 8520SOL    HW137019   3.683   3.561  16.098 -0.0871  1.4098 -2.0175
 8520SOL    HW237020   3.590   3.446  16.089 -0.7601  2.9014 -1.1115
 8521SOL     OW37021   2.959   4.443  13.248  0.1426  0.2687 -0.1858
 8521SOL    HW137022   2.948   4.436  13.153 -1.7149  2.0103 -0.0972
 8521SOL    HW237023   3.025   4.513  13.249 -0.8055  1.1531 -0.0158
 8522SOL     OW37024   4.308   2.538   3.225  0.1411 -0.4808  0.1955
 8522SOL    HW137025   4.235   2.563   3.169  1.9669 -1.3610 -2.5904
 8522SOL    HW237026   4.344   2.625   3.244  0.8641 -1.0978  1.6767
 8523SOL     OW37027   2.733   3.135   0.096 -0.1905  0.0776  0.0557
 8523SOL    HW137028   2.818   3.094   0.110  0.4056  0.7899 -1.4296
 8523SOL    HW237029   2.727   3.198   0.169  1.8667 -0.0674  0.3323
 8524SOL     OW37030   2.014   0.034   6.967  0.5597  0.3400 -0.8160
 8524SOL    HW137031   2.020   0.124   6.997  0.9760 -0.0311  0.2183
 8524SOL    HW237032   2.003   4.716   7.052  0.2394  0.6836 -0.6826
 8525SOL     OW37033   2.522   3.222  16.572  0.0474  0.1188 -0.3231
 8525SOL    HW137034   2.607   3.181  16.590 -0.4647 -1.0473 -0.5172
 8525SOL    HW237035   2.538   3.315  16.587  0.3353  0.3178 -1.8716
 8526SOL     OW37036   1.752   2.049   5.902  0.1191 -0.0223  0.0790
 8526SOL    HW137037   1.720   1.964   5.933 -2.1953  1.0346  0.6663
 8526SOL    HW237038   1.673   2.091   5.868  0.4135  1.6275  1.4384
 8527SOL     OW37039   0.660   2.916   4.819 -0.9236 -0.1607  0.5771
 8527SOL    HW137040   0.605   2.992   4.803 -0.9631 -0.1776  0.6340
 8527SOL    HW237041   0.679   2.895   4.728  0.4307 -1.0193  1.0570
 8528SOL     OW37042   4.700   3.467   3.533 -0.9183  0.6852  0.1019
 8528SOL    HW137043   0.030   3.400   3.571 -1.6127 -1.8603 -3.3739
 8528SOL    HW237044   4.722   3.549   3.578 -2.1682  0.7985  0.5107
 8529SOL     OW37045   2.440   3.272   5.217 -0.0424 -0.0202  0.4513
 8529SOL    HW137046   2.448   3.208   5.146 -1.7032  1.3333 -0.9465
 8529SOL    HW237047   2.420   3.349   5.164 -0.3879  0.5389  1.4139
 8530SOL     OW37048   0.909   4.200   5.071  0.7358 -0.4912  0.5241
 8530SOL    HW137049   0.934   4.276   5.124  0.7208 -0.8568  1.0475
 8530SOL    HW237050   0.996   4.182   5.036  0.8272  2.4891 -0.7823
 8531SOL     OW37051   4.570   0.787   8.589  0.2254  0.6542  0.4003
 8531SOL    HW137052   4.555   0.693   8.601 -0.3509  0.9169  1.6950
 8531SOL    HW237053   4.607   0.820   8.671 -1.1057  0.3190  1.1215
 8532SOL     OW37054   3.636   3.467   7.440  0.5553  0.1691  0.4590
 8532SOL    HW137055   3.721   3.426   7.456  0.5469  0.0830  0.2946
 8532SOL    HW237056   3.614   3.494   7.529  1.2727  1.2028  0.3208
 8533SOL     OW37057   2.982   2.484   2.678  0.4912 -0.1625 -0.3176
 8533SOL    HW137058   3.051   2.544   2.648  0.1008  0.7958  0.7094
 8533SOL    HW237059   3.011   2.446   2.760 -1.0625  0.6480  0.6058
 8534SOL     OW37060   2.553   1.944  16.804 -0.4948  0.4075  0.1812
 8534SOL    HW137061   2.568   1.896  16.886 -0.0916  1.8431  0.9612
 8534SOL    HW237062   2.489   2.006  16.841  1.7248  2.0146  1.3548
 8535SOL     OW37063   2.093   2.967   9.574  0.0965 -0.2018  0.2990
 8535SOL    HW137064   2.134   3.052   9.590  2.1762 -0.7504 -2.1066
 8535SOL    HW237065   2.057   2.938   9.658  1.1586 -2.0762  0.1083
 8536SOL     OW37066   2.091   3.910   3.405 -0.1287  0.5365 -0.8981
 8536SOL    HW137067   2.057   3.867   3.327 -1.3514 -0.6751  0.2963
 8536SOL    HW237068   2.076   4.002   3.383  0.5249  0.9311  0.2983
 8537SOL     OW37069   0.621   0.983   8.874  0.5164  0.2247 -0.8516
 8537SOL    HW137070   0.609   0.901   8.922  1.8299  1.4798  1.5812
 8537SOL    HW237071   0.559   1.045   8.912  1.3794  0.7475 -0.3118
 8538SOL     OW37072   2.265   1.782  13.124  0.2580 -0.8153  0.9238
 8538SOL    HW137073   2.207   1.731  13.068  0.9378 -0.6353  0.0625
 8538SOL    HW237074   2.223   1.794  13.209  0.6189  0.7370  0.8883
 8539SOL     OW37075   4.397   0.158   2.985  0.3571  0.0995 -0.1026
 8539SOL    HW137076   4.431   0.083   3.033  0.7817  0.4126  0.0875
 8539SOL    HW237077   4.359   0.108   2.913 -1.4875  0.3753  0.6719
 8540SOL     OW37078   2.104   1.672   3.855 -0.2374  0.5135 -0.4343
 8540SOL    HW137079   2.120   1.659   3.948 -1.3846  0.1621 -0.2785
 8540SOL    HW237080   2.195   1.685   3.831  0.3658 -0.9312  1.0793
 8541SOL     OW37081   4.580   3.267   9.367  0.9130 -0.2648 -0.1194
 8541SOL    HW137082   4.487   3.265   9.388  0.9400 -2.1951 -0.1572
 8541SOL    HW237083   4.596   3.359   9.344 -1.7094  0.2346  0.1099
 8542SOL     OW37084   0.409   2.554  11.493  0.3875 -0.0443 -0.4267
 8542SOL    HW137085   0.371   2.486  11.549  0.2319 -0.3074 -0.8476
 8542SOL    HW237086   0.409   2.626  11.556  1.4135 -1.2382  0.9211
 8543SOL     OW37087   4.407   0.667   8.252 -0.4053  0.3817 -0.4706
 8543SOL    HW137088   4.352   0.714   8.190 -2.3571 -1.0321  0.1634
 8543SOL    HW237089   4.384   0.716   8.331 -0.0222  0.7495 -0.5880
 8544SOL     OW37090   0.798   3.193  12.618  0.6054  0.2136 -0.0633
 8544SOL    HW137091   0.744   3.215  12.542 -0.7297  0.3870  0.9450
 8544SOL    HW237092   0.742   3.239  12.681  1.2627  0.0236  0.6664
 8545SOL     OW37093   3.178   2.117   1.079  0.0829 -0.0674 -0.2928
 8545SOL    HW137094   3.241   2.078   1.018  1.1599 -1.4327  1.6825
 8545SOL    HW237095   3.200   2.090   1.168 -0.8936 -1.8250 -0.5685
 8546SOL     OW37096   0.789   4.161   9.988  0.6043  0.2224 -0.4098
 8546SOL    HW137097   0.695   4.150   9.973  0.7694 -0.2126 -1.1240
 8546SOL    HW237098   0.825   4.080  10.025  0.3565  1.0320  1.6420
 8547SOL     OW37099   3.345   3.741  10.414  0.4173  0.4884  0.0950
 8547SOL    HW137100   3.400   3.689  10.356 -1.2509 -0.4503 -0.6269
 8547SOL    HW237101   3.352   3.828  10.373  0.3078  0.0426 -0.8579
 8548SOL     OW37102   3.618   1.424   7.790 -0.1297 -0.1407 -0.1545
 8548SOL    HW137103   3.579   1.495   7.739 -0.0226 -0.5600 -0.8217
 8548SOL    HW237104   3.619   1.370   7.710 -1.1733 -2.0637  1.1344
 8549SOL     OW37105   3.636   1.544   4.407 -0.2661  0.6480 -0.2734
 8549SOL    HW137106   3.687   1.517   4.332 -2.6884 -2.5251 -0.7847
 8549SOL    HW237107   3.711   1.560   4.464  1.1533 -2.2823 -1.3530
 8550SOL     OW37108   2.419   0.585   8.931 -0.7790 -0.0186  0.8749
 8550SOL    HW137109   2.386   0.507   8.886 -2.4861  1.0784  0.2193
 8550SOL    HW237110   2.456   0.550   9.012 -0.3497 -0.0247  0.6767
 8551SOL     OW37111   3.786   0.962   5.043  0.2143 -0.1306  0.4524
 8551SOL    HW137112   3.748   0.875   5.031 -1.5741  0.7475 -0.1716
 8551SOL    HW237113   3.773   0.967   5.138 -0.0808  0.6473  0.3732
 8552SOL     OW37114   4.496   0.937   3.310  0.6170  0.0173  0.0383
 8552SOL    HW137115   4.525   0.893   3.230  1.4911 -1.1068  0.9762
 8552SOL    HW237116   4.577   0.980   3.335  0.6639  0.2853 -0.5588
 8553SOL     OW37117   3.859   2.494  10.425  0.4892  0.0613 -0.3546
 8553SOL    HW137118   3.876   2.513  10.333 -0.4080  1.6583 -0.1756
 8553SOL    HW237119   3.764   2.486  10.419  0.3303 -1.2509  4.1424
 8554SOL     OW37120   3.402   1.163   6.510 -0.2816  0.0559  0.3286
 8554SOL    HW137121   3.381   1.238   6.566 -0.6140 -0.3259  0.7226
 8554SOL    HW237122   3.492   1.143   6.535 -0.1517  0.0537 -0.1472
 8555SOL     OW37123   4.200   2.991   0.598 -0.0019  0.5269 -0.1047
 8555SOL    HW137124   4.158   3.016   0.516 -1.4046  1.2478  0.8393
 8555SOL    HW237125   4.253   2.916   0.570 -0.4568  0.0486  0.3253
 8556SOL     OW37126   1.232   0.236  13.415 -0.5671  0.1647 -0.7268
 8556SOL    HW137127   1.300   0.279  13.364  0.8053 -1.1113  0.0216
 8556SOL    HW237128   1.210   0.168  13.352 -0.8213  0.1683 -0.6405
 8557SOL     OW37129   2.008   3.118  10.079 -0.0487 -0.3950  0.2931
 8557SOL    HW137130   1.976   3.041  10.125 -0.4272 -0.9510 -0.9006
 8557SOL    HW237131   2.023   3.084   9.991 -0.1684  0.0658  0.0945
 8558SOL     OW37132   0.623   1.648   7.957 -0.1222  0.3603 -0.3861
 8558SOL    HW137133   0.692   1.707   7.926  0.3797  0.1508  0.3180
 8558SOL    HW237134   0.668   1.576   8.000  0.0833  0.4135 -0.5134
 8559SOL     OW37135   4.653   0.093   3.110 -0.3981 -0.1232  0.3899
 8559SOL    HW137136   0.023   0.091   3.122 -0.5413  1.3271  1.7163
 8559SOL    HW237137   4.637   0.187   3.113 -2.0955 -0.4403  0.9230
 8560SOL     OW37138   4.675   3.398   8.358  1.0791 -0.1829  0.1284
 8560SOL    HW137139   4.623   3.446   8.422 -0.2046 -2.2384  0.6244
 8560SOL    HW237140   4.712   3.480   8.326 -1.6301  1.0595  0.2566
 8561SOL     OW37141   1.921   4.378  11.211  0.1128  0.6393  0.3254
 8561SOL    HW137142   2.003   4.417  11.241  1.3180 -2.8686  1.5044
 8561SOL    HW237143   1.957   4.302  11.166 -0.3934  0.1779  0.7086
 8562SOL     OW37144   3.607   1.753  12.572 -0.4471 -0.3400  0.6542
 8562SOL    HW137145   3.684   1.750  12.515 -1.2990 -0.8435 -0.4614
 8562SOL    HW237146   3.639   1.696  12.643  2.6704 -0.9676 -1.2224
 8563SOL     OW37147   2.004   0.175   5.781  0.0299 -0.2098 -0.3559
 8563SOL    HW137148   1.916   0.211   5.792  1.5245  4.3594 -3.3870
 8563SOL    HW237149   1.973   0.085   5.771 -0.5492 -0.2375  1.8235
 8564SOL     OW37150   1.966   2.642   7.844  0.4434  0.2623 -0.4356
 8564SOL    HW137151   1.886   2.681   7.806  0.3410 -0.6872 -1.2018
 8564SOL    HW237152   1.941   2.550   7.846 -0.4592  0.4936 -0.6490
 8565SOL     OW37153   2.253   2.757  11.003  0.0875  0.1261  0.0298
 8565SOL    HW137154   2.222   2.684  11.056  0.0172 -0.4153 -0.7555
 8565SOL    HW237155   2.227   2.725  10.917  1.5250  0.1784 -0.4246
 8566SOL     OW37156   0.819   1.149   4.842  0.7549 -0.4135  0.4340
 8566SOL    HW137157   0.803   1.083   4.775  1.3106  1.2168 -1.3059
 8566SOL    HW237158   0.778   1.219   4.792 -1.6300 -2.8059 -0.9473
 8567SOL     OW37159   0.568   0.092   3.695  0.0430  0.5962  0.3672
 8567SOL    HW137160   0.617   0.033   3.638  1.6925  0.2384  2.1821
 8567SOL    HW237161   0.514   0.030   3.744 -1.1023  1.7725  0.6160
 8568SOL     OW37162   0.872   2.962   7.033 -0.1903 -0.0148 -0.7498
 8568SOL    HW137163   0.848   2.870   7.045  0.6260 -0.1984 -0.5456
 8568SOL    HW237164   0.827   3.000   7.109 -0.5628  0.3067 -1.1308
 8569SOL     OW37165   0.609   3.390   6.724 -0.3656 -0.0122 -0.3320
 8569SOL    HW137166   0.591   3.356   6.812  2.3068 -1.5128 -0.3853
 8569SOL    HW237167   0.666   3.464   6.747 -0.2881 -0.3553  0.5942
 8570SOL     OW37168   3.477   4.711   3.081 -0.2693 -0.1253  0.2586
 8570SOL    HW137169   3.409   4.662   3.128 -1.0887  0.3564 -0.4130
 8570SOL    HW237170   3.447   0.075   3.072 -1.0425 -0.3611  0.4517
 8571SOL     OW37171   2.829   2.081   5.974  0.1204  0.5093  0.3292
 8571SOL    HW137172   2.747   2.066   6.021 -0.6243 -0.9585 -1.4183
 8571SOL    HW237173   2.862   1.991   5.970  1.6540  1.0825  0.0562
 8572SOL     OW37174   1.344   1.214   3.477  0.3248  0.2134  0.1480
 8572SOL    HW137175   1.308   1.218   3.565  1.0863  1.3567  0.4061
 8572SOL    HW237176   1.363   1.302   3.446  0.2833  0.1923  0.0625
 8573SOL     OW37177   3.775   1.687  12.344  0.5214  0.2082 -0.1991
 8573SOL    HW137178   3.863   1.681  12.309  0.8389  2.4683  0.2407
 8573SOL    HW237179   3.742   1.597  12.341  1.8632 -0.3873  2.3873
 8574SOL     OW37180   0.684   0.941  17.594  0.7445  0.7093  0.1620
 8574SOL    HW137181   0.778   0.949  17.580  0.3129 -0.3322 -3.2445
 8574SOL    HW237182   0.658   0.917  17.505  2.1244 -0.4942  0.0841
 8575SOL     OW37183   1.708   3.125   5.192  0.2720  0.0190 -0.4242
 8575SOL    HW137184   1.659   3.151   5.114  1.2051  0.9715 -0.6847
 8575SOL    HW237185   1.716   3.212   5.231  0.6231 -0.6110  0.9273
 8576SOL     OW37186   3.955   2.943  13.961  0.0181  0.7943  0.1574
 8576SOL    HW137187   4.040   2.934  14.005 -0.8952 -1.3886  1.4783
 8576SOL    HW237188   3.928   3.029  13.993 -1.0052  0.2129  0.8463
 8577SOL     OW37189   4.500   1.598  11.918  0.6805 -0.2638 -0.0627
 8577SOL    HW137190   4.537   1.618  12.003 -0.8535 -0.0926  0.5781
 8577SOL    HW237191   4.489   1.687  11.884 -3.4895 -1.2180 -1.2828
 8578SOL     OW37192   0.946   3.680   0.159  0.4844 -0.0347 -0.4681
 8578SOL    HW137193   0.928   3.613   0.092  1.2251  0.8571 -1.5619
 8578SOL    HW237194   1.009   3.636   0.216  0.3327  2.0341  1.2866
 8579SOL     OW37195   4.339   4.153   3.083 -0.1688  0.2500 -0.3323
 8579SOL    HW137196   4.380   4.069   3.102 -2.5753 -0.5519  1.3364
 8579SOL    HW237197   4.324   4.178   3.174  0.5763  0.2716 -0.2175
 8580SOL     OW37198   3.823   1.673  16.316  0.1045  0.4635 -0.4111
 8580SOL    HW137199   3.874   1.696  16.239  1.9799 -0.8453  0.4402
 8580SOL    HW237200   3.825   1.760  16.357  0.0148  1.3420 -2.2499
 8581SOL     OW37201   2.524   0.250   1.467 -0.8490 -0.3725  0.1445
 8581SOL    HW137202   2.563   0.338   1.474 -1.1463 -0.3292  1.2925
 8581SOL    HW237203   2.466   0.244   1.543  1.1739 -1.6369  1.6221
 8582SOL     OW37204   1.591   1.595   5.444 -1.0209  0.1290 -0.3469
 8582SOL    HW137205   1.613   1.683   5.476  1.8552 -1.2913  1.5670
 8582SOL    HW237206   1.667   1.579   5.388 -0.3973  0.3035  0.4496
 8583SOL     OW37207   2.859   0.843   6.152 -0.1749  0.4249  0.6312
 8583SOL    HW137208   2.938   0.862   6.202  1.8752  0.4312 -2.6175
 8583SOL    HW237209   2.830   0.934   6.151  3.7221  1.6557 -0.1153
 8584SOL     OW37210   0.943   0.362   4.337 -0.5457  0.0462  0.3351
 8584SOL    HW137211   0.882   0.289   4.335  0.1032 -0.5289  1.6039
 8584SOL    HW237212   0.996   0.342   4.259  0.9079  0.1713  1.3013
 8585SOL     OW37213   4.668   0.079  10.248  0.0271 -0.0654  0.0193
 8585SOL    HW137214   4.603   0.042  10.307 -0.9111  1.5150 -0.0451
 8585SOL    HW237215   4.633   0.168  10.239  0.7247  0.3282  1.2173
 8586SOL     OW37216   3.945   4.000   9.886  0.2579 -0.2925 -0.1673
 8586SOL    HW137217   3.975   4.089   9.904  0.5534 -0.6895  1.2610
 8586SOL    HW237218   3.893   3.982   9.964  0.1984 -2.0473 -0.5953
 8587SOL     OW37219   2.185   2.993  13.412 -0.8847 -0.5718  0.3999
 8587SOL    HW137220   2.210   2.949  13.330 -0.3177  0.4057  0.0534
 8587SOL    HW237221   2.256   3.055  13.428 -1.5521  0.0913  0.7821
 8588SOL     OW37222   2.542   1.387   6.661 -0.6764  0.1492  0.9245
 8588SOL    HW137223   2.516   1.473   6.629 -1.5425 -0.1593  0.8037
 8588SOL    HW237224   2.587   1.405   6.744 -0.6860  1.2207  0.6889
 8589SOL     OW37225   3.444   4.479   7.832 -0.4945  0.1858  0.0152
 8589SOL    HW137226   3.505   4.470   7.758 -0.2879  1.7373  0.0095
 8589SOL    HW237227   3.507   4.463   7.902  1.5069  2.1642 -1.3265
 8590SOL     OW37228   0.563   4.604   2.691  0.1857  0.1052 -0.4896
 8590SOL    HW137229   0.585   4.551   2.767 -0.8253 -2.0153 -1.6798
 8590SOL    HW237230   0.607   4.563   2.616 -1.7922  0.1982 -1.7115
 8591SOL     OW37231   3.611   1.149   5.312  0.1779 -0.8938 -0.2300
 8591SOL    HW137232   3.548   1.218   5.294 -2.5484 -3.3635 -0.1342
 8591SOL    HW237233   3.688   1.195   5.278 -0.9282 -0.4727 -2.1580
 8592SOL     OW37234   0.961   1.461   6.387 -0.3315  0.8917 -0.0717
 8592SOL    HW137235   0.915   1.405   6.450 -0.1582 -1.1267 -1.7368
 8592SOL    HW237236   1.045   1.416   6.385 -0.3687  0.8518 -0.6534
 8593SOL     OW37237   3.461   3.908   3.733 -0.6512  0.0393  0.4772
 8593SOL    HW137238   3.530   3.904   3.799 -1.6382 -0.5635  1.4777
 8593SOL    HW237239   3.468   3.999   3.705  0.9166 -0.0213  0.6801
 8594SOL     OW37240   0.649   2.903   7.237 -0.0039  0.2642  0.4410
 8594SOL    HW137241   0.558   2.882   7.215 -0.5998  2.2770  0.9718
 8594SOL    HW237242   0.621   2.964   7.305  2.6416 -0.3603  2.0990
 8595SOL     OW37243   4.042   0.868   6.933 -0.3660 -0.0667  0.5178
 8595SOL    HW137244   4.108   0.798   6.941  1.7303  1.8724  0.1183
 8595SOL    HW237245   3.968   0.836   6.984  0.8158 -0.5103  1.9593
 8596SOL     OW37246   1.512   1.210   5.532  0.0855  0.1322  0.0473
 8596SOL    HW137247   1.438   1.151   5.521  0.8414 -0.8586  0.3501
 8596SOL    HW237248   1.497   1.264   5.454 -0.5349  3.4770  2.4341
 8597SOL     OW37249   0.682   1.424   6.802  0.0843  0.5286  0.0358
 8597SOL    HW137250   0.725   1.471   6.730  1.4715 -4.0355 -2.1291
 8597SOL    HW237251   0.636   1.355   6.754 -0.2820  0.9305 -0.1932
 8598SOL     OW37252   2.717   2.692  10.071 -0.0897 -0.6964 -0.4369
 8598SOL    HW137253   2.665   2.719  10.147  0.2374  0.3509 -0.5786
 8598SOL    HW237254   2.702   2.761  10.007  0.8299 -0.4990 -0.4416
 8599SOL     OW37255   0.918   2.862   9.687 -0.5505 -0.3507  0.3408
 8599SOL    HW137256   0.986   2.836   9.624 -1.4878  0.5682 -1.0397
 8599SOL    HW237257   0.859   2.790   9.664 -1.5415  0.6852 -0.3746
 8600SOL     OW37258   2.620   1.332   2.105 -0.1290  0.0181  0.5333
 8600SOL    HW137259   2.695   1.317   2.048 -0.8691 -0.4025 -0.3235
 8600SOL    HW237260   2.575   1.248   2.120  1.3480 -0.1861  3.8724
 8601SOL     OW37261   3.916   3.091   6.948 -0.0118  0.4891  0.3915
 8601SOL    HW137262   3.983   3.128   7.006 -1.7670 -1.8412  3.9401
 8601SOL    HW237263   3.966   3.016   6.914  0.2833  0.2037  1.4456
 8602SOL     OW37264   0.055   1.770   5.216 -0.2223  0.2168 -0.8719
 8602SOL    HW137265   0.141   1.799   5.248 -1.5972 -0.0650  3.1293
 8602SOL    HW237266   0.050   1.800   5.126  1.2582 -0.0841 -1.0570
 8603SOL     OW37267   3.789   0.172  17.368  0.0470  0.1059 -0.0189
 8603SOL    HW137268   3.748   0.115  17.433 -1.7764  1.1016 -0.3077
 8603SOL    HW237269   3.728   0.167  17.295  0.5521  0.3523 -0.4612
 8604SOL     OW37270   3.278   4.639   0.807  0.3499 -0.2762 -0.0653
 8604SOL    HW137271   3.247   4.723   0.772 -0.8300 -0.2887  0.9573
 8604SOL    HW237272   3.264   4.590   0.726  1.5674 -0.6456 -0.0521
 8605SOL     OW37273   3.385   1.943  15.972 -0.4539 -0.0021  0.6013
 8605SOL    HW137274   3.376   1.968  15.880  0.8615 -2.4112 -0.1844
 8605SOL    HW237275   3.481   1.935  15.971 -0.1675  3.0306  1.4219
 8606SOL     OW37276   0.197   1.783   3.517  0.1684  0.1139 -0.4428
 8606SOL    HW137277   0.172   1.692   3.501  0.2845  0.3844 -2.1251
 8606SOL    HW237278   0.214   1.791   3.611  0.3102 -0.0473 -0.4538
 8607SOL     OW37279   2.856   0.164  10.780 -0.3542  1.0707 -0.9428
 8607SOL    HW137280   2.912   0.104  10.731  1.0467  2.4386 -1.0026
 8607SOL    HW237281   2.894   0.245  10.747  1.7144 -0.0938 -1.3548
 8608SOL     OW37282   1.346   3.801  15.685  0.4628 -0.1051  0.1883
 8608SOL    HW137283   1.311   3.737  15.748 -0.8096  0.9775  0.5862
 8608SOL    HW237284   1.269   3.803  15.628  0.1318 -0.5375  0.6194
 8609SOL     OW37285   2.681   0.604   8.109 -0.0616 -0.0330  0.1262
 8609SOL    HW137286   2.745   0.533   8.121 -0.9593 -1.0707 -1.2613
 8609SOL    HW237287   2.736   0.676   8.078 -0.3373 -0.4457 -1.3329
 8610SOL     OW37288   3.372   1.321   4.613  0.1573  0.0264 -0.4401
 8610SOL    HW137289   3.318   1.399   4.619 -2.1828 -1.6950  0.5964
 8610SOL    HW237290   3.310   1.266   4.565 -0.8612  0.9760 -0.2056
 8611SOL     OW37291   3.396   3.926   9.177 -0.1149 -0.1622 -0.1434
 8611SOL    HW137292   3.304   3.950   9.168 -0.3755 -1.7091 -1.4251
 8611SOL    HW237293   3.432   3.979   9.249 -0.7481 -0.1365  0.1554
 8612SOL     OW37294   0.487   1.254   1.481  0.2447  0.1656 -0.1083
 8612SOL    HW137295   0.396   1.224   1.475 -0.0376  0.3329  3.4118
 8612SOL    HW237296   0.465   1.341   1.514  2.0569  0.4210  0.3965
 8613SOL     OW37297   2.566   3.716   3.269  0.0769 -0.3257  0.2174
 8613SOL    HW137298   2.598   3.802   3.243 -0.2032 -1.2110 -3.0562
 8613SOL    HW237299   2.491   3.705   3.211  0.3883  0.5798 -0.3577
 8614SOL     OW37300   3.042   0.126   7.955 -0.1963  0.2128  0.5088
 8614SOL    HW137301   2.951   0.155   7.945 -0.2124  0.0173  0.0650
 8614SOL    HW237302   3.076   0.199   8.006 -0.5485  0.6288  0.1418
 8615SOL     OW37303   0.691   1.031   8.625  0.4652  0.5528  0.0496
 8615SOL    HW137304   0.595   1.036   8.624  0.4501  0.2917  0.1848
 8615SOL    HW237305   0.685   1.006   8.718  2.0371  3.2036  0.8479
 8616SOL     OW37306   1.323   4.441   3.020  0.1492  0.5092 -0.3916
 8616SOL    HW137307   1.267   4.380   2.973  0.6643 -0.1470 -0.1490
 8616SOL    HW237308   1.277   4.445   3.104  1.4689  0.2512  0.3466
 8617SOL     OW37309   2.983   2.684  14.944  0.1566  0.1572 -0.1227
 8617SOL    HW137310   2.901   2.724  14.913 -0.4578 -0.7743  0.2937
 8617SOL    HW237311   3.041   2.741  14.894  1.5588 -0.4617  0.8183
 8618SOL     OW37312   3.623   3.643   8.379 -0.8001  0.1365  0.5221
 8618SOL    HW137313   3.651   3.560   8.416 -1.8549  0.5969  2.3168
 8618SOL    HW237314   3.545   3.660   8.432 -2.9342  1.2338 -2.9314
 8619SOL     OW37315   2.929   2.429   6.296 -0.0581 -0.2093 -0.5444
 8619SOL    HW137316   3.013   2.442   6.341 -1.0179  2.4534  0.4508
 8619SOL    HW237317   2.924   2.339   6.263  3.3342 -0.1410 -1.2905
 8620SOL     OW37318   3.971   1.873   1.486  0.1064  0.1146 -0.1877
 8620SOL    HW137319   4.063   1.865   1.510 -0.1436 -1.2534  0.3235
 8620SOL    HW237320   3.943   1.931   1.556  0.2726  0.9687 -0.8271
 8621SOL     OW37321   1.909   4.169   9.709 -0.2833  0.0199  0.0315
 8621SOL    HW137322   1.963   4.113   9.765  1.9748  1.2048 -0.9867
 8621SOL    HW237323   1.828   4.118   9.702  1.5317 -2.9947  0.7828
 8622SOL     OW37324   2.724   3.687  11.572 -1.2120  0.6080  0.1563
 8622SOL    HW137325   2.704   3.604  11.615 -0.6105  0.5365  0.2930
 8622SOL    HW237326   2.820   3.690  11.569 -1.2043  0.3900  0.2087
 8623SOL     OW37327   1.909   4.525  12.827  0.2942  0.0710  0.1963
 8623SOL    HW137328   1.897   4.492  12.916 -2.4239  1.6911  0.4419
 8623SOL    HW237329   1.841   4.593  12.825 -0.6233 -0.9202 -2.1475
 8624SOL     OW37330   3.427   3.653  11.167  0.0503 -0.6785 -0.0579
 8624SOL    HW137331   3.453   3.566  11.197  1.4074 -0.3709 -0.3436
 8624SOL    HW237332   3.473   3.661  11.084 -0.0028  0.9302  0.0590
 8625SOL     OW37333   1.001   2.496  12.881 -0.8490 -0.8245  0.4792
 8625SOL    HW137334   1.087   2.536  12.871 -0.9721 -1.1637 -2.0523
 8625SOL    HW237335   1.022   2.413  12.838 -0.6972 -1.4711  1.8203
 8626SOL     OW37336   1.316   2.038  14.932  0.6227  0.5693  0.1210
 8626SOL    HW137337   1.294   2.008  14.844  0.5594 -1.0065  0.6638
 8626SOL    HW237338   1.411   2.025  14.927  0.3187 -1.5852 -0.1819
 8627SOL     OW37339   0.167   0.986   2.647  0.4509 -0.7170  0.0145
 8627SOL    HW137340   0.226   0.929   2.597  1.8939  0.9624 -0.2356
 8627SOL    HW237341   0.115   1.021   2.575  0.0420  0.3771  0.8326
 8628SOL     OW37342   0.932   4.125  15.724 -0.1445  0.2773 -0.3443
 8628SOL    HW137343   0.983   4.128  15.805  0.6904  1.7713 -0.9332
 8628SOL    HW237344   0.920   4.030  15.717 -0.2522  0.3279 -0.8792
 8629SOL     OW37345   4.093   0.358  15.596 -0.4260  0.4505  0.7629
 8629SOL    HW137346   4.142   0.361  15.678  1.5315 -2.2092 -0.3040
 8629SOL    HW237347   4.075   0.265  15.608  2.1349 -0.1687 -0.2106
 8630SOL     OW37348   2.932   1.076   2.525  0.4517  0.0301 -0.3725
 8630SOL    HW137349   2.860   1.124   2.482  0.0386 -1.9065 -1.8741
 8630SOL    HW237350   2.954   1.136   2.596 -0.9959 -2.7090  2.3977
 8631SOL     OW37351   2.839   4.705  11.152  0.0023  0.4438 -0.2158
 8631SOL    HW137352   2.921   0.019  11.125 -1.1214  1.1403 -2.6145
 8631SOL    HW237353   2.824   0.009  11.242  1.4028 -0.3185  0.2666
 8632SOL     OW37354   2.887   3.795   5.452 -0.7309 -0.2889 -0.3551
 8632SOL    HW137355   2.840   3.837   5.380 -1.2175 -1.3700 -0.6662
 8632SOL    HW237356   2.906   3.865   5.516  0.8601 -1.5380  0.5499
 8633SOL     OW37357   3.308   0.836  15.431 -0.3331  0.0793  0.5276
 8633SOL    HW137358   3.395   0.828  15.469  0.2618  0.7433 -0.6819
 8633SOL    HW237359   3.261   0.800  15.506 -0.0499 -0.4122  0.4743
 8634SOL     OW37360   4.677   4.587   8.451  0.7944 -0.0168  0.1351
 8634SOL    HW137361   4.586   4.603   8.476  0.3918 -2.0595  0.0325
 8634SOL    HW237362   4.707   4.672   8.421 -1.8811  0.7734 -0.3028
 8635SOL     OW37363   4.213   1.025  11.477 -0.3672  0.5337  0.3170
 8635SOL    HW137364   4.225   1.075  11.558  1.3089 -0.3292  0.5967
 8635SOL    HW237365   4.300   1.023  11.435 -0.6828 -1.9701 -0.1632
 8636SOL     OW37366   2.246   0.987   7.645  0.6960 -0.4959  0.4600
 8636SOL    HW137367   2.326   1.014   7.600 -0.9864 -0.4122 -2.5088
 8636SOL    HW237368   2.184   0.964   7.576  0.3341  0.2199  0.5431
 8637SOL     OW37369   3.386   3.193  10.353 -0.0567  0.3828 -0.2280
 8637SOL    HW137370   3.391   3.282  10.387 -0.1515  0.6847 -0.9896
 8637SOL    HW237371   3.457   3.149  10.398  2.0416  0.9870 -2.9130
 8638SOL     OW37372   3.731   0.786  10.341  0.3415  0.4056  0.0690
 8638SOL    HW137373   3.700   0.711  10.290  2.2861 -0.3815  0.0261
 8638SOL    HW237374   3.672   0.854  10.310  0.7057 -0.2840 -2.1047
 8639SOL     OW37375   1.701   4.035   4.550 -0.1941  0.0958  0.0142
 8639SOL    HW137376   1.654   4.023   4.468  2.1371 -0.4536 -1.2279
 8639SOL    HW237377   1.794   4.051   4.534  0.3140 -2.6283  0.3238
 8640SOL     OW37378   2.852   2.245   6.563 -0.3299 -0.2099  0.1972
 8640SOL    HW137379   2.804   2.194   6.498  0.5205 -1.0462  0.2244
 8640SOL    HW237380   2.822   2.332   6.538  0.1718  0.3460  1.5064
 8641SOL     OW37381   1.055   1.859  13.519  0.5972 -0.1285 -0.2161
 8641SOL    HW137382   1.069   1.810  13.438 -0.4569 -0.7334 -0.0231
 8641SOL    HW237383   1.028   1.787  13.576  2.8893 -0.3935  0.5561
 8642SOL     OW37384   2.335   0.226   1.663  0.0354 -0.3182 -0.2452
 8642SOL    HW137385   2.260   0.181   1.624 -0.6322  0.2923  0.3384
 8642SOL    HW237386   2.321   0.182   1.748  0.2343  0.4522  0.1836
 8643SOL     OW37387   1.490   0.400   9.015  0.3951  0.0759  0.1854
 8643SOL    HW137388   1.521   0.331   8.956  2.5586 -0.6921  2.2147
 8643SOL    HW237389   1.524   0.477   8.970 -0.4675 -0.7906 -1.9423
 8644SOL     OW37390   3.497   0.497   9.545  0.3470  0.3217 -0.8634
 8644SOL    HW137391   3.489   0.459   9.458 -0.3676  1.0617 -1.1187
 8644SOL    HW237392   3.566   0.561   9.529  1.3511 -0.5280  0.0578
 8645SOL     OW37393   3.350   0.040   6.762 -0.5162 -0.4933 -0.7674
 8645SOL    HW137394   3.350   4.670   6.753  0.7850 -0.8095  2.7285
 8645SOL    HW237395   3.262   0.061   6.729 -1.5557 -4.2071 -0.4278
 8646SOL     OW37396   4.333   3.699  15.240  0.5744 -0.4350  0.1457
 8646SOL    HW137397   4.423   3.682  15.213 -0.5408 -2.5187 -2.1968
 8646SOL    HW237398   4.295   3.730  15.159 -2.0130 -0.0870  1.4794
 8647SOL     OW37399   3.191   0.677   4.190 -0.3640 -0.5924 -0.6754
 8647SOL    HW137400   3.129   0.630   4.132 -1.7071  2.6103 -1.8337
 8647SOL    HW237401   3.261   0.705   4.131  1.6041 -2.7495  0.6532
 8648SOL     OW37402   2.880   0.489   7.891  0.2597  0.4273 -0.0922
 8648SOL    HW137403   2.944   0.560   7.900  0.9766 -0.1174 -0.9658
 8648SOL    HW237404   2.913   0.436   7.819 -1.4092 -0.4857 -0.1773
 8649SOL     OW37405   4.349   4.310  17.591 -0.2351  0.1815 -0.1796
 8649SOL    HW137406   4.283   4.352  17.536  3.3808  2.7758 -2.5084
 8649SOL    HW237407   4.388   4.256  17.522  1.2828 -1.5218  2.0259
 8650SOL     OW37408   4.350   1.625   2.826 -0.3721  0.0645 -0.4300
 8650SOL    HW137409   4.287   1.580   2.883 -1.2901 -0.4471 -1.8464
 8650SOL    HW237410   4.437   1.591   2.848 -0.9616 -2.7280 -2.3589
 8651SOL     OW37411   3.201   4.413   9.742  0.1743  0.1051 -0.0501
 8651SOL    HW137412   3.130   4.384   9.685  0.2188  0.7678 -0.4437
 8651SOL    HW237413   3.164   4.490   9.784 -1.0490  0.9325 -2.6140
 8652SOL     OW37414   3.259   0.609   2.803  0.0060 -0.0691 -0.1855
 8652SOL    HW137415   3.177   0.649   2.830  0.1422 -0.1292  0.3203
 8652SOL    HW237416   3.287   0.571   2.886 -0.9448 -3.0155 -1.2231
 8653SOL     OW37417   3.291   1.427   6.651 -0.0367 -0.0204 -0.0489
 8653SOL    HW137418   3.227   1.464   6.713  0.7485 -0.8188  1.2253
 8653SOL    HW237419   3.361   1.481   6.687 -1.4280  0.1884  2.3274
 8654SOL     OW37420   0.226   1.781   7.519  1.0942  0.2303 -0.1239
 8654SOL    HW137421   0.287   1.819   7.456  2.9764 -0.8697  1.0152
 8654SOL    HW237422   0.287   1.756   7.589  1.0839 -0.6514 -0.4249
 8655SOL     OW37423   4.077   2.950   3.862  0.0675 -0.1631 -0.4960
 8655SOL    HW137424   4.049   3.037   3.891 -1.4235 -0.1618 -1.9436
 8655SOL    HW237425   4.081   2.955   3.766 -0.8300  2.6732 -0.3897
 8656SOL     OW37426   2.268   1.100   1.273 -0.6254 -0.3725  0.0789
 8656SOL    HW137427   2.320   1.136   1.201 -1.3686  1.1356  0.3082
 8656SOL    HW237428   2.217   1.033   1.227 -4.0860  2.3348  0.0431
 8657SOL     OW37429   4.511   1.726   6.761 -0.1863 -0.3488 -0.1562
 8657SOL    HW137430   4.540   1.741   6.670  0.4198  0.8613  0.2369
 8657SOL    HW237431   4.426   1.690   6.737  0.5405 -1.9909 -0.3041
 8658SOL     OW37432   4.245   1.098   1.524 -0.3029  0.9911 -0.7285
 8658SOL    HW137433   4.220   1.172   1.468 -1.4235  1.7876  0.8453
 8658SOL    HW237434   4.337   1.118   1.543 -0.4765 -1.9689  3.2257
 8659SOL     OW37435   0.029   2.247   4.827  0.3620 -0.2380  0.4562
 8659SOL    HW137436   4.675   2.207   4.793 -0.0585  1.8095 -0.9849
 8659SOL    HW237437   0.099   2.202   4.778  2.2372  0.6364  2.3395
 8660SOL     OW37438   2.202   2.705   1.266 -0.9256  0.0482 -0.3606
 8660SOL    HW137439   2.263   2.663   1.205  1.4147  1.2169  1.1768
 8660SOL    HW237440   2.245   2.787   1.290  0.7713 -0.9842  0.1831
 8661SOL     OW37441   3.716   4.603   7.289  0.1993 -0.2996  0.0979
 8661SOL    HW137442   3.742   4.511   7.287 -3.4774 -1.3105 -1.8502
 8661SOL    HW237443   3.759   4.633   7.369 -1.5934  3.4798 -0.3419
 8662SOL     OW37444   3.130   3.067   4.786 -0.8163 -0.0868  0.1979
 8662SOL    HW137445   3.126   2.976   4.816  1.3929 -0.0570  0.5917
 8662SOL    HW237446   3.126   3.117   4.868 -0.4051  0.1526  0.0693
 8663SOL     OW37447   2.742   0.468   4.638 -0.2583  0.0619 -0.5098
 8663SOL    HW137448   2.709   0.557   4.649  1.1143  0.5331 -0.1341
 8663SOL    HW237449   2.828   0.466   4.680 -1.3201 -2.4338  1.5559
 8664SOL     OW37450   4.307   0.736  12.229  0.1538 -0.1355  0.5486
 8664SOL    HW137451   4.218   0.767  12.248 -0.3597 -0.2329 -1.7366
 8664SOL    HW237452   4.295   0.642  12.243  1.5080  0.0805  3.0844
 8665SOL     OW37453   0.013   3.760   7.789  0.6317  0.4150  0.1701
 8665SOL    HW137454   0.003   3.689   7.725  0.3591 -1.8571  2.7031
 8665SOL    HW237455   0.034   3.829   7.727  1.1934  0.6651  0.6306
 8666SOL     OW37456   4.692   0.300  11.427 -0.7054  0.0847 -0.0677
 8666SOL    HW137457   4.656   0.244  11.358 -1.1823 -1.5221  1.4799
 8666SOL    HW237458   0.046   0.256  11.456 -1.1482  0.2275  1.4027
 8667SOL     OW37459   3.133   1.662   4.821 -0.3543  0.3186  0.4535
 8667SOL    HW137460   3.201   1.676   4.886 -3.2385  2.3833  3.0412
 8667SOL    HW237461   3.090   1.748   4.820 -0.7063  0.1348 -1.0389
 8668SOL     OW37462   3.321   1.370   9.291 -0.5115  0.2548  0.0794
 8668SOL    HW137463   3.284   1.457   9.303 -0.1033  0.1779  1.9340
 8668SOL    HW237464   3.370   1.382   9.210 -0.1869  0.6191  0.3299
 8669SOL     OW37465   2.993   2.420   5.898 -0.3087  0.1027 -0.1581
 8669SOL    HW137466   2.898   2.406   5.903 -0.5716  1.6099 -0.7318
 8669SOL    HW237467   2.986   2.515   5.885  2.9694  0.2615 -0.6007
 8670SOL     OW37468   1.972   4.405   9.611 -0.3245  0.7969 -0.3513
 8670SOL    HW137469   2.048   4.426   9.665 -0.7584 -0.7146  0.8741
 8670SOL    HW237470   1.950   4.314   9.632  0.1260  0.4189 -1.5481
 8671SOL     OW37471   0.354   2.067  16.519 -0.4971 -0.3808  0.1321
 8671SOL    HW137472   0.400   2.072  16.435 -1.5757  1.0365 -0.3661
 8671SOL    HW237473   0.426   2.045  16.578  0.1538 -1.4695 -1.0520
 8672SOL     OW37474   0.566   0.641   5.842  0.5014  0.0957  0.1673
 8672SOL    HW137475   0.632   0.702   5.874  1.9348 -0.4862 -1.7077
 8672SOL    HW237476   0.608   0.577   5.785  0.0039  0.1159 -0.2260
 8673SOL     OW37477   3.541   3.436  11.453 -0.2813  0.0163  0.7473
 8673SOL    HW137478   3.565   3.344  11.439 -2.4001 -0.3884 -0.2093
 8673SOL    HW237479   3.448   3.441  11.430 -0.6240  0.3637  2.2706
 8674SOL     OW37480   1.686   3.973   9.648 -0.2534 -0.0646  0.4410
 8674SOL    HW137481   1.677   3.902   9.584  0.1529  0.2466  0.0357
 8674SOL    HW237482   1.647   4.047   9.602 -2.1913 -0.2913  1.7447
 8675SOL     OW37483   0.104   1.326   2.612  0.0224 -0.0762 -0.2344
 8675SOL    HW137484   0.139   1.237   2.605 -0.7198 -0.2463 -1.7891
 8675SOL    HW237485   0.127   1.351   2.522 -1.1376  1.9456  0.0535
 8676SOL     OW37486   3.828   0.349   7.362  0.0676 -0.1934 -0.5234
 8676SOL    HW137487   3.762   0.344   7.294 -0.6826 -1.5070  0.3133
 8676SOL    HW237488   3.805   0.435   7.396  0.5607 -0.5853  0.8088
 8677SOL     OW37489   4.267   0.129   8.731 -0.0416  0.4883 -0.2851
 8677SOL    HW137490   4.240   0.086   8.812 -2.6228  2.0030 -0.3284
 8677SOL    HW237491   4.348   0.177   8.750  0.8043 -1.6521  1.4749
 8678SOL     OW37492   3.490   1.037   0.556  0.0406 -0.4318 -0.5152
 8678SOL    HW137493   3.470   1.130   0.567  1.7182  0.2041 -2.6960
 8678SOL    HW237494   3.402   1.000   0.546 -0.5188  0.9596 -0.7457
 8679SOL     OW37495   3.728   4.125   5.164  0.0875 -0.3406  0.1695
 8679SOL    HW137496   3.789   4.078   5.108  1.1488  1.3057 -0.0410
 8679SOL    HW237497   3.784   4.186   5.212 -2.6596 -0.8984  4.1730
 8680SOL     OW37498   4.334   4.718   2.742  0.3292  0.2806 -0.6894
 8680SOL    HW137499   4.308   0.012   2.653  0.1479 -1.1905 -0.9618
 8680SOL    HW237500   4.429   4.712   2.727  0.5460  0.5289  0.5470
 8681SOL     OW37501   4.037   2.086  11.962  0.6582  0.3861  0.2167
 8681SOL    HW137502   3.987   2.031  11.902  4.7360  1.0273 -3.7037
 8681SOL    HW237503   3.994   2.171  11.954  0.5199  0.0151 -2.8262
 8682SOL     OW37504   1.024   3.925  15.147 -0.2064  0.5885  0.5817
 8682SOL    HW137505   0.957   3.994  15.140 -1.3963 -0.7478 -1.1112
 8682SOL    HW237506   0.975   3.849  15.177 -2.6264  1.3711 -1.3422
 8683SOL     OW37507   0.421   4.605  16.063  0.6046  0.0740 -0.1041
 8683SOL    HW137508   0.499   4.587  16.012  1.1124  0.0392  0.6952
 8683SOL    HW237509   0.364   4.623  15.988  1.3966 -0.2637 -0.7756
 8684SOL     OW37510   0.642   0.328   0.736 -0.1829 -0.5133 -0.2953
 8684SOL    HW137511   0.701   0.372   0.796  1.2984 -1.4368 -1.0769
 8684SOL    HW237512   0.711   0.294   0.679  1.5565  0.5245  1.2087
 8685SOL     OW37513   0.909   3.856  15.666  0.0988  0.0289  0.1634
 8685SOL    HW137514   0.834   3.831  15.612  0.2741  0.7680 -0.4393
 8685SOL    HW237515   0.982   3.853  15.604  1.3190  3.2841  1.3959
 8686SOL     OW37516   3.406   2.970   9.063  0.1362 -0.3497  0.1915
 8686SOL    HW137517   3.497   2.983   9.089  0.5903 -1.4161 -0.8602
 8686SOL    HW237518   3.364   2.961   9.149 -0.4374 -0.2269 -0.0715
 8687SOL     OW37519   1.362   3.601   7.680 -0.4578 -0.6162 -0.5802
 8687SOL    HW137520   1.353   3.507   7.696  0.0487 -0.7367 -0.9908
 8687SOL    HW237521   1.296   3.607   7.611 -2.2949  1.3289  1.3387
 8688SOL     OW37522   0.833   3.161   4.720  0.0883 -0.5417 -0.0921
 8688SOL    HW137523   0.790   3.144   4.804  0.6676  0.4273  0.3934
 8688SOL    HW237524   0.924   3.148   4.747  0.0037 -0.8322  0.0552
 8689SOL     OW37525   0.300   0.745   5.802  0.2940  0.0215 -0.6118
 8689SOL    HW137526   0.261   0.745   5.889  0.7628 -1.8640 -0.4169
 8689SOL    HW237527   0.386   0.708   5.821 -0.1458 -0.5223  0.3393
 8690SOL     OW37528   1.897   4.358  12.131 -0.3812 -0.3714  0.0225
 8690SOL    HW137529   1.924   4.271  12.161  0.7970 -0.0028  0.0458
 8690SOL    HW237530   1.816   4.339  12.084 -0.4075  0.4095 -0.2459
 8691SOL     OW37531   2.942   1.614   6.613 -0.1737 -0.2415  0.2758
 8691SOL    HW137532   2.903   1.628   6.700 -1.9363  0.1350 -0.5700
 8691SOL    HW237533   2.863   1.596   6.562 -0.4681 -0.3613  0.7669
 8692SOL     OW37534   3.226   2.046  13.421 -0.3770 -0.3658 -0.2533
 8692SOL    HW137535   3.197   2.118  13.477  0.7237  1.5598 -2.1686
 8692SOL    HW237536   3.322   2.051  13.422 -0.3927 -0.0379 -0.4424
 8693SOL     OW37537   0.349   0.666   8.885  0.1505 -0.2440  0.0455
 8693SOL    HW137538   0.338   0.581   8.841  1.2570  0.4813 -1.6428
 8693SOL    HW237539   0.322   0.731   8.820 -0.5010  0.0306  0.5945
 8694SOL     OW37540   3.924   1.822   7.903 -0.3078 -0.4944  0.4866
 8694SOL    HW137541   3.970   1.904   7.888 -0.9585 -0.3787 -0.8773
 8694SOL    HW237542   3.873   1.845   7.980 -1.3859 -1.7521  0.1591
 8695SOL     OW37543   1.274   0.463   4.819  0.4649  0.0177  0.3943
 8695SOL    HW137544   1.241   0.393   4.874 -0.7407  0.8060  0.6705
 8695SOL    HW237545   1.354   0.491   4.865  2.1409  0.0362 -2.5047
 8696SOL     OW37546   3.696   0.844   7.770 -0.8073  0.8848  0.1805
 8696SOL    HW137547   3.753   0.917   7.749  0.0316  0.2214  0.1494
 8696SOL    HW237548   3.703   0.786   7.694 -1.9526  0.7240  0.1980
 8697SOL     OW37549   2.496   2.750  11.277 -0.0096  0.2507 -0.3174
 8697SOL    HW137550   2.462   2.836  11.305 -0.7911  0.4158 -1.7616
 8697SOL    HW237551   2.587   2.774  11.263  0.9840 -2.9089  0.7899
 8698SOL     OW37552   4.425   4.265  13.171  0.0450  0.1483 -0.2806
 8698SOL    HW137553   4.338   4.227  13.167  1.8268 -3.7062 -2.1065
 8698SOL    HW237554   4.406   4.356  13.195 -0.7575  0.1885 -1.0466
 8699SOL     OW37555   1.025   2.784  11.777  0.0514 -0.4004 -0.2091
 8699SOL    HW137556   0.942   2.812  11.816 -0.4678  0.7779 -2.1555
 8699SOL    HW237557   1.072   2.866  11.765 -1.8843  0.0899 -4.2157
 8700SOL     OW37558   3.937   2.829   6.824  0.7449 -0.3693 -0.4485
 8700SOL    HW137559   3.913   2.737   6.814 -2.8696  0.4875  0.3361
 8700SOL    HW237560   4.030   2.813   6.812  0.8788  0.0288  0.0642
 8701SOL     OW37561   1.686   0.044   5.066  0.3360  0.6244  0.0617
 8701SOL    HW137562   1.664   0.065   5.157 -1.0643  2.2916 -0.6630
 8701SOL    HW237563   1.735   4.688   5.074  3.0746  2.1959 -0.2069
 8702SOL     OW37564   2.318   2.490  15.622 -0.3988 -0.4892 -0.3995
 8702SOL    HW137565   2.272   2.420  15.668 -1.7954  0.4258 -0.4140
 8702SOL    HW237566   2.309   2.560  15.687 -1.1142 -1.1243  0.1849
 8703SOL     OW37567   1.345   3.757   2.881  0.1373  0.0183 -0.0848
 8703SOL    HW137568   1.379   3.669   2.866 -1.5116 -0.2954 -2.0362
 8703SOL    HW237569   1.273   3.755   2.818  1.0319  2.3059 -1.1581
 8704SOL     OW37570   1.601   0.171   2.120  0.7009 -0.0377  0.4272
 8704SOL    HW137571   1.581   0.166   2.027 -0.7879  1.2630  0.6808
 8704SOL    HW237572   1.674   0.108   2.120  1.8039  1.2328  1.3769
 8705SOL     OW37573   0.223   3.497  13.644 -0.0686  0.4286  0.0573
 8705SOL    HW137574   0.167   3.504  13.721 -1.7840  1.3764 -1.2764
 8705SOL    HW237575   0.175   3.543  13.575 -0.5733 -1.4208 -0.8381
 8706SOL     OW37576   0.175   1.051   5.309  0.2624 -0.0733  0.3195
 8706SOL    HW137577   0.089   1.093   5.309  0.8630  1.1669 -1.0299
 8706SOL    HW237578   0.214   1.094   5.233  0.8680 -0.6823  0.2872
 8707SOL     OW37579   2.225   4.226   7.298 -0.0888  0.5883  0.2619
 8707SOL    HW137580   2.309   4.235   7.253 -0.8972 -1.0190 -1.5830
 8707SOL    HW237581   2.157   4.260   7.241  1.1566 -4.1492 -4.0685
 8708SOL     OW37582   0.486   0.753   7.660  0.1140  0.7860  0.1203
 8708SOL    HW137583   0.472   0.805   7.739 -0.3541  0.4901  0.2294
 8708SOL    HW237584   0.530   0.682   7.707  1.0094  1.6889  0.6506
 8709SOL     OW37585   0.009   2.805   6.088 -0.7565 -0.6630 -0.2194
 8709SOL    HW137586   0.080   2.769   6.034  0.1184  1.3303 -0.4150
 8709SOL    HW237587   0.060   2.824   6.166 -2.1468  0.3304  0.4402
 8710SOL     OW37588   4.658   4.707   3.660  0.2831  0.3168  0.6305
 8710SOL    HW137589   4.634   4.712   3.567 -0.5013 -0.0279  0.8099
 8710SOL    HW237590   4.710   0.059   3.677 -0.0189  0.5259  0.5967
 8711SOL     OW37591   3.025   4.284  12.346 -0.1671 -0.0460  0.0475
 8711SOL    HW137592   3.013   4.349  12.416  0.7631 -2.3478  2.3156
 8711SOL    HW237593   2.931   4.266  12.336 -0.3903 -0.5194  2.9355
 8712SOL     OW37594   0.750   1.810   6.128  0.2834 -0.5862  0.0774
 8712SOL    HW137595   0.825   1.754   6.109 -0.1069 -1.5236  1.3382
 8712SOL    HW237596   0.758   1.816   6.223  0.8840 -0.7352  0.0344
 8713SOL     OW37597   4.527   1.207  15.953 -0.2004 -0.2640 -0.4514
 8713SOL    HW137598   4.459   1.141  15.937 -2.2586  0.9801  3.2873
 8713SOL    HW237599   4.478   1.289  15.962 -0.9464 -0.8670  1.0934
 8714SOL     OW37600   1.289   4.658   7.332 -0.4726 -0.6350  0.1511
 8714SOL    HW137601   1.368   4.710   7.314  0.2645 -1.6215  0.5183
 8714SOL    HW237602   1.313   4.577   7.287 -0.3985 -0.7947  0.4731
 8715SOL     OW37603   0.317   1.929   3.048  0.0425 -0.0269  0.4138
 8715SOL    HW137604   0.324   1.889   3.135 -0.9706 -0.7402  0.1748
 8715SOL    HW237605   0.301   1.859   2.984  0.3365 -1.7430  2.2263
 8716SOL     OW37606   1.023   3.780   6.460  0.7302  0.0280  0.9203
 8716SOL    HW137607   1.093   3.752   6.519  2.4983  0.0948 -1.1604
 8716SOL    HW237608   0.950   3.725   6.487 -0.2061 -0.1090 -1.9095
 8717SOL     OW37609   1.955   3.441   8.426 -0.7684  0.1707 -0.2560
 8717SOL    HW137610   1.860   3.435   8.415 -0.9060  2.3299 -0.1216
 8717SOL    HW237611   1.956   3.492   8.507  0.4212  0.2848 -0.3444
 8718SOL     OW37612   4.243   1.418   2.563 -0.3649  0.0640 -0.1173
 8718SOL    HW137613   4.335   1.444   2.557 -0.6454  0.9416 -0.6580
 8718SOL    HW237614   4.257   1.361   2.638  0.7138  0.0523 -0.3150
 8719SOL     OW37615   3.021   1.606   8.806 -0.0159  0.0165 -0.4406
 8719SOL    HW137616   2.962   1.675   8.776  0.6253  0.4349 -0.7556
 8719SOL    HW237617   3.024   1.617   8.901  1.0792 -0.2172 -0.4446
 8720SOL     OW37618   0.948   1.550   7.667 -0.0717  0.4154 -0.5019
 8720SOL    HW137619   0.878   1.612   7.687 -0.1086  0.4208 -0.6467
 8720SOL    HW237620   0.937   1.500   7.747  1.4235 -2.1712 -1.9170
 8721SOL     OW37621   0.214   2.263  13.740  0.3694 -0.0475 -0.7299
 8721SOL    HW137622   0.163   2.299  13.812 -0.5393 -0.3925 -1.2111
 8721SOL    HW237623   0.224   2.340  13.686 -1.6118 -0.6506 -1.9361
 8722SOL     OW37624   2.325   3.668  15.054 -0.3113 -0.1906  0.4431
 8722SOL    HW137625   2.408   3.715  15.048 -1.2555  1.3670 -0.3698
 8722SOL    HW237626   2.361   3.579  15.052  2.1431  0.7757  0.9814
 8723SOL     OW37627   4.650   1.144   0.139  0.3329  0.1611 -0.3992
 8723SOL    HW137628   4.685   1.090   0.210 -0.9011 -1.3669 -0.9417
 8723SOL    HW237629   0.005   1.184   0.106  0.8589 -2.0508 -1.7899
 8724SOL     OW37630   4.134   0.464   9.102 -0.1267 -0.3046  0.6357
 8724SOL    HW137631   4.117   0.395   9.167  0.1596 -0.2001  0.8205
 8724SOL    HW237632   4.039   0.470   9.089 -0.0842 -0.3971  0.2867
 8725SOL     OW37633   3.072   2.706  11.233  0.0984 -0.0425 -0.1522
 8725SOL    HW137634   3.082   2.633  11.172 -2.5327 -0.0405 -0.5859
 8725SOL    HW237635   3.161   2.732  11.257  0.4648 -1.9271  0.5733
 8726SOL     OW37636   4.139   3.153   9.204  0.4576  0.0599  0.0218
 8726SOL    HW137637   4.192   3.127   9.128 -0.3184 -0.6498 -0.2800
 8726SOL    HW237638   4.058   3.190   9.169 -0.6557 -2.2395  0.1425
 8727SOL     OW37639   3.507   1.235   1.261  0.3833 -0.4214  0.1216
 8727SOL    HW137640   3.454   1.312   1.237  1.1588 -0.6687 -2.4168
 8727SOL    HW237641   3.544   1.262   1.345  0.7337  2.7382 -1.0397
 8728SOL     OW37642   2.555   0.274   4.578  0.2256 -0.0946 -0.0186
 8728SOL    HW137643   2.556   0.201   4.641 -2.9233  1.0617  1.3864
 8728SOL    HW237644   2.622   0.330   4.616 -1.4381  1.8250  0.0501
 8729SOL     OW37645   2.956   0.670   9.241 -0.0787  0.1543  0.1657
 8729SOL    HW137646   2.929   0.682   9.151  0.3312  0.8473  0.1327
 8729SOL    HW237647   2.949   0.760   9.274  0.7988 -0.1344  1.1419
 8730SOL     OW37648   3.752   2.077   8.374  0.9125 -0.5720 -0.5320
 8730SOL    HW137649   3.740   2.162   8.331 -2.0373  0.3290  2.1078
 8730SOL    HW237650   3.663   2.043   8.363  0.4652  0.9441 -1.5341
 8731SOL     OW37651   0.093   2.170   3.868  0.4103  0.0546  0.3507
 8731SOL    HW137652   0.042   2.250   3.874 -0.6779 -0.5313 -1.1751
 8731SOL    HW237653   0.176   2.214   3.886  0.5048 -0.4846  1.2371
 8732SOL     OW37654   1.155   0.586   1.739 -0.2239  0.0981  0.5503
 8732SOL    HW137655   1.191   0.623   1.819  1.4201 -0.4200  0.0480
 8732SOL    HW237656   1.090   0.646   1.702 -0.7064 -0.0667  1.1186
 8733SOL     OW37657   3.686   2.056  12.255 -0.4468  0.1147 -0.3010
 8733SOL    HW137658   3.673   1.979  12.200 -3.5192  0.9911 -0.8190
 8733SOL    HW237659   3.599   2.085  12.283  0.1327  1.9650 -0.3745
 8734SOL     OW37660   1.612   4.270   4.080 -0.2745  0.3670 -0.5797
 8734SOL    HW137661   1.525   4.257   4.041 -0.5454  0.1886  0.0706
 8734SOL    HW237662   1.620   4.363   4.104  0.8515  0.2175 -0.4051
 8735SOL     OW37663   3.740   2.651   5.920  0.3672  0.1015 -0.3773
 8735SOL    HW137664   3.693   2.731   5.942  0.6479  0.1219  0.1479
 8735SOL    HW237665   3.709   2.631   5.831 -0.4490  0.4500 -0.1668
 8736SOL     OW37666   1.415   1.813  15.067  0.3407 -0.4577  0.1923
 8736SOL    HW137667   1.341   1.759  15.096 -1.3786  2.1271  0.6330
 8736SOL    HW237668   1.371   1.890  15.032 -1.0992 -0.0943  2.8054
 8737SOL     OW37669   2.875   2.393   7.114  0.3623  0.2008 -0.7829
 8737SOL    HW137670   2.909   2.330   7.177  1.3382 -0.7862 -2.3034
 8737SOL    HW237671   2.813   2.456   7.151  0.8843  0.7226 -0.7837
 8738SOL     OW37672   3.016   2.393   2.985  0.3821  0.2232 -0.1373
 8738SOL    HW137673   3.063   2.311   3.003 -0.1144 -0.0817 -0.2021
 8738SOL    HW237674   2.939   2.371   3.037  0.4837  1.8968  0.6855
 8739SOL     OW37675   0.429   3.542   2.131 -0.0824 -0.5401 -0.2628
 8739SOL    HW137676   0.451   3.540   2.224 -1.3915 -1.9297  0.0113
 8739SOL    HW237677   0.343   3.582   2.137  0.7832  1.3450 -0.2032
 8740SOL     OW37678   0.226   3.068   4.972 -0.0731  0.0906 -0.8579
 8740SOL    HW137679   0.301   3.016   5.001 -0.6717  0.1979  0.8923
 8740SOL    HW237680   0.160   2.998   4.981 -0.5971  1.1003  3.0184
 8741SOL     OW37681   1.702   3.632   7.693 -0.0407  0.2140  0.0583
 8741SOL    HW137682   1.728   3.585   7.772  0.6924 -0.6370 -0.6887
 8741SOL    HW237683   1.759   3.709   7.695 -0.2707  0.3700  0.5993
 8742SOL     OW37684   2.806   3.048  13.746  0.5646 -0.6056  0.1395
 8742SOL    HW137685   2.832   2.969  13.792 -1.7374 -1.3131  0.1995
 8742SOL    HW237686   2.878   3.056  13.683  0.4871 -2.4561 -0.1589
 8743SOL     OW37687   2.645   1.803   2.131 -0.2338 -0.0972  0.2229
 8743SOL    HW137688   2.623   1.896   2.140  0.8242  0.1716 -0.0336
 8743SOL    HW237689   2.572   1.783   2.072  1.7567  1.7919 -2.8460
 8744SOL     OW37690   3.222   0.195   1.009 -0.1349  0.2617  0.2000
 8744SOL    HW137691   3.240   0.288   1.024  0.1663  0.3365 -0.6609
 8744SOL    HW237692   3.264   0.192   0.924  1.1933 -0.7226  0.8961
 8745SOL     OW37693   4.461   4.150   8.998  0.0015 -0.3860 -0.0025
 8745SOL    HW137694   4.544   4.173   9.039  0.6113 -1.6405 -0.5721
 8745SOL    HW237695   4.501   4.129   8.914  0.4849 -2.7758  0.8352
 8746SOL     OW37696   4.178   4.683  10.002  0.1652  0.3959 -0.2823
 8746SOL    HW137697   4.266   4.656   9.975 -1.1162 -2.5959 -1.4715
 8746SOL    HW237698   4.123   4.605   9.990  2.3881 -1.0528 -0.9941
 8747SOL     OW37699   3.496   3.815   2.020  0.3591 -0.0867 -0.7967
 8747SOL    HW137700   3.510   3.761   1.943  1.1363 -0.8714 -0.1017
 8747SOL    HW237701   3.575   3.804   2.073  0.3119  1.4800 -0.4212
 8748SOL     OW37702   0.034   1.863   5.540 -0.1341  0.2643  0.1590
 8748SOL    HW137703   0.038   1.918   5.619  2.0400  0.3316  0.0077
 8748SOL    HW237704   0.119   1.883   5.500 -1.1518  1.0323 -1.6291
 8749SOL     OW37705   1.359   3.123  16.575  0.0161  0.0878  0.3153
 8749SOL    HW137706   1.348   3.186  16.647  2.8971  1.1202 -0.1611
 8749SOL    HW237707   1.407   3.052  16.618  0.0338 -0.5219 -0.7113
 8750SOL     OW37708   3.853   2.943  13.434  0.3569 -0.1289  0.4000
 8750SOL    HW137709   3.814   2.855  13.437 -1.5824  0.6768 -0.7758
 8750SOL    HW237710   3.872   2.954  13.527 -2.1810  2.0938  0.6505
 8751SOL     OW37711   0.494   4.635  13.524  0.6513  0.2980  0.1967
 8751SOL    HW137712   0.585   4.656  13.503 -0.0035  1.6430 -1.3022
 8751SOL    HW237713   0.459   4.721  13.503 -1.7524 -0.9456 -0.8122
 8752SOL     OW37714   2.767   0.599   5.764 -0.4397  0.0028 -0.3268
 8752SOL    HW137715   2.828   0.537   5.725  2.6749  3.0442 -0.2613
 8752SOL    HW237716   2.686   0.552   5.744 -0.5714 -0.4763  1.2938
 8753SOL     OW37717   1.827   0.381   8.016  0.9740 -0.3326 -0.0705
 8753SOL    HW137718   1.807   0.290   8.038 -2.5127 -0.0413 -1.9495
 8753SOL    HW237719   1.908   0.381   8.067  0.3933 -1.4961  0.8435
 8754SOL     OW37720   3.903   0.033   5.053  0.1517  0.5144 -0.8213
 8754SOL    HW137721   3.997   0.015   5.052 -0.3178 -1.8384 -1.1960
 8754SOL    HW237722   3.896   0.077   4.968 -1.9621  2.3459  0.2980
 8755SOL     OW37723   0.979   3.615   1.013 -0.4171 -0.3247 -0.3188
 8755SOL    HW137724   0.889   3.605   1.041 -0.1216 -0.5538  0.5478
 8755SOL    HW237725   0.982   3.710   1.000 -0.4444 -0.2717  0.0556
 8756SOL     OW37726   2.710   3.424   9.405  0.4419 -0.4208  0.1697
 8756SOL    HW137727   2.717   3.399   9.497  1.3767 -1.1368 -0.0999
 8756SOL    HW237728   2.770   3.359   9.369  0.0821  1.2904 -3.5630
 8757SOL     OW37729   4.469   0.513  10.759  0.3850 -0.3465 -0.7245
 8757SOL    HW137730   4.393   0.519  10.701  1.6594  2.3531 -2.1446
 8757SOL    HW237731   4.503   0.437  10.714  0.9162 -0.5164 -0.0313
 8758SOL     OW37732   1.102   3.739   8.318  0.0130  0.6186  0.2956
 8758SOL    HW137733   1.186   3.748   8.364  0.9523  0.9614 -1.5009
 8758SOL    HW237734   1.117   3.801   8.246  1.2950  0.8695  0.7772
 8759SOL     OW37735   3.221   2.658   5.479  0.2456  0.5512 -0.1323
 8759SOL    HW137736   3.290   2.635   5.541  1.2445  2.2550 -0.6182
 8759SOL    HW237737   3.181   2.572   5.467 -2.5114  1.4414  2.8359
 8760SOL     OW37738   3.364   0.539  17.545 -0.1505 -0.0600 -0.4249
 8760SOL    HW137739   3.315   0.598  17.488 -0.5981  2.4265  2.5311
 8760SOL    HW237740   3.432   0.602  17.568 -0.0326 -1.2898  2.6984
 8761SOL     OW37741   3.756   2.521   1.518 -0.3013 -0.0830  0.0675
 8761SOL    HW137742   3.803   2.451   1.563 -0.0597 -1.2686 -2.0516
 8761SOL    HW237743   3.727   2.481   1.436 -0.1094  1.5440 -0.7991
 8762SOL     OW37744   1.567   0.287   8.453 -0.4802 -0.1718 -0.0749
 8762SOL    HW137745   1.643   0.324   8.409  1.5077 -1.9232  1.8663
 8762SOL    HW237746   1.581   0.316   8.543  1.9674 -1.2729 -0.1035
 8763SOL     OW37747   4.721   0.454   2.633  0.0389  0.1604 -0.5681
 8763SOL    HW137748   0.089   0.459   2.649  0.1310 -1.6712 -0.5619
 8763SOL    HW237749   4.694   0.380   2.688  1.1774  0.0347 -0.1742
 8764SOL     OW37750   2.134   2.704   9.133  0.3153 -0.3241  0.7930
 8764SOL    HW137751   2.126   2.776   9.195 -1.2828 -1.4597  1.9267
 8764SOL    HW237752   2.049   2.665   9.153 -0.5749  0.7503 -0.8690
 8765SOL     OW37753   2.645   1.229  14.216  0.0659  0.3256 -0.6292
 8765SOL    HW137754   2.622   1.309  14.170  0.5018  0.4492 -0.6303
 8765SOL    HW237755   2.638   1.244  14.310  1.6675  1.0610 -0.6334
 8766SOL     OW37756   0.656   0.984   5.193 -0.3105  0.2704 -0.6550
 8766SOL    HW137757   0.621   0.957   5.108  0.1233  0.4866 -0.9036
 8766SOL    HW237758   0.655   0.900   5.238  0.3386  0.6855  0.1501
 8767SOL     OW37759   1.665   4.598   7.253 -0.0356 -0.4311  0.3712
 8767SOL    HW137760   1.646   4.613   7.346  0.8836 -0.1744  0.5149
 8767SOL    HW237761   1.727   4.526   7.262  0.1531 -0.4414 -1.0173
 8768SOL     OW37762   2.746   3.392   2.794 -0.4418 -0.5668  0.1536
 8768SOL    HW137763   2.804   3.469   2.790 -2.9067  1.2809  0.1188
 8768SOL    HW237764   2.670   3.413   2.740 -0.3918  0.3875  0.4447
 8769SOL     OW37765   2.380   2.158   4.509  0.0472  0.3412  0.1146
 8769SOL    HW137766   2.433   2.237   4.518  1.4736 -0.6474  0.4533
 8769SOL    HW237767   2.388   2.147   4.415 -3.6006 -0.0199 -0.1157
 8770SOL     OW37768   0.455   4.085   7.856 -0.2167 -0.0139  0.1221
 8770SOL    HW137769   0.550   4.085   7.854 -0.2383 -0.4481 -0.7982
 8770SOL    HW237770   0.430   4.021   7.789 -1.5320  1.9456 -1.2752
 8771SOL     OW37771   3.320   3.075   8.609 -0.3784 -0.1483 -0.1383
 8771SOL    HW137772   3.267   2.995   8.611  0.9160 -1.0077 -0.5625
 8771SOL    HW237773   3.299   3.107   8.697  0.5177 -0.8659  0.3323
 8772SOL     OW37774   3.404   2.277   4.728  0.0237 -0.5017 -0.3814
 8772SOL    HW137775   3.417   2.212   4.659  0.5910  0.9608 -1.6480
 8772SOL    HW237776   3.493   2.309   4.746 -0.8656  1.9449 -0.4341
 8773SOL     OW37777   0.962   4.444   5.207  0.0885  0.0553  0.1234
 8773SOL    HW137778   0.901   4.517   5.207 -1.3799 -1.1712  3.1859
 8773SOL    HW237779   1.038   4.481   5.161  1.0668 -2.1557 -0.0602
 8774SOL     OW37780   0.370   0.730   9.377  0.3878 -0.1954  0.0255
 8774SOL    HW137781   0.356   0.661   9.313 -0.1580  0.1748 -0.2544
 8774SOL    HW237782   0.450   0.701   9.421  2.3972  2.0027 -2.1677
 8775SOL     OW37783   2.626   1.077   9.406 -0.4707  0.0763 -0.0539
 8775SOL    HW137784   2.553   1.033   9.449 -0.2771 -1.4848 -1.2785
 8775SOL    HW237785   2.675   1.111   9.481  0.9485  1.3093 -1.5278
 8776SOL     OW37786   3.991   2.265   4.372  0.4083 -0.0373 -0.0388
 8776SOL    HW137787   3.897   2.256   4.387  0.1347  2.4626 -0.3519
 8776SOL    HW237788   3.994   2.283   4.278 -0.0451 -0.6900 -0.1809
 8777SOL     OW37789   0.614   0.184   1.063  0.2322  0.2059 -0.3291
 8777SOL    HW137790   0.706   0.158   1.054  0.6760  1.0149  1.9286
 8777SOL    HW237791   0.578   0.095   1.059 -0.4088  0.6051 -4.0805
 8778SOL     OW37792   1.026   2.103   7.859 -0.5241 -0.4194 -0.3818
 8778SOL    HW137793   1.014   2.050   7.779 -2.1590  1.1690 -1.1762
 8778SOL    HW237794   1.077   2.049   7.920 -0.5652  1.7278  1.5312
 8779SOL     OW37795   0.340   2.547   2.604  0.3975 -0.4269  0.8391
 8779SOL    HW137796   0.299   2.481   2.659 -1.6249 -0.3305 -0.5534
 8779SOL    HW237797   0.267   2.598   2.568  0.4814  0.6405  2.2234
 8780SOL     OW37798   2.530   2.158   4.797 -0.1596 -0.3750  0.5431
 8780SOL    HW137799   2.513   2.196   4.711 -1.0417  0.5547  1.1229
 8780SOL    HW237800   2.545   2.066   4.777 -0.1569  0.1106 -1.7377
 8781SOL     OW37801   3.211   1.489   2.643  1.0285 -0.5845 -0.2493
 8781SOL    HW137802   3.306   1.479   2.643  1.2739  1.8070 -1.6095
 8781SOL    HW237803   3.202   1.578   2.676  1.4539 -1.3399  1.9249
 8782SOL     OW37804   4.191   1.212   2.190  0.0619 -0.0910  0.3993
 8782SOL    HW137805   4.168   1.234   2.100  2.3144  1.7862  0.2703
 8782SOL    HW237806   4.163   1.121   2.189 -0.1865  0.0065 -1.6123
 8783SOL     OW37807   0.512   4.719   6.054  0.3534 -0.2230 -0.0826
 8783SOL    HW137808   0.530   0.048   5.977 -0.3667 -1.8143 -1.4077
 8783SOL    HW237809   0.512   4.634   6.008 -0.5647  0.9967 -2.3814
 8784SOL     OW37810   2.662   0.528  15.159 -0.5183  0.5700  0.1256
 8784SOL    HW137811   2.667   0.487  15.245  0.6982 -0.1550 -0.2897
 8784SOL    HW237812   2.731   0.487  15.106  0.0348 -0.0370  1.2954
 8785SOL     OW37813   4.711   0.449   5.423  1.5330 -0.2010  0.0543
 8785SOL    HW137814   0.057   0.504   5.455 -0.5105  1.2635  2.1012
 8785SOL    HW237815   0.009   0.362   5.453  2.4678  0.0461  0.0190
 8786SOL     OW37816   2.864   0.628  14.982 -0.0173  0.3561  0.0183
 8786SOL    HW137817   2.957   0.631  14.960  0.2479  0.0954  1.1291
 8786SOL    HW237818   2.848   0.709  15.030  0.1098  1.3175 -1.5733
 8787SOL     OW37819   1.279   4.164  15.435 -0.1306  0.1658 -0.3455
 8787SOL    HW137820   1.233   4.223  15.375 -0.3194 -0.9861 -1.3265
 8787SOL    HW237821   1.264   4.080  15.393  0.2760 -0.2706  0.3906
 8788SOL     OW37822   4.106   4.715   7.095  0.7131 -0.3275 -0.2883
 8788SOL    HW137823   4.084   0.029   7.011  0.1347 -0.8538 -0.3907
 8788SOL    HW237824   4.142   0.064   7.142  0.7667 -1.7542  1.9585
 8789SOL     OW37825   1.453   4.536   9.491 -0.0163 -0.1959  0.1987
 8789SOL    HW137826   1.425   4.617   9.534  1.9757 -0.2184  1.5067
 8789SOL    HW237827   1.449   4.469   9.559  0.0289 -0.8495 -0.4450
 8790SOL     OW37828   0.622   2.032   7.957 -0.2911 -0.1897 -0.0445
 8790SOL    HW137829   0.676   2.061   8.031  2.5592 -0.4381 -2.0216
 8790SOL    HW237830   0.651   1.942   7.945 -0.7083 -0.6798  2.5664
 8791SOL     OW37831   4.703   2.438   3.778  0.1366  0.5750 -0.3804
 8791SOL    HW137832   4.693   2.491   3.699  0.8104 -1.8513 -2.1151
 8791SOL    HW237833   4.679   2.501   3.846 -1.3014  2.5595 -2.7358
 8792SOL     OW37834   0.106   0.158   4.869 -0.2308  0.1764  0.3117
 8792SOL    HW137835   0.060   0.129   4.948 -1.4863 -0.0328 -0.4989
 8792SOL    HW237836   0.188   0.111   4.881 -0.4135  0.7921  4.0880
 8793SOL     OW37837   4.320   2.122  12.027  0.1787  0.1966  0.3417
 8793SOL    HW137838   4.342   2.215  12.034 -0.6598  0.5520 -1.6367
 8793SOL    HW237839   4.228   2.110  12.050  0.0451  1.9706  0.7067
 8794SOL     OW37840   3.676   1.821   6.012 -0.3724 -0.1147 -0.3135
 8794SOL    HW137841   3.689   1.863   6.097 -0.5922 -0.7161  0.0156
 8794SOL    HW237842   3.598   1.776   6.043 -0.7999  0.1475 -1.0114
 8795SOL     OW37843   0.793   4.251   6.439 -0.1308  0.3547  0.2886
 8795SOL    HW137844   0.740   4.297   6.374  0.3988  0.9970  0.3047
 8795SOL    HW237845   0.725   4.193   6.472  3.7451 -3.1102  2.1956
 8796SOL     OW37846   3.787   0.105  16.550  0.0724 -0.2537 -0.3065
 8796SOL    HW137847   3.709   0.109  16.495 -0.6781  1.2367  0.8669
 8796SOL    HW237848   3.854   0.135  16.489 -0.8329  1.5566 -0.4175
 8797SOL     OW37849   4.432   0.208   2.206  0.4008 -0.5468  0.6000
 8797SOL    HW137850   4.502   0.253   2.253  0.7562 -0.7616  0.2668
 8797SOL    HW237851   4.362   0.211   2.272  0.1449 -2.0475  0.4027
 8798SOL     OW37852   3.454   2.341   1.642  0.3249 -0.1503 -0.2780
 8798SOL    HW137853   3.448   2.396   1.564 -0.0563 -1.0439 -0.8821
 8798SOL    HW237854   3.397   2.265   1.628 -0.6330  0.5027  0.0180
 8799SOL     OW37855   1.442   3.544   4.185  0.1181  0.3881 -0.1520
 8799SOL    HW137856   1.494   3.538   4.264 -0.0746  1.9434  0.1055
 8799SOL    HW237857   1.491   3.618   4.148  0.8516 -1.6317 -3.1933
 8800SOL     OW37858   0.772   0.964   4.251 -0.5174 -0.1024  0.6595
 8800SOL    HW137859   0.827   0.978   4.328 -0.8602 -0.4688  0.9725
 8800SOL    HW237860   0.836   0.985   4.182 -0.1677  1.2043  1.3849
 8801SOL     OW37861   4.523   4.470   5.879  0.1468  0.4811  0.6361
 8801SOL    HW137862   4.470   4.521   5.940 -1.1998  2.0339 -1.8280
 8801SOL    HW237863   4.453   4.411   5.850  1.2875  0.0675 -1.1915
 8802SOL     OW37864   1.569   3.608   7.937  0.1419 -0.4834 -0.6388
 8802SOL    HW137865   1.599   3.608   8.028  0.6040 -4.2478 -0.7934
 8802SOL    HW237866   1.513   3.531   7.930  0.4048 -0.6639 -0.7881
 8803SOL     OW37867   2.453   2.780  12.737 -0.0346  0.2445  0.0133
 8803SOL    HW137868   2.470   2.849  12.673 -1.0230 -0.0266 -0.5270
 8803SOL    HW237869   2.361   2.794  12.760  0.1056  0.4192  0.4744
 8804SOL     OW37870   0.921   0.636   4.351 -0.0594 -0.2808  0.4416
 8804SOL    HW137871   0.965   0.636   4.266  1.0844 -2.5091  1.0392
 8804SOL    HW237872   0.911   0.541   4.358  1.0465 -0.4462 -0.3710
 8805SOL     OW37873   1.238   1.102   7.610 -0.2967 -0.1629  0.0236
 8805SOL    HW137874   1.152   1.078   7.643  0.3471 -0.7997  1.2595
 8805SOL    HW237875   1.277   1.132   7.692 -1.7969  1.8861 -0.0196
 8806SOL     OW37876   3.733   4.019   3.437  0.0216 -0.2899 -0.0193
 8806SOL    HW137877   3.705   3.989   3.524  0.1373  0.0096  0.1203
 8806SOL    HW237878   3.717   3.941   3.385 -1.6798 -0.2188  0.3774
 8807SOL     OW37879   4.258   2.254   8.045 -0.3682  0.4536  0.0837
 8807SOL    HW137880   4.177   2.226   8.089  1.7794 -3.0849  1.8247
 8807SOL    HW237881   4.321   2.207   8.100  0.7046  1.2071 -0.5069
 8808SOL     OW37882   1.802   1.481  16.104  0.2076  0.0745 -0.0224
 8808SOL    HW137883   1.776   1.408  16.049 -1.8768  1.3606 -0.7521
 8808SOL    HW237884   1.731   1.541  16.082 -0.6222 -1.0417 -0.3662
 8809SOL     OW37885   0.458   2.538   0.507 -0.1120  0.4014 -0.3478
 8809SOL    HW137886   0.373   2.575   0.533  0.1114 -1.2899  2.8575
 8809SOL    HW237887   0.459   2.466   0.570 -2.0818 -1.0387 -1.9886
 8810SOL     OW37888   3.271   1.550  10.479 -0.5653  0.6614  0.0198
 8810SOL    HW137889   3.211   1.574  10.550  1.2756 -0.5908  2.0035
 8810SOL    HW237890   3.217   1.558  10.400  3.1637 -1.1128 -2.7173
 8811SOL     OW37891   2.884   3.894  15.199  0.7758 -0.6327  0.0540
 8811SOL    HW137892   2.808   3.952  15.191  0.6274 -0.4313  3.2529
 8811SOL    HW237893   2.939   3.926  15.128 -2.3094  4.3990 -0.0319
 8812SOL     OW37894   0.915   0.539   2.920  0.1172  0.2070 -0.1523
 8812SOL    HW137895   1.000   0.494   2.927  0.0880  0.3662  1.2474
 8812SOL    HW237896   0.897   0.513   2.830 -1.6260  3.6960 -0.8176
 8813SOL     OW37897   4.701   4.716  14.270  0.6184  0.4575 -0.1153
 8813SOL    HW137898   4.701   0.084  14.251  0.3371  0.3257 -0.7803
 8813SOL    HW237899   4.622   4.718  14.325 -0.3203 -2.3063 -1.3457
 8814SOL     OW37900   2.223   1.169  14.544  0.6792 -0.0380  0.2115
 8814SOL    HW137901   2.249   1.244  14.491  0.4755 -1.1434 -1.4635
 8814SOL    HW237902   2.187   1.105  14.482  0.6563  0.4458 -0.2721
 8815SOL     OW37903   0.228   3.281   7.107  0.2346  0.2156  0.2439
 8815SOL    HW137904   0.259   3.370   7.122  1.6787 -0.3062  0.3738
 8815SOL    HW237905   0.238   3.277   7.011  1.7275 -0.0664  0.4118
 8816SOL     OW37906   4.060   4.564   5.978 -0.1901  0.3783  0.5746
 8816SOL    HW137907   4.024   4.509   6.048  1.2871 -0.4069  0.7345
 8816SOL    HW237908   4.154   4.546   5.978 -0.2134  0.2152  2.7558
 8817SOL     OW37909   2.804   4.364   6.514  0.2179  0.4770  0.3464
 8817SOL    HW137910   2.792   4.291   6.575  3.2075 -0.3114 -0.0451
 8817SOL    HW237911   2.883   4.334   6.470 -1.2479 -0.8384 -1.4154
 8818SOL     OW37912   1.905   1.063  13.719 -0.3864  0.3823  0.2829
 8818SOL    HW137913   1.879   1.117  13.645 -1.0303 -0.2079  0.0817
 8818SOL    HW237914   2.001   1.062  13.719 -0.3723  2.2701 -2.1343
 8819SOL     OW37915   0.628   1.054  15.249 -0.7147 -0.0317 -0.4139
 8819SOL    HW137916   0.712   1.098  15.236  0.0521 -0.3573  3.4793
 8819SOL    HW237917   0.660   0.982  15.193  1.6616 -1.0273  2.2253
 8820SOL     OW37918   1.473   0.123   7.240  0.6246  0.2663 -0.4733
 8820SOL    HW137919   1.550   0.112   7.184  0.7575  0.3900 -0.3148
 8820SOL    HW237920   1.513   0.174   7.310 -0.3208 -0.8628  0.8940
 8821SOL     OW37921   1.061   3.846   3.496 -0.7669  0.1371  0.2432
 8821SOL    HW137922   1.125   3.912   3.523 -1.9427  0.2226  2.8940
 8821SOL    HW237923   1.125   3.775   3.489 -0.9493 -0.2981  2.7062
 8822SOL     OW37924   2.820   4.304   2.420  0.3855  0.9150  0.8310
 8822SOL    HW137925   2.762   4.235   2.450  1.8301 -1.4981 -1.9349
 8822SOL    HW237926   2.803   4.374   2.483  0.5297  2.6396 -1.0418
 8823SOL     OW37927   1.803   4.512   5.099 -0.7442  0.7185  0.4851
 8823SOL    HW137928   1.781   4.420   5.111  1.4161  0.5634  3.1685
 8823SOL    HW237929   1.868   4.523   5.169  1.2936 -0.7196 -1.1807
 8824SOL     OW37930   2.695   1.931   6.758  0.1222 -0.2685  0.3598
 8824SOL    HW137931   2.630   1.952   6.826 -0.2546  0.9430 -0.3807
 8824SOL    HW237932   2.657   1.978   6.684 -0.1157 -1.5927 -0.3663
 8825SOL     OW37933   1.971   1.050   7.759  0.4185 -0.3425 -0.3339
 8825SOL    HW137934   1.961   1.145   7.753 -1.9914 -0.4473  1.8796
 8825SOL    HW237935   2.066   1.041   7.768  0.3493  1.2184  1.9523
 8826SOL     OW37936   1.249   3.627   3.526  0.0304 -0.0677  0.0665
 8826SOL    HW137937   1.327   3.592   3.484  0.2407  1.6563 -1.0080
 8826SOL    HW237938   1.211   3.540   3.538  0.0904  0.0062  0.8075
 8827SOL     OW37939   3.721   2.547   7.146  0.7004 -0.1107  0.2202
 8827SOL    HW137940   3.676   2.626   7.174 -0.8595 -2.0163  3.0654
 8827SOL    HW237941   3.772   2.522   7.223 -0.7083  1.1077  1.5459
 8828SOL     OW37942   4.509   1.826   1.561  0.3116 -0.5960 -0.3184
 8828SOL    HW137943   4.533   1.840   1.652  1.1719 -1.2443 -0.4516
 8828SOL    HW237944   4.583   1.864   1.513  1.5804 -0.9606  1.3822
 8829SOL     OW37945   1.292   4.488   4.269 -0.3705  0.2250 -0.8474
 8829SOL    HW137946   1.263   4.570   4.309  0.0172 -0.0783  0.0713
 8829SOL    HW237947   1.332   4.442   4.343  0.5795  1.1447 -0.7735
 8830SOL     OW37948   1.115   1.181   3.314 -0.0560 -0.7515 -0.0517
 8830SOL    HW137949   1.199   1.152   3.349 -0.2951 -1.0773  0.2502
 8830SOL    HW237950   1.064   1.100   3.321 -0.1123 -0.6616  0.5912
 8831SOL     OW37951   1.001   1.612   4.598 -0.0977  0.3921  0.5098
 8831SOL    HW137952   0.963   1.562   4.670  0.8600 -1.5551 -0.3360
 8831SOL    HW237953   0.920   1.634   4.552 -0.2215 -1.6198 -0.1979
 8832SOL     OW37954   1.488   2.548   9.749 -0.0144 -0.2271 -0.0812
 8832SOL    HW137955   1.482   2.634   9.792  0.6493 -0.1357 -0.1606
 8832SOL    HW237956   1.489   2.483   9.819  0.9260 -0.9997 -0.8133
 8833SOL     OW37957   1.542   1.118   3.322 -0.2221 -0.0292 -0.5074
 8833SOL    HW137958   1.485   1.174   3.375  2.5017  2.4316 -0.1334
 8833SOL    HW237959   1.610   1.180   3.293 -0.3412 -1.0130 -2.8401
 8834SOL     OW37960   1.432   0.272  13.629 -0.6725  0.2768 -0.2741
 8834SOL    HW137961   1.403   0.361  13.648  2.3754  1.7478 -2.5751
 8834SOL    HW237962   1.458   0.293  13.540  0.7433  0.6438  0.2256
 8835SOL     OW37963   1.220   3.476  13.998  0.0609  0.2423  0.7892
 8835SOL    HW137964   1.261   3.390  14.004 -3.8479 -1.4346  3.3125
 8835SOL    HW237965   1.152   3.456  13.933 -0.8842  0.6544  1.6522
 8836SOL     OW37966   1.306   1.520   5.415  0.0070  0.3352 -0.4358
 8836SOL    HW137967   1.287   1.489   5.326  2.7338 -0.6192 -0.6649
 8836SOL    HW237968   1.400   1.532   5.402  0.0501 -0.5538 -1.0133
 8837SOL     OW37969   0.700   1.081   5.822 -0.7769  0.1460  0.1106
 8837SOL    HW137970   0.620   1.132   5.810  1.6078  3.7982 -0.2050
 8837SOL    HW237971   0.755   1.158   5.836  0.1724  0.0001 -2.8189
 8838SOL     OW37972   0.224   4.693   7.242  0.2554  0.0026 -0.2282
 8838SOL    HW137973   0.134   4.675   7.270  0.5071 -0.1750  0.4833
 8838SOL    HW237974   0.232   0.060   7.266  0.4064  0.2176 -1.1393
 8839SOL     OW37975   3.653   1.685   4.972  0.1188  0.7277  0.0795
 8839SOL    HW137976   3.650   1.687   4.876  0.8294  1.2296  0.0684
 8839SOL    HW237977   3.580   1.747   4.979  0.4734  1.1111  0.4032
 8840SOL     OW37978   0.197   4.043   3.947 -0.3117  0.9309  0.4802
 8840SOL    HW137979   0.155   4.056   4.032  1.2634  0.0246  1.4112
 8840SOL    HW237980   0.290   4.032   3.967 -0.2385  0.8200  0.0696
 8841SOL     OW37981   1.314   2.070   1.167  0.6552 -0.3226  0.6170
 8841SOL    HW137982   1.339   1.981   1.193 -1.9457 -1.3571 -0.3940
 8841SOL    HW237983   1.221   2.051   1.155  0.6833  0.9130 -1.6637
 8842SOL     OW37984   4.019   1.108   9.028  0.0887 -0.2470 -0.1331
 8842SOL    HW137985   4.067   1.057   9.093 -3.1860 -0.7004  1.9135
 8842SOL    HW237986   3.995   1.034   8.973 -0.7223  2.2174 -3.1209
 8843SOL     OW37987   4.680   3.045   4.237 -0.5370  0.0818 -0.0379
 8843SOL    HW137988   4.700   3.040   4.143  0.8591  3.7270  0.0473
 8843SOL    HW237989   4.590   3.075   4.245 -0.0998  1.3009  0.4372
 8844SOL     OW37990   1.520   2.614   8.839  0.1571  0.2094 -0.6169
 8844SOL    HW137991   1.462   2.656   8.776 -0.0131 -0.5888 -0.9850
 8844SOL    HW237992   1.604   2.614   8.793  0.6856  0.1977  0.3513
 8845SOL     OW37993   0.792   1.128  11.958 -0.1510  0.1480 -0.4161
 8845SOL    HW137994   0.875   1.099  11.996 -1.3152 -0.1530  1.9157
 8845SOL    HW237995   0.759   1.195  12.018  2.9963  0.9377  0.4459
 8846SOL     OW37996   1.068   4.131   1.236 -0.4798  0.0100  0.1747
 8846SOL    HW137997   1.075   4.094   1.324 -1.4711 -2.5882 -0.8509
 8846SOL    HW237998   1.022   4.057   1.197  0.0738 -0.1229 -0.2372
 8847SOL     OW37999   0.517   2.633   2.817 -0.3759 -0.5121  0.2556
 8847SOL    HW138000   0.476   2.718   2.830  0.6067 -0.0521  0.3950
 8847SOL    HW238001   0.480   2.609   2.732 -1.5473 -0.3153  0.7189
 8848SOL     OW38002   3.580   4.083   7.196  0.0987 -0.2713 -0.8810
 8848SOL    HW138003   3.590   3.988   7.186  0.3573 -0.5107  1.6252
 8848SOL    HW238004   3.667   4.113   7.170  0.2056  0.7328  0.5964
 8849SOL     OW38005   2.404   1.826   9.038  0.2313 -0.2196 -0.5262
 8849SOL    HW138006   2.322   1.800   8.996 -0.0078 -0.7757  0.2808
 8849SOL    HW238007   2.438   1.737   9.045 -0.1060 -0.2782  0.3546
 8850SOL     OW38008   4.610   0.126   7.863  0.6754  0.2403 -0.2753
 8850SOL    HW138009   4.576   0.200   7.812 -1.9831 -1.0076 -0.3320
 8850SOL    HW238010   4.678   0.170   7.914  0.6133 -0.3831  0.3414
 8851SOL     OW38011   0.206   0.716   2.250 -0.0994  0.0419 -0.4816
 8851SOL    HW138012   0.212   0.765   2.332 -0.3877  0.7258 -0.8663
 8851SOL    HW238013   0.277   0.653   2.254 -1.1608 -1.0045  2.4665
 8852SOL     OW38014   1.429   1.757   6.415 -0.4090 -0.1619 -0.8098
 8852SOL    HW138015   1.435   1.697   6.341 -0.4118 -1.7412  0.4915
 8852SOL    HW238016   1.515   1.756   6.457 -0.8594  0.7247  0.1140
 8853SOL     OW38017   1.955   2.726  11.339  0.0857  0.2218  0.1450
 8853SOL    HW138018   2.048   2.721  11.315  0.4060 -2.5110  1.9119
 8853SOL    HW238019   1.940   2.636  11.367 -1.7548  0.9117  1.3499
 8854SOL     OW38020   4.272   4.194   3.933  0.2019  0.6893  0.1492
 8854SOL    HW138021   4.319   4.138   3.995  1.9549  0.2961 -1.5281
 8854SOL    HW238022   4.274   4.148   3.850 -0.2377 -0.5626  0.8333
 8855SOL     OW38023   3.945   1.337   3.107 -0.1428  0.8181  0.1340
 8855SOL    HW138024   3.856   1.302   3.110  1.2922 -2.9417 -0.2982
 8855SOL    HW238025   3.999   1.263   3.135 -1.0261 -0.3105 -1.1088
 8856SOL     OW38026   1.091   0.472   7.002 -0.1024  0.3530 -0.2716
 8856SOL    HW138027   1.102   0.542   7.066  1.9265 -0.2588  0.0839
 8856SOL    HW238028   1.182   0.444   6.991  0.0342  0.4797  0.5027
 8857SOL     OW38029   3.689   4.559   6.554  0.3746  0.0658 -0.5690
 8857SOL    HW138030   3.664   4.473   6.522 -0.7901 -0.1996  1.0963
 8857SOL    HW238031   3.750   4.587   6.486  0.0192 -0.0045 -0.9155
 8858SOL     OW38032   2.485   1.098   7.519 -0.1621  0.4829 -0.1328
 8858SOL    HW138033   2.523   1.088   7.432  0.8007  1.6398  0.1480
 8858SOL    HW238034   2.438   1.181   7.517  0.7805  1.0017 -0.5914
 8859SOL     OW38035   3.491   4.055  11.498  0.0958 -0.0280  0.4435
 8859SOL    HW138036   3.449   4.096  11.422 -4.5499 -2.3444  1.7742
 8859SOL    HW238037   3.580   4.073  11.469 -0.4644 -2.1423 -2.5291
 8860SOL     OW38038   2.759   4.592   8.416 -0.0181  0.3791 -0.2758
 8860SOL    HW138039   2.750   4.676   8.461 -1.5246  0.1995 -0.2393
 8860SOL    HW238040   2.715   4.610   8.333 -0.9853 -0.0560  0.1460
 8861SOL     OW38041   0.440   3.038   6.139  0.3630 -0.1073 -0.3561
 8861SOL    HW138042   0.382   3.055   6.064  1.2598 -1.1812 -1.2935
 8861SOL    HW238043   0.473   3.125   6.163  0.8554 -0.6451  0.9250
 8862SOL     OW38044   3.329   2.494  17.435  0.2478  0.6804  0.2997
 8862SOL    HW138045   3.414   2.487  17.390 -0.1734 -0.0470 -0.3907
 8862SOL    HW238046   3.304   2.402  17.439 -1.1098  0.9511 -2.1364
 8863SOL     OW38047   0.138   3.311   7.369 -0.0587  0.0670 -0.4998
 8863SOL    HW138048   0.175   3.399   7.371 -2.1514  0.9348 -0.4616
 8863SOL    HW238049   0.152   3.278   7.280  1.7328 -1.6242  0.4020
 8864SOL     OW38050   4.519   0.642   6.579 -0.1542  0.4811  0.6696
 8864SOL    HW138051   4.558   0.722   6.544  0.3707  0.4142  1.0995
 8864SOL    HW238052   4.571   0.576   6.533 -0.3837  0.9046 -0.1903
 8865SOL     OW38053   2.416   0.863   9.248 -0.0642  0.1249  0.0979
 8865SOL    HW138054   2.409   0.899   9.337 -2.3715  2.4513 -1.0203
 8865SOL    HW238055   2.441   0.771   9.262  1.1739  0.3977 -0.3902
 8866SOL     OW38056   0.781   3.908   9.103  0.4410 -0.0955 -0.1666
 8866SOL    HW138057   0.728   3.978   9.066  0.8313 -0.1633 -0.8455
 8866SOL    HW238058   0.868   3.929   9.069  0.5181 -0.1048  0.0196
 8867SOL     OW38059   0.312   2.378  15.584  0.6127  0.5923 -0.3222
 8867SOL    HW138060   0.337   2.468  15.603  1.4969  0.9260 -3.0794
 8867SOL    HW238061   0.312   2.370  15.489 -0.2129 -2.9751 -0.0280
 8868SOL     OW38062   2.632   3.242   5.430 -0.9961 -0.6889 -0.2453
 8868SOL    HW138063   2.686   3.204   5.361 -0.7759 -1.8667  0.5815
 8868SOL    HW238064   2.565   3.283   5.376 -0.9640  0.8123  0.8523
 8869SOL     OW38065   3.849   2.994   5.698 -0.1752  0.9414  0.4108
 8869SOL    HW138066   3.831   3.068   5.640  1.0894 -0.0148 -1.1939
 8869SOL    HW238067   3.901   2.948   5.633  1.3202  1.1445  1.4499
 8870SOL     OW38068   0.267   0.397  11.663 -0.6130 -0.0374 -0.2146
 8870SOL    HW138069   0.246   0.317  11.614 -0.1052 -0.7116  0.6667
 8870SOL    HW238070   0.204   0.389  11.735  2.2236  1.3679  2.4576
 8871SOL     OW38071   0.384   0.286  15.019  0.1635  0.3197  0.1817
 8871SOL    HW138072   0.457   0.251  14.969 -1.0937 -3.3126  0.8818
 8871SOL    HW238073   0.432   0.365  15.044  0.2321  0.8608 -1.6773
 8872SOL     OW38074   4.705   0.681   1.184  0.7666  0.0446  0.3861
 8872SOL    HW138075   0.040   0.631   1.131  0.5847  2.5376 -2.1694
 8872SOL    HW238076   0.014   0.770   1.191 -0.6234  0.5430  0.9458
 8873SOL     OW38077   0.499   0.301  10.976 -0.0927 -0.1061 -0.4644
 8873SOL    HW138078   0.435   0.304  10.905 -1.3308 -0.1674  0.6455
 8873SOL    HW238079   0.586   0.312  10.937  0.8802 -2.5471  0.9824
 8874SOL     OW38080   0.600   0.439   5.308 -0.5566  0.6729 -0.0782
 8874SOL    HW138081   0.628   0.420   5.397  1.4359  2.6132 -0.2688
 8874SOL    HW238082   0.547   0.361   5.292 -0.4374  0.6873 -0.5545
 8875SOL     OW38083   0.323   2.541  16.992 -0.2235  0.2093  0.0948
 8875SOL    HW138084   0.273   2.461  17.010  1.2158 -0.9789 -1.2299
 8875SOL    HW238085   0.392   2.511  16.933  1.0724  1.5104  0.9397
 8876SOL     OW38086   3.023   1.405   4.876 -0.5299  0.0162  0.7538
 8876SOL    HW138087   2.945   1.406   4.822  0.0877 -0.4466 -0.1438
 8876SOL    HW238088   3.069   1.480   4.839  0.0438  0.7395  2.9335
 8877SOL     OW38089   4.179   0.670   4.439  0.3017 -0.0534 -0.1299
 8877SOL    HW138090   4.114   0.605   4.414  0.4005 -0.0572 -0.3748
 8877SOL    HW238091   4.191   0.691   4.347 -2.1968  0.7130 -0.2798
 8878SOL     OW38092   1.345   3.361   1.319  0.0825  0.1915 -0.4463
 8878SOL    HW138093   1.343   3.283   1.265 -1.1473 -1.0177  1.3293
 8878SOL    HW238094   1.383   3.329   1.401 -1.0016 -0.1368 -0.0662
 8879SOL     OW38095   0.527   3.156   9.057 -0.2127 -0.8140  0.3165
 8879SOL    HW138096   0.587   3.218   9.100 -2.1673  0.2627  1.4774
 8879SOL    HW238097   0.456   3.145   9.119  0.0181  0.0115  0.7242
 8880SOL     OW38098   1.663   0.877  11.451  0.1878 -0.4999  0.5269
 8880SOL    HW138099   1.679   0.896  11.543 -1.9938 -1.5441  1.1312
 8880SOL    HW238100   1.742   0.905  11.404  0.0885 -1.7554 -0.3922
 8881SOL     OW38101   1.011   2.882   8.424 -0.2955 -0.4446 -0.0859
 8881SOL    HW138102   0.945   2.951   8.428 -0.5172 -0.6889  0.4730
 8881SOL    HW238103   1.011   2.863   8.517  0.1935  1.6914  0.3492
 8882SOL     OW38104   1.756   3.173   3.449 -0.0210 -0.4776  0.1514
 8882SOL    HW138105   1.694   3.112   3.490  0.4003 -1.1447 -0.2113
 8882SOL    HW238106   1.755   3.148   3.357  2.4585 -0.3955  0.1031
 8883SOL     OW38107   2.464   0.875  12.917  0.6972 -0.0630 -0.0641
 8883SOL    HW138108   2.554   0.870  12.885  0.3349 -1.4956 -0.8435
 8883SOL    HW238109   2.464   0.967  12.945  1.1899  0.2461 -1.0713
 8884SOL     OW38110   2.871   2.268   5.611 -0.1170  0.2557 -0.0063
 8884SOL    HW138111   2.927   2.192   5.591 -0.7688  0.2076 -1.6464
 8884SOL    HW238112   2.931   2.340   5.596  1.2610 -0.9602 -0.3607
 8885SOL     OW38113   3.410   3.242  16.517  0.3386  0.4270 -0.3526
 8885SOL    HW138114   3.458   3.317  16.482 -0.5987  2.4269  2.6244
 8885SOL    HW238115   3.323   3.282  16.521 -1.2391 -2.9526 -1.2174
 8886SOL     OW38116   1.482   3.340   8.383  0.2133  0.2336 -0.1065
 8886SOL    HW138117   1.489   3.276   8.454 -0.7776 -0.0346 -0.2588
 8886SOL    HW238118   1.389   3.360   8.386  0.4032  1.3998 -2.1133
 8887SOL     OW38119   0.480   2.914   9.303  0.2028  0.5525  0.3776
 8887SOL    HW138120   0.470   3.005   9.329  2.2584  0.8081  0.2952
 8887SOL    HW238121   0.567   2.887   9.335 -0.1453 -0.0736  0.7923
 8888SOL     OW38122   3.703   4.426   2.082 -0.0129 -0.7415 -0.1295
 8888SOL    HW138123   3.774   4.368   2.108  0.6125 -0.0195 -0.2286
 8888SOL    HW238124   3.745   4.512   2.086 -2.1034  0.3205 -0.8825
 8889SOL     OW38125   3.152   3.489   8.981  0.1690  0.0397 -0.1233
 8889SOL    HW138126   3.246   3.479   8.998  0.7700  3.1666 -1.6442
 8889SOL    HW238127   3.138   3.469   8.889  0.9287 -1.8897  0.1768
 8890SOL     OW38128   4.340   2.651   2.628 -0.1571 -0.1033  0.3731
 8890SOL    HW138129   4.327   2.556   2.621  0.5204 -0.2478  0.9992
 8890SOL    HW238130   4.405   2.647   2.698  1.9449  0.4131 -1.5563
 8891SOL     OW38131   0.119   2.724   8.225  0.1007 -0.3113 -0.0631
 8891SOL    HW138132   0.157   2.711   8.139 -0.9936  0.2777 -0.6269
 8891SOL    HW238133   0.093   2.635   8.250 -2.4343  0.6143  0.5622
 8892SOL     OW38134   0.801   4.433  13.677 -0.0469 -0.6515 -0.7289
 8892SOL    HW138135   0.789   4.422  13.772 -1.1733 -0.7911 -0.8958
 8892SOL    HW238136   0.774   4.524  13.662 -0.8295 -0.8871 -0.7214
 8893SOL     OW38137   4.486   4.548  12.186 -0.0281 -0.4578 -0.0402
 8893SOL    HW138138   4.573   4.581  12.165 -0.1698  0.1560  0.3212
 8893SOL    HW238139   4.436   4.581  12.111 -0.2427 -0.3509  0.1475
 8894SOL     OW38140   1.602   0.370   3.464 -0.2353  0.3338  0.2876
 8894SOL    HW138141   1.658   0.297   3.436  1.3203  1.4737  0.4276
 8894SOL    HW238142   1.538   0.362   3.393  0.8277  1.1282 -0.7602
 8895SOL     OW38143   0.872   0.313   2.402 -0.2671  0.1325 -0.3522
 8895SOL    HW138144   0.956   0.274   2.426 -0.4851 -0.5444 -0.7079
 8895SOL    HW238145   0.855   0.262   2.323  1.8684  0.2568 -0.8762
 8896SOL     OW38146   2.178   2.014   8.033  0.1375 -0.4277  0.4301
 8896SOL    HW138147   2.145   1.932   8.071  2.6959 -1.0968  1.2566
 8896SOL    HW238148   2.098   2.064   8.041  0.9534  0.4604  3.1427
 8897SOL     OW38149   4.203   1.027  15.209  0.5056 -0.0344 -0.2164
 8897SOL    HW138150   4.272   0.963  15.193  0.6796  0.3495 -1.0186
 8897SOL    HW238151   4.172   1.058  15.123  0.0852  0.7139  0.1999
 8898SOL     OW38152   0.593   0.242   3.011  0.1345 -0.1137  0.2715
 8898SOL    HW138153   0.635   0.295   2.944  1.1557  0.3312  1.2567
 8898SOL    HW238154   0.584   0.300   3.087  1.8512  2.1634 -1.2715
 8899SOL     OW38155   3.590   0.602   7.882 -0.5091  0.0798  0.4241
 8899SOL    HW138156   3.634   0.586   7.966 -0.0944 -0.2833  0.1360
 8899SOL    HW238157   3.625   0.691   7.874 -0.5985  0.0383 -0.4108
 8900SOL     OW38158   3.034   2.394   1.960 -0.3562  0.0496  0.0196
 8900SOL    HW138159   3.059   2.398   1.868 -1.3996  0.6093 -0.2335
 8900SOL    HW238160   2.941   2.411   1.946 -0.5436 -2.1567 -1.3714
 8901SOL     OW38161   4.198   3.002   9.516 -0.2153  0.1997 -0.0385
 8901SOL    HW138162   4.229   2.912   9.529 -0.1638  0.3025  0.5449
 8901SOL    HW238163   4.113   2.979   9.478 -0.9310  0.1625  1.6015
 8902SOL     OW38164   2.673   1.176   7.139  0.1667  0.2495  0.2011
 8902SOL    HW138165   2.620   1.218   7.206  0.3989  1.3320 -0.3016
 8902SOL    HW238166   2.668   1.082   7.159  2.3516  0.8334  3.4740
 8903SOL     OW38167   1.664   0.082  11.081 -0.1505  0.1561  0.1252
 8903SOL    HW138168   1.613   0.007  11.051  0.0434  1.0361 -2.4447
 8903SOL    HW238169   1.711   0.036  11.151 -0.8249 -2.3285 -1.0606
 8904SOL     OW38170   4.673   2.441  15.497  0.2504 -0.3627 -0.5090
 8904SOL    HW138171   4.683   2.363  15.443  0.1433 -0.8615  0.1910
 8904SOL    HW238172   0.001   2.505  15.450  0.1701  0.6978  0.8361
 8905SOL     OW38173   0.567   0.211   7.548  0.3214 -0.2511  0.4120
 8905SOL    HW138174   0.663   0.210   7.546  0.3039  0.8691 -0.9404
 8905SOL    HW238175   0.554   0.116   7.548  3.4100 -0.6832 -1.7120
 8906SOL     OW38176   1.065   0.969  14.295 -0.1481 -0.1401 -0.0204
 8906SOL    HW138177   1.083   0.942  14.385  0.5917 -1.1169 -0.4682
 8906SOL    HW238178   0.970   0.968  14.305 -0.0044 -1.2935  1.1742
 8907SOL     OW38179   1.690   3.174   3.842 -0.1250  0.1373 -0.5178
 8907SOL    HW138180   1.647   3.178   3.927  0.0550 -0.7056 -0.3889
 8907SOL    HW238181   1.723   3.264   3.836 -0.5368  0.2844 -0.5485
 8908SOL     OW38182   1.406   2.552  12.603 -0.8237  0.1570  0.1237
 8908SOL    HW138183   1.388   2.459  12.588 -0.8666 -0.2717  2.6952
 8908SOL    HW238184   1.460   2.564  12.681  0.0139 -0.3294 -0.3914
 8909SOL     OW38185   4.435   2.394  15.302  0.2283 -0.4631 -0.1719
 8909SOL    HW138186   4.530   2.399  15.308  0.2350  0.7508 -1.2491
 8909SOL    HW238187   4.424   2.377  15.209 -1.9584  0.0172 -0.0019
 8910SOL     OW38188   4.566   0.284   7.524  0.4297  0.6582 -1.1114
 8910SOL    HW138189   4.514   0.203   7.531 -1.4333  1.9200 -0.3703
 8910SOL    HW238190   4.521   0.347   7.468  0.3148  1.6150  0.0762
 8911SOL     OW38191   3.275   2.688   7.706 -0.5501  0.1780  0.0401
 8911SOL    HW138192   3.247   2.738   7.783  0.5577  1.1900 -0.2040
 8911SOL    HW238193   3.324   2.755   7.659  0.7232 -0.1705  0.8572
 8912SOL     OW38194   3.216   3.357   2.830  0.8499 -0.4517  0.4237
 8912SOL    HW138195   3.137   3.388   2.875  1.4587 -1.3728  2.1550
 8912SOL    HW238196   3.211   3.262   2.837  0.2392 -0.4294  0.2241
 8913SOL     OW38197   1.893   2.876   5.608  0.2967 -0.2637  0.0203
 8913SOL    HW138198   1.977   2.831   5.614 -0.3054 -1.3837 -0.0502
 8913SOL    HW238199   1.890   2.896   5.701 -0.9785  0.1290 -0.0992
 8914SOL     OW38200   1.582   2.873   7.874  0.0985 -0.0310  0.3081
 8914SOL    HW138201   1.641   2.944   7.847 -1.4863  1.4036  0.6239
 8914SOL    HW238202   1.643   2.817   7.922  0.7671 -1.1581 -1.8586
 8915SOL     OW38203   2.891   4.672   9.581  0.0890  0.6400 -0.1834
 8915SOL    HW138204   2.948   4.679   9.658 -0.1627 -3.4487  0.3830
 8915SOL    HW238205   2.884   0.034   9.543 -1.0585  0.2727 -0.8061
 8916SOL     OW38206   4.082   0.004   3.088 -0.1786  0.1295  0.0003
 8916SOL    HW138207   4.054   4.658   3.031 -1.0705  0.2281  0.3118
 8916SOL    HW238208   4.001   0.013   3.139  0.3484  1.1460  0.6549
 8917SOL     OW38209   0.339   1.456  14.586 -0.5816  1.1300  0.2893
 8917SOL    HW138210   0.382   1.430  14.668 -0.5336  1.7286  0.4535
 8917SOL    HW238211   0.339   1.378  14.530  0.5715  0.3214  1.4127
 8918SOL     OW38212   3.304   4.631  16.359  0.6578  0.1266  0.3093
 8918SOL    HW138213   3.251   4.664  16.287 -1.7412 -0.6656  1.7064
 8918SOL    HW238214   3.248   4.558  16.384 -1.9985  1.1769 -2.5339
 8919SOL     OW38215   4.602   2.915  11.248 -0.2087 -0.3547 -0.4966
 8919SOL    HW138216   4.535   2.851  11.224 -0.2169 -0.6414  0.2840
 8919SOL    HW238217   4.666   2.864  11.297  1.2198 -0.0171 -2.0065
 8920SOL     OW38218   1.151   1.498   3.798 -0.3907 -0.3968 -0.0122
 8920SOL    HW138219   1.241   1.530   3.796 -0.9634  0.9947 -3.1627
 8920SOL    HW238220   1.134   1.468   3.887 -0.2211 -2.3815 -0.6443
 8921SOL     OW38221   2.376   4.538   2.430 -0.4812  0.9261 -0.1127
 8921SOL    HW138222   2.432   4.588   2.371  1.8501  0.3729  1.6052
 8921SOL    HW238223   2.354   4.611   2.487 -2.1493  0.5940 -0.3210
 8922SOL     OW38224   4.708   4.153   9.113 -0.5975 -0.4409  0.0211
 8922SOL    HW138225   4.705   4.093   9.188 -1.0514 -1.5584 -0.8804
 8922SOL    HW238226   0.056   4.110   9.069 -1.1993 -1.0246 -0.4080
 8923SOL     OW38227   2.820   4.429   5.149 -0.1481  0.1579 -0.2211
 8923SOL    HW138228   2.777   4.490   5.209 -0.8448  1.2042 -1.8074
 8923SOL    HW238229   2.793   4.347   5.191 -1.4202  0.2120 -0.9375
 8924SOL     OW38230   3.156   3.684  11.245  0.2408 -0.2612  0.4261
 8924SOL    HW138231   3.153   3.588  11.235  0.8461 -0.0632 -1.5763
 8924SOL    HW238232   3.244   3.692  11.208  0.8612 -1.9065  1.5252
 8925SOL     OW38233   1.836   2.274  16.045  0.0687 -0.2549 -0.1716
 8925SOL    HW138234   1.874   2.358  16.019 -2.3939  1.2843  1.1810
 8925SOL    HW238235   1.743   2.292  16.028  0.5925  1.3434 -1.3203
 8926SOL     OW38236   4.180   3.424   5.420  0.2105 -0.0972 -0.1107
 8926SOL    HW138237   4.162   3.431   5.326  0.4717 -0.0532 -0.1563
 8926SOL    HW238238   4.167   3.333   5.447 -0.6191 -0.5285 -2.0025
 8927SOL     OW38239   3.715   0.683   7.512 -0.0996 -0.1211  0.0933
 8927SOL    HW138240   3.639   0.633   7.484 -0.3464  0.2301  0.1351
 8927SOL    HW238241   3.769   0.684   7.433 -0.6305  1.8506 -0.2542
 8928SOL     OW38242   1.628   0.180   2.561 -0.0343  0.3642 -0.0012
 8928SOL    HW138243   1.661   0.102   2.517  0.0515  0.2351  0.2936
 8928SOL    HW238244   1.647   0.166   2.653  1.0380  0.6316 -0.1810
 8929SOL     OW38245   4.505   1.190   1.081  0.3579  0.5107  0.2253
 8929SOL    HW138246   4.487   1.282   1.101  1.6864  1.2728 -2.0231
 8929SOL    HW238247   4.526   1.162   1.170  1.4172  0.5447 -0.0145
 8930SOL     OW38248   1.949   3.592   5.602 -0.4756  0.2650  0.2670
 8930SOL    HW138249   1.922   3.684   5.593  0.6991  0.5769 -0.1267
 8930SOL    HW238250   2.030   3.584   5.552 -0.1098 -3.0159  1.4070
 8931SOL     OW38251   1.712   1.576   4.047 -0.3906  0.3072 -0.9319
 8931SOL    HW138252   1.629   1.623   4.055 -0.3416  0.1859  0.1908
 8931SOL    HW238253   1.765   1.646   4.008 -1.4691  2.1947  0.9745
 8932SOL     OW38254   0.869   0.654   8.078 -0.3462 -0.4176 -0.6233
 8932SOL    HW138255   0.897   0.579   8.130 -1.4051  2.1978  3.7158
 8932SOL    HW238256   0.788   0.671   8.126 -0.2288 -0.3947 -0.4336
 8933SOL     OW38257   3.696   3.168   0.510  1.0599  0.2807  0.0686
 8933SOL    HW138258   3.654   3.204   0.588  0.3941  2.4910 -1.3234
 8933SOL    HW238259   3.724   3.079   0.532  1.6184  0.7442  1.2366
 8934SOL     OW38260   0.019   3.196   6.170  0.1545 -0.1373  0.2349
 8934SOL    HW138261   0.050   3.217   6.258 -1.6455  0.0585  0.8125
 8934SOL    HW238262   0.072   3.244   6.106  1.1959 -1.1720  0.3330
 8935SOL     OW38263   0.825   1.525   8.361 -0.1550  0.3435 -0.0424
 8935SOL    HW138264   0.762   1.502   8.430 -0.9027 -1.0772 -1.1939
 8935SOL    HW238265   0.846   1.609   8.402  0.6892  0.0078  0.1979
 8936SOL     OW38266   0.683   1.416   5.773 -0.2499 -0.4148 -0.0038
 8936SOL    HW138267   0.698   1.403   5.679  0.4126  1.3948 -0.1581
 8936SOL    HW238268   0.680   1.512   5.777  0.2246 -0.4820  1.6675
 8937SOL     OW38269   2.808   2.626   8.792 -0.4022 -0.0449  0.3701
 8937SOL    HW138270   2.752   2.595   8.863 -1.1927  0.4300 -0.0281
 8937SOL    HW238271   2.811   2.550   8.734  0.7224 -0.0233  0.4047
 8938SOL     OW38272   3.599   0.823  13.057 -0.0654 -0.4280  0.6209
 8938SOL    HW138273   3.667   0.824  13.124 -1.2162  1.1611  1.7544
 8938SOL    HW238274   3.533   0.760  13.084 -1.5352  0.1586 -1.6272
 8939SOL     OW38275   0.613   2.067   7.659  0.0024  0.3549 -0.2647
 8939SOL    HW138276   0.578   2.067   7.748 -3.0751 -0.0693 -1.4704
 8939SOL    HW238277   0.650   2.155   7.650  2.0638 -0.2693  2.0470
 8940SOL     OW38278   1.147   1.705   7.961 -0.5037  0.8645  0.5008
 8940SOL    HW138279   1.166   1.796   7.982 -0.8199  0.6309  1.8437
 8940SOL    HW238280   1.144   1.654   8.042 -2.6933  1.2432  0.6619
 8941SOL     OW38281   3.958   3.198   4.476 -0.8309 -0.5455  0.0423
 8941SOL    HW138282   3.875   3.160   4.447  0.5482 -3.4090 -0.1496
 8941SOL    HW238283   3.936   3.291   4.479 -1.3039 -0.7390  2.0892
 8942SOL     OW38284   0.629   1.571   6.580  0.4107 -0.0499  0.4548
 8942SOL    HW138285   0.646   1.486   6.538 -1.0508 -0.9543  1.6611
 8942SOL    HW238286   0.570   1.610   6.515  0.7774  0.5013  0.4574
 8943SOL     OW38287   1.491   4.607   2.376 -0.2226  0.0084  0.4516
 8943SOL    HW138288   1.493   4.528   2.430  1.4734 -0.2458  0.0241
 8943SOL    HW238289   1.580   4.640   2.382 -0.5036  0.9589 -0.6146
 8944SOL     OW38290   0.198   0.632  14.864 -0.4294  0.5188 -0.0468
 8944SOL    HW138291   0.221   0.634  14.957 -1.4806 -2.1409  0.2616
 8944SOL    HW238292   0.150   0.550  14.848 -3.7933  1.9024  2.9042
 8945SOL     OW38293   0.005   2.501   3.437  0.1352 -0.1561 -0.5477
 8945SOL    HW138294   4.709   2.569   3.501  0.5846 -0.3323 -0.2020
 8945SOL    HW238295   0.001   2.562   3.363  0.8001  0.2619 -0.2396
 8946SOL     OW38296   0.763   2.539   2.314 -0.2569  0.1368  0.0612
 8946SOL    HW138297   0.800   2.530   2.227 -1.0051  3.1733 -0.5791
 8946SOL    HW238298   0.706   2.616   2.312  0.6196  0.8004  0.5074
 8947SOL     OW38299   3.232   3.859  11.435  0.0891 -0.0158  0.0886
 8947SOL    HW138300   3.207   3.947  11.408  0.9696  0.4517  0.8030
 8947SOL    HW238301   3.193   3.809  11.364 -1.2855 -0.9102  1.4622
 8948SOL     OW38302   1.379   0.771   0.770 -0.2186 -0.2585  0.1490
 8948SOL    HW138303   1.346   0.766   0.859  2.4021  0.0103  1.1429
 8948SOL    HW238304   1.429   0.853   0.782 -0.5350 -0.2103  1.1325
 8949SOL     OW38305   3.567   0.435   4.916 -0.0428  0.6341 -0.1447
 8949SOL    HW138306   3.533   0.349   4.939 -2.2709  1.4694 -0.3892
 8949SOL    HW238307   3.492   0.490   4.936  0.1054  1.5703 -2.1733
 8950SOL     OW38308   1.952   1.928   4.521  0.1659 -0.2948 -0.1645
 8950SOL    HW138309   1.869   1.969   4.544  0.0035  1.2633 -3.6412
 8950SOL    HW238310   1.995   2.003   4.481  2.0544 -0.0185  2.3356
 8951SOL     OW38311   3.925   0.515   1.424  0.5070  0.4059  0.2420
 8951SOL    HW138312   4.014   0.484   1.439  0.3013  0.2011  1.0431
 8951SOL    HW238313   3.923   0.579   1.495 -1.0433  1.6505 -0.9247
 8952SOL     OW38314   2.217   0.191   7.416  0.1303  0.3039 -0.0727
 8952SOL    HW138315   2.196   0.261   7.477  1.1193  1.5105 -1.1342
 8952SOL    HW238316   2.306   0.168   7.441 -0.0726  0.2438  0.5915
 8953SOL     OW38317   3.961   3.487   4.478  0.0965 -0.6317 -0.0056
 8953SOL    HW138318   4.049   3.517   4.496  0.1875 -0.3314 -0.9433
 8953SOL    HW238319   3.900   3.560   4.485  1.7222  0.6043  1.1369
 8954SOL     OW38320   0.938   3.062   3.555  0.1251  0.7595  0.0081
 8954SOL    HW138321   1.017   3.050   3.503  1.2205  2.4200  1.2644
 8954SOL    HW238322   0.959   3.132   3.617  0.3411 -0.6074  1.4929
 8955SOL     OW38323   0.654   1.246  15.797 -0.6035 -0.1393 -0.3379
 8955SOL    HW138324   0.610   1.210  15.875 -0.6042 -0.2605 -0.3942
 8955SOL    HW238325   0.645   1.179  15.729  1.3494 -1.6217  0.8935
 8956SOL     OW38326   2.047   0.401   8.431  0.6878 -0.0250  0.4731
 8956SOL    HW138327   2.100   0.474   8.399  0.5765 -0.1930 -0.0933
 8956SOL    HW238328   1.959   0.439   8.434 -0.6382 -2.9882 -0.8615
 8957SOL     OW38329   4.645   1.897   2.802 -0.5199 -0.4617 -0.6001
 8957SOL    HW138330   4.588   1.973   2.793 -0.4457 -0.3878 -0.4525
 8957SOL    HW238331   4.657   1.911   2.896  1.7158  0.0329 -0.9549
 8958SOL     OW38332   3.677   0.474   0.838  0.4148 -0.0617  0.3823
 8958SOL    HW138333   3.746   0.528   0.800 -0.3040  0.5030 -0.1185
 8958SOL    HW238334   3.603   0.491   0.780  0.4906  0.5042  0.4525
 8959SOL     OW38335   1.239   1.322   9.212  0.1513  0.0503 -0.8339
 8959SOL    HW138336   1.322   1.284   9.184 -0.5145 -1.5720 -0.6095
 8959SOL    HW238337   1.187   1.341   9.134 -2.7114 -0.6907  0.8818
 8960SOL     OW38338   3.894   3.568   9.141  0.2095  0.5282 -0.4476
 8960SOL    HW138339   3.969   3.514   9.116  1.3997  2.2882 -0.5972
 8960SOL    HW238340   3.930   3.621   9.211  2.5840  1.0321 -2.0525
 8961SOL     OW38341   3.067   1.047   3.805  0.2899 -0.6961  0.1861
 8961SOL    HW138342   2.972   1.046   3.793  0.5541  2.3536 -1.9710
 8961SOL    HW238343   3.067   1.064   3.899  2.6090 -2.4600  0.5004
 8962SOL     OW38344   2.149   3.405   0.783  0.5720  0.1341 -0.3321
 8962SOL    HW138345   2.226   3.444   0.742  0.8954  0.1534  0.2842
 8962SOL    HW238346   2.101   3.386   0.703  1.0603  0.2046 -0.6413
 8963SOL     OW38347   3.207   3.456   5.383  0.2031  0.3996  0.8658
 8963SOL    HW138348   3.118   3.466   5.419  0.5892  0.1145  1.9056
 8963SOL    HW238349   3.258   3.480   5.461  0.1121 -0.1659  1.0968
 8964SOL     OW38350   0.017   0.768   7.467  0.2911 -0.0749 -0.1879
 8964SOL    HW138351   0.057   0.708   7.530  0.7770 -0.5391 -0.9414
 8964SOL    HW238352   0.055   0.734   7.386 -1.5925  1.6476 -1.7873
 8965SOL     OW38353   3.097   1.427   5.159 -0.1257  0.0557  0.0695
 8965SOL    HW138354   3.074   1.385   5.076 -2.1458  2.3036 -0.4975
 8965SOL    HW238355   3.086   1.352   5.217 -1.3165  1.3581  1.5167
 8966SOL     OW38356   2.609   2.792   2.926 -0.3122  0.2962  0.3572
 8966SOL    HW138357   2.648   2.777   2.840 -2.6887  1.5684 -0.9298
 8966SOL    HW238358   2.567   2.878   2.916 -0.2920  0.2854  0.1774
 8967SOL     OW38359   0.281   3.291   5.727  0.3517  0.2249 -0.4645
 8967SOL    HW138360   0.244   3.204   5.714  1.2388 -0.2425  0.1051
 8967SOL    HW238361   0.233   3.321   5.804  0.0668 -1.5567  0.0493
 8968SOL     OW38362   1.877   2.950   7.512 -0.0296 -0.8894  0.3581
 8968SOL    HW138363   1.968   2.920   7.520  0.0237 -0.8814 -0.2408
 8968SOL    HW238364   1.866   2.930   7.419  0.2716  3.3172 -0.5888
 8969SOL     OW38365   1.838   0.304   7.359 -0.4441 -0.1407 -0.1343
 8969SOL    HW138366   1.923   0.319   7.400  1.1289 -0.6423 -3.1864
 8969SOL    HW238367   1.872   0.284   7.272 -1.1887  1.7878 -0.8609
 8970SOL     OW38368   3.848   2.815  12.252 -0.5917  0.1929  0.0883
 8970SOL    HW138369   3.870   2.758  12.178 -0.1398  0.9201 -0.3361
 8970SOL    HW238370   3.877   2.766  12.329  0.9450  0.3949 -0.3632
 8971SOL     OW38371   1.534   0.540   2.878  0.1919  0.4553  0.4406
 8971SOL    HW138372   1.468   0.525   2.945  0.8256 -0.2603  0.9083
 8971SOL    HW238373   1.497   0.616   2.833  0.9650  0.0442 -0.8993
 8972SOL     OW38374   0.152   2.032   0.235 -0.6116 -0.0037  0.0012
 8972SOL    HW138375   0.191   2.064   0.154  0.4540 -0.9196  0.1442
 8972SOL    HW238376   0.105   1.959   0.195  1.1710 -0.9544 -0.3574
 8973SOL     OW38377   1.012   4.197   1.833 -0.1385  0.5039  0.1054
 8973SOL    HW138378   0.921   4.175   1.816 -0.4693  3.7462 -2.3663
 8973SOL    HW238379   1.056   4.114   1.812  1.6927  1.8218 -1.3007
 8974SOL     OW38380   4.694   0.197  12.956 -0.2151  0.4429 -0.2603
 8974SOL    HW138381   0.063   0.185  12.952  0.1295  2.4263  2.3767
 8974SOL    HW238382   4.675   0.188  12.862  0.4491 -0.2994 -0.3189
 8975SOL     OW38383   1.400   4.556   4.719 -0.1396  0.4509  0.1846
 8975SOL    HW138384   1.404   4.484   4.782  0.5684  1.7353  1.6132
 8975SOL    HW238385   1.413   4.514   4.634 -0.1269 -3.3220  2.0421
 8976SOL     OW38386   4.034   0.981  17.608 -0.2477 -0.4594 -0.3609
 8976SOL    HW138387   3.949   1.014  17.581 -0.5475 -0.8267  0.1213
 8976SOL    HW238388   4.020   0.887  17.595  0.0331 -0.5611  0.0437
 8977SOL     OW38389   2.890   3.052  12.219 -0.2773 -0.4550 -0.5320
 8977SOL    HW138390   2.817   2.989  12.221  0.1459 -0.8914  1.6101
 8977SOL    HW238391   2.950   2.988  12.258 -1.8403 -1.7926 -0.3139
 8978SOL     OW38392   4.532   1.295  15.488 -0.0168  1.0838 -0.4870
 8978SOL    HW138393   4.454   1.346  15.465 -1.0069 -0.0576  0.3569
 8978SOL    HW238394   4.544   1.256  15.402  1.9399  1.7590 -0.5237
 8979SOL     OW38395   3.931   1.772  14.465  0.2624  0.0219  0.2102
 8979SOL    HW138396   3.852   1.785  14.517 -1.4252 -2.6175 -1.6932
 8979SOL    HW238397   3.976   1.857  14.462  0.6743 -0.1159  2.0512
 8980SOL     OW38398   3.911   3.349   8.012  0.3997 -0.1698 -0.1342
 8980SOL    HW138399   3.904   3.257   8.037  0.9154 -0.5143 -1.2519
 8980SOL    HW238400   3.847   3.381   8.075  0.3654  0.7465 -0.6258
 8981SOL     OW38401   3.704   3.974   1.631  0.3505  0.5264 -0.0640
 8981SOL    HW138402   3.724   3.889   1.593  1.1841  1.5775 -1.9382
 8981SOL    HW238403   3.782   3.987   1.685  0.6503  1.0806 -0.6344
 8982SOL     OW38404   3.113   1.738   2.713  0.1782  0.1229 -0.6842
 8982SOL    HW138405   3.163   1.798   2.658 -0.9977  0.3609 -1.4854
 8982SOL    HW238406   3.135   1.784   2.794  0.7158  0.7136 -1.1666
 8983SOL     OW38407   1.531   3.635  16.041  0.4159 -0.7145  0.4509
 8983SOL    HW138408   1.532   3.614  16.135  0.4207 -2.1703  0.1262
 8983SOL    HW238409   1.556   3.727  16.035 -1.2771 -0.3898 -1.5706
 8984SOL     OW38410   3.077   3.788   9.534  0.2677  0.1197 -0.1081
 8984SOL    HW138411   2.988   3.798   9.567  0.0559 -0.6550 -0.4468
 8984SOL    HW238412   3.095   3.702   9.570  2.5852  0.8013  0.3720
 8985SOL     OW38413   1.459   0.896   6.822  0.6101  0.2127 -0.4555
 8985SOL    HW138414   1.530   0.835   6.842  0.2112  0.4111  1.5744
 8985SOL    HW238415   1.499   0.980   6.848 -0.2304  0.9633 -1.5904
 8986SOL     OW38416   4.245   4.315   7.500 -0.0429  0.0418 -0.4050
 8986SOL    HW138417   4.322   4.332   7.555  0.2754  0.1572 -0.8848
 8986SOL    HW238418   4.182   4.378   7.536 -2.0212 -2.0306 -0.2629
 8987SOL     OW38419   2.730   2.423  10.036  0.0032  0.0810  0.0529
 8987SOL    HW138420   2.727   2.403  10.130  3.4342  3.0721  0.7850
 8987SOL    HW238421   2.728   2.517  10.022 -2.0966  0.0715  0.2437
 8988SOL     OW38422   4.535   0.799   0.199 -0.0098  0.4772 -0.7718
 8988SOL    HW138423   4.592   0.864   0.241  1.4901 -2.0100  1.0811
 8988SOL    HW238424   4.572   0.803   0.111  3.0956 -0.7577  0.4598
 8989SOL     OW38425   3.617   3.234   7.275  0.2844 -0.4085 -0.3130
 8989SOL    HW138426   3.559   3.197   7.209  0.9552  0.4125 -1.3661
 8989SOL    HW238427   3.551   3.291   7.315 -1.0031 -1.5796 -0.7696
 8990SOL     OW38428   3.220   4.077   8.500 -0.0073 -0.5981 -0.3494
 8990SOL    HW138429   3.227   4.005   8.562  2.2113 -0.5481 -0.5331
 8990SOL    HW238430   3.264   4.147   8.548 -2.0352  1.2169 -1.0957
 8991SOL     OW38431   3.156   1.213   6.230  0.5264  0.0984 -0.1790
 8991SOL    HW138432   3.226   1.278   6.225  0.2873 -0.0103 -4.9933
 8991SOL    HW238433   3.080   1.268   6.209  0.6846 -0.3734 -1.9493
 8992SOL     OW38434   3.918   0.739  13.984  0.0029  0.2812 -0.0252
 8992SOL    HW138435   3.974   0.816  13.981  1.9649 -1.1162  0.5860
 8992SOL    HW238436   3.828   0.763  13.962  0.4436  1.1825 -0.8614
 8993SOL     OW38437   1.509   0.380   4.078 -0.1091 -0.1028 -0.3581
 8993SOL    HW138438   1.502   0.326   4.156 -1.3500 -0.8212 -0.9713
 8993SOL    HW238439   1.590   0.341   4.045  0.5481  1.5732 -0.7135
 8994SOL     OW38440   3.713   3.399   8.475  0.4468  0.7337 -0.3018
 8994SOL    HW138441   3.658   3.327   8.505  2.7964  0.2048  2.7251
 8994SOL    HW238442   3.778   3.344   8.431  0.4358  0.4143  0.0857
 8995SOL     OW38443   0.924   4.085   7.054  0.0200 -0.2590 -0.2287
 8995SOL    HW138444   0.852   4.090   7.116  0.2067  2.8878 -0.3069
 8995SOL    HW238445   0.991   4.148   7.080  0.4513 -1.4650  1.5830
 8996SOL     OW38446   0.884   0.269  15.809  0.6436 -0.4115 -0.0596
 8996SOL    HW138447   0.936   0.346  15.832 -1.8914  1.8650 -2.0500
 8996SOL    HW238448   0.939   0.233  15.740 -1.3606 -2.5009 -0.5410
 8997SOL     OW38449   1.327   3.879   0.548  0.1240  0.2385  0.0488
 8997SOL    HW138450   1.347   3.855   0.457 -0.5103  0.8009 -0.2372
 8997SOL    HW238451   1.411   3.852   0.585  0.7069  0.2371 -1.2807
 8998SOL     OW38452   4.272   0.800   7.804  0.1330  0.2997 -0.1487
 8998SOL    HW138453   4.340   0.763   7.747 -1.3100 -2.0745 -0.3265
 8998SOL    HW238454   4.332   0.835   7.869 -0.1541  1.6459 -0.6047
 8999SOL     OW38455   1.441   0.044  14.662 -0.0184 -0.0595  0.5988
 8999SOL    HW138456   1.453   0.124  14.713  3.0851 -1.0778  1.4242
 8999SOL    HW238457   1.363   0.075  14.616  0.9217  0.1365 -0.8709
 9000SOL     OW38458   0.109   1.663   0.726  0.9176 -0.3030 -0.3241
 9000SOL    HW138459   0.067   1.577   0.731  1.0373 -0.2656  1.1220
 9000SOL    HW238460   0.031   1.719   0.718 -0.4685 -2.1615  0.4087
 9001SOL     OW38461   4.440   1.129   0.822 -0.2703  0.0870  0.3372
 9001SOL    HW138462   4.350   1.102   0.842 -0.5495 -0.6522 -1.7953
 9001SOL    HW238463   4.463   1.156   0.910  0.6922  1.5340 -0.3596
 9002SOL     OW38464   1.504   1.458   3.071  0.0219 -0.6025  0.1002
 9002SOL    HW138465   1.411   1.444   3.086  0.0711 -0.1755  0.7966
 9002SOL    HW238466   1.506   1.448   2.976 -0.3019  0.4146 -0.0124
 9003SOL     OW38467   3.003   3.477   3.013  0.1584  0.0525  0.2832
 9003SOL    HW138468   2.936   3.544   3.006  2.6649  2.4346 -0.8615
 9003SOL    HW238469   3.043   3.513   3.093 -0.0565 -0.3916  0.5908
 9004SOL     OW38470   0.627   0.370   4.972 -0.2742  0.0498  0.1511
 9004SOL    HW138471   0.537   0.373   4.939 -0.4038  2.9740  0.7813
 9004SOL    HW238472   0.616   0.396   5.063  3.2953  2.4812 -0.1094
 9005SOL     OW38473   4.354   4.604   3.152 -0.2919 -0.3933  0.0966
 9005SOL    HW138474   4.272   4.587   3.105 -0.0607  0.2355 -0.5389
 9005SOL    HW238475   4.421   4.564   3.097 -1.0643  0.5625 -1.5614
 9006SOL     OW38476   3.753   4.688  15.272 -0.6918  0.0215 -0.0627
 9006SOL    HW138477   3.794   4.633  15.206  0.3134  0.1938  0.4153
 9006SOL    HW238478   3.809   4.664  15.346  0.6435  0.7445 -0.8357
 9007SOL     OW38479   4.367   1.913   7.735  0.3735 -0.3401 -0.0740
 9007SOL    HW138480   4.415   1.959   7.666  1.2853  0.9958  1.4422
 9007SOL    HW238481   4.328   1.843   7.683 -0.7862  0.6822 -0.5822
 9008SOL     OW38482   2.404   3.304   7.907  0.6327  0.1377  0.3937
 9008SOL    HW138483   2.497   3.303   7.933  0.7352  2.7123  0.0294
 9008SOL    HW238484   2.383   3.397   7.905  1.2530  0.2152 -2.2008
 9009SOL     OW38485   0.573   0.979   1.422  0.1312 -0.0032 -0.0219
 9009SOL    HW138486   0.556   1.072   1.436 -1.4198 -0.3775  0.5978
 9009SOL    HW238487   0.598   0.976   1.330  0.7787 -0.4530  0.1666
 9010SOL     OW38488   2.683   2.501   3.101  0.0151 -0.5824  0.2229
 9010SOL    HW138489   2.644   2.419   3.129 -1.3393 -0.0831 -0.2073
 9010SOL    HW238490   2.635   2.503   3.018  1.5614  0.4660 -0.6541
 9011SOL     OW38491   2.605   3.708   7.498  0.1867  0.3513  0.1930
 9011SOL    HW138492   2.553   3.632   7.526 -0.7375  0.8274 -0.2370
 9011SOL    HW238493   2.685   3.656   7.498  0.7995  1.3138  0.5376
 9012SOL     OW38494   3.629   3.837  11.685 -0.0512  0.6267  0.0089
 9012SOL    HW138495   3.668   3.826  11.598 -0.2511  1.0333 -0.1314
 9012SOL    HW238496   3.703   3.809  11.740  0.1115  2.2574  0.6274
 9013SOL     OW38497   3.900   4.163   2.559  0.2548  0.2092 -0.5218
 9013SOL    HW138498   3.858   4.219   2.494 -0.5541  0.5724  0.3166
 9013SOL    HW238499   3.972   4.218   2.590  0.0945 -0.1279  0.4498
 9014SOL     OW38500   3.553   4.301   1.890 -0.0481  0.1666  0.2879
 9014SOL    HW138501   3.508   4.227   1.930  1.5136 -0.6133  0.5938
 9014SOL    HW238502   3.613   4.348   1.947 -1.4641 -0.4118  2.2664
 9015SOL     OW38503   0.444   1.231   9.543 -0.4346  0.6390  0.0473
 9015SOL    HW138504   0.381   1.183   9.490  0.6362 -0.1667 -0.4896
 9015SOL    HW238505   0.428   1.178   9.622 -0.0527  0.0738 -0.2505
 9016SOL     OW38506   4.135   1.376   9.186  0.0584  0.2930 -0.0333
 9016SOL    HW138507   4.203   1.355   9.250 -0.8948 -1.5031  0.3872
 9016SOL    HW238508   4.138   1.470   9.202 -0.3078  0.6913 -2.3145
 9017SOL     OW38509   0.436   1.132   5.769  0.2039 -0.3978 -0.2691
 9017SOL    HW138510   0.398   1.082   5.696 -0.0609  0.3719 -0.6568
 9017SOL    HW238511   0.361   1.191   5.780  0.1702 -0.6842  1.0565
 9018SOL     OW38512   4.012   3.071   5.275 -0.3085 -0.3833  0.1254
 9018SOL    HW138513   4.087   3.123   5.246  0.2139 -1.1747  0.0584
 9018SOL    HW238514   3.938   3.126   5.250 -1.1331 -1.4109  0.2807
 9019SOL     OW38515   3.002   1.064   1.981  0.3622 -0.1674  0.6481
 9019SOL    HW138516   3.033   1.032   2.066  1.8298 -1.7908 -0.5082
 9019SOL    HW238517   3.032   0.995   1.923  0.0463 -0.2290  0.5558
 9020SOL     OW38518   1.121   3.814  15.501  0.1478  0.0505 -0.7075
 9020SOL    HW138519   1.175   3.847  15.428  1.3803 -0.5556 -0.0686
 9020SOL    HW238520   1.047   3.773  15.456  1.7383 -3.1080 -0.4454
 9021SOL     OW38521   3.968   4.485  14.764 -0.7833  0.6858 -0.4291
 9021SOL    HW138522   3.986   4.428  14.689  0.7006 -2.1090  2.0299
 9021SOL    HW238523   4.057   4.521  14.770 -0.2169 -0.5499 -1.4158
 9022SOL     OW38524   3.126   3.650   6.548  0.3490 -0.4046 -0.2524
 9022SOL    HW138525   3.147   3.607   6.631 -0.5588 -3.3140 -1.5419
 9022SOL    HW238526   3.212   3.654   6.507  0.1707  0.5397 -0.5451
 9023SOL     OW38527   4.287   2.267   3.333 -0.0573 -0.3472 -0.2138
 9023SOL    HW138528   4.362   2.218   3.298  0.7521 -0.5693  1.8319
 9023SOL    HW238529   4.300   2.360   3.318  1.9361 -0.3662  1.4088
 9024SOL     OW38530   3.543   3.533   2.621 -0.4201 -0.4395 -0.2219
 9024SOL    HW138531   3.606   3.578   2.677 -2.0907  1.3252  0.2612
 9024SOL    HW238532   3.472   3.518   2.684  0.0812 -1.7160  0.0310
 9025SOL     OW38533   0.292   1.103   7.604 -0.8512  0.4639 -0.2818
 9025SOL    HW138534   0.308   1.194   7.581  2.6771  0.4043  1.9617
 9025SOL    HW238535   0.317   1.102   7.696 -3.1919  1.3116  0.3733
 9026SOL     OW38536   1.477   3.090   0.623 -0.3941  0.0019 -0.1813
 9026SOL    HW138537   1.554   3.048   0.585 -1.4534 -2.1170  0.0061
 9026SOL    HW238538   1.480   3.075   0.718 -0.3862  2.0259  0.1415
 9027SOL     OW38539   0.615   1.620   5.166  0.0591 -0.4853  0.2383
 9027SOL    HW138540   0.696   1.570   5.181  0.1752 -0.1589  0.7158
 9027SOL    HW238541   0.645   1.659   5.084  0.6495  1.4018  1.3318
 9028SOL     OW38542   2.070   4.260   7.513 -0.0708  0.0688 -0.0653
 9028SOL    HW138543   2.111   4.226   7.433 -1.1473 -1.4891  0.0445
 9028SOL    HW238544   2.130   4.332   7.533 -0.5361  0.2247  0.7640
 9029SOL     OW38545   1.507   3.481   3.559  0.0991 -0.2728  0.2488
 9029SOL    HW138546   1.538   3.493   3.470 -0.4413 -1.5112 -0.1086
 9029SOL    HW238547   1.577   3.528   3.605 -1.3713  0.2701  1.9778
 9030SOL     OW38548   2.025   0.080   6.330 -0.0358  0.1584 -0.4673
 9030SOL    HW138549   2.084   0.012   6.298  1.0288  0.9584 -0.2010
 9030SOL    HW238550   1.950   0.026   6.355 -0.2854  1.1123  0.8402
 9031SOL     OW38551   3.879   1.594   1.674  0.6121  0.2977  0.4325
 9031SOL    HW138552   3.911   1.606   1.584 -0.8199 -0.7438 -0.2177
 9031SOL    HW238553   3.924   1.666   1.719  1.0259 -0.0874  0.6382
 9032SOL     OW38554   0.076   4.345   8.549 -0.2462 -0.0529 -0.1096
 9032SOL    HW138555   0.058   4.306   8.464  0.5302  0.3255 -0.4427
 9032SOL    HW238556   0.039   4.432   8.537 -1.3403 -0.5371 -0.2532
 9033SOL     OW38557   0.901   4.117   8.728 -0.5932  0.1099 -0.2192
 9033SOL    HW138558   0.877   4.142   8.817 -1.2460  2.7066 -1.1425
 9033SOL    HW238559   0.921   4.203   8.692  3.3500 -0.5949  0.2802
 9034SOL     OW38560   2.233   0.808   9.031 -0.3841 -0.0298 -0.0127
 9034SOL    HW138561   2.279   0.752   8.968 -0.5732  1.6387 -1.6264
 9034SOL    HW238562   2.293   0.809   9.106 -0.7110  0.4901  0.2389
 9035SOL     OW38563   3.749   1.169   3.049  0.2596  0.2717 -0.0262
 9035SOL    HW138564   3.797   1.140   2.972  0.0493 -2.3376  0.8225
 9035SOL    HW238565   3.685   1.098   3.052 -1.1563  1.5569  0.3874
 9036SOL     OW38566   1.960   1.176   2.090  0.2575 -0.2144  0.1705
 9036SOL    HW138567   1.877   1.132   2.104 -0.0042  0.1866 -0.1051
 9036SOL    HW238568   1.970   1.236   2.164 -0.2736 -0.1849  0.2154
 9037SOL     OW38569   0.357   0.177   2.257 -0.3654 -0.1035  0.2693
 9037SOL    HW138570   0.446   0.143   2.269 -0.3578  0.0588  0.6801
 9037SOL    HW238571   0.320   0.107   2.203 -0.0354  0.4673 -0.6904
 9038SOL     OW38572   1.383   4.717  16.683 -0.1225  0.3487 -0.3381
 9038SOL    HW138573   1.460   4.660  16.679  0.3143  0.9698 -0.7691
 9038SOL    HW238574   1.413   0.067  16.631  0.7800 -0.5010 -1.0699
 9039SOL     OW38575   3.406   3.115   2.087 -0.7272  0.0024 -0.1180
 9039SOL    HW138576   3.413   3.031   2.042  0.2716  1.3423 -2.5302
 9039SOL    HW238577   3.340   3.160   2.033 -0.9646 -1.1118 -0.7500
 9040SOL     OW38578   1.226   2.371   1.826 -0.2035  0.6259 -1.2511
 9040SOL    HW138579   1.291   2.441   1.823 -0.2674  0.8103  1.6335
 9040SOL    HW238580   1.194   2.362   1.736 -3.0171 -0.0545 -0.2048
 9041SOL     OW38581   0.541   2.530   4.170  0.2292  0.1000 -0.0898
 9041SOL    HW138582   0.556   2.499   4.259 -1.4747  1.0835  0.5228
 9041SOL    HW238583   0.562   2.447   4.127  0.4057  0.7893 -1.3378
 9042SOL     OW38584   3.947   1.319  17.025 -0.3698 -0.2906 -0.2888
 9042SOL    HW138585   3.910   1.331  16.937 -2.1237  0.1890  0.5364
 9042SOL    HW238586   4.013   1.251  17.011  0.3777  0.7472 -1.8507
 9043SOL     OW38587   1.994   1.742   4.322  0.1195 -0.1474  0.3730
 9043SOL    HW138588   2.024   1.819   4.370 -1.8626  2.1850 -2.1171
 9043SOL    HW238589   2.061   1.735   4.254 -1.8584 -1.0830 -1.5074
 9044SOL     OW38590   2.988   4.138   2.073  0.4176  0.2189 -0.9432
 9044SOL    HW138591   3.044   4.162   1.999  1.1028  1.0297 -0.1559
 9044SOL    HW238592   2.904   4.111   2.034 -1.0565  0.8422  1.7951
 9045SOL     OW38593   0.728   4.071   7.862  0.8250  0.4597 -0.0758
 9045SOL    HW138594   0.792   4.088   7.792  0.9185 -0.4077 -0.1922
 9045SOL    HW238595   0.780   3.999   7.898 -0.4025 -0.0644  0.6349
 9046SOL     OW38596   2.115   3.506   0.415  0.1165 -0.5364  0.4613
 9046SOL    HW138597   2.196   3.458   0.398  1.2482  1.5205  0.0405
 9046SOL    HW238598   2.061   3.440   0.460 -2.6803  0.3776 -1.5586
 9047SOL     OW38599   4.030   4.020   7.946 -0.4224 -0.3695 -0.0056
 9047SOL    HW138600   3.988   4.003   8.031 -1.9820 -0.1489 -0.7324
 9047SOL    HW238601   4.012   3.943   7.894 -1.1880 -0.4638  0.3930
 9048SOL     OW38602   0.873   4.204  13.363  0.3918  0.2287 -0.5046
 9048SOL    HW138603   0.883   4.271  13.297  0.9815 -1.5878 -2.2601
 9048SOL    HW238604   0.916   4.252  13.435 -0.7440  1.4062 -0.6323
 9049SOL     OW38605   3.533   1.774  13.378  0.1970  0.0749  0.1559
 9049SOL    HW138606   3.616   1.820  13.377  0.3564 -0.1981  1.4288
 9049SOL    HW238607   3.489   1.837  13.435  0.4491 -1.9465  2.5756
 9050SOL     OW38608   3.238   1.179  10.828  0.5281  0.1297 -0.0915
 9050SOL    HW138609   3.313   1.129  10.796  2.5500  3.0786 -0.0053
 9050SOL    HW238610   3.193   1.112  10.879 -2.9232  1.7150 -1.0681
 9051SOL     OW38611   3.378   0.930   1.724  0.0218 -0.0451 -0.2176
 9051SOL    HW138612   3.398   0.996   1.790  1.2767 -0.6482  0.0006
 9051SOL    HW238613   3.360   0.861   1.787 -2.3587  0.1587 -0.6973
 9052SOL     OW38614   4.272   1.648   9.287  0.1880 -0.1866 -0.7122
 9052SOL    HW138615   4.308   1.736   9.278  0.4496 -0.3093 -0.8533
 9052SOL    HW238616   4.303   1.595   9.214 -0.5840  0.9736 -1.8945
 9053SOL     OW38617   2.572   4.002  17.552 -0.1366  0.9525 -0.5960
 9053SOL    HW138618   2.664   3.988  17.533  0.3999  1.7816  1.4129
 9053SOL    HW238619   2.532   3.928  17.507  1.3501  0.1464 -0.5609
 9054SOL     OW38620   0.102   1.419  15.937  0.4630  0.0907  0.4287
 9054SOL    HW138621   0.168   1.437  16.004  1.2151  2.0229 -0.8576
 9054SOL    HW238622   0.141   1.342  15.895  2.2069  0.4453  1.4008
 9055SOL     OW38623   0.138   3.143   9.824  0.0014  0.3181 -0.0136
 9055SOL    HW138624   0.182   3.195   9.891  1.1996 -2.0160  1.0196
 9055SOL    HW238625   0.097   3.079   9.882 -1.3792 -0.9469 -2.4077
 9056SOL     OW38626   2.454   4.076   0.102  0.3541  0.1717 -0.1721
 9056SOL    HW138627   2.519   4.141   0.128  0.6696  1.2834 -3.6362
 9056SOL    HW238628   2.503   4.033   0.032 -1.6580 -2.1739 -0.1619
 9057SOL     OW38629   1.385   1.574  13.904  0.1742  0.6094 -0.0775
 9057SOL    HW138630   1.384   1.495  13.958  2.3233  0.8449  0.2922
 9057SOL    HW238631   1.294   1.603  13.898  0.1881  1.1845  2.9803
 9058SOL     OW38632   2.453   0.190  13.056  0.1366 -0.4501 -0.0666
 9058SOL    HW138633   2.376   0.141  13.086 -0.4288  1.1744  1.1503
 9058SOL    HW238634   2.477   0.137  12.980 -0.3682  0.5630 -0.9245
 9059SOL     OW38635   2.705   3.494  17.475 -0.5076 -0.0573 -0.3141
 9059SOL    HW138636   2.799   3.512  17.472 -0.0252 -2.7471 -1.0016
 9059SOL    HW238637   2.695   3.403  17.504 -1.0121 -0.4193 -1.6174
 9060SOL     OW38638   0.190   2.170  15.304  0.2657  0.1722 -0.1359
 9060SOL    HW138639   0.266   2.213  15.265 -0.6138  0.3159 -1.6752
 9060SOL    HW238640   0.236   2.089  15.326  1.0808  1.0215  1.3016
 9061SOL     OW38641   1.476   0.789   2.323 -0.6692 -0.0296  0.2976
 9061SOL    HW138642   1.383   0.807   2.337 -0.7499 -0.1233 -0.0934
 9061SOL    HW238643   1.478   0.696   2.301  1.0469  0.1671 -0.3632
 9062SOL     OW38644   4.531   1.151   1.609  0.2136 -0.0847 -0.1511
 9062SOL    HW138645   4.517   1.245   1.614  2.6743  0.2654  0.1542
 9062SOL    HW238646   4.558   1.124   1.697  1.7574  4.0236  0.6386
 9063SOL     OW38647   4.210   4.485   4.690 -0.1273 -0.1040 -0.4108
 9063SOL    HW138648   4.132   4.458   4.642  0.3945  1.5581 -2.2086
 9063SOL    HW238649   4.238   4.555   4.631  0.2198  0.3078  0.2458
 9064SOL     OW38650   0.607   2.343   9.387 -0.3560 -0.0739 -0.6734
 9064SOL    HW138651   0.618   2.259   9.432  0.9221 -1.0026 -2.7128
 9064SOL    HW238652   0.512   2.354   9.391 -0.2421 -0.3442  2.6714
 9065SOL     OW38653   4.645   0.186  14.484  0.4238 -0.2949  0.1994
 9065SOL    HW138654   4.571   0.132  14.457  0.3208 -0.9318  1.7258
 9065SOL    HW238655   4.666   0.235  14.405  1.6690 -1.4433 -0.1654
 9066SOL     OW38656   0.620   2.376   3.792  0.3587 -0.4401 -0.0766
 9066SOL    HW138657   0.546   2.357   3.850 -0.5271 -0.6181 -1.2852
 9066SOL    HW238658   0.579   2.400   3.709 -1.7120 -0.6331  0.8993
 9067SOL     OW38659   3.927   0.137   4.801  0.0893 -0.5711 -0.0521
 9067SOL    HW138660   3.911   0.072   4.732  0.6250 -0.0586 -0.6630
 9067SOL    HW238661   3.899   0.213   4.750 -4.3713 -1.4451  1.0780
 9068SOL     OW38662   1.336   3.155   9.933  0.4324 -0.5397  0.1854
 9068SOL    HW138663   1.344   3.082   9.871 -0.0585 -0.3550 -0.0982
 9068SOL    HW238664   1.353   3.113  10.017  0.0387  1.1654  1.1243
 9069SOL     OW38665   4.682   2.198   4.421  0.2943  0.0895 -0.2236
 9069SOL    HW138666   0.021   2.179   4.353 -0.0899 -2.2518  0.0420
 9069SOL    HW238667   4.701   2.291   4.429 -0.4587  0.2566 -0.3972
 9070SOL     OW38668   1.673   4.610  16.317 -0.3312 -1.0430 -0.5119
 9070SOL    HW138669   1.750   4.655  16.281  1.8620 -3.7366  0.8492
 9070SOL    HW238670   1.705   4.520  16.319 -0.3006 -0.9951  0.7529
 9071SOL     OW38671   1.492   2.875   7.158  0.5681  0.0951 -0.0645
 9071SOL    HW138672   1.554   2.852   7.088  0.2279 -0.8340 -0.0620
 9071SOL    HW238673   1.538   2.849   7.238  0.2114 -0.4566 -0.0450
 9072SOL     OW38674   0.479   0.043  14.012 -0.3901 -0.2595 -0.0597
 9072SOL    HW138675   0.566   0.060  13.975 -0.2694  0.7420  0.6814
 9072SOL    HW238676   0.443   0.131  14.022  1.8857  0.4882  1.5454
 9073SOL     OW38677   3.780   4.676  10.376  0.0741  0.8205  0.5436
 9073SOL    HW138678   3.779   4.659  10.470 -3.1950 -1.8959  0.0631
 9073SOL    HW238679   3.872   4.697  10.363  0.0824 -0.2894 -1.2802
 9074SOL     OW38680   2.170   2.350   5.597 -0.1756 -0.3659  0.1292
 9074SOL    HW138681   2.163   2.444   5.614  0.7531 -0.3029  0.1275
 9074SOL    HW238682   2.083   2.326   5.565 -0.3750 -1.5835  1.5438
 9075SOL     OW38683   3.271   0.201   3.723  0.4388 -0.0358  0.4335
 9075SOL    HW138684   3.243   0.165   3.639  0.0388 -0.7232  0.8670
 9075SOL    HW238685   3.209   0.274   3.724  0.8430  0.3139  0.4822
 9076SOL     OW38686   1.050   3.629   5.752  0.4881 -0.4560 -0.1297
 9076SOL    HW138687   0.958   3.633   5.727  0.1002 -3.0388  0.9500
 9076SOL    HW238688   1.047   3.628   5.847 -0.9973 -0.5570 -0.1789
 9077SOL     OW38689   1.980   0.568   9.299  0.6817  0.0711 -0.2736
 9077SOL    HW138690   1.920   0.516   9.352  1.3696  0.7323  1.1556
 9077SOL    HW238691   2.017   0.626   9.365  0.5953  0.7876 -0.8588
 9078SOL     OW38692   2.116   1.348  12.364  0.1086  0.1826  0.4959
 9078SOL    HW138693   2.075   1.429  12.395 -0.3155  0.4765 -0.8457
 9078SOL    HW238694   2.150   1.386  12.283 -1.8535 -2.8684 -1.7354
 9079SOL     OW38695   2.162   0.566   3.215 -0.0460 -0.5147  0.6099
 9079SOL    HW138696   2.199   0.565   3.127  0.4666  0.4437  0.8175
 9079SOL    HW238697   2.099   0.637   3.206 -1.6267 -2.2936 -2.2880
 9080SOL     OW38698   4.052   0.155   6.874 -0.7635  0.0785 -0.0904
 9080SOL    HW138699   4.010   0.113   6.798  1.0122  0.8602 -1.4952
 9080SOL    HW238700   4.129   0.194   6.833  0.1367 -1.8367 -0.2397
 9081SOL     OW38701   3.896   1.845   0.468  0.0208  0.0120  0.5361
 9081SOL    HW138702   3.878   1.792   0.391  0.8706  1.4392 -0.6443
 9081SOL    HW238703   3.835   1.801   0.528  0.6085 -0.5555  0.7165
 9082SOL     OW38704   0.208   4.219   9.621 -0.3554 -0.5726 -0.0322
 9082SOL    HW138705   0.291   4.262   9.644 -1.2964  1.8233 -1.0477
 9082SOL    HW238706   0.170   4.229   9.708 -1.5482  2.7078 -0.8992
 9083SOL     OW38707   1.387   0.454   2.021 -0.2868 -0.5035  0.2390
 9083SOL    HW138708   1.357   0.364   2.030 -1.1726  0.0841  3.2162
 9083SOL    HW238709   1.410   0.461   1.928  0.0593 -2.3138  0.1924
 9084SOL     OW38710   0.365   3.928   7.023 -0.1662  0.3821 -0.0483
 9084SOL    HW138711   0.358   3.993   7.092 -1.7642 -1.4557  1.5183
 9084SOL    HW238712   0.459   3.940   7.010  0.1079 -0.6783  0.9826
 9085SOL     OW38713   4.251   1.631  17.187 -0.2183  0.1498 -0.1101
 9085SOL    HW138714   4.220   1.599  17.103 -1.9536 -0.5449  0.8081
 9085SOL    HW238715   4.172   1.623  17.240  0.4591  0.9143  1.0027
 9086SOL     OW38716   1.199   1.555  12.668  0.2894  0.2269  0.3888
 9086SOL    HW138717   1.141   1.499  12.719  1.7028 -2.3079 -0.7820
 9086SOL    HW238718   1.272   1.561  12.728  0.1358 -1.8688  0.7966
 9087SOL     OW38719   0.090   4.464   3.743 -0.2591  0.1776  0.3074
 9087SOL    HW138720   0.029   4.537   3.737 -0.2583  0.1267 -0.3981
 9087SOL    HW238721   0.154   4.485   3.674 -0.8564 -0.4401 -0.4420
 9088SOL     OW38722   1.908   0.765   6.180  0.4559  0.3965  0.1901
 9088SOL    HW138723   1.878   0.679   6.149 -0.6182  1.0002 -0.4235
 9088SOL    HW238724   1.989   0.780   6.130  0.0174  2.1973  0.0190
 9089SOL     OW38725   4.542   0.575   0.340 -0.5537 -0.1337 -0.1701
 9089SOL    HW138726   4.634   0.591   0.359 -0.9809  3.2429 -1.0174
 9089SOL    HW238727   4.539   0.630   0.262 -4.0684  0.0028  0.0617
 9090SOL     OW38728   0.974   4.720   9.568  0.1236  0.1021 -0.8027
 9090SOL    HW138729   0.957   4.701   9.476  0.8709 -3.3802 -0.1978
 9090SOL    HW238730   0.897   4.679   9.608  0.9384  0.1042  0.7760
 9091SOL     OW38731   1.284   2.472  16.561 -0.5223 -0.2874  0.1099
 9091SOL    HW138732   1.225   2.511  16.496  0.1638 -1.2929 -1.0814
 9091SOL    HW238733   1.236   2.475  16.644  1.7558 -0.2253  1.4260
 9092SOL     OW38734   0.086   4.485  13.851 -0.5822 -0.7985 -0.4769
 9092SOL    HW138735   0.138   4.495  13.771 -2.1447  0.1538 -1.3886
 9092SOL    HW238736   0.030   4.562  13.839  0.3207  0.2617  2.1401
 9093SOL     OW38737   4.114   1.512   6.239  0.2284  0.0726  0.2205
 9093SOL    HW138738   4.184   1.562   6.282  0.6145  1.8413 -2.4286
 9093SOL    HW238739   4.054   1.583   6.214  1.3558  0.9446 -0.0122
 9094SOL     OW38740   3.900   4.451   1.295 -0.3951 -0.1974 -0.2290
 9094SOL    HW138741   3.926   4.374   1.346  0.1687  1.6639  2.2969
 9094SOL    HW238742   3.844   4.422   1.222 -1.5811  1.6212 -0.0397
 9095SOL     OW38743   4.052   0.675   7.925  0.9601  0.0710 -0.5683
 9095SOL    HW138744   4.070   0.581   7.918  2.1107  0.2307  0.3730
 9095SOL    HW238745   4.126   0.710   7.876  1.2801 -0.4460 -0.4543
 9096SOL     OW38746   2.860   2.925   2.278 -0.0776 -0.0393 -0.2185
 9096SOL    HW138747   2.793   2.862   2.301 -0.0508  0.1491  0.3826
 9096SOL    HW238748   2.912   2.889   2.206 -0.0566 -0.9088  0.2320
 9097SOL     OW38749   0.692   1.889  16.313  0.2252  0.2687 -0.4838
 9097SOL    HW138750   0.650   1.971  16.338  0.3766  0.5722 -1.2016
 9097SOL    HW238751   0.627   1.829  16.349  0.6142 -0.3580 -0.8247
 9098SOL     OW38752   3.904   3.723   3.043  0.3177 -0.3020  0.4068
 9098SOL    HW138753   3.811   3.739   3.024 -0.0342 -1.9202  0.7444
 9098SOL    HW238754   3.905   3.628   3.036 -0.4905 -0.3009  0.2569
 9099SOL     OW38755   3.931   4.040   8.802 -0.9897  0.2837 -0.0179
 9099SOL    HW138756   3.984   3.995   8.869  1.6928  0.3162 -2.1291
 9099SOL    HW238757   3.849   4.053   8.849 -0.2830 -1.6502  1.8094
 9100SOL     OW38758   0.452   2.138  13.761 -0.5016 -0.0981 -0.2601
 9100SOL    HW138759   0.360   2.166  13.761 -1.0817 -2.0102 -0.9564
 9100SOL    HW238760   0.470   2.128  13.667  0.9273 -3.4761  0.3929
 9101SOL     OW38761   2.140   1.568   2.245 -0.5006 -0.6419  0.0488
 9101SOL    HW138762   2.141   1.610   2.159  0.9117  2.0832  1.4000
 9101SOL    HW238763   2.064   1.510   2.242  0.4511 -1.8530 -0.7133
 9102SOL     OW38764   4.289   1.944   9.083 -0.0426  0.0867 -0.8424
 9102SOL    HW138765   4.268   2.032   9.053 -1.7286 -0.4667 -1.3295
 9102SOL    HW238766   4.207   1.897   9.063  0.9855 -2.5945  1.2954
 9103SOL     OW38767   2.327   1.850   6.585 -0.5637 -0.3282 -0.2690
 9103SOL    HW138768   2.329   1.782   6.652  3.5354 -0.1428 -0.1863
 9103SOL    HW238769   2.258   1.909   6.614 -2.4574 -2.3517 -0.6868
 9104SOL     OW38770   2.273   0.237   5.714 -0.2444 -0.6094 -0.3384
 9104SOL    HW138771   2.224   0.299   5.660  2.9203  0.6176 -1.8737
 9104SOL    HW238772   2.210   0.229   5.786 -1.1824  1.0991 -0.9672
 9105SOL     OW38773   4.058   1.609   9.440  0.3717 -0.3901 -0.2957
 9105SOL    HW138774   4.118   1.574   9.506  1.3443  0.5896 -0.6675
 9105SOL    HW238775   4.119   1.649   9.378  0.5182 -0.0573  0.0574
 9106SOL     OW38776   2.060   1.724  17.219  0.4004 -0.0975 -0.3394
 9106SOL    HW138777   2.025   1.669  17.149 -2.6817 -0.3811  1.4338
 9106SOL    HW238778   2.133   1.669  17.247  1.0842 -0.9029 -3.7470
 9107SOL     OW38779   3.508   1.194  17.260  0.0174 -0.0679  0.8038
 9107SOL    HW138780   3.451   1.271  17.259 -1.2111 -0.9940 -1.6235
 9107SOL    HW238781   3.527   1.181  17.167 -2.1087  0.2109  0.3411
 9108SOL     OW38782   3.300   3.348   5.081  0.5574  0.4950 -0.2416
 9108SOL    HW138783   3.381   3.322   5.124 -0.7391  3.8130  4.2246
 9108SOL    HW238784   3.295   3.440   5.107  0.4806  0.8613 -1.5691
 9109SOL     OW38785   2.604   1.535   2.549 -0.2475  0.0397  0.8578
 9109SOL    HW138786   2.622   1.545   2.456  0.0030  0.0665  0.9093
 9109SOL    HW238787   2.688   1.554   2.590 -0.8755 -0.3112  2.2999
 9110SOL     OW38788   3.506   0.604   0.659 -0.5182 -0.9936  0.3639
 9110SOL    HW138789   3.535   0.573   0.574  0.9730 -1.1498  0.9326
 9110SOL    HW238790   3.559   0.683   0.667 -2.4801  0.1738  1.8066
 9111SOL     OW38791   0.216   3.381   8.158 -0.2016 -0.1274  0.5007
 9111SOL    HW138792   0.300   3.343   8.182  0.1264 -0.0074 -0.4364
 9111SOL    HW238793   0.153   3.310   8.170  1.6021 -1.7096  0.5513
 9112SOL     OW38794   4.664   1.557   5.645  0.2128  0.1049  0.6329
 9112SOL    HW138795   4.644   1.633   5.700  0.1320  0.3961  0.2012
 9112SOL    HW238796   0.023   1.590   5.616  0.1763 -0.9097 -0.6423
 9113SOL     OW38797   0.525   4.666  12.572 -0.2380  0.0410  0.4020
 9113SOL    HW138798   0.604   4.687  12.521  0.0057  0.1992  0.8459
 9113SOL    HW238799   0.458   4.708  12.519 -0.9279 -1.5225  0.0360
 9114SOL     OW38800   3.043   1.758   7.013  0.6608 -0.1688  0.0135
 9114SOL    HW138801   3.049   1.832   6.953 -0.5457 -1.7868 -2.1189
 9114SOL    HW238802   2.968   1.790   7.063  0.6949 -1.4763  0.8903
 9115SOL     OW38803   2.725   1.412  10.142  0.8973  0.1444 -0.5565
 9115SOL    HW138804   2.630   1.415  10.156  0.7399 -0.5560 -1.4626
 9115SOL    HW238805   2.759   1.410  10.232  0.0024 -3.8694 -0.2965
 9116SOL     OW38806   0.140   1.494  13.476 -0.4013 -0.4430 -0.7238
 9116SOL    HW138807   0.070   1.555  13.454 -1.0125  0.4204  3.6267
 9116SOL    HW238808   0.091   1.451  13.546  0.6541 -1.7993 -0.8174
 9117SOL     OW38809   4.200   0.482   2.754 -0.3337  0.1418 -0.3855
 9117SOL    HW138810   4.292   0.460   2.741 -1.0508 -2.5596 -1.0652
 9117SOL    HW238811   4.160   0.396   2.740 -0.9121  0.3612 -0.0741
 9118SOL     OW38812   0.238   0.276   9.243 -0.5519  0.0383 -0.3435
 9118SOL    HW138813   0.215   0.194   9.286  2.0709 -0.7209 -0.4176
 9118SOL    HW238814   0.325   0.255   9.209 -0.1391  1.2766 -0.0618
 9119SOL     OW38815   1.580   4.573   7.566 -0.3167 -0.0624 -0.1829
 9119SOL    HW138816   1.510   4.518   7.529  1.0393 -1.7895 -0.1904
 9119SOL    HW238817   1.603   4.516   7.639  1.4010  0.5588 -0.2365
 9120SOL     OW38818   3.190   1.667  16.258  0.2029  0.0197  0.2392
 9120SOL    HW138819   3.167   1.737  16.198 -0.6228 -0.9850 -0.6096
 9120SOL    HW238820   3.255   1.619  16.207  1.1257  0.6786  0.8060
 9121SOL     OW38821   1.028   3.648  11.323 -0.6804 -0.7650 -0.6487
 9121SOL    HW138822   1.114   3.644  11.280 -0.1236 -0.9525  0.4863
 9121SOL    HW238823   1.054   3.679  11.410 -2.0941 -1.1155 -0.1096
 9122SOL     OW38824   4.253   0.487   1.141 -0.2270 -0.2309 -0.0936
 9122SOL    HW138825   4.334   0.440   1.118 -0.3020 -0.0113 -0.7792
 9122SOL    HW238826   4.289   0.549   1.204  0.5145 -0.2281 -0.5191
 9123SOL     OW38827   1.023   3.526   1.762  0.1223  0.0923  0.1030
 9123SOL    HW138828   1.037   3.618   1.785  1.8728  0.5906 -2.9687
 9123SOL    HW238829   1.011   3.487   1.848 -0.0308 -1.4277 -0.6193
 9124SOL     OW38830   0.840   0.211  12.512 -0.5517 -0.3164 -0.0634
 9124SOL    HW138831   0.813   0.178  12.599 -0.4387 -1.8523 -0.6039
 9124SOL    HW238832   0.874   0.296  12.536 -1.2785  0.1422 -0.6556
 9125SOL     OW38833   0.507   0.678   4.742 -0.0517 -0.3843  0.0420
 9125SOL    HW138834   0.452   0.626   4.683  0.6429 -0.4195 -0.5858
 9125SOL    HW238835   0.479   0.767   4.724 -0.0225 -0.6441 -1.3011
 9126SOL     OW38836   0.893   1.119   2.225  0.1426  0.3782 -0.1631
 9126SOL    HW138837   0.967   1.081   2.273 -0.4033 -1.5224 -0.8543
 9126SOL    HW238838   0.939   1.164   2.154 -1.5904  0.6320 -1.1208
 9127SOL     OW38839   4.205   4.114  16.574 -0.3626  0.0792  0.1174
 9127SOL    HW138840   4.280   4.149  16.622 -1.4355  2.3292  0.1435
 9127SOL    HW238841   4.174   4.196  16.536 -1.2841  0.3563  1.4424
 9128SOL     OW38842   3.189   2.118   1.913 -0.1254  0.2915  0.0898
 9128SOL    HW138843   3.267   2.164   1.944  0.7396 -0.6144 -0.7465
 9128SOL    HW238844   3.114   2.176   1.921 -0.9651 -1.2366  3.2022
 9129SOL     OW38845   3.535   4.440   0.285 -0.0774  0.2389 -0.2273
 9129SOL    HW138846   3.619   4.409   0.250  0.6939  1.3626  0.6350
 9129SOL    HW238847   3.553   4.533   0.293 -0.7994  0.4660 -1.1853
 9130SOL     OW38848   3.682   1.671   4.694  0.6515  0.3973 -0.1106
 9130SOL    HW138849   3.742   1.680   4.620  0.6807  0.2781 -0.1013
 9130SOL    HW238850   3.615   1.734   4.671  0.0513  0.4149  1.7205
 9131SOL     OW38851   1.517   3.865   7.146 -0.4911 -0.8713  0.1168
 9131SOL    HW138852   1.611   3.875   7.156 -0.6902 -0.5798  1.6993
 9131SOL    HW238853   1.491   3.913   7.068  1.3652 -1.7264 -1.0134
 9132SOL     OW38854   3.082   0.199  13.127  0.3984 -0.1313  0.3448
 9132SOL    HW138855   3.025   0.260  13.174  1.5679  1.4168 -0.2532
 9132SOL    HW238856   3.137   0.262  13.080 -1.6039  0.9178 -0.6115
 9133SOL     OW38857   2.404   0.879   4.272 -0.3947 -0.1701  0.0088
 9133SOL    HW138858   2.493   0.872   4.305  0.1948  1.4337 -1.2674
 9133SOL    HW238859   2.370   0.790   4.285 -1.7531  0.5737  1.5617
 9134SOL     OW38860   0.760   2.626   8.819  0.2873  0.2892 -0.5734
 9134SOL    HW138861   0.797   2.539   8.807  2.5788  1.3391 -0.9902
 9134SOL    HW238862   0.748   2.629   8.914 -3.6165 -0.2085 -1.0357
 9135SOL     OW38863   2.488   1.629   6.510 -0.2308  0.0330  0.0854
 9135SOL    HW138864   2.409   1.578   6.501 -1.9195  3.1463 -2.6392
 9135SOL    HW238865   2.453   1.716   6.529  2.8022  1.8053 -2.5124
 9136SOL     OW38866   1.982   1.581  17.535 -0.0592 -0.1522 -0.6535
 9136SOL    HW138867   1.923   1.591  17.610  0.9338 -1.1984  0.2673
 9136SOL    HW238868   2.035   1.659  17.550  0.0322  0.4105 -3.8473
 9137SOL     OW38869   1.932   2.257   7.224  0.2372  0.5559  0.3144
 9137SOL    HW138870   1.857   2.200   7.238  0.2934  0.2742 -0.5239
 9137SOL    HW238871   1.926   2.268   7.129 -1.0810  1.1553  0.4700
 9138SOL     OW38872   2.090   3.065   3.855 -0.2492  0.0494  0.6782
 9138SOL    HW138873   2.079   3.096   3.944  1.4522 -1.8375  1.5577
 9138SOL    HW238874   2.174   3.106   3.833 -1.0919  1.5585  0.3498
 9139SOL     OW38875   4.269   1.332   9.409 -0.0438 -0.0354  0.1411
 9139SOL    HW138876   4.289   1.253   9.459 -0.9425  1.2181  2.4772
 9139SOL    HW238877   4.282   1.401   9.475  1.0223 -1.9215  1.8869
 9140SOL     OW38878   0.585   2.247   0.396 -0.4627  0.2944  0.6553
 9140SOL    HW138879   0.632   2.164   0.396  2.0313  1.6653 -1.3478
 9140SOL    HW238880   0.536   2.241   0.477 -2.8834  1.2973 -0.7228
 9141SOL     OW38881   2.486   1.518   5.889 -0.1000  0.4622  0.1966
 9141SOL    HW138882   2.515   1.487   5.975  2.0585 -2.5099 -1.5947
 9141SOL    HW238883   2.466   1.609   5.908  1.2471  1.0346 -1.0939
 9142SOL     OW38884   0.351   4.399  13.537  0.1385 -0.4376  0.4240
 9142SOL    HW138885   0.418   4.467  13.527 -1.7170  1.2894 -0.4348
 9142SOL    HW238886   0.344   4.358  13.451  0.2087  2.1476 -0.8220
 9143SOL     OW38887   2.463   3.095   4.220 -0.0444  0.6429  0.1035
 9143SOL    HW138888   2.415   3.168   4.181 -0.8814  0.1733  0.2478
 9143SOL    HW238889   2.435   3.022   4.164  0.0567  0.7390 -0.0752
 9144SOL     OW38890   0.389   1.373   3.575  0.4319 -0.6639 -0.0551
 9144SOL    HW138891   0.370   1.400   3.665 -2.9302 -1.4617 -0.5092
 9144SOL    HW238892   0.349   1.440   3.520  0.0480 -0.1718  0.8218
 9145SOL     OW38893   1.186   0.678  11.828 -0.1101  0.4359  0.0569
 9145SOL    HW138894   1.108   0.631  11.857 -0.8455  0.3820 -1.9770
 9145SOL    HW238895   1.251   0.627  11.877 -2.0385 -1.7695  0.3502
 9146SOL     OW38896   4.098   3.493   7.889  0.0463 -0.1587  0.2319
 9146SOL    HW138897   4.168   3.437   7.921  0.2747 -0.6077 -1.0461
 9146SOL    HW238898   4.023   3.448   7.928  0.3702 -0.3707  0.6062
 9147SOL     OW38899   0.734   1.604   4.463 -0.0696 -0.1161 -0.3762
 9147SOL    HW138900   0.741   1.565   4.375 -2.1455 -0.2443 -0.4677
 9147SOL    HW238901   0.676   1.679   4.450 -1.0737 -0.9145 -0.4705
 9148SOL     OW38902   3.062   1.241   1.644  0.9730  0.2151 -0.0845
 9148SOL    HW138903   3.029   1.307   1.582 -0.3322 -0.7269 -0.3855
 9148SOL    HW238904   3.150   1.274   1.663  0.9463 -0.9623  2.0724
 9149SOL     OW38905   1.222   3.696   9.400 -0.3242  0.3793  0.4642
 9149SOL    HW138906   1.238   3.786   9.428 -1.6389  0.6263  0.4443
 9149SOL    HW238907   1.127   3.699   9.386 -0.5182 -0.8301  1.5095
 9150SOL     OW38908   4.407   1.194   4.777  0.2749  0.1357 -0.1258
 9150SOL    HW138909   4.458   1.189   4.857 -0.7605 -1.1074  0.4600
 9150SOL    HW238910   4.336   1.135   4.802 -2.3037  2.8458 -1.0167
 9151SOL     OW38911   3.051   4.341   2.279 -0.5438  0.4664  0.3206
 9151SOL    HW138912   3.031   4.272   2.215  1.8969  0.4510 -0.4173
 9151SOL    HW238913   2.975   4.328   2.336 -0.6438  2.0507  0.5327
 9152SOL     OW38914   4.469   0.210   5.699  0.0396  0.0825 -0.2654
 9152SOL    HW138915   4.408   0.148   5.659 -0.9146 -0.2961  1.7578
 9152SOL    HW238916   4.421   0.256   5.768  0.4756  0.2607 -0.0818
 9153SOL     OW38917   1.229   2.954   4.007  0.2269  0.2823  0.3511
 9153SOL    HW138918   1.188   2.970   4.092 -0.3655  0.8374 -0.0436
 9153SOL    HW238919   1.155   2.903   3.974  0.5229  0.4371 -0.5503
 9154SOL     OW38920   1.741   3.738   6.084 -0.9938 -0.2760  0.1437
 9154SOL    HW138921   1.654   3.725   6.045  0.3107  0.1223 -2.9001
 9154SOL    HW238922   1.727   3.827   6.117 -1.3749 -0.6209  0.9186
 9155SOL     OW38923   2.930   4.041   2.847 -0.5684 -0.4557  0.5942
 9155SOL    HW138924   2.903   3.999   2.765 -3.3634  1.0445  0.7171
 9155SOL    HW238925   3.025   4.030   2.843 -0.2335  2.1167  1.8906
 9156SOL     OW38926   3.583   3.343   1.859  0.0369  0.0809  0.9990
 9156SOL    HW138927   3.659   3.350   1.917 -0.8365 -0.0092  2.1539
 9156SOL    HW238928   3.588   3.253   1.828 -1.2745  0.7321 -1.1300
 9157SOL     OW38929   3.218   3.887  10.951  0.1661 -0.5206 -0.0846
 9157SOL    HW138930   3.244   3.891  10.859 -2.1068  1.0949 -0.6588
 9157SOL    HW238931   3.294   3.933  10.986 -1.0004  0.1521  1.5835
 9158SOL     OW38932   1.890   0.009  16.139  0.3772  0.0479  0.1075
 9158SOL    HW138933   1.809   0.017  16.089 -1.1722 -3.0836  2.1781
 9158SOL    HW238934   1.944   0.075  16.095  0.0430 -1.2738 -2.2386
 9159SOL     OW38935   1.653   0.035   4.386 -0.3785  0.0379  0.0501
 9159SOL    HW138936   1.648   0.018   4.480  0.2321  2.2478  0.4830
 9159SOL    HW238937   1.687   4.675   4.358 -0.0863 -0.2507  1.2434
 9160SOL     OW38938   0.767   0.132   1.744  0.1191 -0.1628  0.0921
 9160SOL    HW138939   0.754   0.068   1.674 -0.5569 -0.0644  0.1282
 9160SOL    HW238940   0.847   0.094   1.781  0.3342 -0.2840 -0.4979
 9161SOL     OW38941   2.234   3.633   5.188 -0.1880  0.3672 -0.5120
 9161SOL    HW138942   2.294   3.566   5.152  0.3457  1.6541 -2.0123
 9161SOL    HW238943   2.297   3.703   5.207 -0.0848 -0.0649  0.7351
 9162SOL     OW38944   3.267   0.106   4.765 -0.3600 -0.5555  0.2053
 9162SOL    HW138945   3.254   0.199   4.747 -3.0600 -0.9773 -0.0956
 9162SOL    HW238946   3.316   0.085   4.685 -0.4064  1.3660 -0.3242
 9163SOL     OW38947   4.028   2.253   3.181 -0.1423  0.2207 -0.4622
 9163SOL    HW138948   4.097   2.278   3.243  0.8382  0.2351 -1.5559
 9163SOL    HW238949   3.953   2.268   3.238 -0.1213 -1.8942  0.1164
 9164SOL     OW38950   3.416   0.305  17.436  0.1324  0.1751 -0.1519
 9164SOL    HW138951   3.381   0.385  17.474 -0.3102 -0.2288  0.2920
 9164SOL    HW238952   3.490   0.272  17.488 -1.8277 -0.8723  1.9625
 9165SOL     OW38953   0.379   3.206   4.180 -0.0820 -0.2148  0.2953
 9165SOL    HW138954   0.462   3.231   4.221 -1.1739  1.7601  1.3013
 9165SOL    HW238955   0.379   3.115   4.210  1.7750 -0.5288 -0.6502
 9166SOL     OW38956   0.692   1.562   4.037  0.6471  0.3752 -0.1645
 9166SOL    HW138957   0.599   1.581   4.033  0.5221  0.1150  1.6941
 9166SOL    HW238958   0.729   1.610   4.110 -0.0328 -0.0504  0.4587
 9167SOL     OW38959   4.668   3.012   9.384 -0.1079  0.5486  0.5524
 9167SOL    HW138960   4.704   3.001   9.296 -1.1748 -1.8471  0.4267
 9167SOL    HW238961   4.620   3.093   9.367 -1.3292 -0.6483 -1.5711
 9168SOL     OW38962   3.009   4.208   1.658  0.1702 -0.1713  0.0706
 9168SOL    HW138963   3.101   4.229   1.644  0.5158 -0.5256  1.7896
 9168SOL    HW238964   2.985   4.282   1.713 -0.7105  0.4780 -1.1719
 9169SOL     OW38965   3.617   1.198   5.009  0.7659  0.0812  0.2269
 9169SOL    HW138966   3.669   1.245   4.944  1.5730 -2.9462 -1.3276
 9169SOL    HW238967   3.677   1.128   5.033 -0.7127 -1.0365  0.7321
 9170SOL     OW38968   0.343   2.082   5.929 -0.3908 -0.2893 -0.4405
 9170SOL    HW138969   0.413   2.018   5.913  0.9427  0.9789  0.3403
 9170SOL    HW238970   0.384   2.139   5.993  1.8881  0.9087 -2.9427
 9171SOL     OW38971   2.780   0.179   1.389 -0.1991  0.6677  0.2051
 9171SOL    HW138972   2.835   0.204   1.463  0.1996  0.4101 -0.0011
 9171SOL    HW238973   2.846   0.149   1.325  3.4024  0.3016  4.0945
 9172SOL     OW38974   3.708   2.466   8.587  0.4041 -0.2692 -0.2463
 9172SOL    HW138975   3.660   2.492   8.509  0.8152  2.4163  0.3841
 9172SOL    HW238976   3.781   2.527   8.596  0.2378 -0.2348  0.8673
 9173SOL     OW38977   3.533   2.779  10.549 -0.1979  0.1634 -0.1430
 9173SOL    HW138978   3.444   2.758  10.522  0.0480 -0.6426 -0.3304
 9173SOL    HW238979   3.563   2.688  10.561  2.7535  1.0510 -0.6805
 9174SOL     OW38980   2.616   4.709   7.932 -0.1785 -0.6618  0.0919
 9174SOL    HW138981   2.590   4.659   8.010  0.9182 -2.0197 -0.4054
 9174SOL    HW238982   2.710   4.690   7.942 -0.0984 -0.8080 -1.0087
 9175SOL     OW38983   4.088   1.148   8.408 -0.0856 -0.0589  0.2559
 9175SOL    HW138984   4.081   1.054   8.395 -1.8582  0.1899 -0.6983
 9175SOL    HW238985   4.075   1.154   8.503 -1.3315  0.1232  0.0845
 9176SOL     OW38986   2.728   0.893   9.914 -0.4700  0.0949  0.5785
 9176SOL    HW138987   2.686   0.845   9.985 -1.5064 -0.2280 -0.2462
 9176SOL    HW238988   2.777   0.962   9.959  0.5655 -0.9640  1.0779
 9177SOL     OW38989   0.944   4.037   5.913 -0.1670  0.2044 -0.8687
 9177SOL    HW138990   0.936   4.040   5.817 -2.2066 -2.0325 -0.7687
 9177SOL    HW238991   0.851   4.036   5.937 -0.0220  0.6023 -0.2882
 9178SOL     OW38992   3.553   4.220   1.630 -0.2999  0.1757 -0.3808
 9178SOL    HW138993   3.582   4.256   1.714 -2.0235  0.7126 -0.0095
 9178SOL    HW238994   3.612   4.144   1.627 -0.2805  0.1617  0.3563
 9179SOL     OW38995   3.201   2.664   2.660  0.0584  0.4179 -0.0672
 9179SOL    HW138996   3.253   2.741   2.681  0.5914  0.2309 -0.7090
 9179SOL    HW238997   3.188   2.636   2.750  0.5437  1.6144  0.3766
 9180SOL     OW38998   3.772   1.206   2.318  0.1242 -1.2760  0.4150
 9180SOL    HW138999   3.853   1.175   2.278 -0.3804  0.0055 -1.5903
 9180SOL    HW239000   3.777   1.300   2.305 -0.6007 -1.3136 -0.1270
 9181SOL     OW39001   1.049   0.344   5.983  0.0404 -0.9029  0.7400
 9181SOL    HW139002   1.127   0.396   6.005 -0.4225  0.1668 -0.1762
 9181SOL    HW239003   1.082   0.320   5.896 -0.8683  1.6597 -0.3104
 9182SOL     OW39004   2.523   4.189   2.159 -0.0136  0.4207  0.0546
 9182SOL    HW139005   2.463   4.130   2.114  2.2489  0.5882 -3.1697
 9182SOL    HW239006   2.468   4.223   2.230 -0.5391  0.7281 -0.5043
 9183SOL     OW39007   2.671   0.501   5.452  0.0801 -0.3496 -0.3182
 9183SOL    HW139008   2.614   0.502   5.529 -0.7465 -0.7931 -0.9319
 9183SOL    HW239009   2.749   0.474   5.501  0.5114  0.6364 -0.4615
 9184SOL     OW39010   0.106   2.570   6.820  0.1797 -0.0071 -0.1091
 9184SOL    HW139011   0.191   2.588   6.780  0.8039 -0.0710  1.1938
 9184SOL    HW239012   0.135   2.503   6.882  1.6450 -0.7680 -1.5951
 9185SOL     OW39013   3.445   0.637  14.559  0.0416  0.2826 -0.2578
 9185SOL    HW139014   3.484   0.575  14.497 -0.8690 -2.2268  1.6877
 9185SOL    HW239015   3.504   0.709  14.540  0.1817  0.3450  0.4075
 9186SOL     OW39016   0.804   3.179   5.003  0.1705  0.1163  0.2992
 9186SOL    HW139017   0.785   3.260   5.050  1.6606  2.0148 -2.3071
 9186SOL    HW239018   0.866   3.137   5.062 -0.4796 -1.9558 -0.4700
 9187SOL     OW39019   4.284   3.836   7.952  0.3341 -0.4272 -0.7729
 9187SOL    HW139020   4.378   3.847   7.935  0.4858  1.1621  1.0180
 9187SOL    HW239021   4.289   3.777   8.027 -0.5492 -1.0958 -1.2551
 9188SOL     OW39022   2.632   0.074   1.136  0.5052 -0.4852 -0.0815
 9188SOL    HW139023   2.552   0.104   1.093  2.1207  0.9685 -2.0306
 9188SOL    HW239024   2.662   4.725   1.083  1.2167 -0.0214 -0.3370
 9189SOL     OW39025   2.444   0.551   4.881 -0.4844 -0.5051  0.4095
 9189SOL    HW139026   2.349   0.540   4.872 -0.4924 -0.8763  0.9583
 9189SOL    HW239027   2.441   0.638   4.841 -1.2034 -1.0367 -0.6900
 9190SOL     OW39028   0.897   2.595   6.920  0.4313  0.0796  0.7331
 9190SOL    HW139029   0.858   2.641   6.994 -1.7786 -1.6585  0.6846
 9190SOL    HW239030   0.985   2.585   6.955  1.0685  0.9285 -0.6264
 9191SOL     OW39031   0.011   4.687   2.464  0.0387 -0.5797  0.6478
 9191SOL    HW139032   0.014   4.629   2.387  1.7232 -1.4116  1.3435
 9191SOL    HW239033   4.714   0.041   2.417 -2.2583 -1.3749  0.3908
 9192SOL     OW39034   3.630   1.290   4.183 -0.1156  0.1965 -0.3632
 9192SOL    HW139035   3.684   1.252   4.252  1.2976  0.1729 -1.4911
 9192SOL    HW239036   3.546   1.257   4.217 -0.6827  2.1334  0.1041
 9193SOL     OW39037   0.741   1.057  17.187  0.1363  0.2745 -0.1257
 9193SOL    HW139038   0.771   1.137  17.231  0.4555 -0.1494  0.4287
 9193SOL    HW239039   0.808   1.046  17.120 -0.2032 -2.4901  0.0097
 9194SOL     OW39040   4.264   0.713  11.154  0.2783 -0.0657  0.3206
 9194SOL    HW139041   4.198   0.782  11.159 -0.4382 -0.7183 -0.1628
 9194SOL    HW239042   4.234   0.671  11.073  1.5596  1.9389 -1.1693
 9195SOL     OW39043   0.260   3.694   7.729  1.0381  0.3480 -0.3743
 9195SOL    HW139044   0.177   3.724   7.765  1.7754  2.0134 -0.0899
 9195SOL    HW239045   0.291   3.646   7.806  1.6692  1.0932 -0.1614
 9196SOL     OW39046   4.449   1.216   9.596  0.2056 -0.0897 -0.1485
 9196SOL    HW139047   4.478   1.269   9.670  2.4865  0.4222 -1.4460
 9196SOL    HW239048   4.394   1.160   9.652 -0.4461  0.8400  0.1376
 9197SOL     OW39049   2.612   4.026   3.244  0.4981  0.1884  0.1607
 9197SOL    HW139050   2.518   4.044   3.245  0.4784  0.0658  0.4606
 9197SOL    HW239051   2.640   4.095   3.305  1.7674  0.0703 -0.2999
 9198SOL     OW39052   2.270   1.810   2.693 -0.0210 -0.3386  0.2364
 9198SOL    HW139053   2.192   1.864   2.681 -1.4753 -1.9222  2.2846
 9198SOL    HW239054   2.296   1.792   2.603 -2.3235 -1.3120 -0.2405
 9199SOL     OW39055   0.060   3.452   6.690  0.3771  0.1801 -0.1064
 9199SOL    HW139056   4.705   3.402   6.699 -1.3554  3.3001  1.6503
 9199SOL    HW239057   0.026   3.540   6.674  1.0205  0.4376 -0.0695
 9200SOL     OW39058   3.630   3.961   5.525  0.6776  0.4510  0.2965
 9200SOL    HW139059   3.638   3.886   5.584 -2.1786 -0.8002 -0.9315
 9200SOL    HW239060   3.593   3.919   5.448 -0.7794  0.9646  0.7343
 9201SOL     OW39061   0.020   1.857   0.073  0.0388 -0.3280  0.2444
 9201SOL    HW139062   4.714   1.782   0.021 -0.9051  1.3350 -1.5622
 9201SOL    HW239063   4.664   1.906   0.073 -0.0789 -0.5356  1.6951
 9202SOL     OW39064   1.613   3.617   5.435  0.8214  0.0187  0.5970
 9202SOL    HW139065   1.536   3.674   5.433  0.7861 -0.0415  0.2781
 9202SOL    HW239066   1.634   3.623   5.529 -0.2995  0.2202  0.8295
 9203SOL     OW39067   2.329   2.112   7.055  0.3415  0.3579  0.0134
 9203SOL    HW139068   2.256   2.102   6.993 -0.2115 -2.7367  1.1632
 9203SOL    HW239069   2.280   2.122   7.136  0.8436 -1.5103  0.5576
 9204SOL     OW39070   3.127   2.994  13.011 -0.0791  0.0158  0.0868
 9204SOL    HW139071   3.079   3.051  12.950 -1.6583 -1.8134 -0.3720
 9204SOL    HW239072   3.205   3.048  13.019  1.4850 -1.6275 -3.7161
 9205SOL     OW39073   0.632   4.075   6.610 -0.6997 -0.4855 -0.1384
 9205SOL    HW139074   0.559   4.083   6.671  1.5763 -0.0512  2.4934
 9205SOL    HW239075   0.705   4.071   6.672 -0.6826 -3.1201 -0.3394
 9206SOL     OW39076   4.303   4.047   7.106  0.4580  0.5179  0.2208
 9206SOL    HW139077   4.351   4.125   7.077  1.7199 -0.3215  0.0239
 9206SOL    HW239078   4.225   4.096   7.129 -0.1930 -0.7850  0.8029
 9207SOL     OW39079   3.436   0.991   6.211 -0.4466  0.0359  0.8278
 9207SOL    HW139080   3.409   1.083   6.214  0.1884  0.2877 -0.7856
 9207SOL    HW239081   3.525   0.996   6.176 -0.5313  0.4669  0.6775
 9208SOL     OW39082   4.518   1.843   4.625 -0.0011 -0.1919  0.9250
 9208SOL    HW139083   4.484   1.926   4.658  1.6563  1.1862 -0.8744
 9208SOL    HW239084   4.570   1.877   4.553 -0.4835 -0.2887  0.5344
 9209SOL     OW39085   2.374   1.729   3.768 -0.2271  0.6432 -0.2466
 9209SOL    HW139086   2.411   1.642   3.753 -2.8418 -0.5247  0.1454
 9209SOL    HW239087   2.395   1.764   3.681 -0.2658  0.6598 -0.2489
 9210SOL     OW39088   2.287   2.946  14.820  0.1791  0.4886 -0.2500
 9210SOL    HW139089   2.210   2.889  14.824 -1.0279  2.0237 -1.6840
 9210SOL    HW239090   2.306   2.940  14.726  0.4065  3.5970 -0.4110
 9211SOL     OW39091   2.975   0.279   3.974 -0.0094 -0.2854  0.5632
 9211SOL    HW139092   2.920   0.218   4.023 -0.6113  0.2370  0.5206
 9211SOL    HW239093   2.923   0.286   3.894  0.3228  1.7351  0.5193
 9212SOL     OW39094   1.118   4.676  16.694  0.7934  0.3668  0.5488
 9212SOL    HW139095   1.108   0.018  16.627  0.5623  1.4842  1.7307
 9212SOL    HW239096   1.204   4.682  16.735  2.1610  1.5804 -2.5362
 9213SOL     OW39097   2.870   1.793   4.592  0.5992  0.4255  0.3895
 9213SOL    HW139098   2.852   1.801   4.686  0.9275  0.1169  0.4771
 9213SOL    HW239099   2.903   1.883   4.584  0.2534  0.4744 -0.5209
 9214SOL     OW39100   0.343   3.497   1.419 -0.1393 -0.1863 -0.2548
 9214SOL    HW139101   0.401   3.517   1.492  2.0054 -0.1540 -1.9660
 9214SOL    HW239102   0.254   3.489   1.452 -0.3827 -0.6259 -1.0266
 9215SOL     OW39103   2.646   0.627  14.801 -0.2390  0.3812 -0.2911
 9215SOL    HW139104   2.618   0.535  14.792 -0.9847  0.8403 -2.7866
 9215SOL    HW239105   2.713   0.626  14.869  0.8069  0.3114 -1.3211
 9216SOL     OW39106   4.437   4.522  16.671 -0.4244  0.0201 -0.1282
 9216SOL    HW139107   4.442   4.430  16.646  0.9336 -0.3603  1.5458
 9216SOL    HW239108   4.518   4.542  16.719 -0.6023  0.6058 -0.0737
 9217SOL     OW39109   1.094   4.265   7.745 -0.0760 -0.2370  0.4475
 9217SOL    HW139110   1.051   4.340   7.787 -0.3248 -0.0348 -0.1816
 9217SOL    HW239111   1.177   4.269   7.792  0.7462 -1.9126 -0.8459
 9218SOL     OW39112   3.554   0.442   2.897 -0.0386 -0.6980 -0.2920
 9218SOL    HW139113   3.648   0.428   2.888  0.5893  1.9560  2.3581
 9218SOL    HW239114   3.548   0.496   2.975  1.3964 -0.8277 -0.0903
 9219SOL     OW39115   0.640   4.618   0.055  0.0539 -0.1080  0.1801
 9219SOL    HW139116   0.658   4.670   0.134 -0.1412 -0.3785  0.4015
 9219SOL    HW239117   0.568   4.562   0.085  0.1598 -0.9202 -1.1011
 9220SOL     OW39118   2.864   2.906   8.516 -0.6567  0.6830 -0.1576
 9220SOL    HW139119   2.851   2.812   8.532 -0.1130  0.9158  1.6850
 9220SOL    HW239120   2.783   2.947   8.546 -0.1590  1.9375 -0.5473
 9221SOL     OW39121   0.973   0.661   5.865 -0.3478 -0.0117  0.8269
 9221SOL    HW139122   0.919   0.590   5.830  2.2864 -1.6013  0.0243
 9221SOL    HW239123   0.905   0.726   5.884  1.2011  2.1216 -0.8480
 9222SOL     OW39124   3.672   2.130   1.790  0.6202  0.0361 -0.2414
 9222SOL    HW139125   3.609   2.202   1.781  0.9666  0.4883  0.9409
 9222SOL    HW239126   3.711   2.139   1.877  0.5164 -0.8444 -0.1035
 9223SOL     OW39127   2.529   2.923   5.208  0.3238  0.4477  0.4810
 9223SOL    HW139128   2.481   2.931   5.290  0.6367 -3.2222  1.0034
 9223SOL    HW239129   2.473   2.979   5.154  1.3563  1.7523  0.7804
 9224SOL     OW39130   3.055   1.587   4.272  0.0240  0.2327 -0.4884
 9224SOL    HW139131   3.013   1.560   4.354 -0.2281  0.2318 -0.6191
 9224SOL    HW239132   3.127   1.638   4.309  0.3131 -0.9148  0.5592
 9225SOL     OW39133   1.089   1.967   3.996  0.2436  0.0773 -0.1025
 9225SOL    HW139134   1.124   2.048   4.034 -1.7677  1.2981 -0.8814
 9225SOL    HW239135   1.162   1.939   3.940  0.3612 -0.3229  0.2502
 9226SOL     OW39136   4.307   2.847   1.267 -0.0543  0.2476  0.2490
 9226SOL    HW139137   4.255   2.873   1.343  0.5202 -0.3376  0.8354
 9226SOL    HW239138   4.270   2.905   1.200 -1.6411 -1.3130 -0.2140
 9227SOL     OW39139   2.225   3.910  17.668 -0.3263  0.3851 -0.2174
 9227SOL    HW139140   2.149   3.942  17.621 -0.2409  1.1503  0.1578
 9227SOL    HW239141   2.277   3.986  17.696  0.1449 -0.5015  1.3636
 9228SOL     OW39142   4.109   0.441  13.935 -0.1659 -0.2425  0.0966
 9228SOL    HW139143   4.063   0.441  14.019  0.4691 -1.3250  0.4533
 9228SOL    HW239144   4.169   0.512  13.958 -1.2703  0.5076  0.6975
 9229SOL     OW39145   1.027   1.737   7.434  0.1192 -0.6519 -0.2446
 9229SOL    HW139146   0.960   1.751   7.367  1.3429 -3.1411 -2.0168
 9229SOL    HW239147   0.990   1.652   7.458  0.9371 -0.8276  0.3707
 9230SOL     OW39148   2.782   1.843  11.050 -0.2386  0.1661  0.1560
 9230SOL    HW139149   2.714   1.832  10.984  0.2375 -0.3748 -0.2491
 9230SOL    HW239150   2.730   1.844  11.130  1.4228  2.0289  1.2136
 9231SOL     OW39151   1.308   2.948   9.679 -0.0285 -0.5860  0.2616
 9231SOL    HW139152   1.229   2.917   9.635 -0.8004  1.8503 -0.0985
 9231SOL    HW239153   1.346   3.010   9.617  0.6117 -0.9217  0.3254
 9232SOL     OW39154   4.289   2.941   5.256 -0.1356  0.1366  0.5416
 9232SOL    HW139155   4.296   2.989   5.339  1.9073  0.8974 -0.0791
 9232SOL    HW239156   4.200   2.954   5.222  0.2432  0.0509 -0.4589
 9233SOL     OW39157   2.521   0.773   6.922  0.6521 -0.5203 -0.5577
 9233SOL    HW139158   2.442   0.816   6.889  1.4021  1.1243 -0.2296
 9233SOL    HW239159   2.474   0.696   6.953 -0.8194  1.3449  1.8613
 9234SOL     OW39160   4.215   1.400   2.954 -0.9403 -0.3667  0.6065
 9234SOL    HW139161   4.264   1.338   2.899  0.3763 -0.9535  2.4248
 9234SOL    HW239162   4.141   1.348   2.985 -1.0230 -0.8983 -0.4850
 9235SOL     OW39163   4.108   4.034   8.397 -0.0886 -0.1613  0.0157
 9235SOL    HW139164   4.109   4.060   8.490 -1.2971 -1.8856  0.5135
 9235SOL    HW239165   4.038   4.078   8.350  1.2070  0.4648 -1.3302
 9236SOL     OW39166   3.298   0.065   2.684 -0.4562 -0.5259  0.1594
 9236SOL    HW139167   3.270   0.034   2.598  1.6760  0.6056 -0.9502
 9236SOL    HW239168   3.229   0.128   2.706  0.8412 -0.0316  2.7732
 9237SOL     OW39169   3.957   0.735  17.564  0.4007  0.2260 -0.2582
 9237SOL    HW139170   3.989   0.660  17.514  0.7201  0.6033 -0.6235
 9237SOL    HW239171   3.865   0.714  17.575  0.4941 -0.6020 -1.1042
 9238SOL     OW39172   3.762   0.033  14.924  0.7076 -0.0783  0.5846
 9238SOL    HW139173   3.708   0.112  14.935  0.3364 -0.4316  1.2627
 9238SOL    HW239174   3.697   4.698  14.889  0.1334  0.1911  1.1638
 9239SOL     OW39175   1.197   1.061   2.654 -0.2730  0.2107 -0.4537
 9239SOL    HW139176   1.282   1.016   2.646 -0.0452  0.3950  1.0500
 9239SOL    HW239177   1.185   1.053   2.748  0.2480 -3.0951 -0.6595
 9240SOL     OW39178   2.657   3.542   1.498 -0.8714 -0.3285  0.1808
 9240SOL    HW139179   2.564   3.519   1.506 -0.6128 -1.1207  0.9684
 9240SOL    HW239180   2.695   3.470   1.448 -0.9998  0.2021 -0.6736
 9241SOL     OW39181   3.646   0.062   9.445  0.2063  0.4485 -0.1828
 9241SOL    HW139182   3.618   0.031   9.359  2.1622 -0.3349 -0.5385
 9241SOL    HW239183   3.727   0.105   9.418  0.3920  0.5442  0.5349
 9242SOL     OW39184   3.022   4.194  13.669 -0.1829  0.1646  0.2033
 9242SOL    HW139185   2.934   4.159  13.657  0.1509 -0.5232 -0.2121
 9242SOL    HW239186   3.038   4.182  13.763 -2.4111 -2.3657  0.2777
 9243SOL     OW39187   1.511   3.162   7.063  0.2002  0.9012 -0.2774
 9243SOL    HW139188   1.460   3.121   6.993  0.3490  1.7032 -0.8605
 9243SOL    HW239189   1.539   3.082   7.107 -3.0078 -0.2102 -0.2175
 9244SOL     OW39190   2.417   1.152   9.756 -0.3231 -0.0882 -0.8223
 9244SOL    HW139191   2.489   1.127   9.699  1.0709  0.1218  0.8554
 9244SOL    HW239192   2.443   1.118   9.842  1.8519  0.8439 -1.1219
 9245SOL     OW39193   0.373   1.979   6.808 -0.0537 -0.4451 -0.2632
 9245SOL    HW139194   0.452   1.970   6.862  0.2289  3.3087 -0.0472
 9245SOL    HW239195   0.393   1.914   6.740 -0.0779  2.5463 -3.1707
 9246SOL     OW39196   2.911   2.430   9.705  0.1294 -0.2704 -0.2454
 9246SOL    HW139197   2.864   2.352   9.735 -1.8578  1.1499  0.3546
 9246SOL    HW239198   2.861   2.503   9.740 -1.9180 -1.7194 -0.1566
 9247SOL     OW39199   2.670   0.150   8.466 -0.3446 -0.1532  0.3379
 9247SOL    HW139200   2.681   0.196   8.549  1.1437  1.7429 -0.8978
 9247SOL    HW239201   2.734   0.180   8.400 -1.0335 -0.7097 -0.5865
 9248SOL     OW39202   1.420   0.358   5.999  0.0658  0.1476  0.2415
 9248SOL    HW139203   1.381   0.444   6.013 -0.9305 -0.4329  1.0563
 9248SOL    HW239204   1.484   0.365   6.070  0.1364  0.2085  0.1719
 9249SOL     OW39205   3.909   2.882   5.471  0.0015  0.3063 -0.0561
 9249SOL    HW139206   3.923   2.918   5.383 -0.5839  0.2963 -0.1534
 9249SOL    HW239207   3.830   2.828   5.469  0.5459 -0.4392 -1.3244
 9250SOL     OW39208   4.190   0.775   3.737 -0.1103 -0.2854 -0.2528
 9250SOL    HW139209   4.186   0.685   3.705 -0.9684 -0.4772  0.3838
 9250SOL    HW239210   4.108   0.784   3.786  0.5121  1.6097  0.4357
 9251SOL     OW39211   3.160   1.987  16.693  0.2660  0.3081 -0.3773
 9251SOL    HW139212   3.122   2.073  16.676  1.4301  1.1725  1.3621
 9251SOL    HW239213   3.101   1.923  16.654  0.8498  0.7901 -2.0503
 9252SOL     OW39214   3.405   3.789   8.934  0.8579 -0.0616  0.0705
 9252SOL    HW139215   3.416   3.844   9.011 -0.4404  0.2384  0.0347
 9252SOL    HW239216   3.420   3.707   8.980 -0.7286  0.6107  1.8038
 9253SOL     OW39217   2.294   1.429   3.941 -0.2355 -0.5478  0.3996
 9253SOL    HW139218   2.343   1.411   4.022  1.6567 -0.3240 -0.6893
 9253SOL    HW239219   2.232   1.497   3.967 -2.2221 -2.0142 -0.5809
 9254SOL     OW39220   1.077   3.074   4.793 -0.2569 -0.6806  0.2218
 9254SOL    HW139221   1.146   3.126   4.835 -0.0907 -2.0931  1.6715
 9254SOL    HW239222   1.070   3.005   4.859  0.1178  1.0699  2.1074
 9255SOL     OW39223   1.729   2.508   7.488  0.1835 -0.2999 -0.6987
 9255SOL    HW139224   1.741   2.556   7.570  2.0040 -1.9299 -0.0099
 9255SOL    HW239225   1.640   2.476   7.498 -0.3805  2.0516  1.7058
 9256SOL     OW39226   1.123   1.203   1.435  0.0430 -0.1218  0.7068
 9256SOL    HW139227   1.076   1.120   1.449 -0.0580  0.0202  1.2073
 9256SOL    HW239228   1.135   1.210   1.340  4.1137 -0.6350  1.1854
 9257SOL     OW39229   2.254   4.387   5.709  0.5475  0.0978  0.7214
 9257SOL    HW139230   2.269   4.481   5.701 -1.3865  0.3697  0.0534
 9257SOL    HW239231   2.275   4.360   5.619  0.8943 -0.1255  0.8741
 9258SOL     OW39232   2.054   1.338   7.195 -0.0846 -0.7748  0.1004
 9258SOL    HW139233   2.052   1.337   7.291  0.1025  0.8591  0.1297
 9258SOL    HW239234   1.987   1.270   7.191 -0.9264 -0.2430  4.7754
 9259SOL     OW39235   0.373   0.281   0.533  0.4098 -0.0353 -0.1165
 9259SOL    HW139236   0.458   0.322   0.524  0.6709 -0.8529 -1.3459
 9259SOL    HW239237   0.379   0.206   0.474 -0.7273 -1.0901  1.0899
 9260SOL     OW39238   0.216   4.432   9.268 -0.4266 -0.0356 -0.6120
 9260SOL    HW139239   0.222   4.345   9.228  0.5063 -0.7574  1.0921
 9260SOL    HW239240   0.271   4.432   9.346 -0.3661  3.3054 -0.6681
 9261SOL     OW39241   4.704   2.161   8.413 -0.2828  0.1210 -0.0963
 9261SOL    HW139242   0.002   2.084   8.464  1.4668  0.7966  0.1220
 9261SOL    HW239243   4.617   2.174   8.449 -0.2553 -1.3172  0.4775
 9262SOL     OW39244   0.426   4.519   6.667 -0.0545  0.0766  0.2686
 9262SOL    HW139245   0.399   4.558   6.750 -0.1733 -0.5575  0.5244
 9262SOL    HW239246   0.339   4.498   6.634 -0.9436  2.1403  1.2724
 9263SOL     OW39247   0.641   1.786   6.710 -0.0977  0.1953  0.1692
 9263SOL    HW139248   0.664   1.709   6.659 -1.1267  0.2114 -0.3048
 9263SOL    HW239249   0.552   1.802   6.681 -0.0002  1.0455  0.3367
 9264SOL     OW39250   0.966   1.609   6.743  0.1785  0.2909  0.0900
 9264SOL    HW139251   0.934   1.686   6.695  2.7914  0.7996 -0.8461
 9264SOL    HW239252   0.991   1.636   6.831  0.5954 -0.1379  0.1054
 9265SOL     OW39253   1.269   4.069   6.211 -0.2560  0.4000 -0.1146
 9265SOL    HW139254   1.185   4.092   6.170 -0.1676  1.2607  0.1837
 9265SOL    HW239255   1.328   4.095   6.140  1.4685  0.4828  1.3709
 9266SOL     OW39256   4.028   1.251   6.657  0.4491  0.0186 -0.1038
 9266SOL    HW139257   3.995   1.163   6.641 -0.7926 -0.1390  3.4115
 9266SOL    HW239258   4.015   1.292   6.571  2.7233  1.0150  0.0092
 9267SOL     OW39259   3.168   1.001   2.376 -0.3715 -0.2717  0.3795
 9267SOL    HW139260   3.199   1.091   2.386  0.3779 -0.7022  1.8394
 9267SOL    HW239261   3.080   1.014   2.410  0.3404 -0.8275  2.3847
 9268SOL     OW39262   2.221   1.688   5.486 -1.1455 -0.1268 -0.3150
 9268SOL    HW139263   2.251   1.719   5.572  0.2609 -1.7586 -0.2128
 9268SOL    HW239264   2.235   1.766   5.434  0.8622  0.8173  1.6204
 9269SOL     OW39265   3.853   1.514   2.262  0.4717  0.1907 -0.1686
 9269SOL    HW139266   3.942   1.548   2.266  0.7476 -0.5125 -0.3151
 9269SOL    HW239267   3.852   1.454   2.187 -1.2925  0.4024 -0.3149
 9270SOL     OW39268   2.515   1.142   7.958  0.1376 -0.1085  0.3393
 9270SOL    HW139269   2.512   1.058   7.913  0.5265  0.0073  0.0968
 9270SOL    HW239270   2.532   1.199   7.883 -1.5799 -0.6767 -0.4921
 9271SOL     OW39271   1.276   4.456   3.821  0.3473  0.2595 -0.1216
 9271SOL    HW139272   1.293   4.378   3.874 -1.3115  0.2168  0.3350
 9271SOL    HW239273   1.234   4.516   3.883  1.9830  0.8373  0.4189
 9272SOL     OW39274   0.032   0.498   4.569 -0.4378  0.0114  0.2340
 9272SOL    HW139275   4.719   0.585   4.555 -2.4992 -0.6706  1.6681
 9272SOL    HW239276   0.115   0.521   4.611  0.0912 -0.2212 -0.6865
 9273SOL     OW39277   3.879   0.152  10.594 -0.2409  0.3417 -0.2832
 9273SOL    HW139278   3.825   0.209  10.540 -0.8356 -0.9430 -1.0506
 9273SOL    HW239279   3.948   0.141  10.528  1.0624  0.9163  0.9742
 9274SOL     OW39280   0.497   0.302  16.772  0.0016  0.0132  0.7393
 9274SOL    HW139281   0.405   0.314  16.748  0.9910  0.9770 -2.6833
 9274SOL    HW239282   0.494   0.213  16.807 -0.7520  0.2839  1.3398
 9275SOL     OW39283   3.561   3.436  16.441  0.6386  0.3267 -0.1786
 9275SOL    HW139284   3.652   3.463  16.456  0.7121  2.2070 -3.9731
 9275SOL    HW239285   3.535   3.486  16.365  1.4907 -0.8939 -1.2765
 9276SOL     OW39286   0.356   3.730  15.912  0.1167  0.0528 -0.2917
 9276SOL    HW139287   0.323   3.646  15.880  1.1424 -1.2405  2.0142
 9276SOL    HW239288   0.336   3.785  15.836  1.3948 -0.2367 -0.8243
 9277SOL     OW39289   4.128   3.172   4.703  0.4361  0.3345 -0.5787
 9277SOL    HW139290   4.205   3.140   4.654  2.1488 -0.3829  2.5661
 9277SOL    HW239291   4.076   3.207   4.631  0.0183  1.3793  0.2349
 9278SOL     OW39292   1.912   4.347   1.520 -0.3172 -0.3004  0.3491
 9278SOL    HW139293   1.846   4.296   1.473  0.2768  0.1263 -0.9614
 9278SOL    HW239294   1.862   4.425   1.544  0.4523  0.7882 -1.5672
 9279SOL     OW39295   1.399   2.980   4.934  0.0311  0.0724 -0.1817
 9279SOL    HW139296   1.484   3.001   4.896 -0.0731 -1.2163 -1.1626
 9279SOL    HW239297   1.382   2.895   4.892  0.1676 -0.4774  0.8965
 9280SOL     OW39298   0.387   3.978  12.505  0.2084 -0.4370 -0.0927
 9280SOL    HW139299   0.426   4.045  12.449  0.1824 -0.4876 -0.1702
 9280SOL    HW239300   0.455   3.912  12.518 -0.9966 -1.2757  1.8616
 9281SOL     OW39301   3.343   1.605   2.997 -0.2373 -0.5043  0.6449
 9281SOL    HW139302   3.257   1.605   3.039 -0.0506  0.8489  1.0150
 9281SOL    HW239303   3.395   1.666   3.049 -0.8166  1.9491 -1.6722
 9282SOL     OW39304   4.175   4.253   3.333  0.7975 -0.1267  0.2959
 9282SOL    HW139305   4.104   4.294   3.383 -0.9968 -0.1130 -2.2583
 9282SOL    HW239306   4.252   4.273   3.386  0.0920 -1.2076  1.7188
 9283SOL     OW39307   1.906   1.709   7.560 -0.3158  0.6252 -0.3106
 9283SOL    HW139308   1.959   1.730   7.483  0.1474  1.0981  0.1365
 9283SOL    HW239309   1.960   1.650   7.613 -0.2824  1.1952  0.2836
 9284SOL     OW39310   2.968   1.164   8.863  0.3075 -0.1742  0.4892
 9284SOL    HW139311   2.952   1.245   8.911 -2.1089  1.2456 -2.7302
 9284SOL    HW239312   2.995   1.198   8.778 -0.1844  0.2933  0.5197
 9285SOL     OW39313   4.052   3.746   3.553 -0.3709  0.7884 -0.6555
 9285SOL    HW139314   4.142   3.762   3.525 -0.2185  0.7517 -0.2023
 9285SOL    HW239315   4.006   3.728   3.471  0.7184 -2.3636 -0.5698
 9286SOL     OW39316   2.687   0.202   6.549 -0.2538 -0.9643 -0.4284
 9286SOL    HW139317   2.739   0.122   6.543  2.0288  0.4169  0.6289
 9286SOL    HW239318   2.626   0.173   6.616  1.8136  0.0709  1.9227
 9287SOL     OW39319   2.242   2.689   5.105  0.3525 -0.4459 -0.0900
 9287SOL    HW139320   2.276   2.676   5.194 -0.2088 -2.4118 -0.1554
 9287SOL    HW239321   2.306   2.649   5.047 -0.8290 -1.2818 -0.8052
 9288SOL     OW39322   3.980   3.926   2.482 -0.2382 -0.0854  0.2049
 9288SOL    HW139323   3.945   3.932   2.393 -0.5869 -2.4421  0.1900
 9288SOL    HW239324   3.944   4.011   2.510 -0.6219 -0.1848  0.0197
 9289SOL     OW39325   3.771   1.081   8.560 -0.5212 -0.6176 -0.1283
 9289SOL    HW139326   3.784   1.003   8.507  0.3133 -0.2019 -0.5266
 9289SOL    HW239327   3.772   1.054   8.651 -2.4047 -3.5800 -0.9846
 9290SOL     OW39328   1.179   1.679  10.839 -0.2782  0.0752  0.6407
 9290SOL    HW139329   1.168   1.773  10.822  0.8699  0.4875  2.2713
 9290SOL    HW239330   1.185   1.688  10.934  0.8107  1.6873  0.4087
 9291SOL     OW39331   3.848   3.029   5.960 -0.2562  0.4244 -0.0978
 9291SOL    HW139332   3.908   2.955   5.954  1.9371  1.9578  3.0004
 9291SOL    HW239333   3.849   3.047   5.865  1.5720  1.9954  0.2151
 9292SOL     OW39334   1.709   3.326  13.892  0.2137 -0.5917 -0.1117
 9292SOL    HW139335   1.778   3.387  13.919  0.0068  0.2261 -1.4042
 9292SOL    HW239336   1.634   3.381  13.913  0.9860  0.6819 -0.7041
 9293SOL     OW39337   3.385   2.759  17.505  0.1156 -0.4897  0.0670
 9293SOL    HW139338   3.465   2.746  17.556 -0.4541  0.1417  1.1320
 9293SOL    HW239339   3.368   2.671  17.474  1.2999 -0.4282 -0.7764
 9294SOL     OW39340   1.145   1.377   6.046  0.6146 -0.1618  0.0837
 9294SOL    HW139341   1.119   1.460   6.006  2.4095  0.2075 -0.3423
 9294SOL    HW239342   1.238   1.372   6.025  1.0472 -0.7497  2.2135
 9295SOL     OW39343   4.291   4.547   5.227  0.2262 -0.2978 -0.3712
 9295SOL    HW139344   4.272   4.593   5.145  0.6252  0.5231 -0.0035
 9295SOL    HW239345   4.332   4.466   5.196 -0.7470 -0.1978 -1.9554
 9296SOL     OW39346   0.202   3.816  16.862 -0.7021 -0.4427 -0.1471
 9296SOL    HW139347   0.170   3.852  16.779 -1.9169  0.2529  0.6354
 9296SOL    HW239348   0.127   3.772  16.900  0.3583 -1.0366  1.2509
 9297SOL     OW39349   0.054   2.098   5.108 -0.1249 -0.3222 -0.0563
 9297SOL    HW139350   0.086   2.082   5.019  2.9461 -1.2723  1.2167
 9297SOL    HW239351   0.125   2.071   5.166 -0.1423 -0.6928 -0.2126
 9298SOL     OW39352   3.121   0.553   6.900 -0.2875  0.2018 -0.3116
 9298SOL    HW139353   3.156   0.635   6.866 -0.1159 -0.2234 -1.1614
 9298SOL    HW239354   3.133   0.568   6.994  0.1359  1.1165 -0.5175
 9299SOL     OW39355   2.113   4.372   2.927  0.4595  0.5688  0.3019
 9299SOL    HW139356   2.147   4.448   2.880 -1.8514  1.7182  0.5157
 9299SOL    HW239357   2.131   4.305   2.860  0.3085  0.8509 -0.0190
 9300SOL     OW39358   1.632   2.952   6.913 -0.1813 -0.3061  0.1243
 9300SOL    HW139359   1.687   2.881   6.879 -1.2745 -0.5716 -1.0949
 9300SOL    HW239360   1.701   3.008   6.949  0.5415 -1.0661 -0.0618
 9301SOL     OW39361   4.427   2.954   8.171  0.1327  0.5295  0.1917
 9301SOL    HW139362   4.500   3.008   8.141  0.7375  0.5559  1.6827
 9301SOL    HW239363   4.457   2.866   8.148 -0.1698 -0.1467  2.3689
 9302SOL     OW39364   3.983   0.670   0.935 -0.1459  0.1116 -0.2899
 9302SOL    HW139365   4.071   0.631   0.934  0.1627  0.7875  1.9198
 9302SOL    HW239366   3.933   0.634   1.008 -2.6038  2.2086 -0.9402
 9303SOL     OW39367   1.585   1.788   7.417 -0.3238 -0.3778 -0.1560
 9303SOL    HW139368   1.653   1.725   7.394 -1.4721 -1.3493 -0.8677
 9303SOL    HW239369   1.549   1.751   7.498  1.0916 -2.0281 -0.2945
 9304SOL     OW39370   1.429   3.194   3.214  0.2615  0.2706  0.1536
 9304SOL    HW139371   1.363   3.178   3.281  1.0413  1.6349  1.2435
 9304SOL    HW239372   1.431   3.289   3.206 -0.1324  0.4339  1.8636
 9305SOL     OW39373   0.416   3.427  12.507 -0.3213  0.1452  0.1369
 9305SOL    HW139374   0.376   3.470  12.583  2.0690  0.5964  1.1489
 9305SOL    HW239375   0.390   3.337  12.529  1.0782 -0.4016 -0.4130
 9306SOL     OW39376   1.139   2.560   2.541 -0.0714  0.5330 -0.1214
 9306SOL    HW139377   1.218   2.506   2.535 -1.7456 -1.9379  0.2106
 9306SOL    HW239378   1.124   2.566   2.635  0.4591 -0.2631  0.0221
 9307SOL     OW39379   2.189   2.088   4.699 -0.0635  0.2229  0.6444
 9307SOL    HW139380   2.122   2.130   4.644  0.3885  0.5521  0.3423
 9307SOL    HW239381   2.268   2.105   4.647 -0.4365  0.2286  0.0774
 9308SOL     OW39382   1.698   3.188  17.075 -0.0971  0.7024  0.1087
 9308SOL    HW139383   1.731   3.237  17.001 -1.0692 -1.5766 -1.8429
 9308SOL    HW239384   1.754   3.110  17.067 -2.7292 -0.9420 -2.4047
 9309SOL     OW39385   2.377   1.775   4.935  0.0633  0.2152  0.1498
 9309SOL    HW139386   2.400   1.803   5.024  0.1225  2.2505 -0.5056
 9309SOL    HW239387   2.288   1.810   4.923 -0.5184 -1.4861 -0.4820
 9310SOL     OW39388   1.400   2.877  16.701 -0.1576  0.5375 -0.0982
 9310SOL    HW139389   1.305   2.885  16.699 -0.1369  2.1829  4.4560
 9310SOL    HW239390   1.419   2.800  16.647  0.3304 -0.4229  1.4490
 9311SOL     OW39391   0.534   3.458   3.225 -0.0899  0.3022 -0.2561
 9311SOL    HW139392   0.484   3.411   3.292  0.4270 -2.0881 -1.5583
 9311SOL    HW239393   0.482   3.537   3.209 -1.5818 -0.7752 -0.7732
 9312SOL     OW39394   0.906   1.976   5.627  0.2103 -0.3954  1.0317
 9312SOL    HW139395   0.912   1.891   5.585 -0.4647 -0.5012  1.1454
 9312SOL    HW239396   0.836   2.021   5.579 -0.6849  1.3333  3.9138
 9313SOL     OW39397   0.131   4.531   4.798 -0.3943 -0.2364 -0.4080
 9313SOL    HW139398   0.114   4.582   4.718 -0.8290 -0.7162 -0.6212
 9313SOL    HW239399   0.204   4.589   4.816 -0.8939 -0.2217  1.5299
 9314SOL     OW39400   1.223   3.053   8.481  0.4762  0.1483  0.1491
 9314SOL    HW139401   1.143   3.014   8.445  0.4785 -0.9688  1.3414
 9314SOL    HW239402   1.191   3.069   8.570  0.2817  0.7521 -0.0297
 9315SOL     OW39403   3.123   2.373   9.481  0.1272  0.5205 -0.2002
 9315SOL    HW139404   3.139   2.460   9.518 -0.7578  0.5652  0.0798
 9315SOL    HW239405   3.055   2.335   9.538 -0.3477  1.0661 -0.4043
 9316SOL     OW39406   4.184   3.041   2.793 -0.2672  0.3227  0.0139
 9316SOL    HW139407   4.163   3.110   2.856  2.0328 -0.8199  2.0635
 9316SOL    HW239408   4.139   2.962   2.823 -0.5521  0.3105 -0.4413
 9317SOL     OW39409   0.404   1.045   1.046  0.5440  0.1447 -0.0376
 9317SOL    HW139410   0.431   0.963   1.005  1.5038  0.1438  0.5885
 9317SOL    HW239411   0.488   1.067   1.087  1.2060  0.2722 -1.4701
 9318SOL     OW39412   4.638   3.339   4.166  0.3024 -0.4151 -0.0404
 9318SOL    HW139413   4.615   3.256   4.125 -0.8484 -0.1433  0.0503
 9318SOL    HW239414   4.574   3.340   4.237 -0.8325 -2.0279 -1.0487
 9319SOL     OW39415   1.419   4.337   7.463 -0.4889 -0.1481 -0.0888
 9319SOL    HW139416   1.324   4.350   7.461 -0.3214  1.2316  0.4990
 9319SOL    HW239417   1.420   4.295   7.377 -2.2859 -1.9803  0.8098
 9320SOL     OW39418   4.717   0.033  13.482  0.3562 -0.0868 -0.8847
 9320SOL    HW139419   4.628   0.059  13.503  0.5958 -0.1340  0.1974
 9320SOL    HW239420   4.722   0.069  13.394  0.3830  1.6983 -0.1429
 9321SOL     OW39421   1.310   2.996  11.025  0.5606 -0.3514  0.2861
 9321SOL    HW139422   1.356   2.947  10.957  3.2462  2.3102  0.2011
 9321SOL    HW239423   1.261   2.929  11.073 -2.3923  1.0918 -0.6517
 9322SOL     OW39424   0.170   1.236   7.354  0.1927  0.1360 -0.1252
 9322SOL    HW139425   0.206   1.322   7.334  0.3970 -0.3932 -1.9505
 9322SOL    HW239426   0.096   1.272   7.403  0.0001  1.5914 -1.4899
 9323SOL     OW39427   4.492   1.227  17.431 -0.1349  0.0464 -0.5523
 9323SOL    HW139428   4.551   1.168  17.478 -0.5600  0.5414  0.5838
 9323SOL    HW239429   4.408   1.185  17.446  1.6005 -2.9440  0.6810
 9324SOL     OW39430   3.243   3.258   3.100 -0.1402  0.0056 -0.4344
 9324SOL    HW139431   3.223   3.179   3.050 -1.3237  0.0014  0.0316
 9324SOL    HW239432   3.164   3.276   3.151 -0.5523 -0.4604 -0.9125
 9325SOL     OW39433   0.153   1.789  15.233  0.8913  0.3636 -0.3314
 9325SOL    HW139434   0.156   1.702  15.193 -1.2542  1.1563 -2.1867
 9325SOL    HW239435   0.061   1.813  15.226 -0.0611 -2.5137  2.2703
 9326SOL     OW39436   0.046   0.396   9.108 -0.5283 -0.5669 -0.4153
 9326SOL    HW139437   0.109   0.360   9.171 -1.4493  1.4141  1.6597
 9326SOL    HW239438   4.694   0.345   9.131  0.2207 -1.5393 -0.0647
 9327SOL     OW39439   0.115   2.111   7.356  0.5077 -0.1377 -0.2790
 9327SOL    HW139440   0.167   2.049   7.408  0.3780 -1.3371 -1.5830
 9327SOL    HW239441   0.130   2.185   7.414 -0.8135  1.4050 -1.9366
 9328SOL     OW39442   1.525   3.897   9.159  0.1172 -0.2330  0.5068
 9328SOL    HW139443   1.510   3.803   9.146 -0.1089 -0.0282 -0.7423
 9328SOL    HW239444   1.503   3.913   9.251  2.8151  1.6282  0.8069
 9329SOL     OW39445   1.302   1.550  13.481  0.2071  0.0429  0.0242
 9329SOL    HW139446   1.288   1.602  13.560  2.1313  0.5577  0.0323
 9329SOL    HW239447   1.242   1.602  13.427  1.3896  0.5589 -0.7873
 9330SOL     OW39448   1.409   4.475   6.620  0.0167  0.3156 -0.8723
 9330SOL    HW139449   1.336   4.461   6.680  0.4662  0.8363 -0.1954
 9330SOL    HW239450   1.387   4.439   6.534 -0.3889 -1.5779  0.0292
 9331SOL     OW39451   3.816   3.630   7.599 -0.0877 -0.0588  0.1769
 9331SOL    HW139452   3.839   3.718   7.626  0.6508  0.1007 -0.9893
 9331SOL    HW239453   3.837   3.646   7.507  0.2329 -2.7158 -0.2128
 9332SOL     OW39454   2.721   3.856   1.473 -0.6000 -0.1891  0.2880
 9332SOL    HW139455   2.797   3.876   1.527 -0.1192 -1.0162 -0.0920
 9332SOL    HW239456   2.698   3.774   1.516 -2.5815  0.5345  0.6373
 9333SOL     OW39457   4.714   2.247   3.372 -0.2428  0.0250  0.5508
 9333SOL    HW139458   4.721   2.326   3.426  2.3996 -0.1374  0.4208
 9333SOL    HW239459   0.081   2.226   3.368 -0.7202 -1.7652 -1.5272
 9334SOL     OW39460   3.016   3.293  12.102 -0.5371 -0.1761  0.2513
 9334SOL    HW139461   3.086   3.268  12.041 -1.2318 -2.1838  0.2824
 9334SOL    HW239462   2.980   3.218  12.150 -2.9685  0.6527 -0.2665
 9335SOL     OW39463   2.695   4.107   3.987  0.0337 -0.5653 -0.2255
 9335SOL    HW139464   2.702   4.072   4.076 -0.7903 -0.8065 -0.2535
 9335SOL    HW239465   2.754   4.182   3.992  0.3624 -0.8563  0.2491
 9336SOL     OW39466   4.295   1.421  17.628 -0.1773  0.9273 -0.5988
 9336SOL    HW139467   4.216   1.371  17.607  1.6523 -2.8217  1.6121
 9336SOL    HW239468   4.328   1.431  17.539  1.6737  0.8142  0.0833
 9337SOL     OW39469   2.674   0.976  13.790 -0.3594  0.0857 -0.5798
 9337SOL    HW139470   2.744   0.986  13.854  1.6090 -1.4468 -2.4805
 9337SOL    HW239471   2.703   0.914  13.723  2.2495  1.7151 -0.9337
 9338SOL     OW39472   0.213   2.093   0.514  0.3522 -0.2716 -0.0803
 9338SOL    HW139473   0.228   2.055   0.427  1.3532 -1.9544  0.8202
 9338SOL    HW239474   0.124   2.062   0.525  0.5786 -0.3713  1.4112
 9339SOL     OW39475   2.898   3.553   8.338 -0.3044  0.0440  0.0943
 9339SOL    HW139476   2.802   3.554   8.333 -0.3714  0.1550  1.4702
 9339SOL    HW239477   2.917   3.567   8.245  1.4774 -0.1153  0.4352
 9340SOL     OW39478   3.875   4.346  10.409  0.2321  0.2116  0.0314
 9340SOL    HW139479   3.836   4.369  10.325  2.4858  1.7824 -0.5814
 9340SOL    HW239480   3.796   4.328  10.460  0.1306  2.2188  0.5794
 9341SOL     OW39481   3.961   1.765  17.594  0.3082 -0.4346 -0.1698
 9341SOL    HW139482   4.026   1.751  17.662  0.1508 -0.3967 -0.0124
 9341SOL    HW239483   3.888   1.739  17.651 -0.1235  1.4317  0.1186
 9342SOL     OW39484   1.301   3.510   2.099 -0.3394  0.1251 -0.1456
 9342SOL    HW139485   1.285   3.569   2.173  1.6065 -0.1729  0.5087
 9342SOL    HW239486   1.211   3.490   2.075 -0.0583 -2.6946  1.2359
 9343SOL     OW39487   4.333   0.232   1.740 -0.3674 -0.3184  0.0025
 9343SOL    HW139488   4.423   0.248   1.710 -0.0427  0.7253  1.5185
 9343SOL    HW239489   4.307   0.159   1.684  1.1754 -2.7679  2.4694
 9344SOL     OW39490   1.969   4.110   8.547  0.1740 -0.7982 -0.6991
 9344SOL    HW139491   1.880   4.145   8.546  0.5172  0.0836 -0.6240
 9344SOL    HW239492   1.986   4.095   8.641  1.4743  0.8087 -0.6715
 9345SOL     OW39493   2.616   0.803   5.658  0.5852  0.1071 -0.3023
 9345SOL    HW139494   2.650   0.880   5.704  1.3381  0.1557 -0.9300
 9345SOL    HW239495   2.664   0.735   5.706 -0.4148 -0.4206 -0.0394
 9346SOL     OW39496   0.139   2.815  11.884 -0.2222 -0.0656  0.3604
 9346SOL    HW139497   0.224   2.772  11.874  0.1789  0.3031  2.1533
 9346SOL    HW239498   0.149   2.860  11.800  0.2178 -0.8770 -0.0194
 9347SOL     OW39499   3.114   4.479  11.279  0.1514  0.2433  0.1734
 9347SOL    HW139500   3.055   4.551  11.256 -0.9738 -0.9234 -0.5842
 9347SOL    HW239501   3.164   4.480  11.198  1.8722  1.0297  1.2583
 9348SOL     OW39502   2.914   1.190  13.051  0.3168 -0.3036 -0.4835
 9348SOL    HW139503   2.850   1.192  12.979  0.7575  1.4909 -0.8102
 9348SOL    HW239504   2.974   1.262  13.035  0.6369 -0.5347 -0.3038
 9349SOL     OW39505   2.260   0.203  17.613  0.4687 -0.0953 -0.3268
 9349SOL    HW139506   2.326   0.236  17.673  0.9794 -1.0069 -0.3918
 9349SOL    HW239507   2.315   0.196  17.535 -1.2775 -0.0137 -1.5754
 9350SOL     OW39508   0.016   1.482   7.111 -0.1168  0.1821  0.1294
 9350SOL    HW139509   0.085   1.455   7.051 -0.9002  0.5776 -0.9423
 9350SOL    HW239510   0.072   1.517   7.181 -0.7690 -0.8677  1.1835
 9351SOL     OW39511   3.004   1.903   1.021  0.5920 -0.4490  0.3516
 9351SOL    HW139512   3.066   1.973   1.041  0.0212 -0.0414  0.6953
 9351SOL    HW239513   3.015   1.900   0.926  1.3958 -0.1417  0.4332
 9352SOL     OW39514   3.052   2.747   8.837 -0.9936 -0.1534 -0.0855
 9352SOL    HW139515   2.961   2.721   8.822 -0.8869 -0.0842 -0.8511
 9352SOL    HW239516   3.092   2.726   8.752 -1.1068 -3.4131  0.6441
 9353SOL     OW39517   3.867   4.102   5.480  0.1906  0.2973  0.1553
 9353SOL    HW139518   3.780   4.061   5.476  0.3362 -0.0086  0.0893
 9353SOL    HW239519   3.845   4.185   5.437 -1.6857 -0.7796 -0.9730
 9354SOL     OW39520   0.777   0.651   3.921  0.0572  1.0275 -0.1529
 9354SOL    HW139521   0.781   0.728   3.864 -2.5057  2.4291  1.5723
 9354SOL    HW239522   0.870   0.631   3.916 -0.1740  0.6693 -3.1559
 9355SOL     OW39523   1.901   1.305   5.549  0.2209 -0.3835 -0.5234
 9355SOL    HW139524   1.933   1.353   5.472 -1.7798  0.0503 -1.0974
 9355SOL    HW239525   1.975   1.306   5.609  0.0338  0.8006 -0.3063
 9356SOL     OW39526   1.298   2.760   5.318 -0.2158 -0.2473  0.0253
 9356SOL    HW139527   1.299   2.786   5.410 -1.0054  0.4275 -0.1618
 9356SOL    HW239528   1.203   2.753   5.312 -0.1622  1.2185 -2.6664
 9357SOL     OW39529   2.663   3.404   4.076  0.5655 -0.4699 -0.0648
 9357SOL    HW139530   2.668   3.432   4.168 -0.4449  0.2722 -0.2350
 9357SOL    HW239531   2.571   3.377   4.080  0.2460  0.3347 -1.8678
 9358SOL     OW39532   4.186   0.382   6.643  0.2742 -0.2474 -0.5723
 9358SOL    HW139533   4.146   0.378   6.556 -0.0681 -2.0473 -0.3372
 9358SOL    HW239534   4.204   0.289   6.656 -0.2620 -0.2254  0.3102
 9359SOL     OW39535   3.822   2.812   8.860  0.3227  0.5980  0.0802
 9359SOL    HW139536   3.891   2.825   8.926 -0.2727 -0.4589  0.9285
 9359SOL    HW239537   3.781   2.736   8.903 -0.6719  0.9519 -0.2612
 9360SOL     OW39538   1.424   3.194   3.613 -0.0595  0.0971  0.1206
 9360SOL    HW139539   1.457   3.278   3.580  0.9159 -0.0788  0.6669
 9360SOL    HW239540   1.445   3.193   3.706 -0.0756  0.2417  0.1261
 9361SOL     OW39541   2.900   4.725  14.847 -0.2039  0.2464  0.4201
 9361SOL    HW139542   2.823   0.024  14.898  0.2536  0.3909  1.0373
 9361SOL    HW239543   2.854   4.659  14.795 -0.7528 -0.4125  1.7448
 9362SOL     OW39544   0.951   3.763   9.483  0.2100  0.1287  0.0644
 9362SOL    HW139545   0.943   3.822   9.408 -1.6354 -1.1720 -0.7719
 9362SOL    HW239546   0.923   3.815   9.558 -0.4632 -0.3938  0.1756
 9363SOL     OW39547   4.335   4.540   6.954  0.0143 -0.1532  0.1632
 9363SOL    HW139548   4.309   4.625   6.988  3.4317 -0.0872  2.5961
 9363SOL    HW239549   4.426   4.561   6.932 -0.5835  2.6881  0.3967
 9364SOL     OW39550   0.210   1.489   4.639  0.4243 -0.6505 -0.4231
 9364SOL    HW139551   0.279   1.423   4.633  1.7761  0.7684 -0.5773
 9364SOL    HW239552   0.176   1.501   4.550  0.8967 -0.0640 -0.5247
 9365SOL     OW39553   3.779   0.311   1.674  0.4747 -0.1678  0.0945
 9365SOL    HW139554   3.841   0.242   1.651 -0.1119 -1.1299  1.4249
 9365SOL    HW239555   3.844   0.377   1.701  1.1565 -0.3653 -1.0537
 9366SOL     OW39556   1.822   4.164   3.906  0.3251 -0.2912  0.0846
 9366SOL    HW139557   1.743   4.196   3.950  0.2239 -0.6669  0.1798
 9366SOL    HW239558   1.819   4.216   3.826 -0.0167  1.2574  1.1194
 9367SOL     OW39559   4.419   2.788   3.937 -0.0903 -0.1519  0.3056
 9367SOL    HW139560   4.332   2.808   3.973 -0.1194  1.6260 -0.7252
 9367SOL    HW239561   4.390   2.794   3.846  0.2166  0.3512  0.2420
 9368SOL     OW39562   1.031   0.229  15.580 -0.5246  0.5839  0.0873
 9368SOL    HW139563   1.036   0.151  15.524 -1.4234  0.6361 -0.0731
 9368SOL    HW239564   1.095   0.283  15.533 -2.1309 -0.0254 -2.7997
 9369SOL     OW39565   3.337   1.870  15.674 -0.9799 -0.0707 -0.1398
 9369SOL    HW139566   3.338   1.777  15.653  1.4077 -0.2954  1.0117
 9369SOL    HW239567   3.411   1.900  15.621  0.0011  1.1981  1.9379
 9370SOL     OW39568   3.077   1.838   5.309 -0.2980  0.0652 -0.1675
 9370SOL    HW139569   3.023   1.761   5.290  1.0347 -0.9054 -0.0314
 9370SOL    HW239570   3.147   1.836   5.243  1.8284  1.2644  2.0286
 9371SOL     OW39571   3.051   2.670   5.854  0.1694  0.0836 -0.2528
 9371SOL    HW139572   3.043   2.720   5.936 -1.1267 -2.0701  0.9236
 9371SOL    HW239573   3.111   2.719   5.799  1.1625 -1.0833 -0.2124
 9372SOL     OW39574   2.431   2.731   2.086 -0.0470 -0.1217 -0.0811
 9372SOL    HW139575   2.371   2.691   2.148  0.7283 -1.4562 -0.1846
 9372SOL    HW239576   2.426   2.664   2.018  0.2575 -0.1848 -0.0425
 9373SOL     OW39577   3.222   3.995  10.184 -0.6707  0.5966 -0.1715
 9373SOL    HW139578   3.225   3.954  10.098 -1.4688  1.6747 -0.7119
 9373SOL    HW239579   3.147   4.054  10.177 -1.0107  0.1032 -0.6128
 9374SOL     OW39580   2.042   0.432   7.511 -0.3116  0.7035 -0.7920
 9374SOL    HW139581   1.992   0.411   7.590 -0.0744  0.4903 -0.6997
 9374SOL    HW239582   2.111   0.488   7.546  1.6503 -1.1493 -1.7248
 9375SOL     OW39583   3.406   4.159  12.051  0.2352 -0.4092 -0.1277
 9375SOL    HW139584   3.443   4.145  12.139 -1.2129 -0.9289  0.4057
 9375SOL    HW239585   3.438   4.087  11.997  2.5045 -1.6291  2.8189
 9376SOL     OW39586   3.929   2.974  15.771  0.0308  0.2047  0.1720
 9376SOL    HW139587   4.007   2.921  15.784 -0.2826 -0.5570 -1.0692
 9376SOL    HW239588   3.926   2.979  15.675  0.4896  0.8322  0.1874
 9377SOL     OW39589   0.163   2.587   4.137 -0.1064 -0.1212 -0.6244
 9377SOL    HW139590   0.071   2.605   4.114 -0.2875 -0.8535 -0.4864
 9377SOL    HW239591   0.178   2.647   4.210  0.1291 -0.1546 -0.6476
 9378SOL     OW39592   1.859   2.826   4.080 -0.4640  0.1181  0.6194
 9378SOL    HW139593   1.878   2.741   4.041  3.6603  0.3637  2.0163
 9378SOL    HW239594   1.793   2.859   4.020 -1.7318 -3.3011  0.1498
 9379SOL     OW39595   2.763   4.105   9.435 -0.8128  0.1059 -0.7235
 9379SOL    HW139596   2.780   4.032   9.495  0.1039  0.9527  0.0501
 9379SOL    HW239597   2.672   4.082   9.418 -0.6387 -1.9314  0.9916
 9380SOL     OW39598   1.502   0.704   5.133 -0.4991  0.1553  0.2866
 9380SOL    HW139599   1.579   0.762   5.129  1.1286 -2.1046 -0.8828
 9380SOL    HW239600   1.461   0.733   5.215 -1.0419 -0.1592  0.1210
 9381SOL     OW39601   0.816   4.534   4.889 -0.2007 -0.4137 -0.2124
 9381SOL    HW139602   0.817   4.560   4.796 -0.3449  0.9577  0.1709
 9381SOL    HW239603   0.893   4.478   4.896 -0.7794 -0.8429  2.3830
 9382SOL     OW39604   2.961   0.749   8.416  0.4898 -0.3881  0.0254
 9382SOL    HW139605   2.974   0.824   8.359  0.4392 -0.1792  0.2869
 9382SOL    HW239606   3.022   0.765   8.488 -0.6927  1.9328  0.4896
 9383SOL     OW39607   0.395   2.387   6.301 -0.2232  0.0238 -0.0855
 9383SOL    HW139608   0.308   2.407   6.336  0.2454 -0.3568  1.3130
 9383SOL    HW239609   0.457   2.390   6.374 -0.0857 -4.6896 -0.0010
 9384SOL     OW39610   1.593   0.359  11.063  0.1234 -0.1390 -0.1462
 9384SOL    HW139611   1.590   0.267  11.039 -0.8345 -0.5791  1.6722
 9384SOL    HW239612   1.685   0.371  11.088  0.6709 -2.2915 -1.1859
 9385SOL     OW39613   1.955   1.786   7.301 -0.2059  0.6210 -0.3206
 9385SOL    HW139614   1.991   1.823   7.221  1.9047 -0.5601  0.0857
 9385SOL    HW239615   1.874   1.756   7.259 -0.5030 -0.7064  1.1869
 9386SOL     OW39616   2.151   4.690  11.862 -0.3659 -0.0378  0.2746
 9386SOL    HW139617   2.189   0.052  11.866  0.8142 -0.6111  2.1551
 9386SOL    HW239618   2.100   4.690  11.781  0.3049 -1.9198 -0.1579
 9387SOL     OW39619   1.907   0.385   7.749 -0.1798 -0.2514  0.4992
 9387SOL    HW139620   1.922   0.290   7.746 -0.4618 -0.3221  1.2644
 9387SOL    HW239621   1.891   0.403   7.842 -0.2360  1.9684  0.0548
 9388SOL     OW39622   2.580   1.349   4.333  0.2469  0.7697  0.6320
 9388SOL    HW139623   2.535   1.403   4.268 -1.7477 -1.1627  0.4279
 9388SOL    HW239624   2.594   1.412   4.404  0.3922 -0.5680  1.7930
 9389SOL     OW39625   3.747   1.989   3.952 -0.0502  0.5615  0.2741
 9389SOL    HW139626   3.780   1.987   3.861  0.8021  0.5911  0.5793
 9389SOL    HW239627   3.822   2.025   3.999  1.4540 -2.9695  0.5075
 9390SOL     OW39628   2.588   1.332   6.081 -0.2519 -0.5865  0.8372
 9390SOL    HW139629   2.536   1.346   6.160 -1.0277 -0.3191  0.2925
 9390SOL    HW239630   2.552   1.249   6.050 -2.8877  0.7092  0.3415
 9391SOL     OW39631   2.689   2.245  10.959 -0.1299  0.1668  0.3410
 9391SOL    HW139632   2.761   2.212  10.906 -1.9225 -4.4661  0.7934
 9391SOL    HW239633   2.734   2.301  11.023  0.3400  0.6061 -0.3772
 9392SOL     OW39634   1.333   3.454   3.188 -0.3997  0.8447 -0.0669
 9392SOL    HW139635   1.241   3.474   3.200  0.1355  2.4726  1.3398
 9392SOL    HW239636   1.369   3.537   3.156  0.4227  0.1918 -0.8262
 9393SOL     OW39637   2.810   1.953   2.892  0.0281 -0.1374 -0.0129
 9393SOL    HW139638   2.716   1.935   2.895  0.3981 -2.2753 -0.9724
 9393SOL    HW239639   2.833   1.912   2.809  0.8461  0.2366  0.0255
 9394SOL     OW39640   1.001   2.864   6.661  0.2582  0.7933  0.4038
 9394SOL    HW139641   0.935   2.801   6.689  0.8899 -0.6707 -1.3410
 9394SOL    HW239642   0.963   2.943   6.699 -0.8189  0.1446  0.6814
 9395SOL     OW39643   0.091   1.426   1.343  1.0765  0.1372  0.1406
 9395SOL    HW139644   0.118   1.336   1.362 -0.2986 -0.1129  0.8962
 9395SOL    HW239645   0.108   1.467   1.427  2.4757  1.7745 -0.9467
 9396SOL     OW39646   2.594   1.162  10.496  0.1550 -0.0588  0.2076
 9396SOL    HW139647   2.509   1.157  10.453 -0.2230  2.4417  0.6716
 9396SOL    HW239648   2.655   1.122  10.433  0.7470  0.2989  0.5462
 9397SOL     OW39649   0.994   0.295   7.213  0.2811  0.7418 -0.1183
 9397SOL    HW139650   0.912   0.345   7.217  0.1163  0.4206  0.3930
 9397SOL    HW239651   1.036   0.339   7.139 -0.0256  1.2345 -0.0029
 9398SOL     OW39652   0.001   2.050   3.033 -0.1579 -0.3332 -0.2974
 9398SOL    HW139653   0.087   2.039   3.073 -0.5442 -1.6137  0.1535
 9398SOL    HW239654   0.017   2.118   2.967  1.8629 -0.2853  0.2421
 9399SOL     OW39655   2.798   0.659   8.694 -0.1451  0.2426 -0.5775
 9399SOL    HW139656   2.866   0.723   8.712 -1.3369  1.2766  0.2389
 9399SOL    HW239657   2.719   0.709   8.674  0.1839  0.3817 -1.5205
 9400SOL     OW39658   4.685   3.061   8.786 -0.4855  0.1248 -0.5738
 9400SOL    HW139659   4.602   3.029   8.824  1.1600 -0.6958  2.3427
 9400SOL    HW239660   4.669   3.150   8.754  1.9650 -0.5516 -3.6308
 9401SOL     OW39661   2.901   1.803   1.897 -0.0525 -0.3247  0.5502
 9401SOL    HW139662   2.845   1.728   1.918 -0.5775 -0.5922 -1.7383
 9401SOL    HW239663   2.849   1.855   1.835  2.5511  1.5611 -0.1025
 9402SOL     OW39664   1.357   2.367  11.390  0.4869  0.0450  0.2618
 9402SOL    HW139665   1.274   2.403  11.361 -1.6499 -3.2996  2.3403
 9402SOL    HW239666   1.419   2.412  11.331 -0.8450  0.6398 -0.6849
 9403SOL     OW39667   3.899   1.671   0.250 -0.1697 -0.6868  0.3615
 9403SOL    HW139668   3.842   1.594   0.260  1.8471 -2.3018 -0.5624
 9403SOL    HW239669   3.983   1.627   0.260 -0.5301 -1.3826  0.3398
 9404SOL     OW39670   1.811   4.413   2.444 -0.0408 -0.3914  0.2279
 9404SOL    HW139671   1.826   4.350   2.374  0.6784 -0.8622  0.8110
 9404SOL    HW239672   1.809   4.356   2.521  1.5291 -0.2541  0.3735
 9405SOL     OW39673   4.101   3.002   0.049 -0.3163 -0.2796 -0.4993
 9405SOL    HW139674   4.158   3.042  17.688  0.1740 -1.0029 -0.5214
 9405SOL    HW239675   4.018   3.043   0.025 -1.3044 -2.1991 -0.3465
 9406SOL     OW39676   3.423   1.165   4.327 -0.0269  1.1609  0.1436
 9406SOL    HW139677   3.483   1.148   4.400 -0.7094 -0.8037  0.2458
 9406SOL    HW239678   3.340   1.122   4.348 -0.2651  1.4611 -0.1707
 9407SOL     OW39679   2.610   2.159   2.430  0.2735  0.1983 -0.2659
 9407SOL    HW139680   2.564   2.154   2.514  0.6094  1.5067  0.0037
 9407SOL    HW239681   2.687   2.204   2.465 -0.8478  1.3516  0.7158
 9408SOL     OW39682   1.556   3.527   4.430  0.0097 -0.4518  0.2836
 9408SOL    HW139683   1.468   3.501   4.458 -0.1213 -0.2494  0.0629
 9408SOL    HW239684   1.577   3.606   4.481  0.0391 -2.7542  3.8352
 9409SOL     OW39685   0.956   3.462  17.692  0.3263  0.1132  0.1638
 9409SOL    HW139686   0.999   3.410   0.056  0.0787  0.2444  0.4205
 9409SOL    HW239687   0.894   3.401  17.653 -2.3394  3.4217 -0.7882
 9410SOL     OW39688   3.093   4.213   4.133  0.2278 -0.0969 -0.2598
 9410SOL    HW139689   3.008   4.211   4.089 -0.5906 -2.2111  1.4140
 9410SOL    HW239690   3.114   4.307   4.130 -2.4143  0.5013 -0.1905
 9411SOL     OW39691   0.521   4.591   5.544  0.4390 -0.3551 -0.1828
 9411SOL    HW139692   0.498   4.514   5.493 -0.8237 -0.5788  0.7119
 9411SOL    HW239693   0.603   4.622   5.506  1.1874 -1.1075  0.7937
 9412SOL     OW39694   3.248   1.908   2.226 -0.3591  0.1101  0.1339
 9412SOL    HW139695   3.223   1.999   2.209 -0.9838 -0.1104 -0.1134
 9412SOL    HW239696   3.209   1.863   2.151  1.4612  1.0536 -1.4008
 9413SOL     OW39697   1.885   3.407   3.597  0.3406 -0.0627  0.0568
 9413SOL    HW139698   1.850   3.404   3.686 -0.6498 -0.5975 -0.3530
 9413SOL    HW239699   1.846   3.331   3.553 -2.3256 -0.3221  2.8988
 9414SOL     OW39700   0.346   1.250   5.442  0.8439 -0.1707  0.3226
 9414SOL    HW139701   0.305   1.164   5.454 -1.2775  0.6081 -1.2708
 9414SOL    HW239702   0.437   1.231   5.463  1.1283  0.7613 -0.0748
 9415SOL     OW39703   2.626   2.392  12.293  0.0653  0.4712 -0.9627
 9415SOL    HW139704   2.576   2.341  12.356  1.1633  1.7297  0.9303
 9415SOL    HW239705   2.593   2.345  12.216 -0.6290 -0.5967 -0.0106
 9416SOL     OW39706   3.348   2.518   2.458 -0.4075  0.1952  0.2754
 9416SOL    HW139707   3.343   2.588   2.524  2.4168 -0.0362  0.6930
 9416SOL    HW239708   3.261   2.478   2.452 -0.0548 -0.6050  0.6155
 9417SOL     OW39709   1.645   3.056  12.058  0.3070  0.5055  0.3845
 9417SOL    HW139710   1.636   3.130  12.119  1.5305  0.4124  0.6901
 9417SOL    HW239711   1.575   3.007  12.101 -1.2953  2.1686 -0.3167
 9418SOL     OW39712   3.197   3.733  11.981  0.4337 -0.4362 -0.3227
 9418SOL    HW139713   3.197   3.672  11.907 -3.0621 -1.3749  0.4777
 9418SOL    HW239714   3.124   3.703  12.035  0.4548 -0.5494 -0.3578
 9419SOL     OW39715   2.329   3.664   0.035  0.1181  0.9327 -0.7193
 9419SOL    HW139716   2.386   3.628  17.672  1.0956  0.2100  0.4904
 9419SOL    HW239717   2.261   3.717  17.699 -2.4818 -1.4702  0.4929
 9420SOL     OW39718   0.643   4.191  13.653 -0.2574  0.0813 -0.0427
 9420SOL    HW139719   0.707   4.120  13.658 -0.3414  0.0182  0.1680
 9420SOL    HW239720   0.703   4.264  13.644 -0.5832  0.5103  1.2432
 9421SOL     OW39721   3.769   1.149  11.321 -0.3584 -0.1720  0.2949
 9421SOL    HW139722   3.813   1.070  11.291  0.3497 -0.4304  2.0545
 9421SOL    HW239723   3.736   1.116  11.404  0.5876 -1.3048  0.2169
 9422SOL     OW39724   2.649   3.124   2.911 -0.3272  0.6897 -0.3895
 9422SOL    HW139725   2.639   3.092   2.821  0.6654 -2.3360  0.5760
 9422SOL    HW239726   2.692   3.208   2.895  0.4537  0.2487 -0.6188
 9423SOL     OW39727   0.759   2.730   6.696 -0.9114 -0.2811  0.3497
 9423SOL    HW139728   0.720   2.816   6.681  1.3620  0.1093 -3.4098
 9423SOL    HW239729   0.756   2.716   6.791  0.6290  0.3975  0.4930
 9424SOL     OW39730   1.409   2.920  12.905  0.3809  0.0516  0.9301
 9424SOL    HW139731   1.490   2.968  12.923  0.1517  0.4376  0.9190
 9424SOL    HW239732   1.371   2.952  12.823  1.3811 -0.3906  0.2924
 9425SOL     OW39733   2.686   0.709   7.449 -0.2232 -1.1832 -0.1013
 9425SOL    HW139734   2.716   0.649   7.517 -1.0893 -1.2172  0.2520
 9425SOL    HW239735   2.765   0.754   7.418 -1.3548  1.7009  1.1382
 9426SOL     OW39736   1.124   1.727  10.041  0.6169 -0.0019 -0.1563
 9426SOL    HW139737   1.045   1.704  10.090  0.8582 -0.2852  0.1067
 9426SOL    HW239738   1.195   1.742  10.104 -0.8202  0.6567  1.3097
 9427SOL     OW39739   2.415   4.255   6.064 -0.1266  0.2225  0.5267
 9427SOL    HW139740   2.330   4.213   6.078 -0.4017  0.5692 -0.1223
 9427SOL    HW239741   2.469   4.211   6.129  0.2037  1.4545  1.0889
 9428SOL     OW39742   0.606   2.944   6.688 -0.1184  0.1669  0.2697
 9428SOL    HW139743   0.550   2.976   6.758 -1.4731 -0.1180 -0.6899
 9428SOL    HW239744   0.632   3.022   6.639  0.7158 -0.8481 -0.9032
 9429SOL     OW39745   1.663   3.340   6.518 -0.0455 -0.1695 -0.4150
 9429SOL    HW139746   1.729   3.348   6.450  0.4077  0.8276  0.1390
 9429SOL    HW239747   1.611   3.262   6.498 -1.4365  0.6861 -0.1257
 9430SOL     OW39748   1.435   4.670  11.933  0.1208  0.2532 -0.1612
 9430SOL    HW139749   1.378   4.632  11.999  1.3724  0.5112  1.0869
 9430SOL    HW239750   1.523   4.642  11.961 -0.0987 -0.1606  0.1098
 9431SOL     OW39751   0.654   2.052   7.150  0.3464 -1.0142  0.0777
 9431SOL    HW139752   0.583   2.074   7.210 -0.1530 -0.1490 -0.8301
 9431SOL    HW239753   0.649   2.132   7.099  0.6088  1.1074  3.3715
 9432SOL     OW39754   1.724   2.648   7.716 -0.2684 -0.0968  0.3141
 9432SOL    HW139755   1.698   2.728   7.669 -1.1867 -0.2981  0.4841
 9432SOL    HW239756   1.633   2.624   7.730 -0.1743 -2.0531 -2.4063
 9433SOL     OW39757   4.710   3.577   4.570  0.1063 -0.2042 -0.5036
 9433SOL    HW139758   4.711   3.670   4.550 -3.1162 -0.3036 -1.2164
 9433SOL    HW239759   0.009   3.536   4.487  1.0881 -1.2416  0.2922
 9434SOL     OW39760   0.403   1.972   5.652 -0.0651  0.0440 -0.6239
 9434SOL    HW139761   0.319   2.015   5.670  0.8169  1.5632 -0.1368
 9434SOL    HW239762   0.472   2.039   5.656  1.5090 -1.6149 -0.1134
 9435SOL     OW39763   2.771   4.518   8.807  0.1549  0.5742  0.4564
 9435SOL    HW139764   2.782   4.435   8.760 -1.7642  0.9577 -0.6979
 9435SOL    HW239765   2.861   4.547   8.792  0.7399 -1.4870  0.0616
 9436SOL     OW39766   4.324   0.245  10.691 -0.2482  0.1393 -0.0107
 9436SOL    HW139767   4.266   0.307  10.645  0.7644  1.1518  0.0690
 9436SOL    HW239768   4.402   0.266  10.639  0.0029  3.3332  1.6332
 9437SOL     OW39769   0.651   0.366   2.775  0.3606  0.1176  0.1813
 9437SOL    HW139770   0.739   0.404   2.769  1.4182 -2.3351  0.2251
 9437SOL    HW239771   0.656   0.295   2.711 -1.4209 -1.1494  1.4525
 9438SOL     OW39772   2.991   2.769   9.379  1.0057  0.3249  0.3073
 9438SOL    HW139773   2.919   2.819   9.340  2.6497  2.5631  0.1490
 9438SOL    HW239774   3.018   2.714   9.305  0.1325  1.2758 -0.7169
 9439SOL     OW39775   1.923   0.112   7.765  0.1539 -0.1917  0.2477
 9439SOL    HW139776   1.936   0.025   7.804 -2.0640 -0.0206  1.3445
 9439SOL    HW239777   1.882   0.088   7.682 -1.3720 -1.6875  1.4273
 9440SOL     OW39778   1.352   3.151   5.437  0.0503 -1.0737 -0.0001
 9440SOL    HW139779   1.413   3.225   5.430  0.0129 -0.9520  0.9778
 9440SOL    HW239780   1.300   3.170   5.359 -0.4130 -1.9037  0.1125
 9441SOL     OW39781   0.346   1.850  17.357  0.2148 -0.1192 -0.1126
 9441SOL    HW139782   0.297   1.768  17.365 -0.7043  0.3313 -1.1350
 9441SOL    HW239783   0.377   1.841  17.267  0.4863 -0.4583  0.0149
 9442SOL     OW39784   1.259   2.399   3.557 -0.5011 -0.3124 -0.1473
 9442SOL    HW139785   1.340   2.360   3.525  0.0409  1.2924 -0.7320
 9442SOL    HW239786   1.196   2.382   3.487 -1.5895  0.4306  0.6556
 9443SOL     OW39787   1.990   3.236   9.007 -0.1394  0.2083 -0.1637
 9443SOL    HW139788   2.069   3.287   8.992 -1.9101  2.3183 -2.2307
 9443SOL    HW239789   2.033   3.161   9.050  1.4227  0.3419 -1.4787
 9444SOL     OW39790   0.244   0.451   6.675 -0.0862  0.2353  0.0740
 9444SOL    HW139791   0.191   0.459   6.595 -2.7957  0.8218  1.9111
 9444SOL    HW239792   0.174   0.422   6.733  1.4744  0.6870  2.1764
 9445SOL     OW39793   1.026   0.480   8.232 -0.6825  0.3605 -0.7653
 9445SOL    HW139794   1.040   0.419   8.160  2.0097 -0.8864  0.8166
 9445SOL    HW239795   0.995   0.423   8.302  0.2249 -1.3742 -1.7750
 9446SOL     OW39796   4.404   2.952   7.894 -0.7381 -1.2057  0.4620
 9446SOL    HW139797   4.449   2.895   7.831 -1.4209 -0.0071 -1.1096
 9446SOL    HW239798   4.484   2.980   7.937 -1.5436  0.9437  0.5423
 9447SOL     OW39799   3.080   1.244   9.922  0.4012  0.0292  0.3513
 9447SOL    HW139800   3.051   1.310   9.859 -2.1926 -0.6064  0.8878
 9447SOL    HW239801   3.141   1.192   9.869  0.9926 -0.7932  1.8379
 9448SOL     OW39802   3.908   0.084   6.647  0.5927  0.2953  0.5073
 9448SOL    HW139803   3.885   0.085   6.554 -3.1421 -0.4940  1.4223
 9448SOL    HW239804   3.822   0.053   6.676 -0.9731  2.9585 -1.1778
 9449SOL     OW39805   0.606   0.300  12.376 -0.4092 -0.6440 -0.0873
 9449SOL    HW139806   0.536   0.294  12.441 -0.0610  1.9609  0.5362
 9449SOL    HW239807   0.671   0.234  12.400  1.6178  0.9292 -1.2855
 9450SOL     OW39808   0.802   1.591  13.509  0.0677  0.3548  0.3089
 9450SOL    HW139809   0.880   1.610  13.561  0.9179 -0.4465 -0.6643
 9450SOL    HW239810   0.769   1.509  13.548 -0.2870  1.0259  1.4179
 9451SOL     OW39811   2.370   0.843  11.616  0.5930 -0.4921 -0.4462
 9451SOL    HW139812   2.412   0.814  11.535  1.4762 -0.4004 -0.0234
 9451SOL    HW239813   2.414   0.926  11.638  0.2500  0.1177 -2.0545
 9452SOL     OW39814   0.770   1.772  14.282 -0.0376 -0.3816  0.2497
 9452SOL    HW139815   0.856   1.731  14.280  0.4517  0.6634  0.2136
 9452SOL    HW239816   0.775   1.850  14.227 -0.4270  0.9065  2.0572
 9453SOL     OW39817   2.443   0.662   6.581  0.3244 -0.4821  1.2135
 9453SOL    HW139818   2.457   0.571   6.609  2.6790 -0.6366 -0.3811
 9453SOL    HW239819   2.527   0.703   6.601  0.5197 -0.8197  1.0920
 9454SOL     OW39820   1.952   3.945   2.316 -0.4408 -0.4190  0.0260
 9454SOL    HW139821   2.001   3.862   2.320 -0.3471 -0.3240  1.0061
 9454SOL    HW239822   1.864   3.910   2.328 -0.5191 -0.6181 -1.1840
 9455SOL     OW39823   1.658   0.402   1.531 -0.6337  0.6520  0.4207
 9455SOL    HW139824   1.665   0.409   1.626 -0.6053  0.5380  0.4268
 9455SOL    HW239825   1.567   0.372   1.528 -0.8489  1.2264  1.1175
 9456SOL     OW39826   0.762   4.681   6.871  0.1306 -0.1486 -0.1639
 9456SOL    HW139827   0.767   4.723   6.957 -1.2556 -0.7011  0.1901
 9456SOL    HW239828   0.673   4.647   6.882  0.8411 -1.1018  2.5383
 9457SOL     OW39829   2.730   1.715  12.906  0.2524  0.0103 -0.4287
 9457SOL    HW139830   2.652   1.700  12.853 -1.0245  0.0142  1.4452
 9457SOL    HW239831   2.794   1.740  12.840  3.1771 -0.6155  2.1377
 9458SOL     OW39832   1.981   2.589   7.151  0.0197  0.3489 -0.1017
 9458SOL    HW139833   1.966   2.533   7.227 -0.3442  1.7218  0.8483
 9458SOL    HW239834   1.892   2.612   7.124 -0.0347  0.6832  0.3638
 9459SOL     OW39835   2.736   3.664  15.330  0.2518  0.3989 -0.4409
 9459SOL    HW139836   2.795   3.736  15.307  0.7811  0.0597 -0.1603
 9459SOL    HW239837   2.785   3.609  15.392 -0.4409 -0.2961 -0.5107
 9460SOL     OW39838   1.616   1.065   8.172 -0.1523 -0.7704 -0.2415
 9460SOL    HW139839   1.595   1.112   8.092  0.5456  0.0428  0.0600
 9460SOL    HW239840   1.621   0.983   8.121 -1.0902 -1.2541  0.4412
 9461SOL     OW39841   1.201   4.360   9.374  0.2798  0.2010  0.4433
 9461SOL    HW139842   1.276   4.302   9.363 -0.9378 -0.9201 -1.9582
 9461SOL    HW239843   1.233   4.432   9.429  0.3208  0.5223 -0.0072
 9462SOL     OW39844   4.306   0.747   3.312 -0.1396  0.0887  0.0908
 9462SOL    HW139845   4.364   0.822   3.296  0.5341 -0.6791 -1.0806
 9462SOL    HW239846   4.226   0.782   3.351  1.0796  1.9372  0.9226
 9463SOL     OW39847   1.661   0.946   8.741  0.0526  0.1397 -0.1275
 9463SOL    HW139848   1.752   0.965   8.767 -0.3435  0.3164  1.1339
 9463SOL    HW239849   1.647   0.963   8.648 -0.4161 -1.9613 -0.4418
 9464SOL     OW39850   2.804   0.089   4.582  0.1533 -0.1535  0.2840
 9464SOL    HW139851   2.743   0.029   4.624 -0.4432  1.1207  1.2443
 9464SOL    HW239852   2.827   0.142   4.658  1.5348 -0.3809  0.0167
 9465SOL     OW39853   4.525   0.258   8.777 -0.6594  0.1312  0.0894
 9465SOL    HW139854   4.603   0.312   8.769  1.0057 -2.2160  0.5563
 9465SOL    HW239855   4.553   0.177   8.820  1.6868  0.5905 -0.5908
 9466SOL     OW39856   0.444   0.316   6.804  0.0681 -0.3335  0.6801
 9466SOL    HW139857   0.467   0.247   6.742  0.6060  0.3743  0.0800
 9466SOL    HW239858   0.391   0.370   6.745 -0.6557 -2.0649 -0.2431
 9467SOL     OW39859   2.842   1.401   3.464  0.1649  0.5007 -0.1259
 9467SOL    HW139860   2.791   1.327   3.431 -1.6028  1.1720  1.1133
 9467SOL    HW239861   2.779   1.472   3.451 -1.7855 -1.0133  0.9629
 9468SOL     OW39862   0.255   2.117  17.697 -0.2964 -0.0411 -0.5764
 9468SOL    HW139863   0.249   2.024  17.672 -1.5493  0.2904 -1.5278
 9468SOL    HW239864   0.244   2.157  17.610  0.6961  2.5048  0.4809
 9469SOL     OW39865   0.169   1.601  16.624  0.4883 -0.4441 -0.3509
 9469SOL    HW139866   0.192   1.611  16.532 -0.5550 -0.5256 -0.6178
 9469SOL    HW239867   0.226   1.671  16.658 -0.0276  0.4482 -1.3380
 9470SOL     OW39868   2.507   2.694  10.639 -0.5770  0.3395 -0.3900
 9470SOL    HW139869   2.510   2.696  10.735  0.2606 -1.0440 -0.3779
 9470SOL    HW239870   2.429   2.746  10.622 -1.6803 -1.5672 -1.1288
 9471SOL     OW39871   1.362   4.115   6.748  0.5902 -0.1419  0.6356
 9471SOL    HW139872   1.366   4.102   6.653  1.0880 -2.6101  1.0159
 9471SOL    HW239873   1.336   4.207   6.756  0.0264 -0.3208  0.8670
 9472SOL     OW39874   0.818   1.996   2.605  0.1419 -0.2646  0.4752
 9472SOL    HW139875   0.906   2.029   2.624 -0.3831  0.8913  0.9289
 9472SOL    HW239876   0.772   2.074   2.573 -0.0610 -0.8124 -0.5723
 9473SOL     OW39877   0.709   2.321   6.951  0.2613  0.2015  0.4911
 9473SOL    HW139878   0.768   2.334   7.026 -1.7213  0.7260  1.9453
 9473SOL    HW239879   0.716   2.405   6.906 -0.6871 -0.7122 -1.3939
 9474SOL     OW39880   0.247   0.687   3.051 -0.1553  0.2160  0.7742
 9474SOL    HW139881   0.277   0.741   3.123 -1.3202  2.0473 -0.1268
 9474SOL    HW239882   0.195   0.622   3.098 -1.3962 -0.3891 -1.4022
 9475SOL     OW39883   1.232   4.527   1.049 -0.0027  0.3224  0.0195
 9475SOL    HW139884   1.175   4.603   1.058 -0.7835 -0.2740  0.1654
 9475SOL    HW239885   1.222   4.490   1.137 -0.0093  2.3714  0.8890
 9476SOL     OW39886   4.707   3.453   2.726 -0.4343  0.3359 -0.4103
 9476SOL    HW139887   0.014   3.515   2.661 -2.0430  0.1394 -1.4044
 9476SOL    HW239888   0.055   3.394   2.741 -1.4890 -0.4780  1.5050
 9477SOL     OW39889   2.067   0.141   2.521  0.3286  0.3426  0.1295
 9477SOL    HW139890   2.038   0.054   2.492 -0.8541  0.5855  0.5830
 9477SOL    HW239891   2.006   0.199   2.477  1.6664 -0.0054 -2.2141
 9478SOL     OW39892   3.038   3.548   8.087 -1.0146  0.6610  0.1878
 9478SOL    HW139893   3.059   3.632   8.047 -1.2446  1.2976  1.4211
 9478SOL    HW239894   3.117   3.541   8.140 -0.4115  0.3134 -0.7419
 9479SOL     OW39895   2.908   3.568   3.555  0.2680 -0.0086 -0.3060
 9479SOL    HW139896   2.937   3.637   3.614 -1.9166  1.2627 -0.7383
 9479SOL    HW239897   2.960   3.592   3.478  1.1955 -1.6026 -0.1865
 9480SOL     OW39898   2.940   0.057   8.990  0.5632  0.4550  0.0902
 9480SOL    HW139899   2.989   0.006   9.055 -0.3633 -0.9426 -0.3353
 9480SOL    HW239900   2.977   0.024   8.908 -0.3338  1.7707 -0.8446
 9481SOL     OW39901   0.742   4.454   9.201  0.3942  0.6689 -0.3879
 9481SOL    HW139902   0.815   4.393   9.209 -0.3313 -0.2869 -1.1635
 9481SOL    HW239903   0.784   4.537   9.225  0.5627  0.6422 -0.5853
 9482SOL     OW39904   1.250   3.142   8.170 -0.0714  1.0763 -0.1337
 9482SOL    HW139905   1.270   3.192   8.250  0.7088  3.7463 -2.0119
 9482SOL    HW239906   1.332   3.117   8.128 -0.4746 -1.0435  0.3394
 9483SOL     OW39907   0.881   3.691   6.216  0.7303  0.3757  0.0412
 9483SOL    HW139908   0.829   3.754   6.167  2.5446  1.6497 -0.2261
 9483SOL    HW239909   0.908   3.739   6.294  0.5252  0.3836  0.1069
 9484SOL     OW39910   2.694   2.560  11.024 -0.3725 -0.5355  0.4985
 9484SOL    HW139911   2.737   2.604  11.098 -2.6233  2.3574  0.0678
 9484SOL    HW239912   2.651   2.638  10.991 -0.5855 -1.1542 -0.6875
 9485SOL     OW39913   2.519   2.837  10.194  0.2061  0.3114 -0.5923
 9485SOL    HW139914   2.456   2.773  10.161 -1.5604  1.3102  0.8672
 9485SOL    HW239915   2.467   2.867  10.269  2.3357  1.1291  0.5657
 9486SOL     OW39916   2.968   3.799   7.276  0.8143  0.6865  0.1460
 9486SOL    HW139917   2.876   3.803   7.250  0.3506  0.8088  1.8383
 9486SOL    HW239918   2.995   3.873   7.221 -1.7629  1.9864  0.6530
 9487SOL     OW39919   2.148   4.200   2.176  0.2025  0.2223 -0.1546
 9487SOL    HW139920   2.177   4.111   2.158 -2.3438 -0.4071 -1.1132
 9487SOL    HW239921   2.205   4.222   2.250 -1.1255 -0.0260  0.9381
 9488SOL     OW39922   0.641   3.746   7.474  0.4037  0.0590 -0.7023
 9488SOL    HW139923   0.580   3.720   7.406 -0.8224 -2.2959  1.3059
 9488SOL    HW239924   0.711   3.686   7.450 -0.3454 -0.1028 -2.4992
 9489SOL     OW39925   3.176   1.135  17.027 -0.5844  0.1912  0.4953
 9489SOL    HW139926   3.175   1.229  17.045  1.4855  0.3673 -0.2635
 9489SOL    HW239927   3.142   1.137  16.937 -0.3183 -0.2938  0.3806
 9490SOL     OW39928   4.604   2.372   5.240 -0.1984 -0.4678  0.2001
 9490SOL    HW139929   4.600   2.452   5.187  0.1459  1.2519  2.7785
 9490SOL    HW239930   4.631   2.314   5.168 -1.5766  2.4243 -2.6488
 9491SOL     OW39931   2.298   4.724   3.489 -0.3526  0.4102 -0.1832
 9491SOL    HW139932   2.349   4.697   3.566  0.6791  1.2241 -0.5753
 9491SOL    HW239933   2.294   0.093   3.499 -0.0942  0.9600 -5.1183
 9492SOL     OW39934   3.473   0.688   7.307  0.3716 -0.1686  0.0133
 9492SOL    HW139935   3.505   0.775   7.286 -0.0314 -0.3304 -1.2176
 9492SOL    HW239936   3.437   0.647   7.228  0.1019  2.3427 -1.1409
 9493SOL     OW39937   2.983   2.434   1.696  0.2550 -1.1941 -0.8449
 9493SOL    HW139938   2.891   2.459   1.690  0.6833 -0.0930 -2.9485
 9493SOL    HW239939   3.036   2.513   1.700 -1.0942 -0.3279 -0.2727
 9494SOL     OW39940   2.068   3.251   5.264  0.0383 -0.1682 -0.9586
 9494SOL    HW139941   2.049   3.158   5.275  1.3599 -0.1557  1.2654
 9494SOL    HW239942   2.071   3.264   5.169 -0.4623  2.2460 -0.6650
 9495SOL     OW39943   0.493   1.636   6.352 -0.1022  1.0414  0.2405
 9495SOL    HW139944   0.480   1.727   6.325 -0.9904  0.9062  0.2075
 9495SOL    HW239945   0.503   1.587   6.271 -1.3106  1.5699 -0.2282
 9496SOL     OW39946   0.759   1.852  13.503 -0.2759 -0.4700  0.6857
 9496SOL    HW139947   0.850   1.866  13.529 -0.3911  1.8528 -0.1311
 9496SOL    HW239948   0.760   1.757  13.494  0.4330 -0.2075 -1.9805
 9497SOL     OW39949   4.686   2.205  10.678 -0.0714  0.2282 -0.4547
 9497SOL    HW139950   0.034   2.236  10.732  0.2813  0.4834 -1.0805
 9497SOL    HW239951   4.724   2.141  10.618  0.6442  0.5677 -0.3653
 9498SOL     OW39952   0.231   2.614  16.688  0.1854  0.2095  0.1388
 9498SOL    HW139953   0.280   2.692  16.660  2.1051 -1.1569 -0.2955
 9498SOL    HW239954   0.208   2.636  16.778  0.7311  0.2628  0.2656
 9499SOL     OW39955   4.174   4.584   5.458 -0.2083 -0.0475 -0.4829
 9499SOL    HW139956   4.244   4.629   5.505 -1.7749  1.5143  0.3689
 9499SOL    HW239957   4.202   4.604   5.368  0.3288 -1.5590 -0.6459
 9500SOL     OW39958   1.657   1.345  13.273  0.0317  0.1285  0.3112
 9500SOL    HW139959   1.572   1.312  13.245  1.2682 -1.6760 -1.3184
 9500SOL    HW239960   1.712   1.278  13.232  0.0787 -0.5190  1.4087
 9501SOL     OW39961   0.759   0.783  13.341 -0.0507 -0.2086  0.0403
 9501SOL    HW139962   0.828   0.799  13.405 -0.2702  0.7487  0.0251
 9501SOL    HW239963   0.686   0.754  13.396 -0.1023  1.2524  0.7264
 9502SOL     OW39964   1.079   1.686   6.988  0.2326  0.2924 -0.1312
 9502SOL    HW139965   1.162   1.706   7.031  0.0853  1.4442 -0.3938
 9502SOL    HW239966   1.022   1.758   7.017 -0.2673 -0.9244  1.9450
 9503SOL     OW39967   0.672   0.847  17.331  0.4399  0.4638 -0.7975
 9503SOL    HW139968   0.712   0.783  17.273  0.0772 -0.7172  0.2476
 9503SOL    HW239969   0.669   0.913  17.262  1.5328  0.7654 -0.5566
 9504SOL     OW39970   2.631   2.142  16.625 -0.0084  0.0105 -0.4806
 9504SOL    HW139971   2.718   2.166  16.659 -0.0527  0.3423 -0.5962
 9504SOL    HW239972   2.593   2.079  16.686 -0.9400  0.9252 -0.1207
 9505SOL     OW39973   3.090   4.086  11.305 -0.4244  0.7154 -0.1520
 9505SOL    HW139974   3.019   4.054  11.250 -2.0510  1.3319  1.5879
 9505SOL    HW239975   3.044   4.148  11.361  0.6823  0.7634  0.6961
 9506SOL     OW39976   0.404   3.175  12.840  0.5801 -0.7207 -0.2766
 9506SOL    HW139977   0.391   3.119  12.917 -1.8688  1.6458  0.9985
 9506SOL    HW239978   0.326   3.230  12.836  0.3724 -0.9492  0.6406
 9507SOL     OW39979   2.279   3.778   0.497 -0.4078  0.5980  0.2155
 9507SOL    HW139980   2.266   3.864   0.538 -4.5658 -0.0833  0.3488
 9507SOL    HW239981   2.298   3.798   0.406 -0.6750 -3.5742 -0.7491
 9508SOL     OW39982   0.246   2.270   8.415  0.5481 -0.2208  0.4253
 9508SOL    HW139983   0.165   2.237   8.453  0.9624 -2.4879 -0.6346
 9508SOL    HW239984   0.275   2.200   8.356  3.2798 -0.2615  1.8251
 9509SOL     OW39985   4.255   3.132  17.547  0.0647  0.5060 -0.0898
 9509SOL    HW139986   4.302   3.137  17.464 -1.5329 -1.1909 -1.0868
 9509SOL    HW239987   4.205   3.213  17.535 -0.8850  0.2238  2.0641
 9510SOL     OW39988   1.808   0.526   6.141 -0.3005  0.1437  0.7445
 9510SOL    HW139989   1.877   0.462   6.157  0.4455  0.7755  0.0379
 9510SOL    HW239990   1.730   0.484   6.177 -1.1039  1.3880  0.4360
 9511SOL     OW39991   1.621   0.302   7.496  0.6520  0.8552  0.6145
 9511SOL    HW139992   1.697   0.313   7.439 -0.1321 -0.4052 -0.7051
 9511SOL    HW239993   1.584   0.387   7.471 -1.5361 -0.0326  0.8178
 9512SOL     OW39994   1.145   1.295   4.650  0.0417 -0.2340 -0.1404
 9512SOL    HW139995   1.151   1.356   4.724  0.7676 -2.2167  1.4320
 9512SOL    HW239996   1.071   1.327   4.598  1.3488  3.3422  0.1679
 9513SOL     OW39997   3.941   1.224  17.305 -0.4118 -0.3410  0.3385
 9513SOL    HW139998   3.992   1.150  17.271 -1.0520 -0.4815 -0.3080
 9513SOL    HW239999   3.928   1.266  17.220  0.9240  2.2537  1.4047
 9514SOL     OW40000   0.503   3.602  11.514  0.6791 -0.2263 -0.3043
 9514SOL    HW140001   0.510   3.516  11.556 -0.9093  0.8880  2.2056
 9514SOL    HW240002   0.589   3.623  11.476 -0.1237 -1.2500 -2.6845
 9515SOL     OW40003   0.825   3.215   5.910 -0.1188 -0.2512 -0.3906
 9515SOL    HW140004   0.908   3.179   5.942  0.1798 -0.4730 -1.3867
 9515SOL    HW240005   0.813   3.297   5.956 -0.3708 -0.4344 -0.1301
 9516SOL     OW40006   0.677   0.772   2.086  0.0855  0.2245  0.5548
 9516SOL    HW140007   0.620   0.848   2.076  0.6073  0.4738 -0.6053
 9516SOL    HW240008   0.721   0.804   2.165  2.8847 -2.5328  0.1396
 9517SOL     OW40009   0.391   4.161   3.190 -0.3652 -0.4222  0.0160
 9517SOL    HW140010   0.371   4.175   3.098  1.0604  1.4511 -0.0182
 9517SOL    HW240011   0.385   4.066   3.200  0.5972 -0.8352 -3.4742
 9518SOL     OW40012   0.596   2.435   2.562  0.1758  0.4500 -0.2091
 9518SOL    HW140013   0.510   2.477   2.569 -0.2464 -0.1419 -1.8534
 9518SOL    HW240014   0.630   2.457   2.476 -0.8336  0.9423 -0.4895
 9519SOL     OW40015   3.456   1.080   8.359  0.3597  0.0008  0.3062
 9519SOL    HW140016   3.486   0.994   8.329  0.6889  0.1687  0.1518
 9519SOL    HW240017   3.432   1.078   8.452 -1.6764  2.0199 -0.1549
 9520SOL     OW40018   0.811   3.927   0.173  0.3999 -0.2854 -0.0121
 9520SOL    HW140019   0.864   3.950   0.097  0.7262  1.2666  0.6886
 9520SOL    HW240020   0.845   3.840   0.192  2.1696  0.0374 -1.7129
 9521SOL     OW40021   3.356   4.577   4.845 -0.4629  0.0430  0.7151
 9521SOL    HW140022   3.448   4.600   4.838 -0.6438  0.5850  0.0771
 9521SOL    HW240023   3.306   4.653   4.815  1.1902  0.9161  0.1802
 9522SOL     OW40024   0.233   1.117  16.115 -0.5732  0.8261  0.1085
 9522SOL    HW140025   0.178   1.089  16.042  0.8374  0.6118 -0.8733
 9522SOL    HW240026   0.314   1.115  16.064 -2.1981 -2.2065 -2.3500
 9523SOL     OW40027   2.466   3.277   0.047 -0.0980 -0.5333 -0.3773
 9523SOL    HW140028   2.537   3.285   0.112  0.6252  1.6370 -1.4052
 9523SOL    HW240029   2.399   3.331   0.088  0.8186  0.7578 -0.5640
 9524SOL     OW40030   2.486   3.941   7.114 -1.1521 -0.2321  0.0912
 9524SOL    HW140031   2.414   3.971   7.058  0.2850 -1.1921 -2.2524
 9524SOL    HW240032   2.434   3.931   7.194 -0.7024 -0.3644  0.3658
 9525SOL     OW40033   1.392   3.186  14.984 -0.0788 -0.4988 -0.4722
 9525SOL    HW140034   1.458   3.251  15.007  0.6451 -0.4875 -2.6001
 9525SOL    HW240035   1.397   3.202  14.890  0.2386  0.0022 -0.3720
 9526SOL     OW40036   0.924   1.003   7.650  0.6115  0.1587 -0.0903
 9526SOL    HW140037   0.828   0.998   7.647  0.6195  0.2818 -0.5745
 9526SOL    HW240038   0.940   0.908   7.648  1.9250  0.3804  0.3842
 9527SOL     OW40039   0.302   2.725   4.909  0.2553  0.2998  0.4509
 9527SOL    HW140040   0.264   2.683   4.987  0.4138 -0.9717 -0.1614
 9527SOL    HW240041   0.390   2.741   4.942  0.6112  1.3672 -1.0606
 9528SOL     OW40042   0.892   4.258   7.470  0.3482  0.0583  0.2658
 9528SOL    HW140043   0.907   4.170   7.505  1.6728  0.2181  0.1024
 9528SOL    HW240044   0.798   4.273   7.464  0.5251  0.6443 -1.1817
 9529SOL     OW40045   2.698   0.368   4.914  0.7168 -0.2094 -0.0660
 9529SOL    HW140046   2.725   0.380   5.005 -1.2452 -1.0964  0.6239
 9529SOL    HW240047   2.614   0.414   4.913  1.3490  0.9034 -3.0617
 9530SOL     OW40048   3.013   2.890   4.103 -0.2142  0.0842  0.2243
 9530SOL    HW140049   3.006   2.856   4.014  2.3391  1.4577 -0.5160
 9530SOL    HW240050   2.936   2.945   4.118  0.1167  0.9589 -1.2391
 9531SOL     OW40051   3.386   3.423   8.706 -0.1321 -0.2977  0.3365
 9531SOL    HW140052   3.405   3.509   8.667  0.4248 -0.3662  0.4592
 9531SOL    HW240053   3.396   3.443   8.799 -2.3693 -1.5802  0.8480
 9532SOL     OW40054   1.079   0.973   5.977 -0.0010 -0.0133  0.4224
 9532SOL    HW140055   1.143   0.985   6.047  1.3912 -2.2646 -0.4685
 9532SOL    HW240056   1.128   0.949   5.898 -0.9855 -0.0214 -0.1995
 9533SOL     OW40057   2.294   0.457   2.581  0.2986 -0.0721 -0.0238
 9533SOL    HW140058   2.307   0.543   2.621 -0.7636  1.0585 -2.1102
 9533SOL    HW240059   2.213   0.472   2.534  0.7753  0.2947 -0.7267
 9534SOL     OW40060   2.409   3.132   8.745 -0.7007  0.2214  0.4727
 9534SOL    HW140061   2.357   3.182   8.682  2.0964  2.3297 -0.1742
 9534SOL    HW240062   2.348   3.066   8.778 -0.4279 -0.2362  0.0425
 9535SOL     OW40063   1.700   2.865  10.603  0.0551 -0.3825 -0.4254
 9535SOL    HW140064   1.773   2.879  10.664 -0.7291  0.1579  0.3726
 9535SOL    HW240065   1.654   2.949  10.604  3.0126  1.2574 -2.4674
 9536SOL     OW40066   3.491   4.136   9.784  0.1985 -0.2444  0.1678
 9536SOL    HW140067   3.554   4.190   9.737 -0.1600 -0.0145 -0.0509
 9536SOL    HW240068   3.557   4.089   9.834 -0.2100  0.2147  1.1413
 9537SOL     OW40069   3.264   1.901  10.520 -0.5936 -0.3234 -0.1874
 9537SOL    HW140070   3.323   1.826  10.532  0.0097  0.4412  1.6018
 9537SOL    HW240071   3.255   1.944  10.605 -1.1039 -0.0474 -0.3841
 9538SOL     OW40072   3.584   4.259   2.534  0.3342 -0.0378 -0.3880
 9538SOL    HW140073   3.622   4.345   2.551  1.1257 -0.6478  0.8679
 9538SOL    HW240074   3.515   4.267   2.468 -0.4365  1.3504  0.5908
 9539SOL     OW40075   0.314   2.763  12.288  0.3286 -0.1118 -0.4080
 9539SOL    HW140076   0.248   2.694  12.288  0.2896 -0.0553  2.2709
 9539SOL    HW240077   0.394   2.726  12.325  0.3038 -1.1286 -1.3612
 9540SOL     OW40078   2.848   1.036   4.869  0.2748  0.5309  0.8828
 9540SOL    HW140079   2.939   1.057   4.845  0.9818 -2.0603  1.2779
 9540SOL    HW240080   2.845   1.064   4.961 -1.9185 -1.3250  1.3757
 9541SOL     OW40081   0.051   3.172   8.248  0.3977 -0.2016 -0.0545
 9541SOL    HW140082   4.712   3.233   8.283  1.2417  0.5683  0.1654
 9541SOL    HW240083   0.033   3.095   8.301  2.9239  0.7962  2.2475
 9542SOL     OW40084   1.389   3.324   6.253  0.1304  0.0976 -0.1000
 9542SOL    HW140085   1.335   3.381   6.308  0.3753  1.4747 -1.2687
 9542SOL    HW240086   1.343   3.240   6.259 -0.4221  0.4283  0.2547
 9543SOL     OW40087   2.232   2.751   8.347 -1.1516  0.0231 -0.4144
 9543SOL    HW140088   2.304   2.711   8.396 -1.4888 -0.6682 -0.4903
 9543SOL    HW240089   2.208   2.812   8.416 -1.1701 -2.3895  1.7025
 9544SOL     OW40090   4.492   3.128   2.371  0.2158  0.4215  0.2785
 9544SOL    HW140091   4.408   3.118   2.325 -0.5089  0.5443  1.5608
 9544SOL    HW240092   4.503   3.044   2.416  0.1338 -0.1077 -0.6979
 9545SOL     OW40093   0.408   3.161  12.565  0.5839  0.1980 -0.2518
 9545SOL    HW140094   0.366   3.079  12.541 -0.3580  0.8065 -0.7014
 9545SOL    HW240095   0.423   3.141  12.657 -0.3986  0.5410 -0.0152
 9546SOL     OW40096   3.134   3.031  11.448  0.0644 -0.2095  0.1580
 9546SOL    HW140097   3.170   3.120  11.447 -0.0287 -0.1896 -1.2662
 9546SOL    HW240098   3.213   2.994  11.488 -1.6670 -1.6656  2.2318
 9547SOL     OW40099   2.020   4.650   8.726 -0.1226 -0.1297 -0.0605
 9547SOL    HW140100   2.005   0.012   8.693 -0.3462 -1.2142 -2.8716
 9547SOL    HW240101   1.949   4.594   8.694  0.0703 -0.4508  0.0654
 9548SOL     OW40102   1.927   1.318   7.715  0.4543 -0.1967  0.6665
 9548SOL    HW140103   1.847   1.333   7.664 -0.1264  2.7897  2.4608
 9548SOL    HW240104   1.968   1.404   7.705 -3.6007  1.9035  1.8619
 9549SOL     OW40105   1.544   3.962  15.820 -0.5546 -0.0615  0.2248
 9549SOL    HW140106   1.492   4.005  15.888 -2.7193  1.0153 -2.0952
 9549SOL    HW240107   1.484   3.904  15.774 -1.2373 -0.1513  1.2221
 9550SOL     OW40108   0.433   3.715  15.403  0.9252 -0.3648  0.3633
 9550SOL    HW140109   0.371   3.688  15.471  0.2125 -1.1787 -0.6098
 9550SOL    HW240110   0.373   3.751  15.338 -0.9332 -0.1450  2.2027
 9551SOL     OW40111   3.297   1.437   4.150 -0.5043 -0.0070 -0.2107
 9551SOL    HW140112   3.212   1.469   4.181 -0.0878  0.4672  0.4368
 9551SOL    HW240113   3.354   1.431   4.226 -2.0342  0.5408  0.9925
 9552SOL     OW40114   0.843   3.358   3.886  0.2567  0.2134  0.2558
 9552SOL    HW140115   0.789   3.283   3.861 -1.9128  1.1842  2.1011
 9552SOL    HW240116   0.799   3.427   3.836 -1.5681 -1.0246  0.1720
 9553SOL     OW40117   4.268   3.838   5.071  0.0471 -0.2814  0.1149
 9553SOL    HW140118   4.324   3.876   5.004 -1.2886 -1.8700 -1.9006
 9553SOL    HW240119   4.294   3.895   5.144 -0.3671 -0.2974  0.2759
 9554SOL     OW40120   0.744   1.605   7.027 -0.5202 -0.5781 -0.1095
 9554SOL    HW140121   0.725   1.547   6.953  0.6894 -0.3675 -0.5859
 9554SOL    HW240122   0.675   1.671   7.014 -0.9859 -0.8574  0.9369
 9555SOL     OW40123   1.004   4.457   1.757  0.1703 -0.2879  0.1913
 9555SOL    HW140124   1.020   4.483   1.666  1.2289 -1.9293 -0.0956
 9555SOL    HW240125   1.028   4.364   1.760 -1.6236 -0.7087  1.9855
 9556SOL     OW40126   0.515   3.865   2.405  0.2401  0.2359 -0.2909
 9556SOL    HW140127   0.427   3.834   2.427  0.0049  1.4535  0.4846
 9556SOL    HW240128   0.522   3.875   2.310  0.0855 -0.0696 -0.3325
 9557SOL     OW40129   4.679   1.353   4.166 -0.0739  0.7547 -0.2003
 9557SOL    HW140130   4.704   1.348   4.074  0.8392  0.8674  0.0419
 9557SOL    HW240131   4.586   1.329   4.161  0.0986 -0.6152  3.0022
 9558SOL     OW40132   4.641   4.660   9.263  0.3374  0.2302  0.2694
 9558SOL    HW140133   4.632   4.706   9.346  0.6845 -0.9216  0.9479
 9558SOL    HW240134   4.619   4.572   9.294 -1.6818  0.9725  0.9181
 9559SOL     OW40135   1.549   3.266   7.494  0.0664 -0.2946 -0.4684
 9559SOL    HW140136   1.520   3.297   7.408 -0.9821  0.9646  0.3398
 9559SOL    HW240137   1.637   3.303   7.494 -0.8884  1.9745  2.7745
 9560SOL     OW40138   3.346   1.273   7.480 -0.0211 -0.3057 -0.4379
 9560SOL    HW140139   3.426   1.243   7.523  1.7691  0.1939 -3.4376
 9560SOL    HW240140   3.294   1.297   7.557 -1.3122  0.3059 -1.5074
 9561SOL     OW40141   1.742   0.278   5.793  0.3857  0.3199  0.2248
 9561SOL    HW140142   1.651   0.253   5.773  0.1213  2.3228 -1.0123
 9561SOL    HW240143   1.745   0.246   5.883 -1.9114  1.3039  0.6494
 9562SOL     OW40144   0.874   4.307   1.153  0.3353  0.2090  0.4771
 9562SOL    HW140145   0.807   4.247   1.120 -0.7617  0.3136  2.5495
 9562SOL    HW240146   0.943   4.246   1.182  1.8671  1.6324 -0.1902
 9563SOL     OW40147   0.472   1.177  17.168 -0.2089  0.6027  0.2972
 9563SOL    HW140148   0.559   1.138  17.176 -0.4342  0.0769  0.2077
 9563SOL    HW240149   0.425   1.094  17.164  0.0207  0.4486  0.9131
 9564SOL     OW40150   2.965   1.838   9.296  0.0216  0.0867  0.3714
 9564SOL    HW140151   2.877   1.800   9.296  0.8103 -1.7438 -0.4712
 9564SOL    HW240152   2.952   1.932   9.282 -2.1297 -0.2799 -0.1383
 9565SOL     OW40153   4.545   2.184   1.966 -0.1789 -0.0401  0.5081
 9565SOL    HW140154   4.510   2.180   2.055 -0.5504 -1.6454  0.2851
 9565SOL    HW240155   4.476   2.236   1.925 -0.3155  0.2360  1.0968
   4.72579   4.72579  17.70438
